G4.5cooh-PAMAM in water
83667
    1aaa     C1    1   4.937   6.937   8.540  0.3497  0.0643  0.3538
    1aaa     H1    2   4.864   6.899   8.613  0.2511  1.6283  1.0761
    1aaa     H2    3   5.019   6.979   8.599  0.6180 -1.1193  0.8515
    1aaa     C2    4   4.883   7.054   8.459  0.3686 -0.2654  1.1367
    1aaa     H3    5   4.961   7.102   8.400  2.1857 -1.0681  2.8257
    1aaa     H4    6   4.809   7.009   8.392  0.5619  0.6080  0.3359
    1aaa     N1    7   4.802   7.161   8.530  0.4552  0.4352 -0.3366
    1aaa     N2    8   5.001   6.834   8.450  0.3445 -0.2797 -0.4926
    1aaa     C3    9   4.891   6.766   8.373  1.1549 -1.2781 -0.0263
    1aaa     H5   10   4.859   6.820   8.283 -0.5387 -1.8111  0.2363
    1aaa     H6   11   4.813   6.752   8.449  2.2549 -3.7105  0.7157
    1aaa     C4   12   5.128   6.870   8.381  0.9358  0.2804  0.1016
    1aaa     H7   13   5.185   6.786   8.339  0.2089 -0.2523  0.1697
    1aaa     H8   14   5.104   6.926   8.290  1.0298 -0.2407 -0.2406
    1aaa     C5   15   4.869   7.240   8.641  0.8430 -0.3017 -0.4624
    1aaa     H9   16   4.811   7.328   8.672 -0.4645 -0.6604 -1.8256
    1aaa    H10   17   4.867   7.175   8.729  1.0050 -1.9467 -1.6434
    1aaa     C6   18   4.673   7.120   8.577 -0.3797  0.2038  0.2728
    1aaa    H11   19   4.626   7.207   8.625  0.0342  0.4394  0.2556
    1aaa    H12   20   4.677   7.032   8.642 -0.3399  0.1016  0.1326
    1aaa     C7   21   5.011   7.278   8.597  0.2729 -0.2708 -0.2631
    1aaa    H13   22   5.082   7.195   8.607  1.7642  1.0832  0.5411
    1aaa    H14   23   5.017   7.306   8.491  1.3308 -1.6209 -0.5698
    1aaa     C8   24   4.572   7.088   8.461 -0.7172 -0.7435  0.0599
    1aaa    H15   25   4.589   7.163   8.383 -2.1396 -0.8496 -0.3631
    1aaa    H16   26   4.606   6.990   8.423  2.0056  0.2900 -0.3112
    1aaa     C9   27   5.234   6.945   8.458  0.1161 -0.2969  0.3204
    1aaa    H17   28   5.221   6.933   8.566 -1.8749 -1.6697 -0.0524
    1aaa    H18   29   5.337   6.911   8.440  0.1103 -0.2655  0.2326
    1aaa    C10   30   4.940   6.622   8.340  0.6279  0.0189  0.5907
    1aaa    H19   31   5.013   6.626   8.258 -0.8359 -0.4858 -0.7767
    1aaa    H20   32   4.985   6.584   8.432  2.0784  1.4877  0.5146
    1aaa    C11   33   5.244   7.092   8.427  0.4019  0.4081  0.8554
    1aaa    C12   34   4.829   6.541   8.288  0.2093 -0.1679  0.2056
    1aaa    C13   35   5.058   7.382   8.698  0.2766  0.6571 -0.7067
    1aaa    C14   36   4.425   7.098   8.501 -0.0891  0.5099  0.0717
    1aaa     O1   37   5.174   7.153   8.342 -0.5184  0.0977 -0.3377
    1aaa     O2   38   5.038   7.501   8.686  0.1196  0.5163  0.2506
    1aaa     O3   39   4.389   7.109   8.616  0.4387 -0.4234 -0.4863
    1aaa     O4   40   4.741   6.583   8.218  0.9823  0.5069  0.1726
    2bbb     C1   41   5.464   7.340   8.621 -0.0448  0.2696 -0.1213
    2bbb     H1   42   5.407   7.324   8.713  1.6910  1.8302  1.2601
    2bbb     H2   43   5.465   7.448   8.604 -0.9823  0.2967 -0.0162
    2bbb     C2   44   5.378   7.298   8.503 -0.8299 -0.7252  0.3510
    2bbb     H3   45   5.293   7.368   8.502 -0.8956 -0.7800  1.9148
    2bbb     H4   46   5.430   7.316   8.408 -3.0345  1.0398 -0.5634
    2bbb     N1   47   5.604   7.283   8.638 -0.0901 -0.2628  0.1936
    2bbb     C3   48   5.665   7.344   8.759  0.0923 -0.3377  0.3218
    2bbb     H5   49   5.639   7.450   8.747 -3.6352 -1.5027 -3.1919
    2bbb     H6   50   5.773   7.323   8.755 -0.0259 -1.3742  1.7580
    2bbb     C4   51   5.688   7.321   8.524 -0.9172  0.8865 -0.3110
    2bbb     H7   52   5.630   7.325   8.431 -0.7037  2.3360 -0.3980
    2bbb     H8   53   5.740   7.418   8.536  0.1054  0.5724 -2.0898
    2bbb     C5   54   5.797   7.213   8.494  0.6046 -0.9394  0.5226
    2bbb     H9   55   5.861   7.200   8.583  0.4390  1.8104  1.0823
    2bbb    H10   56   5.752   7.117   8.468 -0.3783 -0.1667 -0.6486
    2bbb     C6   57   5.613   7.287   8.887  0.4940 -0.8928  0.3728
    2bbb    H11   58   5.510   7.321   8.904  0.4750  0.2516 -1.8512
    2bbb    H12   59   5.607   7.178   8.888 -1.9660 -0.7717  0.5887
    2bbb     C7   60   5.872   7.262   8.376 -1.2756  0.7434 -0.4099
    2bbb     C8   61   5.695   7.336   8.999 -0.4185  0.1304  1.0157
    2bbb     O1   62   5.947   7.364   8.379 -0.5690 -0.3089  0.2497
    2bbb     O2   63   5.676   7.439   9.061 -0.0656 -0.3507 -0.2200
    2bbb     N4   64   5.338   7.156   8.509  0.5163 -0.3944  0.5180
    2bbb    H21   65   5.390   7.090   8.566 -0.5552  0.2604  2.2873
    3bbb     C1   66   4.632   6.267   8.354  0.1809  0.0364  0.5972
    3bbb     H1   67   4.556   6.229   8.285  0.3609 -0.3452  0.6165
    3bbb     H2   68   4.593   6.365   8.386 -1.2394  0.4780 -2.3252
    3bbb     C2   69   4.763   6.297   8.269  0.7340  0.0231  0.7541
    3bbb     H3   70   4.824   6.207   8.255  1.5824  0.6863  0.1388
    3bbb     H4   71   4.725   6.326   8.170 -1.4922 -0.5694  1.4086
    3bbb     N1   72   4.653   6.168   8.460  0.0008  0.0655 -0.1444
    3bbb     C3   73   4.752   6.201   8.567 -0.4509  0.6027  0.2579
    3bbb     H5   74   4.853   6.211   8.524 -0.4112  0.5673  0.3430
    3bbb     H6   75   4.759   6.113   8.633 -1.1542  1.6465  1.7459
    3bbb     C4   76   4.523   6.118   8.512 -0.3876  0.3354  0.2127
    3bbb     H7   77   4.540   6.088   8.616  1.5611  1.8265  0.3599
    3bbb     H8   78   4.446   6.197   8.514  0.1636  0.8531  1.0483
    3bbb     C5   79   4.467   6.006   8.429 -0.1905  0.2241 -0.0429
    3bbb     H9   80   4.365   5.983   8.461 -0.0947  1.4908  1.2599
    3bbb    H10   81   4.462   6.030   8.323 -0.8951  0.1491 -0.0297
    3bbb     C6   82   4.708   6.319   8.650  0.2024  0.1808  0.0710
    3bbb    H11   83   4.687   6.403   8.582  0.8909  0.8047  0.6232
    3bbb    H12   84   4.614   6.292   8.699  1.7830 -0.2733  2.9440
    3bbb     C7   85   4.537   5.879   8.450  0.3098 -0.7889  0.3598
    3bbb     C8   86   4.808   6.363   8.744  0.2168  0.6885  0.3720
    3bbb     O1   87   4.519   5.804   8.545  0.6271 -0.4452  0.0649
    3bbb     O2   88   4.887   6.456   8.725 -0.2127 -0.5174 -0.1366
    3bbb     N4   89   4.844   6.409   8.324  0.0364  0.2654  0.0694
    3bbb    H21   90   4.929   6.386   8.374 -0.6705 -0.9800  0.7431
    4bbb     C1   91   5.263   7.461   8.975  0.0146 -0.6867  0.4620
    4bbb     H1   92   5.309   7.520   8.895 -1.6693 -3.6820 -2.9004
    4bbb     H2   93   5.333   7.379   8.996  0.2499  0.0877  2.7711
    4bbb     C2   94   5.124   7.410   8.941  0.2324  0.1657  0.2502
    4bbb     H3   95   5.098   7.344   9.025 -2.0850 -0.7333 -1.1243
    4bbb     H4   96   5.046   7.485   8.955 -0.3227 -0.4421  0.4294
    4bbb     N1   97   5.269   7.550   9.096  0.2196 -0.0815 -0.0444
    4bbb     C3   98   5.185   7.674   9.088 -0.6416  0.1306 -1.2636
    4bbb     H5   99   5.193   7.749   9.168 -0.8685 -0.6134 -0.5426
    4bbb     H6  100   5.079   7.645   9.083 -0.2499 -1.7865  0.9444
    4bbb     C4  101   5.254   7.481   9.225 -0.2074 -0.9639 -0.4898
    4bbb     H7  102   5.154   7.493   9.267 -0.5676  0.1014 -1.6169
    4bbb     H8  103   5.276   7.373   9.227 -0.6142 -1.0832 -1.9012
    4bbb     C5  104   5.342   7.559   9.324  0.0918  0.2465  0.3481
    4bbb     H9  105   5.446   7.553   9.290 -0.8961  0.5873 -2.9553
    4bbb    H10  106   5.325   7.667   9.330  1.2801  0.5028 -0.7252
    4bbb     C6  107   5.217   7.747   8.966  0.1672  0.0802  0.2683
    4bbb    H11  108   5.325   7.767   8.971 -0.0400  0.7451  2.4225
    4bbb    H12  109   5.196   7.686   8.877  3.3039 -1.2564  0.3901
    4bbb     C7  110   5.346   7.502   9.465 -1.1950 -0.9653  0.1512
    4bbb     C8  111   5.143   7.876   8.933  0.1109  0.0109  0.2977
    4bbb     O1  112   5.382   7.390   9.485 -0.5197  0.0921  0.4352
    4bbb     O2  113   5.062   7.927   9.003  0.0721  0.0537  0.3609
    4bbb     N4  114   5.123   7.334   8.812  0.0942 -0.6873  0.0527
    4bbb    H21  115   5.145   7.235   8.807 -3.3507 -1.4558 -2.2867
    5bbb     C1  116   4.105   6.969   8.396  0.4288 -0.0846  0.2353
    5bbb     H1  117   3.999   6.981   8.371  0.4985  1.2306  0.5434
    5bbb     H2  118   4.114   6.910   8.489 -1.6911  0.7036  0.9525
    5bbb     C2  119   4.183   7.102   8.416  0.2402  0.1121  0.2762
    5bbb     H3  120   4.158   7.189   8.354 -0.1876 -0.7251 -0.7496
    5bbb     H4  121   4.159   7.126   8.520  0.4365  1.0630  0.1010
    5bbb     N1  122   4.163   6.881   8.287  0.2454  0.3899  0.1030
    5bbb     C3  123   4.181   6.947   8.155  0.5160  0.4030 -1.1553
    5bbb     H5  124   4.210   7.050   8.178  3.0039 -0.0599 -2.0196
    5bbb     H6  125   4.093   6.946   8.090  0.6138  0.2226 -1.2854
    5bbb     C4  126   4.071   6.772   8.264 -0.4023  0.1135 -0.0108
    5bbb     H7  127   3.969   6.811   8.258 -1.2578 -2.0377 -0.0039
    5bbb     H8  128   4.101   6.720   8.172  2.4019  1.8945 -0.1544
    5bbb     C5  129   4.087   6.679   8.380 -0.5051 -0.6837  0.0054
    5bbb     H9  130   4.194   6.658   8.386  0.0337  0.9757 -2.8817
    5bbb    H10  131   4.041   6.718   8.472  3.2780 -0.6293  1.9625
    5bbb     C6  132   4.300   6.889   8.077  1.1358 -0.2686  0.3778
    5bbb    H11  133   4.391   6.910   8.135  0.7291 -0.0202  0.9369
    5bbb    H12  134   4.290   6.781   8.060 -1.1364 -0.1200  0.5582
    5bbb     C7  135   4.030   6.551   8.327 -0.5221  0.0202 -0.0517
    5bbb     C8  136   4.310   6.948   7.936  0.1629 -0.3736 -0.0695
    5bbb     O1  137   3.908   6.534   8.317 -0.4363 -0.1487 -0.1145
    5bbb     O2  138   4.257   6.900   7.846 -0.3135 -0.2687  0.5490
    5bbb     N4  139   4.331   7.088   8.404 -0.3771 -0.4251 -0.0244
    5bbb    H21  140   4.379   7.081   8.316 -1.0004  0.2310 -0.4224
    6bbb     C1  141   5.886   7.085   8.044  0.0576 -0.9490 -0.2297
    6bbb     H1  142   5.794   7.124   7.999  0.8136 -1.5168 -2.3402
    6bbb     H2  143   5.847   7.000   8.101  1.5306 -0.9817  0.7700
    6bbb     C2  144   5.941   7.196   8.137 -0.1317 -0.7046  0.3121
    6bbb     H3  145   6.049   7.177   8.143 -0.0046 -0.1542 -0.2061
    6bbb     H4  146   5.921   7.294   8.093 -1.0577 -0.3018  1.5953
    6bbb     N1  147   5.968   7.064   7.928  0.4273 -0.6688  0.0026
    6bbb     C3  148   5.989   7.188   7.845 -0.4366 -0.0069 -0.2881
    6bbb     H5  149   6.060   7.161   7.766 -0.3036  0.3910 -0.3027
    6bbb     H6  150   6.033   7.263   7.911 -0.1488  1.5763 -2.2392
    6bbb     C4  151   6.081   6.975   7.937 -0.6494 -0.0620 -0.1926
    6bbb     H7  152   6.115   6.957   7.834  0.6463  0.3167  0.1696
    6bbb     H8  153   6.156   7.020   8.002 -1.5800 -0.6509  1.3145
    6bbb     C5  154   6.044   6.843   7.990  0.2329 -0.0080  0.4486
    6bbb     H9  155   6.017   6.849   8.096 -0.1591 -1.4166  0.4428
    6bbb    H10  156   5.960   6.806   7.930  0.3066  1.9784 -0.9428
    6bbb     C6  157   5.860   7.240   7.791  0.1496  0.0357  0.3655
    6bbb    H11  158   5.793   7.153   7.782 -0.4204  0.7326 -2.3626
    6bbb    H12  159   5.820   7.329   7.842 -1.1616  0.2240 -0.9511
    6bbb     C7  160   6.170   6.752   7.969  0.6732  0.1232  0.2340
    6bbb     C8  161   5.897   7.274   7.653  0.3197  0.0203 -0.0471
    6bbb     O1  162   6.181   6.668   7.880  0.6006 -0.1868  0.0845
    6bbb     O2  163   5.861   7.198   7.560  0.0286 -0.4065  0.3549
    6bbb     N4  164   5.861   7.183   8.259 -0.1508 -0.1451 -1.0974
    6bbb    H21  165   5.797   7.106   8.271 -0.0727  0.1920  1.7909
    7bbb     C1  166   6.030   7.182   9.119 -0.1973  0.0633 -0.7668
    7bbb     H1  167   6.068   7.163   9.018 -1.1648 -1.5049 -0.8573
    7bbb     H2  168   5.983   7.087   9.150 -0.8832  0.6693  0.0913
    7bbb     C2  169   5.907   7.279   9.120 -0.0580 -0.2846 -0.2386
    7bbb     H3  170   5.863   7.272   9.221 -2.4641  0.1521 -1.2141
    7bbb     H4  171   5.931   7.384   9.101 -2.2185  0.1769 -0.5709
    7bbb     N1  172   6.135   7.207   9.218 -0.0208  0.1876 -0.6041
    7bbb     C3  173   6.215   7.320   9.163  0.1550  0.1988  0.4152
    7bbb     H5  174   6.169   7.418   9.175 -0.1240  0.0885  0.2397
    7bbb     H6  175   6.230   7.299   9.057 -0.4396 -2.0810  0.7576
    7bbb     C4  176   6.097   7.236   9.360  0.2095  0.1955 -0.0010
    7bbb     H7  177   6.184   7.262   9.421 -0.8941  1.0435  1.2302
    7bbb     H8  178   6.028   7.321   9.358  0.5082  0.5252  2.6438
    7bbb     C5  179   6.044   7.110   9.423  0.6899  0.8682  0.0291
    7bbb     H9  180   5.952   7.078   9.372  2.8007 -1.4181 -2.4477
    7bbb    H10  181   6.119   7.030   9.420 -0.8848 -0.5997 -1.5381
    7bbb     C6  182   6.351   7.330   9.230 -0.1466  0.2448  0.1582
    7bbb    H11  183   6.337   7.366   9.333 -0.6464 -0.0643  0.1986
    7bbb    H12  184   6.402   7.233   9.232  2.1576  1.4040  1.5450
    7bbb     C7  185   6.018   7.139   9.566  1.2130  0.1374  0.5623
    7bbb     C8  186   6.438   7.431   9.148 -0.0854 -1.0757 -0.1860
    7bbb     O1  187   6.026   7.246   9.619  0.4393 -0.4489  0.5384
    7bbb     O2  188   6.507   7.397   9.057 -0.5008  0.4152  0.6513
    7bbb     N4  189   5.801   7.253   9.028  0.2717  0.3279  0.1881
    7bbb    H21  190   5.810   7.178   8.961 -3.3926  0.8904 -1.0572
    8bbb     C1  191   4.809   5.747   8.220  0.0072  0.0488 -0.0456
    8bbb     H1  192   4.754   5.738   8.125 -0.0676  2.2952 -0.2387
    8bbb     H2  193   4.886   5.670   8.229  1.0846  1.0985 -0.0776
    8bbb     C2  194   4.717   5.739   8.345  0.1652  0.2553 -0.1734
    8bbb     H3  195   4.665   5.643   8.350 -0.0262  0.4115  0.9921
    8bbb     H4  196   4.784   5.756   8.431  0.9084  0.8141 -0.8509
    8bbb     N1  197   4.874   5.878   8.223 -0.2910 -0.1671  0.2775
    8bbb     C3  198   4.891   5.927   8.086 -0.2256 -0.2677  0.1385
    8bbb     H5  199   4.918   5.851   8.012  2.3262  1.5903 -0.9390
    8bbb     H6  200   4.970   6.003   8.092 -1.0486  0.5047  1.3463
    8bbb     C4  201   4.993   5.884   8.308 -0.4846  0.4044  0.8201
    8bbb     H7  202   4.973   5.828   8.401 -0.5608  0.6940  0.9747
    8bbb     H8  203   5.073   5.844   8.244 -0.6012 -0.7896  1.4001
    8bbb     C5  204   5.035   6.024   8.351 -0.7004 -0.3026 -0.0190
    8bbb     H9  205   5.024   6.096   8.269  0.3915  0.5742  0.5779
    8bbb    H10  206   4.968   6.050   8.435 -0.3621  0.3938  0.0406
    8bbb     C6  207   4.759   5.989   8.047  0.2722 -0.1613 -0.0777
    8bbb    H11  208   4.676   5.921   8.026 -0.5064 -0.2637  3.1214
    8bbb    H12  209   4.726   6.061   8.122  1.0766 -0.3724  0.4869
    8bbb     C7  210   5.177   6.014   8.401  0.2313 -0.2651 -0.7027
    8bbb     C8  211   4.778   6.070   7.927 -0.1313  0.3031 -0.2591
    8bbb     O1  212   5.188   6.002   8.520  0.1847  0.0014  0.4610
    8bbb     O2  213   4.803   6.186   7.933  0.1806 -0.2856 -0.0452
    8bbb     N4  214   4.624   5.850   8.347 -0.1368  0.6109 -0.4646
    8bbb    H21  215   4.651   5.928   8.288  1.6395  0.5167  0.1921
    9bbb     C1  216   4.889   6.182   9.072  0.4230 -0.6649  0.2746
    9bbb     H1  217   4.905   6.088   9.018  1.2264 -0.0663 -0.5534
    9bbb     H2  218   4.784   6.175   9.102 -0.3228 -1.6876 -2.4292
    9bbb     C2  219   4.899   6.298   8.966 -0.1400  0.3497  0.2481
    9bbb     H3  220   4.876   6.387   9.027 -0.5543  0.7804 -0.5241
    9bbb     H4  221   5.005   6.302   8.938 -0.2438 -1.4409 -0.4157
    9bbb     N1  222   4.965   6.190   9.190 -0.2577 -0.4667 -0.1098
    9bbb     C3  223   5.103   6.133   9.183  0.7985  0.1390 -0.2683
    9bbb     H5  224   5.180   6.208   9.161 -0.6388  1.7130 -0.0141
    9bbb     H6  225   5.116   6.065   9.098  3.0847  0.6258 -0.3284
    9bbb     C4  226   4.953   6.300   9.286 -0.4989  0.0550 -0.0924
    9bbb     H7  227   5.004   6.282   9.381  0.2178 -1.4639 -0.7544
    9bbb     H8  228   4.996   6.389   9.238 -0.2691  0.9278  1.6862
    9bbb     C5  229   4.810   6.335   9.324 -0.3367 -0.2716  0.2227
    9bbb     H9  230   4.787   6.414   9.252 -1.0881 -0.4851  0.2233
    9bbb    H10  231   4.745   6.246   9.318 -1.9449  0.8702  0.4381
    9bbb     C6  232   5.146   6.064   9.310 -0.2704  0.0969  0.4904
    9bbb    H11  233   5.128   6.131   9.395 -0.1338  0.5076  0.1918
    9bbb    H12  234   5.084   5.974   9.317 -1.0777  0.6530  0.5102
    9bbb     C7  235   4.799   6.394   9.464  0.0064  0.6519 -0.0813
    9bbb     C8  236   5.284   6.002   9.311  0.2673  0.5872 -0.5353
    9bbb     O1  237   4.724   6.350   9.554  0.3271  0.0038  0.4297
    9bbb     O2  238   5.363   6.014   9.221 -0.2559 -0.0780 -0.3081
    9bbb     N4  239   4.807   6.282   8.853 -0.4983 -0.0693 -0.0108
    9bbb    H21  240   4.744   6.204   8.836 -2.2590  1.1372  0.8530
   10bbb     C1  241   5.219   7.575   9.791  0.1043  0.0755 -0.1057
   10bbb     H1  242   5.165   7.482   9.770 -0.4142  0.2531  0.4487
   10bbb     H2  243   5.152   7.657   9.763 -1.6395 -1.4127 -0.3423
   10bbb     C2  244   5.350   7.585   9.714  0.8102 -0.6198  0.0370
   10bbb     H3  245   5.409   7.666   9.758 -0.3726  1.3321 -1.8339
   10bbb     H4  246   5.417   7.500   9.733  1.7834  0.2128  0.3777
   10bbb     N1  247   5.264   7.589   9.931 -0.5415 -0.4203  0.1095
   10bbb     C3  248   5.256   7.461   9.997  0.7650 -0.3054 -0.3327
   10bbb     H5  249   5.276   7.384   9.921  0.8459  0.4443 -1.0780
   10bbb     H6  250   5.156   7.444  10.038  1.2351  0.6814  1.2508
   10bbb     C4  251   5.206   7.706   9.993 -0.9045  0.6164 -0.0381
   10bbb     H7  252   5.099   7.709   9.971 -0.2770  1.2422 -3.1801
   10bbb     H8  253   5.223   7.704  10.101  2.1281 -0.9034 -0.4676
   10bbb     C5  254   5.283   7.824   9.938 -0.3336  0.5143  0.7506
   10bbb     H9  255   5.388   7.821   9.968  0.1060  2.7277 -0.4857
   10bbb    H10  256   5.273   7.837   9.830  1.7945  0.3367  0.5232
   10bbb     C6  257   5.357   7.446  10.102  0.1639  0.0959  0.2928
   10bbb    H11  258   5.457   7.484  10.076  1.3657 -1.1444  2.9144
   10bbb    H12  259   5.327   7.512  10.183 -0.3818  0.7755 -0.4560
   10bbb     C7  260   5.228   7.951   9.989  1.1628  0.1839  0.1967
   10bbb     C8  261   5.361   7.309  10.163 -0.6028  0.3240  0.4738
   10bbb     O1  262   5.279   8.005  10.083 -0.5827 -0.0837  0.2132
   10bbb     O2  263   5.262   7.259  10.219 -0.4863 -0.2310  0.0947
   10bbb     N4  264   5.327   7.600   9.567 -0.3086 -0.0427  0.2083
   10bbb    H21  265   5.286   7.690   9.545  0.2011  0.6738  2.0299
   11bbb     C1  266   5.233   8.188   8.794 -0.8653 -0.5951  0.0908
   11bbb     H1  267   5.242   8.189   8.904  1.8609 -0.3598 -0.1106
   11bbb     H2  268   5.183   8.279   8.760  0.3174 -0.0620 -0.2409
   11bbb     C2  269   5.148   8.063   8.757 -0.0528 -0.3974 -0.6684
   11bbb     H3  270   5.049   8.090   8.797  0.1045  0.7347 -1.0274
   11bbb     H4  271   5.132   8.042   8.650  0.4130 -0.1619 -0.7841
   11bbb     N1  272   5.367   8.181   8.730 -0.4258  0.3129 -0.2176
   11bbb     C3  273   5.472   8.253   8.812  0.3332 -0.1845 -0.3182
   11bbb     H5  274   5.426   8.318   8.887  0.5031 -0.4085 -0.0243
   11bbb     H6  275   5.548   8.295   8.745 -1.3552 -0.9672 -2.8295
   11bbb     C4  276   5.372   8.184   8.587 -0.3081 -0.3380  0.4025
   11bbb     H7  277   5.281   8.142   8.543 -0.9824  0.1021  1.3492
   11bbb     H8  278   5.375   8.286   8.547  2.6228 -0.3332  0.5119
   11bbb     C5  279   5.494   8.101   8.545 -0.4428 -0.0407  0.2884
   11bbb     H9  280   5.580   8.152   8.591 -0.0020 -0.6461  0.1339
   11bbb    H10  281   5.486   7.995   8.573  4.7638 -0.5009  0.6324
   11bbb     C6  282   5.537   8.143   8.886  0.1329 -0.4912  0.3632
   11bbb    H11  283   5.467   8.067   8.923  0.3388 -1.3579 -0.9791
   11bbb    H12  284   5.596   8.088   8.811  0.4035  0.9761 -0.5327
   11bbb     C7  285   5.510   8.119   8.397 -0.0467  0.0719  0.2037
   11bbb     C8  286   5.627   8.204   8.985 -0.4945  0.3978 -0.0165
   11bbb     O1  287   5.436   8.189   8.331  0.4081  0.2701  0.0412
   11bbb     O2  288   5.722   8.272   8.955 -0.1100 -0.2520  0.0835
   11bbb     N4  289   5.188   7.932   8.815 -0.3391  0.5769 -0.4061
   11bbb    H21  290   5.273   7.888   8.783  0.0891  1.0694  0.0376
   12bbb     C1  291   4.069   6.221   8.259 -0.0695  0.4103 -0.1625
   12bbb     H1  292   4.055   6.253   8.363 -1.1529 -0.8451  0.0934
   12bbb     H2  293   4.161   6.161   8.254 -1.1977 -1.4899  1.4008
   12bbb     C2  294   4.086   6.354   8.185  0.2341 -0.7179  0.1981
   12bbb     H3  295   4.164   6.336   8.110 -0.2872  0.2862 -0.5864
   12bbb     H4  296   3.986   6.368   8.143  0.6258 -0.9525 -0.8250
   12bbb     N1  297   3.950   6.144   8.227 -0.9271  0.4759  0.0975
   12bbb     C3  298   3.945   6.027   8.319  0.4270 -0.4523  0.1805
   12bbb     H5  299   4.039   5.972   8.325  0.9694  0.4716  0.1396
   12bbb     H6  300   3.873   5.955   8.277  0.4096 -0.7827  0.7741
   12bbb     C4  301   3.951   6.116   8.082  0.0995  0.4838  0.3090
   12bbb     H7  302   3.993   6.197   8.020 -0.3317  0.6597  0.2462
   12bbb     H8  303   4.008   6.023   8.070  0.8789  0.6877  2.1670
   12bbb     C5  304   3.817   6.086   8.027 -0.0277  0.3376  0.1480
   12bbb     H9  305   3.757   6.038   8.104  0.0868  2.1877  1.4173
   12bbb    H10  306   3.763   6.180   8.007 -0.6570 -0.0719 -0.0791
   12bbb     C6  307   3.880   6.072   8.447  0.4375  0.4531  0.2595
   12bbb    H11  308   3.881   5.984   8.513  0.8641  0.6623  0.5312
   12bbb    H12  309   3.944   6.136   8.509  0.6551  0.7810 -0.3008
   12bbb     C7  310   3.823   6.010   7.896 -0.1392 -0.1047 -0.1196
   12bbb     C8  311   3.735   6.111   8.432  0.0046  0.0865  0.8571
   12bbb     O1  312   3.917   5.979   7.834  0.2597  0.7451 -0.1093
   12bbb     O2  313   3.662   6.055   8.358  0.3488 -0.0130  0.1847
   12bbb     N4  314   4.120   6.466   8.274 -0.1738 -0.0344 -0.6339
   12bbb    H21  315   4.217   6.489   8.290 -0.3524 -0.9748  2.1878
   13bbb     C1  316   4.564   7.020   7.713 -0.0552 -0.2446 -0.8032
   13bbb     H1  317   4.509   6.933   7.675 -0.8518 -0.7938  1.5289
   13bbb     H2  318   4.635   6.988   7.791 -3.4646 -1.0060  2.1064
   13bbb     C2  319   4.449   7.102   7.779  0.6768 -0.0685 -0.2801
   13bbb     H3  320   4.473   7.208   7.793  1.6776 -0.4472  1.0109
   13bbb     H4  321   4.375   7.084   7.700  0.6647  2.2091 -0.8138
   13bbb     N1  322   4.634   7.095   7.608  0.2451  0.2816 -0.1409
   13bbb     C3  323   4.556   7.137   7.497 -0.0100 -0.0554 -0.2070
   13bbb     H5  324   4.624   7.190   7.429  0.2401 -0.4769 -0.2868
   13bbb     H6  325   4.477   7.210   7.520 -1.6263 -1.3449 -1.5386
   13bbb     C4  326   4.711   7.208   7.651  0.4970  0.0108 -0.2597
   13bbb     H7  327   4.654   7.301   7.658 -0.2279 -0.4219 -0.3647
   13bbb     H8  328   4.761   7.184   7.746 -0.9471  0.5795  0.6652
   13bbb     C5  329   4.840   7.227   7.564  0.4643 -0.1490 -0.7471
   13bbb     H9  330   4.909   7.151   7.604 -1.4272 -1.3418  0.3141
   13bbb    H10  331   4.830   7.192   7.461 -1.3572  0.0383 -0.6409
   13bbb     C6  332   4.506   7.024   7.414 -0.0827  0.2679  0.0620
   13bbb    H11  333   4.581   6.952   7.381  0.1876  1.1096 -1.1743
   13bbb    H12  334   4.431   6.964   7.468 -1.1913  0.5870 -1.0912
   13bbb     C7  335   4.907   7.356   7.573 -0.0363 -0.0963  0.9133
   13bbb     C8  336   4.426   7.073   7.304 -0.2777 -0.2096 -0.7254
   13bbb     O1  337   4.860   7.457   7.530  0.4999 -0.0872 -0.0252
   13bbb     O2  338   4.387   7.184   7.291  0.6998  0.1098 -0.1706
   13bbb     N4  339   4.405   7.051   7.914 -0.1633  1.2176  0.3567
   13bbb    H21  340   4.447   7.093   7.996 -1.3094  1.3526  0.8707
   14bbb     C1  341   6.517   6.773   8.093  0.3930  0.3845  0.1388
   14bbb     H1  342   6.508   6.811   8.196 -0.4646  1.7155 -0.4208
   14bbb     H2  343   6.521   6.858   8.024 -2.3066  0.6377  0.2506
   14bbb     C2  344   6.395   6.690   8.064  0.4239  0.2438 -0.0663
   14bbb     H3  345   6.414   6.640   7.969  1.1767  0.3361  0.0247
   14bbb     H4  346   6.372   6.615   8.140 -0.2440  1.2592  0.7495
   14bbb     N1  347   6.634   6.678   8.076 -0.1600  0.2826  0.1985
   14bbb     C3  348   6.634   6.551   8.154  0.2704  0.5878 -0.3113
   14bbb     H5  349   6.724   6.491   8.134 -0.2499 -0.5361  0.7237
   14bbb     H6  350   6.550   6.493   8.114  2.2647 -1.7893 -1.1733
   14bbb     C4  351   6.761   6.746   8.096  0.0553 -0.7870 -0.5471
   14bbb     H7  352   6.752   6.804   8.188  1.5928 -2.1860  0.5196
   14bbb     H8  353   6.844   6.676   8.111 -1.0013 -1.8527  0.3976
   14bbb     C5  354   6.786   6.836   7.969  0.3643  1.0027  0.5229
   14bbb     H9  355   6.774   6.773   7.880 -1.3290 -0.2593  1.6259
   14bbb    H10  356   6.709   6.912   7.955  0.3234  0.9790  0.6179
   14bbb     C6  357   6.634   6.567   8.302  0.1498 -0.0619 -0.0536
   14bbb    H11  358   6.738   6.595   8.324  0.1207  0.4423 -0.5493
   14bbb    H12  359   6.568   6.648   8.337  1.5622  1.0273  0.1357
   14bbb     C7  360   6.916   6.910   7.965 -0.0870 -0.5451  0.1254
   14bbb     C8  361   6.586   6.443   8.364 -0.6062  0.3087 -0.0042
   14bbb     O1  362   7.017   6.855   7.928  0.4019  0.2427  0.2352
   14bbb     O2  363   6.658   6.350   8.379  0.4567 -0.1073  0.0370
   14bbb     N4  364   6.274   6.773   8.052  0.0447  0.9938 -0.3605
   14bbb    H21  365   6.254   6.844   8.121 -0.7754  0.1088  0.3343
   15bbb     C1  366   5.866   7.523   7.451 -0.0214  0.0553  0.1118
   15bbb     H1  367   5.844   7.606   7.519 -1.5595  1.4717 -2.0651
   15bbb     H2  368   5.788   7.446   7.455  2.4071 -2.6099 -1.7596
   15bbb     C2  369   5.991   7.456   7.507 -0.0488 -0.3224 -0.4632
   15bbb     H3  370   6.019   7.374   7.440  1.0915  1.0728 -1.7332
   15bbb     H4  371   6.080   7.521   7.509  0.6641 -1.3154  1.2189
   15bbb     N1  372   5.881   7.589   7.318 -0.8834  0.2578 -0.2298
   15bbb     C3  373   5.895   7.491   7.209 -0.7405 -0.5478 -0.6888
   15bbb     H5  374   5.797   7.450   7.181 -0.7833 -0.6506 -0.3963
   15bbb     H6  375   5.961   7.412   7.247 -2.2117 -0.2568  2.6881
   15bbb     C4  376   5.770   7.676   7.276  0.0592 -0.1928  0.3566
   15bbb     H7  377   5.779   7.702   7.170 -1.2870 -2.6526 -0.3853
   15bbb     H8  378   5.688   7.604   7.288  0.3356 -0.2122  2.2758
   15bbb     C5  379   5.783   7.799   7.364  0.0901  0.0066  0.1351
   15bbb     H9  380   5.738   7.764   7.457  1.1610  0.0949  0.6951
   15bbb    H10  381   5.884   7.832   7.393 -1.7173  2.9035  3.6147
   15bbb     C6  382   5.962   7.543   7.081  0.8480 -0.0435 -0.2745
   15bbb    H11  383   5.916   7.633   7.036  2.4443  0.8041 -0.2501
   15bbb    H12  384   6.057   7.594   7.100  0.5536  0.5528 -0.3658
   15bbb     C7  385   5.688   7.906   7.313  0.3482  0.2960 -0.5390
   15bbb     C8  386   5.987   7.446   6.970 -0.5717 -0.3522  0.2755
   15bbb     O1  387   5.620   7.893   7.214 -0.2184 -0.1827 -0.3986
   15bbb     O2  388   5.896   7.413   6.896 -0.6447  0.9413  0.1722
   15bbb     N4  389   5.965   7.391   7.635  0.6710  0.0470 -0.0430
   15bbb    H21  390   5.969   7.452   7.716  0.1880 -0.4295  0.3376
   16bbb     C1  391   5.795   7.047   9.799  0.4949 -0.0514  0.3335
   16bbb     H1  392   5.774   7.154   9.792 -0.9565 -0.4100 -0.9858
   16bbb     H2  393   5.785   7.027   9.907  0.6289 -1.9577  0.0213
   16bbb     C2  394   5.942   7.029   9.780  0.2779  0.2412  0.1404
   16bbb     H3  395   5.996   7.106   9.836  0.9088 -2.6585  3.6488
   16bbb     H4  396   5.966   6.928   9.816  0.9774 -0.1974 -1.4694
   16bbb     N1  397   5.699   6.975   9.716 -0.7734 -0.0384  0.1258
   16bbb     C3  398   5.562   7.004   9.750 -0.1570  0.0791 -0.1591
   16bbb     H5  399   5.533   6.950   9.841 -0.9683 -0.7096 -0.8750
   16bbb     H6  400   5.498   6.968   9.669 -0.0767 -3.0248  1.0601
   16bbb     C4  401   5.735   6.834   9.718  0.8206 -0.4737 -0.5688
   16bbb     H7  402   5.833   6.810   9.674  0.3335 -0.4168 -1.6852
   16bbb     H8  403   5.719   6.786   9.816 -1.3034 -0.1998 -0.7598
   16bbb     C5  404   5.634   6.755   9.632  0.0940  0.3951  0.2667
   16bbb     H9  405   5.537   6.750   9.684 -0.1787  3.8776  0.1615
   16bbb    H10  406   5.629   6.788   9.528 -2.2213 -2.5619 -0.6494
   16bbb     C6  407   5.532   7.153   9.765 -1.1098  0.4153 -0.8975
   16bbb    H11  408   5.584   7.204   9.847 -2.4566  1.1344 -0.4824
   16bbb    H12  409   5.553   7.200   9.668  1.9285 -0.3030 -0.6529
   16bbb     C7  410   5.690   6.609   9.622 -0.0336  0.6251  0.2238
   16bbb     C8  411   5.384   7.170   9.780 -0.4505  0.3137  0.8277
   16bbb     O1  412   5.707   6.569   9.507  0.1572  0.3199  0.4810
   16bbb     O2  413   5.334   7.162   9.887 -0.2479 -0.1545 -0.1782
   16bbb     N4  414   5.981   7.031   9.636 -0.0975 -0.6259 -0.3459
   16bbb    H21  415   6.003   6.952   9.578  2.0620 -0.8439  0.7232
   17bbb     C1  416   6.414   7.778   9.022 -0.4641  0.1628  0.4188
   17bbb     H1  417   6.467   7.874   9.026 -0.1613  0.0197 -0.1019
   17bbb     H2  418   6.313   7.775   9.066 -0.3226  2.1342  0.9223
   17bbb     C2  419   6.499   7.679   9.110 -0.1212 -0.0756  0.5845
   17bbb     H3  420   6.585   7.636   9.056  1.3840  1.9783  1.2745
   17bbb     H4  421   6.546   7.739   9.189 -1.1518  2.0037 -0.3448
   17bbb     N1  422   6.407   7.747   8.878  0.3583  0.8619  0.2767
   17bbb     C3  423   6.363   7.850   8.782  0.3296 -0.2034 -0.0168
   17bbb     H5  424   6.267   7.890   8.816 -0.0461  0.8313 -2.1740
   17bbb     H6  425   6.356   7.807   8.682  0.4274 -0.5419  0.1232
   17bbb     C4  426   6.334   7.623   8.853 -0.2705  0.6376  0.1514
   17bbb     H7  427   6.328   7.560   8.942 -0.4291 -0.9298 -0.9467
   17bbb     H8  428   6.230   7.648   8.824 -0.4513  0.7050  0.8553
   17bbb     C5  429   6.415   7.548   8.747  0.9023 -0.7914  0.1123
   17bbb     H9  430   6.410   7.594   8.647  1.7001  0.2052  0.5242
   17bbb    H10  431   6.516   7.554   8.787  0.9748  1.0556 -0.2985
   17bbb     C6  432   6.451   7.965   8.765  0.0248 -0.8379 -0.2994
   17bbb    H11  433   6.400   8.055   8.729 -0.2792 -0.3505  1.3072
   17bbb    H12  434   6.481   8.008   8.861  1.7891  1.1746 -1.7305
   17bbb     C7  435   6.356   7.411   8.734  0.0103 -0.1047  0.3342
   17bbb     C8  436   6.564   7.940   8.669  0.7534 -0.4705 -0.1041
   17bbb     O1  437   6.262   7.391   8.662 -0.0340 -0.4857 -0.5617
   17bbb     O2  438   6.588   8.016   8.576  0.0575 -0.5372  0.2730
   17bbb     N4  439   6.426   7.566   9.180  0.2601  0.2298 -0.1289
   17bbb    H21  440   6.362   7.582   9.257  1.3379 -1.3466  1.1297
   18bbb     C1  441   5.473   5.859   8.251  0.6868 -0.9975 -0.2120
   18bbb     H1  442   5.576   5.834   8.280  1.7046  1.8319 -1.2109
   18bbb     H2  443   5.470   5.904   8.151  0.1057  0.6847  0.5388
   18bbb     C2  444   5.420   5.969   8.351  0.6521  0.0856  0.8121
   18bbb     H3  445   5.413   5.935   8.455 -1.5812  1.4487  1.1420
   18bbb     H4  446   5.497   6.048   8.342  0.6210  0.0238  0.0517
   18bbb     N1  447   5.391   5.738   8.236 -0.3408  0.3585 -0.3380
   18bbb     C3  448   5.464   5.629   8.169 -0.1894  1.1532  0.3960
   18bbb     H5  449   5.399   5.541   8.162 -0.9065  1.6013  1.3679
   18bbb     H6  450   5.550   5.590   8.224 -0.2804  2.4180  1.4589
   18bbb     C4  451   5.332   5.683   8.362 -0.2098 -0.5641  0.8998
   18bbb     H7  452   5.411   5.631   8.418 -1.5253 -0.7718  2.6106
   18bbb     H8  453   5.301   5.768   8.425 -2.0325 -0.3584 -0.2219
   18bbb     C5  454   5.206   5.594   8.344  0.4521 -0.1581  0.2837
   18bbb     H9  455   5.130   5.643   8.282  0.2340 -0.2316  0.4944
   18bbb    H10  456   5.236   5.499   8.298  0.8600  0.9137 -1.7295
   18bbb     C6  457   5.502   5.675   8.027 -0.5753  0.4788  0.1211
   18bbb    H11  458   5.413   5.709   7.973  1.2446  0.9725 -2.6684
   18bbb    H12  459   5.577   5.754   8.040  0.5427 -0.9836  3.2129
   18bbb     C7  460   5.154   5.547   8.476  0.2941 -0.1073 -0.3113
   18bbb     C8  461   5.561   5.554   7.946 -0.9259  0.3213 -0.4235
   18bbb     O1  462   5.053   5.588   8.528  0.1914  0.2289 -0.4365
   18bbb     O2  463   5.665   5.497   7.977  0.3415 -0.1429 -0.1689
   18bbb     N4  464   5.281   6.011   8.308  0.1920  0.3853 -0.7737
   18bbb    H21  465   5.261   6.007   8.209 -3.8485 -1.3580 -0.0294
   19bbb     C1  466   4.929   6.111   7.618 -0.5039 -0.1277  0.4151
   19bbb     H1  467   4.983   6.179   7.684  0.3405  0.7602 -1.1577
   19bbb     H2  468   4.913   6.167   7.525 -0.0917 -0.0398  0.3981
   19bbb     C2  469   4.787   6.070   7.672 -0.0398 -1.5817 -0.4455
   19bbb     H3  470   4.736   6.167   7.672  4.2288  0.7553  0.3622
   19bbb     H4  471   4.723   6.022   7.596 -0.2107 -2.5609  0.3033
   19bbb     N1  472   5.010   5.997   7.591  1.2133  0.6033  0.1437
   19bbb     C3  473   5.056   5.944   7.719  0.2522 -0.2530 -0.2663
   19bbb     H5  474   4.975   5.885   7.764  0.3364  1.6823  2.5392
   19bbb     H6  475   5.085   6.024   7.788  3.4523 -0.2751 -1.5044
   19bbb     C4  476   5.127   6.032   7.505  0.0351 -0.9628 -0.8651
   19bbb     H7  477   5.178   6.121   7.545 -1.9962  0.1872 -0.8011
   19bbb     H8  478   5.199   5.950   7.502  1.5692  0.3674 -1.8610
   19bbb     C5  479   5.092   6.062   7.360  0.0207  0.3799 -0.0670
   19bbb     H9  480   5.029   5.982   7.318 -0.1873  0.9571 -0.8502
   19bbb    H10  481   5.047   6.160   7.345 -0.2623  0.3189  0.3684
   19bbb     C6  482   5.165   5.833   7.725 -0.4875 -0.4092  0.1931
   19bbb    H11  483   5.122   5.750   7.668 -1.0453 -0.3427  0.5130
   19bbb    H12  484   5.266   5.860   7.692 -0.1152  0.1371  1.7059
   19bbb     C7  485   5.215   6.076   7.277  0.7007 -0.5885  0.3478
   19bbb     C8  486   5.168   5.791   7.869 -0.3030 -0.6121  0.4135
   19bbb     O1  487   5.315   6.008   7.300 -0.0862  0.1551  0.5058
   19bbb     O2  488   5.181   5.862   7.966 -0.7158 -0.0870 -0.0766
   19bbb     N4  489   4.767   6.002   7.805  0.2365 -0.6794 -0.4133
   19bbb    H21  490   4.743   5.904   7.808  0.7590 -0.7682  1.7330
   20bbb     C1  491   4.975   6.534   9.711  0.7676 -0.2011 -0.3531
   20bbb     H1  492   5.068   6.503   9.663  1.7074 -1.1599  2.0051
   20bbb     H2  493   4.930   6.443   9.752 -0.9450  1.0808  0.6818
   20bbb     C2  494   4.866   6.584   9.617  0.7340 -0.2186 -0.2849
   20bbb     H3  495   4.772   6.564   9.670  0.4403  1.7144 -0.0285
   20bbb     H4  496   4.881   6.692   9.611 -0.3404 -0.2059 -3.5762
   20bbb     N1  497   5.002   6.636   9.820 -0.3629 -0.0154 -0.1667
   20bbb     C3  498   4.886   6.661   9.909 -0.2249 -0.5431  0.6751
   20bbb     H5  499   4.883   6.608  10.005 -0.0416  1.4887  1.8441
   20bbb     H6  500   4.788   6.651   9.860  0.7138  2.4184 -2.0231
   20bbb     C4  501   5.115   6.600   9.896  0.4305  0.6776 -1.0710
   20bbb     H7  502   5.142   6.667   9.979  0.7190  0.4751 -1.0015
   20bbb     H8  503   5.100   6.498   9.935  1.6357  0.7196 -0.4754
   20bbb     C5  504   5.245   6.593   9.817  0.3961  0.2993 -0.0260
   20bbb     H9  505   5.331   6.580   9.884  1.1219  1.2452 -0.7594
   20bbb    H10  506   5.233   6.504   9.755  0.9975 -1.4541  2.2832
   20bbb     C6  507   4.893   6.808   9.948 -0.0403 -0.0956 -0.0039
   20bbb    H11  508   4.965   6.823  10.029 -0.0250  0.8702 -0.1862
   20bbb    H12  509   4.913   6.872   9.861  2.1025  0.6518  0.9927
   20bbb     C7  510   5.276   6.722   9.745 -0.8031 -0.2734  0.1787
   20bbb     C8  511   4.760   6.858  10.007 -0.0213  0.5446  0.6018
   20bbb     O1  512   5.297   6.827   9.805 -0.6475  0.2188 -0.0889
   20bbb     O2  513   4.679   6.922   9.942 -0.1666  0.0053  0.5398
   20bbb     N4  514   4.868   6.513   9.484 -0.3667 -0.4957  0.4858
   20bbb    H21  515   4.908   6.559   9.403  0.0626 -0.0940  0.9225
   21bbb     C1  516   5.316   5.804   9.639 -0.0842  0.8509 -0.0193
   21bbb     H1  517   5.335   5.709   9.588 -1.8253 -0.6437  2.0113
   21bbb     H2  518   5.246   5.787   9.722 -1.2597  2.8856 -0.5551
   21bbb     C2  519   5.244   5.889   9.540  0.3963  0.3024 -0.3958
   21bbb     H3  520   5.159   5.828   9.506 -0.9651  0.9977  1.7180
   21bbb     H4  521   5.206   5.973   9.598  0.3197  0.7409 -1.0789
   21bbb     N1  522   5.440   5.862   9.694 -0.4120  0.1731  0.1712
   21bbb     C3  523   5.544   5.774   9.749  0.1005  0.0898  0.8611
   21bbb     H5  524   5.500   5.692   9.807  0.6304 -0.7603  0.0798
   21bbb     H6  525   5.609   5.825   9.822 -0.0258 -1.2678  1.9376
   21bbb     C4  526   5.420   5.974   9.782  0.2304 -0.3022 -0.1011
   21bbb     H7  527   5.336   6.040   9.756 -0.0656  0.4011  2.4332
   21bbb     H8  528   5.415   5.940   9.887 -2.5381 -1.9564 -0.7263
   21bbb     C5  529   5.545   6.066   9.774 -0.4890 -0.2210  0.3743
   21bbb     H9  530   5.544   6.144   9.851  1.7839  0.8225 -0.6290
   21bbb    H10  531   5.641   6.014   9.777 -0.8831 -1.0421 -0.7881
   21bbb     C6  532   5.639   5.722   9.644 -0.5549  0.5590 -0.6103
   21bbb    H11  533   5.586   5.658   9.573 -0.5877 -1.4957  1.2196
   21bbb    H12  534   5.704   5.803   9.611 -0.6865  0.3049 -1.4969
   21bbb     C7  535   5.533   6.127   9.644  0.2816 -0.0776 -0.1072
   21bbb     C8  536   5.737   5.633   9.709 -0.2548  0.6192  0.1762
   21bbb     O1  537   5.451   6.214   9.613 -0.6577 -0.2514  0.0051
   21bbb     O2  538   5.741   5.591   9.824  0.2359  0.1203 -0.0446
   21bbb     N4  539   5.323   5.925   9.423  0.1662  0.2030 -0.6268
   21bbb    H21  540   5.422   5.908   9.429  0.4095  2.2078  1.5313
   22bbb     C1  541   5.066   8.222   9.838 -0.0026 -0.4609  0.3397
   22bbb     H1  542   5.017   8.318   9.859  0.1076 -0.3052 -0.1347
   22bbb     H2  543   5.017   8.155   9.767 -0.3320 -0.5569  0.6578
   22bbb     C2  544   5.052   8.131   9.960 -0.4202 -0.4494 -0.4777
   22bbb     H3  545   5.104   8.177  10.045 -3.3692  1.9500  0.1060
   22bbb     H4  546   4.944   8.126   9.982 -0.8065  2.2204 -1.6322
   22bbb     N1  547   5.204   8.241   9.787 -0.4335  0.3514  0.3159
   22bbb     C3  548   5.192   8.296   9.653 -0.1748  0.0403  0.1193
   22bbb     H5  549   5.163   8.401   9.659 -0.7484 -0.1580  0.9097
   22bbb     H6  550   5.117   8.239   9.597 -0.8468 -0.4130  1.4559
   22bbb     C4  551   5.289   8.316   9.875  0.2531 -0.7843 -1.0031
   22bbb     H7  552   5.284   8.270   9.975 -2.9865  0.7532 -0.4142
   22bbb     H8  553   5.394   8.306   9.844  0.4117 -0.1643 -0.6708
   22bbb     C5  554   5.241   8.464   9.889  0.7474  0.0671  0.2337
   22bbb     H9  555   5.270   8.522   9.801 -2.8012  0.9306 -0.4091
   22bbb    H10  556   5.133   8.478   9.887  0.5189 -1.8661 -1.8789
   22bbb     C6  557   5.326   8.283   9.576  0.8555  0.1175 -0.1748
   22bbb    H11  558   5.391   8.366   9.605 -0.3795  0.0922  2.8718
   22bbb    H12  559   5.377   8.190   9.604  0.7616  0.1387  0.0672
   22bbb     C7  560   5.298   8.531  10.005  0.0502  0.4804 -0.2461
   22bbb     C8  561   5.296   8.271   9.430  0.1317  0.0595  0.1006
   22bbb     O1  562   5.395   8.486  10.063 -0.5522  0.2559 -0.0268
   22bbb     O2  563   5.217   8.187   9.381 -0.3998 -0.8442 -0.5750
   22bbb     N4  564   5.105   7.994   9.937  0.1429 -0.6502 -0.1044
   22bbb    H21  565   5.074   7.943   9.855 -1.5301 -0.5201  0.4322
   23bbb     C1  566   5.642   7.046  10.185  0.5032 -0.1855  0.1694
   23bbb     H1  567   5.727   7.116  10.192  0.5510 -0.4849  3.2744
   23bbb     H2  568   5.638   7.014  10.080  3.0424 -0.8503  0.2318
   23bbb     C2  569   5.506   7.112  10.224  0.1523 -0.1592  0.7861
   23bbb     H3  570   5.431   7.043  10.184 -0.2653  0.8855 -0.2623
   23bbb     H4  571   5.494   7.113  10.333 -2.9053  3.1948  0.5325
   23bbb     N1  572   5.655   6.921  10.270 -0.6438  0.6086 -0.0861
   23bbb     C3  573   5.775   6.924  10.356 -0.3777  0.4547  0.3033
   23bbb     H5  574   5.867   6.936  10.298 -0.0755  1.2392  0.9330
   23bbb     H6  575   5.780   6.831  10.413 -0.9825  0.3965  0.2659
   23bbb     C4  576   5.668   6.804  10.180  0.0633  0.1156  0.6823
   23bbb     H7  577   5.744   6.822  10.103 -0.4722  1.7129  0.5063
   23bbb     H8  578   5.713   6.718  10.232 -1.3581 -1.2287 -0.2672
   23bbb     C5  579   5.542   6.763  10.109 -0.2794  0.5329  0.9479
   23bbb     H9  580   5.452   6.801  10.160 -0.6466  1.1311 -0.1273
   23bbb    H10  581   5.554   6.822  10.018 -1.8436  0.4129  0.6495
   23bbb     C6  582   5.769   7.034  10.465 -0.4626 -0.4781  0.1481
   23bbb    H11  583   5.857   7.035  10.531 -0.2391 -2.6019 -0.0938
   23bbb    H12  584   5.754   7.131  10.416 -3.0795 -1.0970 -0.3653
   23bbb     C7  585   5.541   6.616  10.083 -0.5120 -0.0483  0.0344
   23bbb     C8  586   5.654   7.012  10.554  0.2001 -0.5642  0.6818
   23bbb     O1  587   5.630   6.570  10.013 -0.3610 -0.2054 -0.2521
   23bbb     O2  588   5.605   6.903  10.572  0.4194 -0.0848  0.3224
   23bbb     N4  589   5.485   7.243  10.160 -0.0585  0.2679 -0.0173
   23bbb    H21  590   5.559   7.290  10.108  1.7601 -1.4206  0.9935
   24bbb     C1  591   5.789   8.006   8.160  0.2568 -0.4158 -0.8126
   24bbb     H1  592   5.867   8.074   8.197  0.9091 -1.5045 -0.1406
   24bbb     H2  593   5.794   8.003   8.051  0.6156 -0.6112 -0.7895
   24bbb     C2  594   5.658   8.064   8.214  0.1045  0.1206  0.5985
   24bbb     H3  595   5.684   8.169   8.194 -1.1574  0.2979 -0.1105
   24bbb     H4  596   5.576   8.043   8.145  0.2217  1.5998 -0.0025
   24bbb     N1  597   5.822   7.872   8.206 -0.2281  0.1779  0.0109
   24bbb     C3  598   5.715   7.781   8.169 -0.4950 -0.4826  0.0612
   24bbb     H5  599   5.698   7.792   8.061 -1.1615 -1.6030  0.0506
   24bbb     H6  600   5.617   7.805   8.213 -0.4810 -1.3881  0.5876
   24bbb     C4  601   5.958   7.827   8.151 -0.0234 -0.4219 -0.0505
   24bbb     H7  602   5.988   7.726   8.180 -0.7244 -0.1656  1.5964
   24bbb     H8  603   5.957   7.824   8.041  1.4716  1.8061 -0.1582
   24bbb     C5  604   6.066   7.916   8.206 -0.3014 -0.0646  0.0188
   24bbb     H9  605   6.054   8.024   8.194  1.6292  0.2100  0.4147
   24bbb    H10  606   6.058   7.891   8.313  1.0380  1.6659  0.5525
   24bbb     C6  607   5.747   7.643   8.208  0.7074  0.1757  0.4610
   24bbb    H11  608   5.814   7.592   8.138 -0.5221 -0.1230 -0.5195
   24bbb    H12  609   5.787   7.634   8.310  0.0946  5.9905  1.3915
   24bbb     C7  610   6.202   7.868   8.144  0.4719  0.0385  0.1948
   24bbb     C8  611   5.614   7.570   8.213  0.1104 -1.1453  0.2493
   24bbb     O1  612   6.216   7.778   8.062 -0.2615 -0.6028 -0.3315
   24bbb     O2  613   5.558   7.548   8.320 -0.2442  0.2426  0.3601
   24bbb     N4  614   5.623   8.050   8.354  0.2066  0.0551  0.4912
   24bbb    H21  615   5.676   8.010   8.431 -1.3624 -0.1021  1.5152
   25bbb     C1  616   5.653   8.271   9.343  0.5191  0.5802  0.2718
   25bbb     H1  617   5.564   8.228   9.391 -0.0320 -1.6944 -2.6611
   25bbb     H2  618   5.620   8.367   9.300 -3.3004 -0.9037 -0.3120
   25bbb     C2  619   5.697   8.191   9.221  0.4058  0.1871 -0.1241
   25bbb     H3  620   5.788   8.243   9.188  0.7503  0.3466  1.0642
   25bbb     H4  621   5.742   8.100   9.263  0.2360  0.7346  1.2555
   25bbb     N1  622   5.764   8.287   9.446  0.2329 -0.6943  0.1138
   25bbb     C3  623   5.863   8.384   9.396  0.1619 -0.5821  0.6587
   25bbb     H5  624   5.828   8.485   9.422  1.1004  0.1719 -0.9455
   25bbb     H6  625   5.866   8.389   9.286  1.9021  1.8513  0.7754
   25bbb     C4  626   5.697   8.329   9.575 -0.3174 -0.3435 -0.0268
   25bbb     H7  627   5.671   8.435   9.580  0.6963 -0.1410  1.1354
   25bbb     H8  628   5.608   8.268   9.592 -0.8913  1.0513  2.0620
   25bbb     C5  629   5.789   8.309   9.690 -0.1726 -0.3011  0.1394
   25bbb     H9  630   5.851   8.220   9.674 -0.6906 -1.0132  2.0493
   25bbb    H10  631   5.860   8.392   9.701  1.3231 -1.2916 -1.6685
   25bbb     C6  632   6.004   8.355   9.438  0.1216  0.2256 -0.7538
   25bbb    H11  633   6.027   8.368   9.545  0.1556 -0.2780 -0.6950
   25bbb    H12  634   6.018   8.250   9.410 -1.1806  0.0898 -0.9374
   25bbb     C7  635   5.712   8.291   9.820 -0.3549  0.7684  0.0881
   25bbb     C8  636   6.103   8.448   9.373  0.1317  0.1005 -0.0256
   25bbb     O1  637   5.657   8.394   9.866 -0.0843 -0.3874  0.7805
   25bbb     O2  638   6.087   8.568   9.369 -0.0093  0.5676  0.2959
   25bbb     N4  639   5.603   8.159   9.110 -0.3604 -0.1285 -0.0670
   25bbb    H21  640   5.528   8.091   9.121  1.0058 -1.9494 -1.7926
   26bbb     C1  641   3.591   5.759   7.856  0.1179 -0.0014  0.1638
   26bbb     H1  642   3.573   5.669   7.797  0.5069 -1.0348  1.5769
   26bbb     H2  643   3.497   5.808   7.884 -2.1740 -3.4371 -1.2667
   26bbb     C2  644   3.658   5.870   7.771  0.0938 -0.9644  0.1142
   26bbb     H3  645   3.742   5.835   7.710 -0.1497 -0.7339 -0.3529
   26bbb     H4  646   3.580   5.899   7.699 -0.0962  0.7158  0.9726
   26bbb     N1  647   3.681   5.725   7.973 -0.0078  0.5751  1.0023
   26bbb     C3  648   3.806   5.652   7.933 -0.1029  0.2157 -0.3366
   26bbb     H5  649   3.836   5.673   7.830  2.7581 -0.9940  0.1831
   26bbb     H6  650   3.789   5.545   7.949  1.1294  0.2418  1.3919
   26bbb     C4  651   3.608   5.662   8.078  0.1054 -1.0375 -0.5765
   26bbb     H7  652   3.534   5.591   8.040 -1.1626 -0.0812  0.0545
   26bbb     H8  653   3.684   5.609   8.137  1.1842 -1.0263 -1.9478
   26bbb     C5  654   3.549   5.773   8.161  0.1324 -0.2903 -0.4838
   26bbb     H9  655   3.626   5.848   8.181  1.5054 -1.4691 -1.2529
   26bbb    H10  656   3.469   5.820   8.103 -1.4926 -2.0162  0.2703
   26bbb     C6  657   3.920   5.690   8.023  0.5047  0.0008  0.3849
   26bbb    H11  658   3.920   5.799   8.032 -0.1606 -0.1165  1.9329
   26bbb    H12  659   3.907   5.662   8.128  1.5092  0.4040  0.6232
   26bbb     C7  660   3.483   5.721   8.289 -0.5874  0.2015 -0.2134
   26bbb     C8  661   4.047   5.646   7.955  0.6897 -0.4122 -0.0007
   26bbb     O1  662   3.425   5.613   8.289  0.0289 -0.0907  0.0666
   26bbb     O2  663   4.082   5.530   7.949 -0.3088 -0.7327  0.1064
   26bbb     N4  664   3.693   5.989   7.854  0.1384  0.3627 -0.3604
   26bbb    H21  665   3.624   6.032   7.915  1.1183  1.7414 -0.2147
   27bbb     C1  666   3.529   6.339   8.649  0.2239 -0.8610 -0.2549
   27bbb     H1  667   3.518   6.254   8.717 -2.8544 -1.0685 -0.9450
   27bbb     H2  668   3.440   6.403   8.649  0.4158 -0.5843 -0.9461
   27bbb     C2  669   3.565   6.276   8.508  0.4633 -0.7678  0.1370
   27bbb     H3  670   3.476   6.224   8.471  0.4104  1.1691 -2.5956
   27bbb     H4  671   3.577   6.364   8.443  1.0700 -0.4847  0.6331
   27bbb     N1  672   3.646   6.411   8.701 -0.1061  0.5159  0.3423
   27bbb     C3  673   3.644   6.408   8.850 -0.1742 -0.0684  1.1268
   27bbb     H5  674   3.548   6.434   8.895 -1.5627  0.2032 -1.8191
   27bbb     H6  675   3.720   6.480   8.884  1.0587  0.3090 -2.2039
   27bbb     C4  676   3.654   6.551   8.650  0.0313  0.5927 -0.3209
   27bbb     H7  677   3.612   6.560   8.549  1.7590 -0.7437 -1.2083
   27bbb     H8  678   3.599   6.625   8.708 -1.2450 -0.3371 -0.3292
   27bbb     C5  679   3.803   6.582   8.642 -0.2776 -0.4432 -0.3112
   27bbb     H9  680   3.850   6.569   8.741  1.3263  1.7730 -0.7568
   27bbb    H10  681   3.850   6.516   8.568  1.1981  0.2428  0.0034
   27bbb     C6  682   3.700   6.277   8.900 -0.1160 -0.4385  0.1877
   27bbb    H11  683   3.645   6.190   8.862 -0.7352 -0.2353  0.6228
   27bbb    H12  684   3.804   6.262   8.867 -0.4912  2.1583 -2.3714
   27bbb     C7  685   3.816   6.732   8.602 -0.1642 -0.3271  0.6249
   27bbb     C8  686   3.693   6.275   9.051  0.3418 -0.1444  0.2868
   27bbb     O1  687   3.760   6.772   8.509 -0.7688  0.0175  0.1086
   27bbb     O2  688   3.603   6.231   9.111  0.6420  0.3596 -0.0390
   27bbb     N4  689   3.692   6.197   8.522 -0.1923  0.0248  0.2846
   27bbb    H21  690   3.763   6.230   8.586 -0.9312  0.3870  0.9348
   28bbb     C1  691   5.147   7.584   7.671 -1.0937 -0.4218 -0.5551
   28bbb     H1  692   5.125   7.544   7.771 -1.8807 -2.7035 -1.5963
   28bbb     H2  693   5.068   7.655   7.642 -1.0361  0.0464  0.4152
   28bbb     C2  694   5.145   7.455   7.583 -0.1834  0.5359  0.2480
   28bbb     H3  695   5.133   7.490   7.480 -1.6417 -1.3742 -0.2566
   28bbb     H4  696   5.246   7.414   7.600 -1.1899 -1.8093  0.7191
   28bbb     N1  697   5.270   7.662   7.666 -0.3991  0.3437 -0.2374
   28bbb     C3  698   5.284   7.724   7.531 -0.1405 -0.1951  0.1005
   28bbb     H5  699   5.223   7.816   7.529  0.2394  0.0835  1.1223
   28bbb     H6  700   5.248   7.657   7.452 -1.3410  1.8365 -1.1435
   28bbb     C4  701   5.287   7.762   7.773  0.1081  0.5094  0.2779
   28bbb     H7  702   5.379   7.818   7.752  0.9483  0.6793  4.0003
   28bbb     H8  703   5.204   7.832   7.768 -0.1872  0.2468  1.3714
   28bbb     C5  704   5.300   7.701   7.913  0.3188 -0.2755 -0.7275
   28bbb     H9  705   5.206   7.648   7.931 -0.1038  0.0049 -2.0678
   28bbb    H10  706   5.380   7.627   7.924  0.7631  0.3195  0.1490
   28bbb     C6  707   5.432   7.740   7.493  0.1214  0.6283  0.3481
   28bbb    H11  708   5.438   7.788   7.395  1.0522 -0.0789  0.0600
   28bbb    H12  709   5.479   7.812   7.560  1.7428  0.1063 -0.2178
   28bbb     C7  710   5.328   7.809   8.011 -0.4114  0.1753 -0.0091
   28bbb     C8  711   5.495   7.606   7.496 -0.1258  0.3811 -0.3761
   28bbb     O1  712   5.431   7.875   8.007  0.6384  0.2635  0.1132
   28bbb     O2  713   5.575   7.575   7.585  0.4915 -0.4563  0.1174
   28bbb     N4  714   5.040   7.349   7.609 -0.0458 -0.5051 -0.2134
   28bbb    H21  715   5.059   7.258   7.650 -1.3675 -0.4534  0.5325
   29bbb     C1  716   4.211   6.867   7.065  0.3163  0.3974  0.0389
   29bbb     H1  717   4.255   6.777   7.020  0.2837 -0.5394  1.8380
   29bbb     H2  718   4.134   6.910   7.001  0.2425  0.4809  0.1833
   29bbb     C2  719   4.312   6.992   7.089 -0.0630  0.0580 -0.1862
   29bbb     H3  720   4.375   7.004   7.000 -0.0952  1.1921 -0.0563
   29bbb     H4  721   4.253   7.082   7.111  2.0235  1.5806 -0.7110
   29bbb     N1  722   4.152   6.815   7.185 -0.2541  0.3681  0.4252
   29bbb     C3  723   4.091   6.689   7.160 -0.3712  0.0001  0.1915
   29bbb     H5  724   4.164   6.624   7.110  0.1242  0.8534 -0.2064
   29bbb     H6  725   4.006   6.702   7.092  0.4854 -1.4176 -1.1698
   29bbb     C4  726   4.055   6.906   7.248  0.1742  0.1097 -0.3996
   29bbb     H7  727   4.060   7.011   7.216 -1.8912  0.0681 -0.9761
   29bbb     H8  728   3.949   6.892   7.223 -0.6631  0.8024  2.6116
   29bbb     C5  729   4.082   6.923   7.397  0.8415 -0.8102  0.1056
   29bbb     H9  730   4.119   6.840   7.458  1.9586 -0.8009 -0.5256
   29bbb    H10  731   4.166   6.994   7.399  0.4682 -0.3780  0.5910
   29bbb     C6  732   4.055   6.617   7.289 -0.1789  0.4861 -0.2341
   29bbb    H11  733   4.146   6.583   7.341 -0.5493 -0.5029 -0.2159
   29bbb    H12  734   3.990   6.671   7.359  3.1248  2.3463  1.5725
   29bbb     C7  735   3.967   6.994   7.456 -0.4265 -0.1668 -0.0382
   29bbb     C8  736   3.983   6.492   7.254  0.4390 -0.0134 -0.7553
   29bbb     O1  737   3.858   6.945   7.464  0.1356 -0.0964 -0.3293
   29bbb     O2  738   4.039   6.388   7.259 -0.4967  0.3224 -0.1154
   29bbb     N4  739   4.394   6.975   7.213 -0.7094  0.7967 -0.2228
   29bbb    H21  740   4.425   6.882   7.238 -0.0182  1.6198  2.1019
   30bbb     C1  741   7.037   7.195   8.177  0.7595 -0.2636 -0.4356
   30bbb     H1  742   7.023   7.144   8.274  2.4526  1.2549  0.6535
   30bbb     H2  743   6.947   7.256   8.164  2.2643  1.9198 -0.7871
   30bbb     C2  744   7.047   7.092   8.062  0.6662 -0.3735 -0.0048
   30bbb     H3  745   7.080   7.136   7.967 -3.0653  1.1685 -0.6519
   30bbb     H4  746   7.117   7.009   8.082  2.8322  2.0082  2.8293
   30bbb     N1  747   7.165   7.282   8.180 -0.4229 -0.1426  0.8697
   30bbb     C3  748   7.295   7.227   8.221  0.9315 -0.3677  0.2207
   30bbb     H5  749   7.359   7.302   8.270  0.2007 -0.0720  0.7370
   30bbb     H6  750   7.335   7.176   8.133  0.6250 -0.4325  0.1167
   30bbb     C4  751   7.170   7.385   8.073  0.2054 -0.0538  0.3935
   30bbb     H7  752   7.235   7.469   8.101 -1.1772  0.8417  0.9289
   30bbb     H8  753   7.205   7.329   7.985 -2.0479  1.2380 -1.3402
   30bbb     C5  754   7.040   7.451   8.043  0.4683  0.2795 -0.2795
   30bbb     H9  755   6.974   7.381   7.990  0.8849 -0.8600  0.6862
   30bbb    H10  756   6.989   7.478   8.136  0.2511 -3.8886  0.8992
   30bbb     C6  757   7.282   7.117   8.327  0.1422  0.1865  0.1018
   30bbb    H11  758   7.212   7.155   8.403 -2.1987  1.1721 -2.4574
   30bbb    H12  759   7.242   7.019   8.296  0.2575  0.8170 -2.1190
   30bbb     C7  760   7.066   7.576   7.962 -0.3328  0.3410  0.0437
   30bbb     C8  761   7.405   7.085   8.392  0.1367 -0.7039 -0.6874
   30bbb     O1  762   7.136   7.663   8.004 -0.0367 -0.1137 -0.2140
   30bbb     O2  763   7.430   7.126   8.504 -0.0705 -0.1579  0.1711
   30bbb     N4  764   6.917   7.035   8.029  0.2940 -0.0580 -0.7501
   30bbb    H21  765   6.842   7.056   8.094 -1.1160  0.0518 -2.3858
   31bbb     C1  766   6.324   6.241   8.327  0.5061 -0.2724  0.2449
   31bbb     H1  767   6.251   6.172   8.372 -0.1880 -1.6255 -2.8218
   31bbb     H2  768   6.406   6.190   8.275 -0.1814  1.2299 -2.4285
   31bbb     C2  769   6.391   6.314   8.443  0.5825  0.5454 -0.0592
   31bbb     H3  770   6.309   6.331   8.514  1.2460  2.1315  0.3644
   31bbb     H4  771   6.450   6.235   8.492 -1.5938 -1.8724 -1.2896
   31bbb     N1  772   6.267   6.332   8.226  0.2875 -0.2923 -0.3751
   31bbb     C3  773   6.170   6.429   8.282 -0.3600 -0.3779  0.1830
   31bbb     H5  774   6.141   6.499   8.203 -0.3019 -1.5343 -0.8776
   31bbb     H6  775   6.213   6.488   8.365  0.0337 -2.9999  1.9101
   31bbb     C4  776   6.219   6.258   8.108  0.7321  0.5690 -0.0863
   31bbb     H7  777   6.300   6.186   8.088 -1.4232 -2.4351  1.4664
   31bbb     H8  778   6.130   6.196   8.127 -0.2614  1.6790 -1.0612
   31bbb     C5  779   6.200   6.350   7.990  0.1508 -0.1748  1.1432
   31bbb     H9  780   6.098   6.390   7.986 -0.1638 -1.1455 -1.1278
   31bbb    H10  781   6.265   6.437   8.008 -1.9624  1.4613  1.0516
   31bbb     C6  782   6.042   6.371   8.341  0.1070 -0.7975 -0.0916
   31bbb    H11  783   5.988   6.303   8.274  0.6215 -0.7487 -0.5524
   31bbb    H12  784   6.059   6.308   8.430 -1.0648  0.2025  0.8640
   31bbb     C7  785   6.217   6.295   7.856 -0.8617 -0.0094 -0.5418
   31bbb     C8  786   5.955   6.484   8.392 -0.1979  0.0255 -0.1973
   31bbb     O1  787   6.228   6.177   7.835 -0.0620  0.4348 -0.0906
   31bbb     O2  788   5.935   6.578   8.325  0.1560  0.4161  0.3174
   31bbb     N4  789   6.456   6.435   8.410 -0.0535  0.2269 -0.6618
   31bbb    H21  790   6.406   6.523   8.401 -0.3654  0.3577  1.8777
   32bbb     C1  791   5.730   8.190   7.590  0.6180  1.6238 -0.2193
   32bbb     H1  792   5.702   8.262   7.512  0.1064 -0.5939 -2.1306
   32bbb     H2  793   5.824   8.221   7.637  0.9818 -0.1781  0.2668
   32bbb     C2  794   5.759   8.050   7.517  0.4850  0.3478  0.0546
   32bbb     H3  795   5.865   8.057   7.488 -0.4025  1.1532 -3.1269
   32bbb     H4  796   5.755   7.972   7.594 -0.1297 -0.8226 -1.1462
   32bbb     N1  797   5.618   8.184   7.690  0.5772  0.0241  0.2821
   32bbb     C3  798   5.619   8.296   7.784 -0.1354  0.0216  0.7335
   32bbb     H5  799   5.517   8.316   7.821 -0.7048 -1.7294  0.1394
   32bbb     H6  800   5.658   8.386   7.735 -0.0597 -0.6467 -0.4459
   32bbb     C4  801   5.494   8.179   7.613  0.6072  0.3531  0.0422
   32bbb     H7  802   5.473   8.280   7.576 -1.3612 -0.9086 -2.5903
   32bbb     H8  803   5.507   8.109   7.529 -0.2273 -0.5033  0.6027
   32bbb     C5  804   5.379   8.123   7.707 -0.4226 -0.0142 -0.6002
   32bbb     H9  805   5.404   8.024   7.746  2.2055  0.8441 -0.0127
   32bbb    H10  806   5.360   8.194   7.788 -2.1165  0.6290 -1.5228
   32bbb     C6  807   5.704   8.263   7.899 -0.4249  0.1487  0.0690
   32bbb    H11  808   5.648   8.199   7.969  2.3162 -0.0997  2.1098
   32bbb    H12  809   5.794   8.204   7.877 -1.2729 -2.2917  2.8772
   32bbb     C7  810   5.252   8.117   7.622  0.1919 -1.0221  0.1498
   32bbb     C8  811   5.747   8.383   7.975 -0.2620 -0.3553  0.2377
   32bbb     O1  812   5.248   8.148   7.505 -0.3590  0.9203  0.3014
   32bbb     O2  813   5.741   8.395   8.095 -0.1018  0.1543  0.2895
   32bbb     N4  814   5.684   8.019   7.393 -0.0104  0.0267 -0.7881
   32bbb    H21  815   5.628   8.093   7.354  0.2563  0.8325  0.3382
   33bbb     C1  816   6.352   7.326   6.999  0.2581  0.4147 -0.2090
   33bbb     H1  817   6.432   7.397   7.022 -2.4486  2.9408  1.9473
   33bbb     H2  818   6.353   7.308   6.891  0.8524 -3.1703  0.3486
   33bbb     C2  819   6.234   7.414   7.033 -0.1866  0.6744  0.0289
   33bbb     H3  820   6.225   7.386   7.138 -1.3829  1.5281  0.1527
   33bbb     H4  821   6.270   7.517   7.032  1.1097  0.2456  0.1448
   33bbb     N1  822   6.365   7.194   7.072  0.1258  0.0797  0.4618
   33bbb     C3  823   6.489   7.127   7.033  0.2773  0.1047  0.2995
   33bbb     H5  824   6.479   7.110   6.925 -1.9356  1.1808  0.2970
   33bbb     H6  825   6.510   7.029   7.078 -0.1269 -0.5564 -0.9203
   33bbb     C4  826   6.244   7.115   7.059  0.0728  0.4576  0.1081
   33bbb     H7  827   6.156   7.179   7.072 -2.3962 -2.7580 -0.0765
   33bbb     H8  828   6.244   7.073   6.957  0.9213 -1.6790  0.9564
   33bbb     C5  829   6.255   7.011   7.164  0.0101  0.1537 -0.2431
   33bbb     H9  830   6.335   6.936   7.163  1.6101  1.8055  0.4479
   33bbb    H10  831   6.270   7.069   7.256  0.1826  0.4679 -0.4682
   33bbb     C6  832   6.612   7.195   7.082 -0.1237 -0.2442  0.2260
   33bbb    H11  833   6.607   7.304   7.078 -0.1009 -0.2244  0.7556
   33bbb    H12  834   6.627   7.156   7.184 -3.0609 -0.6396  0.5456
   33bbb     C7  835   6.130   6.932   7.184  0.5362 -0.5531  0.2789
   33bbb     C8  836   6.718   7.143   6.987  0.0671  0.1836 -0.2761
   33bbb     O1  837   6.038   6.981   7.245  0.1042 -0.1154  0.2250
   33bbb     O2  838   6.739   7.191   6.874 -0.3122  0.1155 -0.7625
   33bbb     N4  839   6.111   7.395   6.948 -0.3189 -0.4032  0.1255
   33bbb    H21  840   6.121   7.334   6.867 -0.2627  1.9410 -1.6912
   34bbb     C1  841   5.875   6.362   9.744  0.7739 -0.4547 -0.0552
   34bbb     H1  842   5.934   6.409   9.665 -1.1571 -0.6677 -1.6783
   34bbb     H2  843   5.874   6.257   9.712  1.8701  0.0333 -1.7394
   34bbb     C2  844   5.730   6.404   9.747 -0.8139 -0.1974 -0.0071
   34bbb     H3  845   5.679   6.363   9.659 -3.1908  3.0874 -0.2531
   34bbb     H4  846   5.679   6.361   9.834 -0.8535 -0.5595 -0.2062
   34bbb     N1  847   5.937   6.374   9.878 -0.0827 -0.6505  0.4909
   34bbb     C3  848   6.054   6.463   9.871 -0.0879  0.8509  0.0723
   34bbb     H5  849   6.118   6.426   9.790  0.3120 -0.3293  0.9049
   34bbb     H6  850   6.102   6.452   9.969 -1.9722 -3.3815  0.6428
   34bbb     C4  851   5.958   6.250   9.953  0.5552  0.0081 -0.0168
   34bbb     H7  852   6.023   6.186   9.892  1.1663  0.2141  0.4178
   34bbb     H8  853   6.001   6.269  10.052  1.9586  2.4580 -1.0590
   34bbb     C5  854   5.830   6.176   9.983  0.2463  0.0909 -0.2339
   34bbb     H9  855   5.748   6.247   9.998 -0.1505 -0.2350 -0.8802
   34bbb    H10  856   5.808   6.101   9.906 -1.9081  0.3547  0.0981
   34bbb     C6  857   6.036   6.607   9.840  0.3995 -0.9087 -0.2719
   34bbb    H11  858   5.980   6.632   9.748 -3.0233 -1.5567  1.5572
   34bbb    H12  859   5.989   6.663   9.922  2.3152 -0.2057  0.3831
   34bbb     C7  860   5.844   6.097  10.110 -0.0646 -0.5341 -0.0684
   34bbb     C8  861   6.169   6.667   9.831 -0.2018  0.0768 -0.3091
   34bbb     O1  862   5.853   5.976  10.121 -0.0230  0.8234  0.1786
   34bbb     O2  863   6.216   6.699   9.725 -0.4422  0.6227  0.2656
   34bbb     N4  864   5.715   6.544   9.741  0.6866 -0.4505 -0.0319
   34bbb    H21  865   5.682   6.593   9.823  0.1401  0.3482 -0.7148
   35bbb     C1  866   5.075   7.090   9.736  0.2236 -1.0445  0.1264
   35bbb     H1  867   5.098   7.102   9.843  0.9921  1.2871 -0.2817
   35bbb     H2  868   5.117   6.991   9.716  1.7916 -0.6344  1.3473
   35bbb     C2  869   5.158   7.197   9.651 -0.2561 -0.3388  0.1405
   35bbb     H3  870   5.131   7.183   9.546 -4.8097  0.4735  1.1058
   35bbb     H4  871   5.139   7.301   9.679  0.5825 -0.1851  0.1537
   35bbb     N1  872   4.934   7.112   9.707  0.5990 -0.4179  0.6251
   35bbb     C3  873   4.903   7.067   9.568  0.0694 -0.3619  0.1906
   35bbb     H5  874   4.989   7.011   9.532  0.2887  0.6353 -0.8460
   35bbb     H6  875   4.883   7.157   9.508  1.6494 -0.9489 -1.2418
   35bbb     C4  876   4.881   7.237   9.751 -0.6997  0.0219  0.9891
   35bbb     H7  877   4.941   7.325   9.722  0.3745 -0.6174  1.2477
   35bbb     H8  878   4.778   7.252   9.715 -0.1776  0.5518 -0.3344
   35bbb     C5  879   4.887   7.248   9.903  0.5324 -0.8044 -0.5041
   35bbb     H9  880   4.849   7.165   9.964  1.0965 -0.0329  0.8936
   35bbb    H10  881   4.994   7.257   9.924  0.5296  1.3893 -1.2699
   35bbb     C6  882   4.776   6.979   9.585 -0.0065  0.2351  0.0555
   35bbb    H11  883   4.791   6.908   9.667 -0.6864 -1.0832 -0.9411
   35bbb    H12  884   4.690   7.041   9.616 -1.1126 -1.7026  0.9348
   35bbb     C7  885   4.831   7.379   9.942 -0.0657 -0.0540 -0.3459
   35bbb     C8  886   4.735   6.909   9.458  0.0853 -1.1089  0.6241
   35bbb     O1  887   4.791   7.470   9.870 -0.2760 -0.2041 -0.2089
   35bbb     O2  888   4.794   6.930   9.353 -0.5482  0.0914 -0.1170
   35bbb     N4  889   5.306   7.187   9.660  0.1281  0.5209 -0.2275
   35bbb    H21  890   5.367   7.194   9.579  1.9224  1.2084  1.1542
   36bbb     C1  891   6.458   7.080   8.703 -0.1406 -0.5604 -0.1855
   36bbb     H1  892   6.448   6.973   8.724 -1.8491 -0.2697  0.5605
   36bbb     H2  893   6.562   7.113   8.718 -0.5488  1.3802 -1.4358
   36bbb     C2  894   6.377   7.168   8.802  0.5650 -0.9010  0.6631
   36bbb     H3  895   6.269   7.170   8.782  0.6831  2.0899  0.2277
   36bbb     H4  896   6.376   7.134   8.907 -1.6167 -0.8516  0.6734
   36bbb     N1  897   6.426   7.100   8.565  0.3617  0.3268  0.5739
   36bbb     C3  898   6.293   7.043   8.542 -0.3333 -0.2068  1.1996
   36bbb     H5  899   6.222   7.045   8.625 -1.5032 -0.3679  0.2154
   36bbb     H6  900   6.306   6.936   8.523 -1.4060 -0.1948  0.3683
   36bbb     C4  901   6.531   7.030   8.485 -0.4971  0.1828 -0.4375
   36bbb     H7  902   6.550   6.931   8.526  1.2479  0.7687  0.2271
   36bbb     H8  903   6.496   7.018   8.381  1.9415  0.1676 -1.2756
   36bbb     C5  904   6.663   7.106   8.457 -0.4793  0.7438  0.1237
   36bbb     H9  905   6.638   7.203   8.413 -1.1183 -0.4078 -2.1015
   36bbb    H10  906   6.713   7.126   8.553  0.2219  0.7132 -0.2354
   36bbb     C6  907   6.213   7.106   8.425 -0.4968  0.1081 -0.3537
   36bbb    H11  908   6.112   7.063   8.433  0.1183 -1.3639 -0.4224
   36bbb    H12  909   6.196   7.213   8.441 -0.6792  0.1011 -0.4965
   36bbb     C7  910   6.756   7.034   8.370 -0.0978 -0.2422  0.4345
   36bbb     C8  911   6.267   7.077   8.295 -0.0434 -0.2722 -0.2295
   36bbb     O1  912   6.746   7.042   8.254 -0.2358  0.0483  0.2847
   36bbb     O2  913   6.232   6.977   8.237  0.4147 -0.7528  0.6088
   36bbb     N4  914   6.422   7.311   8.807 -0.3576  0.4184  0.6276
   36bbb    H21  915   6.501   7.334   8.865  0.0403 -1.7892  0.9880
   37bbb     C1  916   6.844   7.668   8.634 -0.0404 -0.4355  0.0242
   37bbb     H1  917   6.936   7.666   8.574 -2.0067  1.4611 -3.1775
   37bbb     H2  918   6.776   7.592   8.593 -2.0668  0.8050  1.0366
   37bbb     C2  919   6.781   7.805   8.622  0.0840  0.1876  0.6309
   37bbb     H3  920   6.849   7.888   8.642 -2.3282  2.2972  0.2217
   37bbb     H4  921   6.751   7.808   8.517 -0.6328 -1.3945  0.7598
   37bbb     N1  922   6.859   7.635   8.778  0.0439 -0.2712 -0.8657
   37bbb     C3  923   6.973   7.706   8.837  0.0575 -0.2103 -1.2665
   37bbb     H5  924   6.978   7.807   8.793  0.5819  0.2759 -0.1053
   37bbb     H6  925   7.065   7.647   8.837 -0.2039 -0.6289 -0.4620
   37bbb     C4  926   6.881   7.493   8.800 -0.1451  0.3586  0.9010
   37bbb     H7  927   6.958   7.449   8.736 -1.0768 -2.1644  1.4519
   37bbb     H8  928   6.938   7.470   8.891 -0.5605 -0.8458  0.8628
   37bbb     C5  929   6.748   7.411   8.810 -0.3997  0.1948  0.3705
   37bbb     H9  930   6.673   7.450   8.880  0.4658 -0.3523  1.6330
   37bbb    H10  931   6.702   7.414   8.711 -0.4888 -0.9958  0.3700
   37bbb     C6  932   6.945   7.720   8.980  0.4156  0.3624  0.4040
   37bbb    H11  933   6.839   7.745   8.992  0.3514  0.8052 -0.9666
   37bbb    H12  934   6.963   7.626   9.033 -1.8283 -0.5911 -0.4753
   37bbb     C7  935   6.786   7.268   8.852  0.0601  0.7026  0.2512
   37bbb     C8  936   7.042   7.825   9.030  0.3347  0.1848  0.2401
   37bbb     O1  937   6.852   7.192   8.780  0.1611 -1.0842 -0.4126
   37bbb     O2  938   7.148   7.863   8.976  0.0573  0.5099 -0.1450
   37bbb     N4  939   6.650   7.837   8.696 -0.1499  0.2490  0.1313
   37bbb    H21  940   6.624   7.775   8.772  2.3335 -1.5437 -0.4262
   38bbb     C1  941   5.380   5.343   8.721 -1.1616  0.5696 -0.1208
   38bbb     H1  942   5.351   5.239   8.700  0.3259  0.5490 -2.3079
   38bbb     H2  943   5.404   5.349   8.828  1.3816 -0.3115 -0.6010
   38bbb     C2  944   5.267   5.446   8.693 -0.6993  0.4455 -0.3725
   38bbb     H3  945   5.173   5.419   8.742 -0.2935  0.9617  0.7089
   38bbb     H4  946   5.281   5.549   8.729 -0.2490  0.2409  0.0424
   38bbb     N1  947   5.500   5.359   8.633 -0.9499  0.4791  0.1538
   38bbb     C3  948   5.593   5.250   8.644  0.5736 -0.7106  0.2338
   38bbb     H5  949   5.619   5.247   8.751  1.1196 -1.8167  0.0854
   38bbb     H6  950   5.690   5.263   8.594  0.0322  0.7543 -0.4522
   38bbb     C4  951   5.563   5.493   8.653  0.0378 -0.6084 -0.1555
   38bbb     H7  952   5.482   5.568   8.654  0.3390 -0.2966  1.9891
   38bbb     H8  953   5.613   5.504   8.750 -0.0349  0.2861 -0.2068
   38bbb     C5  954   5.652   5.533   8.534 -0.5093  0.4791  0.4086
   38bbb     H9  955   5.745   5.480   8.513 -0.0720  0.7452  1.6153
   38bbb    H10  956   5.600   5.525   8.438 -0.2251 -0.0773  0.3003
   38bbb     C6  957   5.546   5.119   8.586 -0.1895 -0.5463 -0.0409
   38bbb    H11  958   5.466   5.070   8.644  1.7160 -2.4738  1.0580
   38bbb    H12  959   5.513   5.139   8.484 -1.7647 -0.6863  0.4205
   38bbb     C7  960   5.683   5.676   8.542  0.7174  1.0620 -0.1036
   38bbb     C8  961   5.658   5.028   8.586 -0.0583 -0.4420  0.2043
   38bbb     O1  962   5.645   5.748   8.627 -0.2645  0.0544 -0.2853
   38bbb     O2  963   5.731   5.010   8.489  0.2463 -0.2970 -0.4890
   38bbb     N4  964   5.243   5.459   8.543  0.7197  0.1116 -0.0615
   38bbb    H21  965   5.316   5.420   8.486  0.7188  0.4476 -0.2923
   39bbb     C1  966   5.635   5.541   7.615  0.3749  0.3685  0.6552
   39bbb     H1  967   5.666   5.473   7.535 -2.0641  2.7167 -2.4255
   39bbb     H2  968   5.725   5.567   7.672  0.1817  0.8889  0.7272
   39bbb     C2  969   5.542   5.446   7.702  0.7077  0.2654 -0.7036
   39bbb     H3  970   5.458   5.405   7.646  1.4558 -1.1143 -0.8259
   39bbb     H4  971   5.600   5.360   7.738  2.7932  1.9854  0.2144
   39bbb     N1  972   5.555   5.647   7.561 -0.1732 -0.2760  0.3767
   39bbb     C3  973   5.476   5.598   7.449  0.8460 -0.1665 -0.1838
   39bbb     H5  974   5.431   5.503   7.480 -2.3020  1.8202  1.4661
   39bbb     H6  975   5.535   5.588   7.357 -0.6716 -0.4738 -1.1438
   39bbb     C4  976   5.643   5.759   7.525  0.0505  0.4707 -0.3524
   39bbb     H7  977   5.730   5.712   7.477 -0.0622 -0.8053  0.6832
   39bbb     H8  978   5.608   5.828   7.447 -0.3291 -0.7335 -1.2445
   39bbb     C5  979   5.682   5.842   7.657 -0.5744  0.1330 -0.7002
   39bbb     H9  980   5.597   5.891   7.706 -0.1508  0.7776 -0.6093
   39bbb    H10  981   5.727   5.783   7.738 -0.6909  1.1704  0.1354
   39bbb     C6  982   5.357   5.691   7.418  0.6933  0.3845 -0.6945
   39bbb    H11  983   5.295   5.682   7.508  0.2275 -2.5067 -1.2412
   39bbb    H12  984   5.404   5.790   7.415  1.6624 -0.0370  0.2660
   39bbb     C7  985   5.786   5.944   7.623 -0.6234  0.3857  0.7421
   39bbb     C8  986   5.288   5.644   7.289 -0.2288  0.0950 -0.4986
   39bbb     O1  987   5.763   6.061   7.613  0.0912  0.2666  0.2368
   39bbb     O2  988   5.278   5.526   7.260  0.1709  0.0120  0.0475
   39bbb     N4  989   5.499   5.529   7.831 -0.0847 -0.1522  0.0003
   39bbb    H21  990   5.420   5.589   7.812  1.7229  1.8659 -1.2760
   40bbb     C1  991   5.433   6.321   7.196  0.2126  0.6786  0.2964
   40bbb     H1  992   5.458   6.277   7.294  1.5084  1.2327  0.2302
   40bbb     H2  993   5.374   6.412   7.215 -1.0862 -0.7158  3.2257
   40bbb     C2  994   5.345   6.217   7.121 -0.0253  0.0715  1.4603
   40bbb     H3  995   5.317   6.272   7.030 -1.4676 -1.6609  0.8245
   40bbb     H4  996   5.398   6.122   7.104 -0.4990  0.1065 -0.4179
   40bbb     N1  997   5.562   6.361   7.135 -0.0841  0.2115 -0.6003
   40bbb     C3  998   5.553   6.423   7.006  0.1320 -0.1223  0.0895
   40bbb     H5  999   5.601   6.522   7.006  1.2953 -0.6791 -0.6083
   40bbb     H6 1000   5.446   6.442   6.991  0.4762  1.4933 -0.4157
   40bbb     C4 1001   5.651   6.433   7.225  0.3867 -0.3417  0.0441
   40bbb     H7 1002   5.734   6.481   7.173 -0.7748  1.0328 -0.5880
   40bbb     H8 1003   5.585   6.514   7.260  0.3681 -0.8468  1.1950
   40bbb     C5 1004   5.688   6.359   7.351 -0.4137  0.1368 -0.1362
   40bbb     H9 1005   5.602   6.351   7.418  0.3887  0.9407  0.9971
   40bbb    H10 1006   5.713   6.261   7.310  0.3614 -0.2465  1.2149
   40bbb     C6 1007   5.611   6.324   6.908 -0.3542  0.5284  0.1135
   40bbb    H11 1008   5.713   6.300   6.938  0.1519  0.9257 -1.2190
   40bbb    H12 1009   5.550   6.233   6.919 -1.2731  1.5563  4.0549
   40bbb     C7 1010   5.795   6.411   7.434  0.5463 -0.6981  0.0037
   40bbb     C8 1011   5.624   6.398   6.774  0.1258 -0.1772  0.4471
   40bbb     O1 1012   5.849   6.516   7.411  0.0442  0.2560 -0.1246
   40bbb     O2 1013   5.727   6.451   6.745 -0.1448  0.0080  0.4087
   40bbb     N4 1014   5.224   6.181   7.193  0.0111  0.4461 -0.2279
   40bbb    H21 1015   5.146   6.245   7.189  1.7446  2.6536 -0.1605
   41bbb     C1 1016   5.183   5.434   7.997 -0.1691  0.5774 -0.0149
   41bbb     H1 1017   5.288   5.414   7.973  0.3538  1.6628  1.2845
   41bbb     H2 1018   5.121   5.390   7.918 -0.8693 -0.6753  1.2076
   41bbb     C2 1019   5.152   5.582   8.009  0.0940  0.5601 -0.2565
   41bbb     H3 1020   5.052   5.590   8.054 -0.6832 -0.8380 -1.7155
   41bbb     H4 1021   5.221   5.627   8.082  0.1500  1.5607 -0.9042
   41bbb     N1 1022   5.141   5.362   8.123  0.5917  0.0226 -0.3050
   41bbb     C3 1023   5.201   5.223   8.137  0.1796 -0.6497  0.0875
   41bbb     H5 1024   5.214   5.164   8.045  1.8841  1.1168 -0.8361
   41bbb     H6 1025   5.133   5.172   8.206 -1.2469 -1.5397 -1.9231
   41bbb     C4 1026   4.990   5.346   8.106  0.4157 -0.7196 -0.4495
   41bbb     H7 1027   4.940   5.420   8.043 -0.6613 -1.2016 -0.1794
   41bbb     H8 1028   4.976   5.242   8.074 -0.4455 -1.2769  1.6478
   41bbb     C5 1029   4.923   5.365   8.243 -0.5190 -0.4082  0.3583
   41bbb     H9 1030   4.970   5.286   8.302 -1.3069 -0.7105  0.5966
   41bbb    H10 1031   4.954   5.454   8.298  1.6954 -1.1543  0.3743
   41bbb     C6 1032   5.327   5.231   8.215  0.3153 -0.0224 -0.3486
   41bbb    H11 1033   5.396   5.294   8.157  0.9906  0.5409  1.0460
   41bbb    H12 1034   5.303   5.261   8.318  0.9021 -1.1890  0.1349
   41bbb     C7 1035   4.774   5.355   8.226 -0.8844  0.8713 -0.0270
   41bbb     C8 1036   5.384   5.094   8.234  0.4501 -1.0144 -0.4333
   41bbb     O1 1037   4.705   5.362   8.131  0.9302  0.0282  0.5544
   41bbb     O2 1038   5.316   4.999   8.267 -0.1794  0.1465  0.7639
   41bbb     N4 1039   5.148   5.658   7.886 -0.1207 -0.1115  0.0206
   41bbb    H21 1040   5.131   5.606   7.801  1.0298 -2.1113  0.9736
   42bbb     C1 1041   5.297   6.815   9.369  0.3215  0.1629 -0.2874
   42bbb     H1 1042   5.201   6.768   9.341 -0.0610  0.9113 -0.2379
   42bbb     H2 1043   5.379   6.747   9.345 -0.0478 -0.0747 -0.8825
   42bbb     C2 1044   5.288   6.830   9.519  0.4806  0.3004  0.8168
   42bbb     H3 1045   5.387   6.872   9.542  1.3072 -1.1040 -0.0697
   42bbb     H4 1046   5.201   6.895   9.534  0.9981  1.5381 -1.3826
   42bbb     N1 1047   5.317   6.952   9.312  0.0190  0.2007 -0.2219
   42bbb     C3 1048   5.244   6.970   9.182  0.0649 -0.4432  0.4932
   42bbb     H5 1049   5.257   6.885   9.115 -0.6494  1.1658 -1.7571
   42bbb     H6 1050   5.290   7.055   9.130  0.2815 -1.7672 -1.5033
   42bbb     C4 1051   5.457   6.987   9.313 -0.4547 -0.1923  0.0920
   42bbb     H7 1052   5.502   6.963   9.410 -0.4290  0.4451  0.2366
   42bbb     H8 1053   5.516   6.927   9.242  0.8313 -0.3995  1.3016
   42bbb     C5 1054   5.479   7.132   9.290 -0.4026  0.7593  0.5860
   42bbb     H9 1055   5.487   7.160   9.185  0.0882  1.7147  0.8757
   42bbb    H10 1056   5.404   7.193   9.342 -1.9185  0.3852 -1.1248
   42bbb     C6 1057   5.101   7.003   9.219  0.0882 -0.2324 -0.9213
   42bbb    H11 1058   5.054   6.908   9.249  0.8845 -0.3618 -0.0509
   42bbb    H12 1059   5.094   7.072   9.304 -2.5622 -0.3342 -1.0040
   42bbb     C7 1060   5.616   7.170   9.351 -0.6314 -0.0018 -0.1189
   42bbb     C8 1061   5.026   7.071   9.108  0.9573  0.0186  0.7384
   42bbb     O1 1062   5.721   7.117   9.313  0.1762 -0.2654 -0.0106
   42bbb     O2 1063   5.075   7.103   9.001  0.8281 -0.0845 -0.3102
   42bbb     N4 1064   5.269   6.710   9.604  0.0353 -0.4209 -0.6507
   42bbb    H21 1065   5.236   6.623   9.565 -0.3850 -1.0644  1.1071
   43bbb     C1 1066   4.520   6.706  10.220  0.4113  0.5325 -0.4589
   43bbb     H1 1067   4.492   6.664  10.122  0.4795  1.3718 -0.8464
   43bbb     H2 1068   4.424   6.726  10.268 -2.0443 -6.7271 -1.6683
   43bbb     C2 1069   4.604   6.841  10.200  0.4885  0.6838 -0.1765
   43bbb     H3 1070   4.536   6.900  10.138  0.5926 -0.7138 -1.6650
   43bbb     H4 1071   4.628   6.878  10.300 -1.4943  0.6739  0.3207
   43bbb     N1 1072   4.588   6.608  10.310  0.5302  0.1397 -0.0207
   43bbb     C3 1073   4.630   6.498  10.227  0.1674  0.0000  0.3512
   43bbb     H5 1074   4.671   6.540  10.135  2.4329 -0.3214  1.1731
   43bbb     H6 1075   4.539   6.442  10.201  0.6269 -0.1338 -1.0008
   43bbb     C4 1076   4.517   6.572  10.435  0.1802 -0.5389 -0.3267
   43bbb     H7 1077   4.423   6.521  10.412 -1.5592  1.2404  2.4662
   43bbb     H8 1078   4.584   6.508  10.493 -0.9553  1.8235  3.8296
   43bbb     C5 1079   4.500   6.694  10.529  0.2606  0.0933 -0.3122
   43bbb     H9 1080   4.601   6.733  10.547  0.0588  0.0452  0.9948
   43bbb    H10 1081   4.430   6.769  10.492  1.4559  1.2572 -0.2356
   43bbb     C6 1082   4.730   6.400  10.297 -0.3670 -0.2084 -0.2782
   43bbb    H11 1083   4.798   6.461  10.358  0.8341  0.1371 -1.9463
   43bbb    H12 1084   4.694   6.328  10.372  1.8568  1.5259  2.5378
   43bbb     C7 1085   4.453   6.658  10.667  0.0111 -0.2429 -0.1586
   43bbb     C8 1086   4.815   6.327  10.197 -0.3981  0.2533  0.5717
   43bbb     O1 1087   4.425   6.550  10.714 -0.5722  0.2798 -0.2675
   43bbb     O2 1088   4.914   6.382  10.152  0.4537 -0.5742  0.3913
   43bbb     N4 1089   4.732   6.821  10.129  0.7869  0.6802 -0.6556
   43bbb    H21 1090   4.796   6.749  10.159 -0.1556  0.9626  2.1987
   44bbb     C1 1091   5.775   6.082   9.342  0.9619 -0.3286  0.6775
   44bbb     H1 1092   5.861   6.130   9.389  0.5772  0.0443  1.0014
   44bbb     H2 1093   5.768   6.112   9.237 -1.2693 -2.0254  0.3094
   44bbb     C2 1094   5.645   6.139   9.412  0.5517 -0.3158  1.1371
   44bbb     H3 1095   5.641   6.249   9.412 -1.3616 -0.3613 -0.2021
   44bbb     H4 1096   5.561   6.109   9.348  0.7805 -0.5571  0.9482
   44bbb     N1 1097   5.791   5.936   9.337 -0.1344  0.4890 -0.5503
   44bbb     C3 1098   5.930   5.883   9.325  0.0573 -1.0111 -0.2599
   44bbb     H5 1099   5.939   5.782   9.367 -1.5579 -0.6775  0.9285
   44bbb     H6 1100   6.001   5.945   9.380  2.3385 -4.1341  0.4598
   44bbb     C4 1101   5.690   5.867   9.263 -0.0247  0.7128 -0.3406
   44bbb     H7 1102   5.593   5.907   9.294 -1.0189 -0.9146 -1.3088
   44bbb     H8 1103   5.711   5.893   9.159 -0.1765 -0.9775 -0.8049
   44bbb     C5 1104   5.698   5.715   9.280  0.1333 -0.2095 -0.4957
   44bbb     H9 1105   5.797   5.678   9.249  0.2998  0.3660 -0.6486
   44bbb    H10 1106   5.684   5.690   9.386 -0.1490 -2.0042 -0.9364
   44bbb     C6 1107   5.989   5.887   9.188 -0.7345 -0.3002  0.0420
   44bbb    H11 1108   5.934   5.824   9.118 -0.1238 -0.9928  0.1843
   44bbb    H12 1109   5.983   5.988   9.145 -1.0732  0.7371  2.4093
   44bbb     C7 1110   5.583   5.657   9.211 -0.4092  0.8209 -0.2415
   44bbb     C8 1111   6.132   5.849   9.199 -0.4813  0.7706  0.5442
   44bbb     O1 1112   5.508   5.579   9.262 -0.6350  0.3811  0.4314
   44bbb     O2 1113   6.168   5.737   9.182  0.1649 -0.6158 -0.3101
   44bbb     N4 1114   5.623   6.085   9.550 -0.7264 -0.0446 -0.3665
   44bbb    H21 1115   5.689   6.017   9.587  0.2497  1.8210  1.3942
   45bbb     C1 1116   6.037   5.460   9.549 -0.2392  0.3920 -0.1345
   45bbb     H1 1117   6.097   5.385   9.602  0.3252  1.2131  0.4024
   45bbb     H2 1118   6.100   5.549   9.533  1.3344 -0.4171  1.4140
   45bbb     C2 1119   5.940   5.496   9.662  0.1597 -0.4431 -0.0732
   45bbb     H3 1120   5.902   5.400   9.699  2.4156 -1.5637 -0.5457
   45bbb     H4 1121   6.003   5.549   9.735 -0.4394  2.0068 -1.2753
   45bbb     N1 1122   5.977   5.424   9.415 -0.7549  0.0083  0.3256
   45bbb     C3 1123   5.889   5.303   9.429 -0.0731 -0.0900 -0.0347
   45bbb     H5 1124   5.919   5.241   9.514 -1.6708 -1.1470 -0.2205
   45bbb     H6 1125   5.898   5.232   9.346 -2.5219  0.9319 -1.2242
   45bbb     C4 1126   6.087   5.404   9.322  0.5570 -0.4259 -0.1816
   45bbb     H7 1127   6.155   5.489   9.329  1.3831 -1.0595 -0.4678
   45bbb     H8 1128   6.138   5.308   9.331  2.2724  0.3331 -1.5015
   45bbb     C5 1129   6.028   5.413   9.181 -0.7447  0.3903  0.5877
   45bbb     H9 1130   5.958   5.330   9.162 -0.1004  0.3147 -1.6723
   45bbb    H10 1131   5.988   5.515   9.169 -3.0777 -0.3365  1.9044
   45bbb     C6 1132   5.745   5.342   9.438 -0.5456  0.2277 -0.0863
   45bbb    H11 1133   5.725   5.353   9.545  2.8606  0.8605  0.5470
   45bbb    H12 1134   5.723   5.440   9.393 -0.8261 -0.5384 -1.6732
   45bbb     C7 1135   6.143   5.383   9.090 -0.4252 -0.1104 -0.4751
   45bbb     C8 1136   5.657   5.239   9.386 -0.3961 -0.4643  0.2169
   45bbb     O1 1137   6.154   5.282   9.026 -0.5029  0.0992  0.0778
   45bbb     O2 1138   5.690   5.125   9.369 -0.9690  0.2507 -0.3510
   45bbb     N4 1139   5.833   5.585   9.626 -0.0466 -0.0218  0.6017
   45bbb    H21 1140   5.832   5.632   9.536 -1.9535  1.3083  1.3024
   46bbb     C1 1141   5.072   8.591  10.254  0.1924  0.5814 -0.3900
   46bbb     H1 1142   4.991   8.634  10.194 -0.7997 -0.9146 -0.1455
   46bbb     H2 1143   5.045   8.620  10.356 -2.1791  1.3870 -1.2116
   46bbb     C2 1144   5.193   8.666  10.196 -0.4255 -0.3012 -0.3202
   46bbb     H3 1145   5.166   8.772  10.199  1.0964  0.1094 -0.4928
   46bbb     H4 1146   5.280   8.649  10.261 -0.3382  1.3911  0.0152
   46bbb     N1 1147   5.083   8.443  10.240  0.4470  0.7677  0.1186
   46bbb     C3 1148   4.950   8.384  10.254  1.2427 -0.1649 -0.1176
   46bbb     H5 1149   4.893   8.431  10.335 -0.1261 -2.1885  0.1347
   46bbb     H6 1150   4.965   8.276  10.263  1.0744 -0.4279 -2.5575
   46bbb     C4 1151   5.165   8.381  10.344 -0.0047  0.6825  0.6980
   46bbb     H7 1152   5.257   8.438  10.365  0.4637  0.2245 -0.0586
   46bbb     H8 1153   5.108   8.370  10.436  1.4142 -1.4556  1.3432
   46bbb     C5 1154   5.206   8.245  10.295  0.4921 -0.0187 -0.5124
   46bbb     H9 1155   5.123   8.173  10.291 -1.2234  1.8828  0.3036
   46bbb    H10 1156   5.245   8.254  10.193 -1.3159  1.8234 -1.0742
   46bbb     C6 1157   4.880   8.410  10.124  0.1788  0.1719 -0.0778
   46bbb    H11 1158   4.850   8.511  10.092 -0.5982 -0.0514 -0.0547
   46bbb    H12 1159   4.952   8.363  10.055  0.3606 -1.4116  1.1567
   46bbb     C7 1160   5.315   8.191  10.385  0.6173  1.1174  0.0748
   46bbb     C8 1161   4.757   8.315  10.114 -0.0803  0.2497 -0.0604
   46bbb     O1 1162   5.350   8.244  10.486 -0.3981  0.0973 -0.0500
   46bbb     O2 1163   4.721   8.246  10.211  0.0439 -0.3472  0.4278
   46bbb     N4 1164   5.220   8.634  10.054  0.0322  0.3745  0.3150
   46bbb    H21 1165   5.170   8.687   9.984 -2.4006  1.4600  2.7792
   47bbb     C1 1166   5.319   8.535   9.163  0.0747 -0.4610  0.4802
   47bbb     H1 1167   5.356   8.590   9.250 -1.0515  1.8665 -0.4696
   47bbb     H2 1168   5.214   8.564   9.151 -0.0808 -1.2801 -0.2110
   47bbb     C2 1169   5.316   8.391   9.207  0.3828 -0.3724 -0.1026
   47bbb     H3 1170   5.221   8.342   9.186 -0.7112  0.9179  1.7608
   47bbb     H4 1171   5.388   8.340   9.142 -1.3587  0.8569 -3.1118
   47bbb     N1 1172   5.395   8.570   9.038 -0.2727  0.4935  0.0318
   47bbb     C3 1173   5.511   8.641   9.079  0.1328  0.7120  0.4735
   47bbb     H5 1174   5.559   8.606   9.171  2.1061 -2.7292 -1.7381
   47bbb     H6 1175   5.507   8.751   9.087 -0.6383  0.7407 -0.2144
   47bbb     C4 1176   5.321   8.634   8.927  0.2393 -0.0269 -0.8742
   47bbb     H7 1177   5.278   8.729   8.959 -2.1074 -1.1074 -0.7204
   47bbb     H8 1178   5.391   8.646   8.844 -0.3735 -0.1705 -1.4145
   47bbb     C5 1179   5.211   8.546   8.865  0.4307  0.1175  0.5022
   47bbb     H9 1180   5.252   8.449   8.834  2.1671  1.8013 -2.6668
   47bbb    H10 1181   5.140   8.528   8.947 -0.0683 -2.0436 -0.3712
   47bbb     C6 1182   5.611   8.616   8.967 -0.0580  0.2304 -0.5277
   47bbb    H11 1183   5.609   8.509   8.943 -0.0581 -0.4400  2.2858
   47bbb    H12 1184   5.586   8.685   8.886 -1.3847 -0.7432 -0.9782
   47bbb     C7 1185   5.134   8.617   8.754  0.3807  0.6257 -0.8972
   47bbb     C8 1186   5.751   8.638   9.015 -0.7545  0.4263  0.0127
   47bbb     O1 1187   5.017   8.647   8.766  0.1817  0.1673 -0.0745
   47bbb     O2 1188   5.784   8.743   9.063  0.2051  0.2585  0.5497
   47bbb     N4 1189   5.337   8.379   9.354  0.2528 -0.0935 -0.7700
   47bbb    H21 1190   5.382   8.444   9.417 -0.8646  0.4104 -0.4778
   48bbb     C1 1191   5.295   6.317  10.143  0.2793 -0.3169 -1.1311
   48bbb     H1 1192   5.204   6.367  10.108  0.8861  2.8671  1.5694
   48bbb     H2 1193   5.291   6.326  10.252  0.3995 -2.5075 -0.9240
   48bbb     C2 1194   5.423   6.387  10.094  0.1199 -0.1354  0.2988
   48bbb     H3 1195   5.511   6.331  10.130  0.3125 -0.6276 -0.9194
   48bbb     H4 1196   5.429   6.379   9.985  3.1379 -0.6717  0.4714
   48bbb     N1 1197   5.296   6.173  10.104  0.4399 -0.3391  0.5438
   48bbb     C3 1198   5.157   6.131  10.067 -0.0057  0.1667 -0.2310
   48bbb     H5 1199   5.086   6.165  10.143 -0.0809 -2.6286  1.0098
   48bbb     H6 1200   5.136   6.026  10.047  0.1161  0.1477 -0.2628
   48bbb     C4 1201   5.331   6.090  10.216  0.9673  0.0515 -0.4045
   48bbb     H7 1202   5.272   6.109  10.306  0.5363  1.3719 -0.9618
   48bbb     H8 1203   5.304   5.988  10.188 -0.0794 -0.0981  1.0695
   48bbb     C5 1204   5.482   6.102  10.244  0.5543  0.1417  0.1805
   48bbb     H9 1205   5.529   6.089  10.146  0.5714 -1.1990  0.3615
   48bbb    H10 1206   5.524   6.195  10.285  0.9746  1.2440 -2.6434
   48bbb     C6 1207   5.106   6.199   9.945  0.7116  0.3395  0.1523
   48bbb    H11 1208   5.059   6.297   9.958  0.7164  0.2086  1.2003
   48bbb    H12 1209   5.191   6.209   9.876 -0.1013  0.9018 -0.7935
   48bbb     C7 1210   5.529   5.983  10.326  0.3528  0.4324 -0.3935
   48bbb     C8 1211   5.012   6.106   9.882  0.1406 -0.5625 -0.3984
   48bbb     O1 1212   5.505   5.973  10.445 -0.1273  0.5586  0.0675
   48bbb     O2 1213   4.930   6.038   9.940 -0.0940  0.4986 -0.1201
   48bbb     N4 1214   5.440   6.534  10.129 -0.1511  0.5155  0.3490
   48bbb    H21 1215   5.368   6.585  10.179 -1.3947 -0.7169 -0.1924
   49bbb     C1 1216   5.356   7.177  10.551 -0.0976  0.1992 -0.1114
   49bbb     H1 1217   5.341   7.091  10.484 -1.7357  1.2846 -1.1925
   49bbb     H2 1218   5.396   7.264  10.498  2.6464 -1.8891 -1.6179
   49bbb     C2 1219   5.464   7.138  10.655 -0.1497  0.2914  0.0452
   49bbb     H3 1220   5.470   7.223  10.724 -0.8713  1.9746 -1.9426
   49bbb     H4 1221   5.433   7.048  10.709  1.3283 -0.8193 -0.9120
   49bbb     N1 1222   5.229   7.203  10.617 -0.3552 -0.7532 -0.0180
   49bbb     C3 1223   5.160   7.087  10.680 -0.3755 -0.2210 -0.0752
   49bbb     H5 1224   5.186   6.990  10.637 -0.8224  0.0923 -1.0688
   49bbb     H6 1225   5.051   7.099  10.671 -0.2988 -0.4427 -1.3708
   49bbb     C4 1226   5.140   7.282  10.536  0.2029 -0.1703 -0.0922
   49bbb     H7 1227   5.180   7.339  10.451  0.1416 -0.3430 -0.2373
   49bbb     H8 1228   5.075   7.208  10.489 -2.1884  0.5257  1.9943
   49bbb     C5 1229   5.058   7.379  10.621 -0.2738 -0.2516  0.1636
   49bbb     H9 1230   4.998   7.323  10.694  0.3406 -0.4092  0.5506
   49bbb    H10 1231   5.125   7.454  10.666  2.1950 -1.9905 -0.4985
   49bbb     C6 1232   5.190   7.097  10.829  0.2402  1.0355 -0.1689
   49bbb    H11 1233   5.297   7.110  10.850 -0.1496  0.7003  2.1696
   49bbb    H12 1234   5.148   7.193  10.861  0.3540  1.4810 -1.3182
   49bbb     C7 1235   4.963   7.458  10.540 -0.2350  0.2135  0.3721
   49bbb     C8 1236   5.145   6.982  10.915  0.1709  0.1360 -0.2182
   49bbb     O1 1237   4.970   7.455  10.418  0.2845 -0.4019 -0.4384
   49bbb     O2 1238   5.096   6.879  10.871  0.3162  0.7466 -0.4352
   49bbb     N4 1239   5.599   7.129  10.599 -0.0518  0.1543  0.3156
   49bbb    H21 1240   5.650   7.210  10.565 -1.5455  0.4860 -1.2322
   50bbb     C1 1241   6.517   7.931   8.061  0.2179  0.5177  1.2991
   50bbb     H1 1242   6.500   8.036   8.036 -0.0700 -0.2986 -2.1210
   50bbb     H2 1243   6.465   7.885   7.976  1.5591  0.2525  0.6049
   50bbb     C2 1244   6.450   7.890   8.190 -0.0949 -0.5073 -0.1558
   50bbb     H3 1245   6.448   7.780   8.192  2.6729 -0.5959  0.9257
   50bbb     H4 1246   6.509   7.922   8.277 -1.2857  3.2790 -0.6869
   50bbb     N1 1247   6.649   7.873   8.038 -0.0584  0.3351  0.1342
   50bbb     C3 1248   6.750   7.917   8.133 -0.0854  0.0410 -0.5337
   50bbb     H5 1249   6.709   7.906   8.235 -0.5321  0.0143 -0.7145
   50bbb     H6 1250   6.769   8.024   8.125 -0.0601  0.0134 -0.8547
   50bbb     C4 1251   6.687   7.882   7.900  0.5610 -0.2792 -0.5110
   50bbb     H7 1252   6.659   7.976   7.852 -1.4926 -0.4321  0.3204
   50bbb     H8 1253   6.795   7.876   7.883  0.5945 -0.9156 -0.1337
   50bbb     C5 1254   6.634   7.762   7.825 -0.1404 -0.5283 -0.3882
   50bbb     H9 1255   6.666   7.662   7.858  1.6564  0.8637  2.2024
   50bbb    H10 1256   6.525   7.761   7.831 -0.1414  1.3944  0.1374
   50bbb     C6 1257   6.883   7.831   8.132  0.4525  0.0067  0.3848
   50bbb    H11 1258   6.858   7.731   8.095 -2.2659  1.4236 -1.8067
   50bbb    H12 1259   6.960   7.878   8.069 -0.5264  1.2524  0.0984
   50bbb     C7 1260   6.661   7.777   7.680  0.1864  0.0852  0.1543
   50bbb     C8 1261   6.953   7.840   8.265  0.8098 -0.4103  0.1103
   50bbb     O1 1262   6.721   7.869   7.630  0.3154 -1.2686  0.2245
   50bbb     O2 1263   6.928   7.928   8.346 -0.5253  0.6305 -0.0945
   50bbb     N4 1264   6.306   7.932   8.194 -0.5553 -0.1872  0.2797
   50bbb    H21 1265   6.275   7.999   8.263  1.9964  1.2664  0.0591
   51bbb     C1 1266   5.490   7.321   7.959 -0.2704 -0.2854  0.1207
   51bbb     H1 1267   5.599   7.308   7.966 -0.5488 -2.3203  0.9559
   51bbb     H2 1268   5.483   7.364   7.859  1.4686  0.8488  0.4715
   51bbb     C2 1269   5.473   7.419   8.077  0.3254 -0.1482 -0.0741
   51bbb     H3 1270   5.378   7.474   8.068 -1.1381 -2.9105 -1.9840
   51bbb     H4 1271   5.465   7.366   8.173  2.8411  0.1723  0.3458
   51bbb     N1 1272   5.425   7.187   7.980 -0.2741  0.3986  0.1188
   51bbb     C3 1273   5.429   7.116   7.852  0.2295  0.1663  0.6418
   51bbb     H5 1274   5.382   7.017   7.860  1.3530 -0.2058  3.0755
   51bbb     H6 1275   5.533   7.099   7.821 -0.0277 -0.1946 -0.0424
   51bbb     C4 1276   5.501   7.117   8.082  0.4807 -0.5692 -0.0256
   51bbb     H7 1277   5.607   7.129   8.060  0.2983 -0.8702 -1.0917
   51bbb     H8 1278   5.466   7.152   8.180 -1.0502 -0.4927 -0.5716
   51bbb     C5 1279   5.479   6.966   8.091 -0.4521  0.0241  0.1388
   51bbb     H9 1280   5.372   6.950   8.110  0.0989 -0.6310  2.7840
   51bbb    H10 1281   5.506   6.912   7.999 -0.0489  1.2749 -0.4903
   51bbb     C6 1282   5.348   7.192   7.747 -0.0255 -0.4143  0.1456
   51bbb    H11 1283   5.279   7.259   7.801 -0.8882 -0.7738 -0.5069
   51bbb    H12 1284   5.408   7.260   7.685  0.8636 -1.3813 -0.0620
   51bbb     C7 1285   5.556   6.912   8.202  0.4484 -0.1403  0.2275
   51bbb     C8 1286   5.267   7.113   7.655 -0.1582  0.1879  0.2116
   51bbb     O1 1287   5.641   6.966   8.264 -0.0856 -0.5989 -0.0114
   51bbb     O2 1288   5.148   7.096   7.673 -0.1824  0.5618 -0.2544
   51bbb     N4 1289   5.582   7.519   8.089  0.3373 -0.5067 -0.3943
   51bbb    H21 1290   5.639   7.553   8.012  1.6924 -1.2328  0.2649
   52bbb     C1 1291   5.595   8.003  10.039  0.6436 -0.2354 -0.0240
   52bbb     H1 1292   5.551   7.942   9.959  0.9113  0.1786 -0.4826
   52bbb     H2 1293   5.523   7.992  10.121 -0.3050 -1.0622 -0.9580
   52bbb     C2 1294   5.613   8.146  10.000 -0.3212 -0.4559 -0.4977
   52bbb     H3 1295   5.512   8.184   9.981  0.0113  1.0120  0.6228
   52bbb     H4 1296   5.645   8.199  10.090 -1.0925 -0.1879 -0.3787
   52bbb     N1 1297   5.723   7.945  10.075 -0.0440 -0.9602 -0.3334
   52bbb     C3 1298   5.725   7.805  10.048 -0.3035  0.5170 -0.0526
   52bbb     H5 1299   5.639   7.769   9.990  0.6385 -2.2407  0.1704
   52bbb     H6 1300   5.726   7.741  10.138  1.3226 -1.1819 -1.2350
   52bbb     C4 1301   5.765   7.976  10.215  0.2297 -0.3027 -0.0121
   52bbb     H7 1302   5.767   8.084  10.235 -1.0317 -0.1017 -0.8586
   52bbb     H8 1303   5.699   7.928  10.289  0.6052 -0.3310  0.3066
   52bbb     C5 1304   5.906   7.932  10.241  0.5796 -0.1744  0.5278
   52bbb     H9 1305   5.908   7.824  10.221 -1.5026  0.1594 -1.6501
   52bbb    H10 1306   5.980   7.988  10.183  0.8944 -0.7511  0.3641
   52bbb     C6 1307   5.845   7.774   9.961  0.2566  0.5692 -0.2193
   52bbb    H11 1308   5.807   7.790   9.859  2.1332 -1.9991 -1.3617
   52bbb    H12 1309   5.925   7.846   9.984 -1.0168  2.1361 -0.6099
   52bbb     C7 1310   5.939   7.961  10.379 -0.7981 -1.1934  0.4566
   52bbb     C8 1311   5.884   7.629   9.974  0.2676 -1.0227  0.9861
   52bbb     O1 1312   5.891   8.051  10.439  0.4854  0.1030 -0.1924
   52bbb     O2 1313   5.842   7.552  10.058 -0.4350 -0.2063  0.4308
   52bbb     N4 1314   5.703   8.166   9.882  0.3822 -0.0018 -0.5267
   52bbb    H21 1315   5.739   8.087   9.829  1.6962  1.1447 -1.3866
   53bbb     C1 1316   6.479   8.387   9.319 -0.5077  0.1749  0.3375
   53bbb     H1 1317   6.561   8.458   9.334  0.0017 -0.3820  0.1878
   53bbb     H2 1318   6.473   8.356   9.214 -1.0803  1.3109  0.0221
   53bbb     C2 1319   6.348   8.463   9.330 -0.0969  0.8674  0.1955
   53bbb     H3 1320   6.359   8.544   9.403 -0.9709  1.4362 -0.2811
   53bbb     H4 1321   6.344   8.516   9.233  0.8648  1.1628  0.3071
   53bbb     N1 1322   6.497   8.263   9.399 -0.4924  0.0881 -0.2863
   53bbb     C3 1323   6.518   8.296   9.542 -0.3642 -0.0060 -0.5790
   53bbb     H5 1324   6.435   8.363   9.563 -0.6695 -0.6034  0.1176
   53bbb     H6 1325   6.610   8.356   9.547 -0.6839  0.6787 -2.4390
   53bbb     C4 1326   6.607   8.179   9.344  0.2382 -0.2614 -0.0706
   53bbb     H7 1327   6.680   8.245   9.297 -1.4517  1.6954  0.0171
   53bbb     H8 1328   6.668   8.128   9.421  4.0632  1.9867 -1.4654
   53bbb     C5 1329   6.554   8.073   9.244 -0.0194  0.3346  1.0699
   53bbb     H9 1330   6.509   7.985   9.291  4.2292 -1.6845  1.5983
   53bbb    H10 1331   6.484   8.132   9.184 -0.4790  1.6637  2.8507
   53bbb     C6 1332   6.520   8.170   9.629 -0.5522 -0.9919  0.5816
   53bbb    H11 1333   6.427   8.117   9.605 -0.6822 -0.7025  0.4391
   53bbb    H12 1334   6.597   8.095   9.609 -1.8667 -2.3799  0.5917
   53bbb     C7 1335   6.662   8.021   9.163  0.1992 -0.3598  0.4210
   53bbb     C8 1336   6.513   8.207   9.772  0.0062 -0.2424 -0.0073
   53bbb     O1 1337   6.721   7.917   9.183 -0.0258  0.3360  0.0034
   53bbb     O2 1338   6.508   8.320   9.807  0.8509  0.2225  0.0533
   53bbb     N4 1339   6.221   8.386   9.355 -0.2085  0.1866 -0.5057
   53bbb    H21 1340   6.221   8.286   9.369 -0.2750  0.1827 -0.5402
   54bbb     C1 1341   3.533   5.819   8.667  0.2196  0.6838 -0.4217
   54bbb     H1 1342   3.590   5.911   8.647  0.4816  1.2296  2.6073
   54bbb     H2 1343   3.578   5.762   8.748  0.0163 -0.4573 -1.0997
   54bbb     C2 1344   3.530   5.728   8.543 -0.3212  0.5833 -0.0474
   54bbb     H3 1345   3.616   5.659   8.537 -1.4134 -0.8046 -0.1328
   54bbb     H4 1346   3.444   5.663   8.564 -0.8459  1.5060  0.7043
   54bbb     N1 1347   3.394   5.861   8.697 -0.4399 -0.0241 -1.0706
   54bbb     C3 1348   3.367   5.992   8.631 -0.8882  0.5562 -0.4902
   54bbb     H5 1349   3.392   5.997   8.525  0.6724 -0.0948 -0.1619
   54bbb     H6 1350   3.425   6.065   8.689 -0.3508 -0.4209  0.2045
   54bbb     C4 1351   3.352   5.846   8.837  0.1675  0.2902  0.5621
   54bbb     H7 1352   3.243   5.861   8.845  0.2912  0.1597  2.5584
   54bbb     H8 1353   3.380   5.744   8.868  0.4101 -0.0816 -0.8104
   54bbb     C5 1354   3.400   5.950   8.932  0.3407 -0.0622  0.7065
   54bbb     H9 1355   3.509   5.957   8.918  0.2825 -0.5017 -0.0625
   54bbb    H10 1356   3.355   6.049   8.924 -0.7086 -0.5159  0.8529
   54bbb     C6 1357   3.215   6.015   8.621  0.2368 -0.1454  0.2217
   54bbb    H11 1358   3.154   5.929   8.589  0.8130 -0.4032 -0.1925
   54bbb    H12 1359   3.182   6.053   8.719  0.4178  0.7604 -0.0625
   54bbb     C7 1360   3.385   5.911   9.077 -0.4018  0.4426 -0.4215
   54bbb     C8 1361   3.181   6.121   8.524  0.0032  0.0868  0.1359
   54bbb     O1 1362   3.334   5.808   9.121  0.7582 -0.5948  0.2056
   54bbb     O2 1363   3.153   6.237   8.555  0.3544 -0.2099 -0.3941
   54bbb     N4 1364   3.504   5.789   8.408  0.1651  0.5128 -0.1870
   54bbb    H21 1365   3.530   5.886   8.396 -0.4958  0.5108 -1.9123
   55bbb     C1 1366   4.340   5.888   7.972 -0.0005 -0.0730 -0.7625
   55bbb     H1 1367   4.444   5.870   8.000  0.2560 -1.0356 -2.2768
   55bbb     H2 1368   4.292   5.913   8.067 -2.2371  2.9810 -2.6049
   55bbb     C2 1369   4.276   5.761   7.907  0.4912  0.5747 -0.4144
   55bbb     H3 1370   4.307   5.740   7.804 -0.5717 -0.2960 -0.5679
   55bbb     H4 1371   4.313   5.675   7.964  0.8399  1.3984  0.6125
   55bbb     N1 1372   4.342   6.006   7.883 -0.5311 -0.0913 -0.3787
   55bbb     C3 1373   4.395   5.978   7.756 -0.4213 -0.2310  0.6743
   55bbb     H5 1374   4.434   5.875   7.755  2.0728  0.6770  0.2425
   55bbb     H6 1375   4.472   6.054   7.737 -0.7078 -0.6563 -2.3982
   55bbb     C4 1376   4.394   6.125   7.950 -0.3026 -0.2929  0.0330
   55bbb     H7 1377   4.338   6.143   8.042 -1.8012  2.2493 -1.2963
   55bbb     H8 1378   4.501   6.112   7.969 -0.2070 -0.8658 -0.8660
   55bbb     C5 1379   4.372   6.251   7.866 -0.6433  0.7244 -0.3457
   55bbb     H9 1380   4.409   6.251   7.763 -0.6793  1.1614 -0.3596
   55bbb    H10 1381   4.266   6.277   7.857 -0.5027  0.7996 -1.8916
   55bbb     C6 1382   4.276   5.998   7.662  0.5182 -0.5557 -0.2427
   55bbb    H11 1383   4.194   5.932   7.693  0.4545  0.2819  1.4401
   55bbb    H12 1384   4.229   6.098   7.663 -1.7188 -1.5341 -1.7502
   55bbb     C7 1385   4.443   6.364   7.941  0.2603 -0.7656  0.4500
   55bbb     C8 1386   4.331   5.972   7.529 -0.4138  0.4558 -1.1378
   55bbb     O1 1387   4.437   6.390   8.058 -0.1983  0.1955  0.1823
   55bbb     O2 1388   4.358   5.864   7.488  0.2439 -0.3662  0.8494
   55bbb     N4 1389   4.122   5.749   7.898  0.0092 -0.5547 -0.2847
   55bbb    H21 1390   4.072   5.836   7.885 -1.0562 -1.1791 -0.4245
   56bbb     C1 1391   3.831   7.021   8.809  0.2437  0.7996 -0.7043
   56bbb     H1 1392   3.728   6.985   8.805 -0.0568  1.7457 -1.4372
   56bbb     H2 1393   3.839   7.130   8.806  0.2761  0.9248  2.3519
   56bbb     C2 1394   3.902   6.955   8.682 -0.1472 -0.0902 -0.2242
   56bbb     H3 1395   3.861   6.992   8.587  0.5549 -2.1552 -1.3542
   56bbb     H4 1396   4.007   6.987   8.681 -0.7367  2.1685  2.7119
   56bbb     N1 1397   3.907   6.982   8.932  0.4399 -0.0593  0.5803
   56bbb     C3 1398   3.814   7.005   9.043  0.1482 -0.3549  0.0405
   56bbb     H5 1399   3.728   7.066   9.011  0.6136  0.0397 -0.4723
   56bbb     H6 1400   3.869   7.062   9.120  0.4586 -0.2441 -0.2612
   56bbb     C4 1401   4.030   7.057   8.946 -0.2073  0.5053 -1.1815
   56bbb     H7 1402   4.092   7.046   8.856  2.3916 -0.0820  0.6431
   56bbb     H8 1403   4.007   7.163   8.960 -1.0907  0.2320 -0.5141
   56bbb     C5 1404   4.118   7.006   9.068  0.1851 -0.5233  0.0213
   56bbb     H9 1405   4.062   7.009   9.162  1.6854  1.8196  0.8539
   56bbb    H10 1406   4.138   6.901   9.043 -0.8542 -1.2921  2.3519
   56bbb     C6 1407   3.780   6.861   9.098  0.4222  0.0665  0.6693
   56bbb    H11 1408   3.734   6.813   9.011 -1.1025  1.5896  0.6045
   56bbb    H12 1409   3.870   6.813   9.138  1.4918  0.0279 -1.6648
   56bbb     C7 1410   4.245   7.081   9.086 -0.1486  0.5245 -0.7613
   56bbb     C8 1411   3.686   6.874   9.209  0.0291 -0.3519  0.1062
   56bbb     O1 1412   4.269   7.173   9.013  0.1197 -0.2262 -0.5554
   56bbb     O2 1413   3.702   6.961   9.290  0.1207  0.5142  0.3676
   56bbb     N4 1414   3.890   6.808   8.680 -0.2835  0.0327 -0.0774
   56bbb    H21 1415   3.920   6.763   8.766  0.8974 -0.3902 -0.7006
   57bbb     C1 1416   3.901   6.492   9.276 -0.0903  0.1110  0.3397
   57bbb     H1 1417   3.962   6.512   9.186  0.5012 -1.9907  0.2378
   57bbb     H2 1418   3.948   6.425   9.349 -0.9869 -3.6335 -2.4001
   57bbb     C2 1419   3.765   6.438   9.221 -0.9511 -1.3185 -0.2465
   57bbb     H3 1420   3.705   6.392   9.301 -1.2214 -0.2946  0.1541
   57bbb     H4 1421   3.699   6.517   9.181  0.5209  1.5559  2.7159
   57bbb     N1 1422   3.884   6.622   9.341 -0.4417 -0.4094 -0.1322
   57bbb     C3 1423   3.791   6.624   9.451 -0.3843 -0.3711 -0.0365
   57bbb     H5 1424   3.695   6.576   9.427 -1.5400  2.3085 -0.9370
   57bbb     H6 1425   3.766   6.727   9.479  0.8016 -0.6099  1.9748
   57bbb     C4 1426   4.014   6.687   9.359 -0.5851  0.3731 -0.2060
   57bbb     H7 1427   4.083   6.626   9.419  0.1051  2.1765  0.8796
   57bbb     H8 1428   4.062   6.697   9.261  0.8327  2.4554  0.6716
   57bbb     C5 1429   4.004   6.827   9.414  0.4249  0.1967  0.2014
   57bbb     H9 1430   3.938   6.883   9.346 -1.0096  0.9340  2.1506
   57bbb    H10 1431   3.950   6.820   9.509  0.1942 -0.7166  0.0079
   57bbb     C6 1432   3.850   6.569   9.590  0.1160  0.1504  1.1139
   57bbb    H11 1433   3.840   6.460   9.588 -2.4065  0.3544 -1.0342
   57bbb    H12 1434   3.957   6.592   9.595  0.4864 -0.8095 -1.4683
   57bbb     C7 1435   4.142   6.903   9.417  0.6522 -0.1199  0.3365
   57bbb     C8 1436   3.769   6.606   9.713 -1.2540 -0.2803  0.2769
   57bbb     O1 1437   4.241   6.858   9.370  0.3926  0.2996  0.1336
   57bbb     O2 1438   3.684   6.687   9.706  0.0979  0.1157  0.4132
   57bbb     N4 1439   3.794   6.340   9.116 -0.2042 -0.0236 -0.1066
   57bbb    H21 1440   3.871   6.364   9.054 -1.6235  0.4920 -1.7094
   58bbb     C1 1441   5.140   7.917   8.322 -0.1821  0.2655  1.3722
   58bbb     H1 1442   5.048   7.928   8.263 -0.0171  0.1207  1.0866
   58bbb     H2 1443   5.142   7.999   8.395 -0.5292 -0.1895  1.9028
   58bbb     C2 1444   5.253   7.916   8.222  0.5039 -0.1891  0.3070
   58bbb     H3 1445   5.260   8.020   8.187 -0.0097 -0.6684 -1.2698
   58bbb     H4 1446   5.353   7.901   8.265 -0.1126  2.2012  2.6978
   58bbb     N1 1447   5.154   7.784   8.385  0.3706  0.3077 -0.2495
   58bbb     C3 1448   5.031   7.708   8.381 -0.1441 -0.0033  0.0912
   58bbb     H5 1449   4.952   7.752   8.319  0.5573 -1.1195 -1.6313
   58bbb     H6 1450   4.980   7.717   8.478 -1.2964  2.8876 -0.7349
   58bbb     C4 1451   5.232   7.793   8.507  0.5754 -0.7399  0.2427
   58bbb     H7 1452   5.309   7.870   8.496 -0.6149  0.3313 -0.7947
   58bbb     H8 1453   5.163   7.826   8.586  2.5401  1.2398  1.1676
   58bbb     C5 1454   5.307   7.670   8.547  0.4814  0.1779 -0.2312
   58bbb     H9 1455   5.242   7.611   8.614 -1.2027  1.1767 -0.9774
   58bbb    H10 1456   5.321   7.604   8.461 -0.7919  1.8747 -1.7723
   58bbb     C6 1457   5.050   7.562   8.349  0.5857 -0.4180 -0.0905
   58bbb    H11 1458   5.131   7.517   8.408  1.1251  1.1112  0.3357
   58bbb    H12 1459   4.958   7.522   8.394  0.2937 -1.0757 -1.2399
   58bbb     C7 1460   5.432   7.707   8.623 -0.0182 -0.5488 -0.2444
   58bbb     C8 1461   5.066   7.526   8.207 -0.0711  0.3132 -0.3667
   58bbb     O1 1462   5.432   7.752   8.730 -0.3909  0.4388  0.1877
   58bbb     O2 1463   5.038   7.604   8.115  0.0463 -0.3215  0.3835
   58bbb     N4 1464   5.234   7.825   8.107 -0.3260  0.0670  0.2237
   58bbb    H21 1465   5.158   7.758   8.108  1.1138 -1.5798  0.4121
   59bbb     C1 1466   5.369   7.295   7.314 -0.0811  0.0367 -0.4299
   59bbb     H1 1467   5.293   7.286   7.393  0.2213  0.0870 -0.1305
   59bbb     H2 1468   5.411   7.194   7.307  3.1225  1.3441 -0.8659
   59bbb     C2 1469   5.489   7.378   7.368  0.0591 -0.9988 -0.1299
   59bbb     H3 1470   5.522   7.336   7.463 -0.2074  0.9440  0.8517
   59bbb     H4 1471   5.574   7.367   7.300  1.7675  0.7497  1.6412
   59bbb     N1 1472   5.300   7.345   7.199  0.2828  0.2948  0.1021
   59bbb     C3 1473   5.190   7.251   7.172 -0.2371  0.2193 -0.6468
   59bbb     H5 1474   5.228   7.148   7.172 -0.2417  0.2096  0.5967
   59bbb     H6 1475   5.145   7.280   7.076  1.1996  2.2295 -0.7418
   59bbb     C4 1476   5.402   7.354   7.094  0.1712 -0.6351  0.2336
   59bbb     H7 1477   5.494   7.410   7.116  1.2765 -2.9321  1.6645
   59bbb     H8 1478   5.430   7.252   7.066  1.4370 -0.5199  1.0411
   59bbb     C5 1479   5.351   7.425   6.971 -0.2102  0.7374  0.3341
   59bbb     H9 1480   5.275   7.370   6.914  1.7481 -0.4564 -1.1784
   59bbb    H10 1481   5.304   7.521   6.998 -0.3591  0.4983  0.9402
   59bbb     C6 1482   5.076   7.261   7.263  0.4571 -0.1661  0.0033
   59bbb    H11 1483   5.082   7.177   7.334 -2.8330 -0.0154  0.5121
   59bbb    H12 1484   5.083   7.347   7.331 -1.3546 -0.9599  1.2433
   59bbb     C7 1485   5.464   7.452   6.883  0.0280  0.0663 -0.1341
   59bbb     C8 1486   4.941   7.267   7.200  0.2947  0.0141 -0.3171
   59bbb     O1 1487   5.537   7.546   6.908  0.1827 -0.0688  1.1678
   59bbb     O2 1488   4.881   7.366   7.186 -0.6774 -1.0621  0.7766
   59bbb     N4 1489   5.457   7.521   7.390 -0.2947 -0.0562  0.4097
   59bbb    H21 1490   5.413   7.566   7.311  2.3906  1.8154 -0.0774
   60bbb     C1 1491   3.951   7.344   7.605 -0.1200 -0.5073 -0.3943
   60bbb     H1 1492   3.874   7.410   7.646 -0.7646 -1.4283 -0.1083
   60bbb     H2 1493   3.985   7.393   7.513  1.2735 -2.4035 -0.9299
   60bbb     C2 1494   3.896   7.206   7.561  0.0518  0.4597 -0.0097
   60bbb     H3 1495   3.844   7.164   7.648  1.2617 -1.1721 -0.0551
   60bbb     H4 1496   3.820   7.227   7.484  1.5085  3.1181 -0.7969
   60bbb     N1 1497   4.050   7.324   7.710 -0.3841  0.7187  0.8908
   60bbb     C3 1498   4.161   7.428   7.712  0.1415  0.1574 -0.2469
   60bbb     H5 1499   4.207   7.437   7.812  0.5693  0.2397 -0.4522
   60bbb     H6 1500   4.128   7.529   7.686  2.6316  1.0461 -0.1378
   60bbb     C4 1501   3.998   7.326   7.840  0.2720  0.4106  0.1296
   60bbb     H7 1502   4.000   7.424   7.888  0.1216 -0.6330  2.3390
   60bbb     H8 1503   3.893   7.296   7.849  0.1790 -0.1035 -2.2539
   60bbb     C5 1504   4.078   7.231   7.933  0.5129 -0.3492 -0.0558
   60bbb     H9 1505   4.048   7.130   7.900 -2.0298  1.7400 -4.5427
   60bbb    H10 1506   4.186   7.242   7.918  0.1533  1.3809 -1.4394
   60bbb     C6 1507   4.261   7.386   7.603  0.4411  0.3566  0.1666
   60bbb    H11 1508   4.311   7.292   7.630 -0.4587  0.0649  0.8540
   60bbb    H12 1509   4.200   7.359   7.515  1.3123 -0.9164 -0.0562
   60bbb     C7 1510   4.040   7.259   8.073 -0.2947  1.3268  0.2083
   60bbb     C8 1511   4.358   7.498   7.584 -0.0943  0.1219  0.0184
   60bbb     O1 1512   3.932   7.224   8.119 -0.0499 -0.3606 -0.2474
   60bbb     O2 1513   4.469   7.481   7.633 -0.5246 -0.1817 -0.0095
   60bbb     N4 1514   4.001   7.113   7.508 -0.1799 -0.1571 -0.8043
   60bbb    H21 1515   4.089   7.163   7.496 -1.2215  1.5143 -1.6918
   61bbb     C1 1516   3.685   6.330   7.343  0.2194  0.6242 -0.6880
   61bbb     H1 1517   3.625   6.247   7.302  1.3603 -1.1386  1.1347
   61bbb     H2 1518   3.629   6.416   7.380 -0.0359  0.0140  0.3512
   61bbb     C2 1519   3.754   6.389   7.218  0.0100  0.1935 -0.4849
   61bbb     H3 1520   3.806   6.307   7.165  1.4862  0.1022  1.0607
   61bbb     H4 1521   3.674   6.418   7.149  2.0857  1.7351 -2.3551
   61bbb     N1 1522   3.773   6.273   7.446  0.5750  0.2698  0.8376
   61bbb     C3 1523   3.815   6.138   7.409 -0.0119 -0.3800 -0.0007
   61bbb     H5 1524   3.861   6.137   7.309  0.7940 -0.9250  0.3777
   61bbb     H6 1525   3.732   6.068   7.393 -0.7722  0.6594 -0.6738
   61bbb     C4 1526   3.728   6.297   7.584 -0.5299 -0.5242  0.5987
   61bbb     H7 1527   3.621   6.274   7.592 -0.7625  0.5573  0.6057
   61bbb     H8 1528   3.780   6.233   7.656 -1.3146 -0.6662  1.0370
   61bbb     C5 1529   3.747   6.446   7.616 -0.3116  0.2795  0.0308
   61bbb     H9 1530   3.848   6.484   7.593 -0.5152 -0.0256 -1.4234
   61bbb    H10 1531   3.668   6.501   7.565 -0.8371  0.0052  0.5522
   61bbb     C6 1532   3.914   6.074   7.496 -0.1773 -0.7976  0.2278
   61bbb    H11 1533   4.009   6.129   7.499  0.6668 -2.1464 -0.9565
   61bbb    H12 1534   3.874   6.070   7.599 -1.1250 -1.3292 -0.1565
   61bbb     C7 1535   3.723   6.471   7.763 -0.0236 -0.3169  0.2054
   61bbb     C8 1536   3.941   5.931   7.452 -0.6460 -0.3852 -0.9137
   61bbb     O1 1537   3.701   6.384   7.844 -0.2110  0.1256  0.1860
   61bbb     O2 1538   3.926   5.883   7.343  0.2253 -0.3487 -0.5983
   61bbb     N4 1539   3.848   6.501   7.236 -0.0316  0.0222  0.3638
   61bbb    H21 1540   3.811   6.591   7.264 -1.8510 -0.8935  0.9826
   62ccc     N1 1541   6.990   7.584   7.845  0.0332 -0.0586  0.1888
   62ccc     H1 1542   6.911   7.521   7.836 -1.2987  1.5383  0.2990
   62ccc     C1 1543   6.988   7.704   7.760  0.4951  0.3288 -0.8571
   62ccc     H2 1544   6.892   7.697   7.707 -0.3432  1.5214  0.4532
   62ccc     C2 1545   7.100   7.722   7.653 -0.2061  0.5797 -0.8344
   62ccc     H3 1546   6.989   7.792   7.826 -0.3448 -0.1995 -0.1278
   62ccc     H4 1547   7.192   7.745   7.708 -0.4624  0.5313 -0.3818
   62ccc     H5 1548   7.077   7.813   7.598  0.7081  1.9326  0.9686
   62ccc     N2 1549   7.116   7.608   7.563 -0.8589 -0.2095  0.4108
   62ccc     C3 1550   7.021   7.611   7.444 -0.4047 -0.0250 -0.1157
   62ccc     C4 1551   7.254   7.571   7.521 -0.4746  0.1214  0.2239
   62ccc     H6 1552   7.297   7.643   7.450 -1.5766 -1.9586 -2.6497
   62ccc     C5 1553   7.349   7.536   7.643 -0.2284  0.3674  0.1715
   62ccc     H7 1554   7.254   7.479   7.461 -0.2467 -0.0382  0.4673
   62ccc     H8 1555   7.342   7.614   7.719  1.1565  0.6370  0.0266
   62ccc     H9 1556   7.453   7.540   7.608 -0.7967 -0.8606 -1.7643
   62ccc     C6 1557   7.316   7.402   7.699 -0.0347  0.2654  0.7958
   62ccc     O1 1558   7.188   7.402   7.736  0.8376 -0.4601 -0.5247
   62ccc     O2 1559   7.403   7.326   7.741  0.5914 -0.5078 -0.2516
   62ccc    H10 1560   7.047   7.702   7.388  0.3154  1.4937  2.5755
   62ccc    H11 1561   6.919   7.628   7.480 -0.5408  0.3370 -0.6723
   62ccc     C7 1562   7.020   7.487   7.351 -0.8514  1.0779  0.6075
   62ccc    H12 1563   7.105   7.500   7.283  0.0041 -1.7779  1.0793
   62ccc    H13 1564   7.030   7.396   7.411  0.4443  0.5118 -0.4447
   62ccc     C8 1565   6.903   7.487   7.259  1.1372 -0.1383 -0.4118
   62ccc     O3 1566   6.834   7.585   7.243 -0.9132 -0.0071 -0.5125
   62ccc     O4 1567   6.878   7.372   7.200 -0.8305  0.0694 -0.3925
   62ccc    H14 1568   7.161   7.487   7.697 -0.6994  0.6283  2.7113
   62ccc    H15 1569   6.943   7.312   7.242 -1.5119  0.3712  1.1496
   63ccc     N1 1570   7.500   7.015   8.320  0.9624 -0.1779 -0.6494
   63ccc     H1 1571   7.468   6.978   8.232  1.2348  0.1827 -0.8986
   63ccc     C1 1572   7.645   7.017   8.353 -0.0541  0.1246 -0.4277
   63ccc     H2 1573   7.686   7.049   8.257  0.8129  1.0717  0.2497
   63ccc     C2 1574   7.703   6.880   8.402 -0.8670 -0.5580  0.3878
   63ccc     H3 1575   7.656   7.099   8.425 -1.1009  0.1106 -0.2407
   63ccc     H4 1576   7.812   6.890   8.403 -0.8803  0.1620 -2.3140
   63ccc     H5 1577   7.688   6.803   8.325 -0.2989 -0.4229  0.1407
   63ccc     N2 1578   7.658   6.831   8.534 -0.1147  0.6435  0.3535
   63ccc     C3 1579   7.693   6.927   8.639  0.0567  0.3627 -0.2077
   63ccc     C4 1580   7.528   6.783   8.554  1.2425  0.3153 -0.0599
   63ccc     H6 1581   7.459   6.868   8.550  0.7129 -0.0929  0.4173
   63ccc     C5 1582   7.479   6.689   8.444  0.5652  0.4599  0.1415
   63ccc     H7 1583   7.528   6.725   8.646  1.4304 -1.7346 -1.3289
   63ccc     H8 1584   7.441   6.738   8.354  1.4745  0.2627 -0.3609
   63ccc     H9 1585   7.547   6.608   8.414 -0.6245 -0.1822 -0.8584
   63ccc     C6 1586   7.360   6.615   8.497 -0.0350 -0.0158 -0.3978
   63ccc     O1 1587   7.303   6.552   8.392  0.1988 -0.4124 -0.3946
   63ccc     O2 1588   7.322   6.612   8.613 -0.1280 -0.7823 -0.9238
   63ccc    H10 1589   7.626   7.014   8.632 -1.2367 -0.4769  1.3627
   63ccc    H11 1590   7.788   6.979   8.622 -0.6130  1.1780 -1.5184
   63ccc     C7 1591   7.686   6.875   8.782 -0.3140 -0.0886 -0.7696
   63ccc    H12 1592   7.579   6.864   8.805 -0.1587  0.5238  0.2593
   63ccc    H13 1593   7.737   6.779   8.796  2.1037  1.2380 -0.1894
   63ccc     C8 1594   7.748   6.972   8.880 -0.6379 -0.3583  0.2152
   63ccc     O3 1595   7.813   7.072   8.856  0.0204 -0.0615  0.1532
   63ccc     O4 1596   7.710   6.940   9.002 -0.4459  0.1075  0.0948
   63ccc    H14 1597   7.362   6.564   8.316 -0.2635  0.7210 -0.5888
   63ccc    H15 1598   7.646   6.868   8.987 -1.2012  1.0928 -1.5133
   64ccc     N1 1599   6.245   6.393   7.770 -0.2727 -0.5913 -0.1291
   64ccc     H1 1600   6.257   6.489   7.800  1.3758 -1.1600  1.0856
   64ccc     C1 1601   6.303   6.377   7.638 -0.7253  0.0326 -0.2238
   64ccc     H2 1602   6.269   6.279   7.603 -0.1504 -0.3224  0.2151
   64ccc     C2 1603   6.458   6.398   7.633  0.1419 -0.5031  0.2466
   64ccc     H3 1604   6.267   6.459   7.573 -2.7637 -1.4877 -1.0729
   64ccc     H4 1605   6.488   6.403   7.528 -0.4064  3.9470  0.1890
   64ccc     H5 1606   6.511   6.311   7.673 -0.2727 -1.7125 -1.8089
   64ccc     N2 1607   6.495   6.525   7.696  0.2827  0.2155 -1.0126
   64ccc     C3 1608   6.444   6.644   7.639  0.5540 -0.1778  0.3144
   64ccc     C4 1609   6.640   6.542   7.712 -0.1908 -0.4767  0.4597
   64ccc     H6 1610   6.696   6.557   7.620  1.3198  1.1941  1.6164
   64ccc     C5 1611   6.705   6.429   7.801 -0.2485  0.2320 -0.5322
   64ccc     H7 1612   6.656   6.633   7.771  2.0608 -0.5833  0.0570
   64ccc     H8 1613   6.693   6.335   7.746 -1.2973  0.6113 -0.9710
   64ccc     H9 1614   6.640   6.421   7.888 -2.4781 -0.8692 -2.2411
   64ccc     C6 1615   6.848   6.456   7.852  0.3753 -0.9365 -0.1358
   64ccc     O1 1616   6.895   6.345   7.911  0.0616  0.0885  0.5589
   64ccc     O2 1617   6.899   6.567   7.851 -0.0781  0.0170  0.5542
   64ccc    H10 1618   6.494   6.731   7.684 -1.7827  1.8246 -0.8192
   64ccc    H11 1619   6.338   6.655   7.666  0.2426 -1.8536 -0.1633
   64ccc     C7 1620   6.465   6.667   7.488  0.1116  0.3043  0.3384
   64ccc    H12 1621   6.567   6.644   7.453  0.8204  2.7995  0.6494
   64ccc    H13 1622   6.402   6.598   7.431  3.3305  0.2962 -3.4850
   64ccc     C8 1623   6.433   6.807   7.444 -0.8012 -0.0111 -0.2871
   64ccc     O3 1624   6.495   6.902   7.489 -0.2418  0.0887  0.1842
   64ccc     O4 1625   6.309   6.813   7.397  0.2214 -0.4644  0.0705
   64ccc    H14 1626   6.822   6.282   7.893  0.6861  0.1784 -2.5742
   64ccc    H15 1627   6.283   6.721   7.377 -1.8490  0.0643  0.2883
   65ccc     N1 1628   5.922   6.478   8.522  0.0453  0.0279  0.5125
   65ccc     H1 1629   5.972   6.408   8.574  0.4158  0.2968  0.5193
   65ccc     C1 1630   5.878   6.601   8.586 -0.5804 -0.0736  0.4194
   65ccc     H2 1631   5.800   6.643   8.521 -0.0981 -0.2849 -0.2915
   65ccc     C2 1632   5.799   6.583   8.717 -0.4114 -0.2654 -0.3580
   65ccc     H3 1633   5.960   6.673   8.598  1.0916 -2.2143  2.3559
   65ccc     H4 1634   5.708   6.524   8.698  0.2820 -1.4589 -0.0328
   65ccc     H5 1635   5.764   6.681   8.752 -0.8257 -0.7598  0.6465
   65ccc     N2 1636   5.880   6.526   8.832 -0.1389 -0.4838  0.3089
   65ccc     C3 1637   5.797   6.501   8.956  0.3214  0.4775 -0.5588
   65ccc     C4 1638   6.010   6.590   8.857  0.1375  0.2598 -0.5659
   65ccc     H6 1639   6.065   6.593   8.762  1.7665 -1.8739  0.2714
   65ccc     C5 1640   6.007   6.734   8.910 -0.3523 -0.8485 -0.5738
   65ccc     H7 1641   6.084   6.533   8.914 -2.3810 -2.2290  0.3317
   65ccc     H8 1642   5.920   6.787   8.867  0.3409 -0.9056 -2.0685
   65ccc     H9 1643   5.996   6.733   9.019 -1.2178  0.0187 -0.6379
   65ccc     C6 1644   6.131   6.808   8.859  0.2678 -0.5017 -0.4337
   65ccc     O1 1645   6.196   6.885   8.953  0.1507  0.3307  0.2359
   65ccc     O2 1646   6.179   6.812   8.749  0.5543 -1.1133 -0.3204
   65ccc    H10 1647   5.810   6.576   9.034 -1.9355 -0.3599  0.6649
   65ccc    H11 1648   5.693   6.473   8.939  0.7062  0.0940 -2.5132
   65ccc     C7 1649   5.841   6.375   9.031 -0.3625 -0.3148 -0.7987
   65ccc    H12 1650   5.797   6.370   9.131 -1.7980  0.3486 -1.3880
   65ccc    H13 1651   5.949   6.386   9.047 -0.5342 -0.0667  0.2170
   65ccc     C8 1652   5.811   6.248   8.950 -0.7943  0.3476 -0.6275
   65ccc     O3 1653   5.798   6.140   9.002  0.0634  0.0133 -0.1898
   65ccc     O4 1654   5.862   6.261   8.826 -0.4648 -0.1296 -0.4120
   65ccc    H14 1655   6.148   6.864   9.035 -0.9436 -0.2872 -0.5589
   65ccc    H15 1656   5.889   6.354   8.814  0.1773 -0.5683 -2.6974
   66ccc     N1 1657   5.147   8.070   7.679 -0.0118 -0.4574  0.3110
   66ccc     H1 1658   5.072   8.068   7.612 -0.2466  0.6363  0.5396
   66ccc     C1 1659   5.111   8.092   7.815  0.5117  0.2296  0.0421
   66ccc     H2 1660   5.169   8.036   7.890 -0.7064 -0.5244  0.4314
   66ccc     C2 1661   4.959   8.050   7.843  1.1886 -0.4920 -0.1209
   66ccc     H3 1662   5.128   8.200   7.830 -0.6356  0.1201  2.3804
   66ccc     H4 1663   4.934   7.948   7.810  0.3980  0.5066 -2.7129
   66ccc     H5 1664   4.896   8.107   7.774  1.6121 -2.7873 -2.4803
   66ccc     N2 1665   4.922   8.069   7.984  0.2754 -0.6923 -0.3232
   66ccc     C3 1666   4.812   7.992   8.033  0.7193 -0.1863 -0.2388
   66ccc     C4 1667   4.916   8.210   8.017  0.8621 -0.5007 -0.4941
   66ccc     H6 1668   4.814   8.244   8.040 -0.2479 -3.4604 -0.8217
   66ccc     C5 1669   5.013   8.232   8.142 -0.1563 -0.0929  0.5855
   66ccc     H7 1670   4.946   8.275   7.933 -2.4413  0.1761 -1.2481
   66ccc     H8 1671   5.112   8.210   8.101 -0.2802  1.1902 -0.4454
   66ccc     H9 1672   4.982   8.160   8.219  0.1364 -0.0127  0.7768
   66ccc     C6 1673   5.009   8.380   8.188  0.2375 -0.1507  0.2353
   66ccc     O1 1674   4.969   8.396   8.320  0.0935  0.1280 -0.0918
   66ccc     O2 1675   5.053   8.474   8.120 -0.2345  0.5263 -0.4878
   66ccc    H10 1676   4.725   8.007   7.968  1.7805 -2.1709 -2.2182
   66ccc    H11 1677   4.784   8.027   8.133 -0.2172  1.4477 -1.0591
   66ccc     C7 1678   4.847   7.844   8.037  0.1205 -0.3864  0.3781
   66ccc    H12 1679   4.816   7.808   8.136 -2.3614  0.2420 -0.1463
   66ccc    H13 1680   4.956   7.830   8.033  0.3438  1.5606 -0.5889
   66ccc     C8 1681   4.774   7.748   7.943 -0.3885  0.1940  0.3563
   66ccc     O3 1682   4.666   7.750   7.888  0.0616  0.2162  0.0077
   66ccc     O4 1683   4.847   7.642   7.914 -0.3122  0.5265 -0.5686
   66ccc    H14 1684   4.968   8.305   8.355  0.2822 -0.4587 -1.5684
   66ccc    H15 1685   4.900   7.643   7.995 -0.3941 -0.0188 -0.5073
   67ccc     N1 1686   5.816   8.475   7.901  0.3177  0.2619  0.5219
   67ccc     H1 1687   5.823   8.460   7.801 -0.7009  1.4266  0.2716
   67ccc     C1 1688   5.927   8.562   7.955 -0.5190  0.0162  0.8607
   67ccc     H2 1689   5.920   8.655   7.898 -0.3039 -0.8782 -0.6357
   67ccc     C2 1690   6.066   8.502   7.929 -0.2621 -0.0515  0.4335
   67ccc     H3 1691   5.908   8.596   8.058  2.1489 -0.3985  1.5067
   67ccc     H4 1692   6.134   8.583   7.959  1.3696 -1.2638  0.0764
   67ccc     H5 1693   6.082   8.497   7.821  1.0168 -0.6954  0.6525
   67ccc     N2 1694   6.104   8.373   7.998 -0.6588 -0.7709  0.2410
   67ccc     C3 1695   6.232   8.313   7.961 -0.0881 -0.9016 -0.6823
   67ccc     C4 1696   6.073   8.370   8.140  0.1355 -1.0142  0.2470
   67ccc     H6 1697   5.968   8.393   8.165  0.5758  0.7730  0.4619
   67ccc     C5 1698   6.167   8.463   8.214 -0.2974  0.6168 -0.4596
   67ccc     H7 1699   6.085   8.267   8.176 -2.2514 -0.8408  1.7224
   67ccc     H8 1700   6.272   8.442   8.188 -1.0697 -1.2273 -2.1252
   67ccc     H9 1701   6.159   8.567   8.179  1.8544  2.4131  3.9083
   67ccc     C6 1702   6.154   8.459   8.364 -0.4140  0.3305  0.4490
   67ccc     O1 1703   6.218   8.550   8.425 -0.6881  0.0998  0.2381
   67ccc     O2 1704   6.069   8.392   8.416 -0.6936  0.2057  0.6048
   67ccc    H10 1705   6.258   8.233   8.032  0.2955 -1.2708 -1.2315
   67ccc    H11 1706   6.304   8.396   7.964 -2.7644  1.4626  1.4420
   67ccc     C7 1707   6.226   8.252   7.825  0.0741  0.7355  0.2960
   67ccc    H12 1708   6.332   8.234   7.800 -0.0084  0.5255  0.0994
   67ccc    H13 1709   6.183   8.332   7.763 -0.2989  0.4636  0.2051
   67ccc     C8 1710   6.143   8.127   7.812 -0.5202  0.0549  0.3273
   67ccc     O3 1711   6.167   8.026   7.750 -0.2583  0.1891  0.1823
   67ccc     O4 1712   6.038   8.140   7.897 -1.0695  0.9116  0.2020
   67ccc    H14 1713   6.270   8.599   8.359  0.7046 -0.4693  0.8857
   67ccc    H15 1714   6.055   8.231   7.924 -1.4825  0.6362  1.4464
   68ccc     N1 1715   6.114   6.811   7.128 -0.3904  0.3773 -1.0173
   68ccc     H1 1716   6.186   6.761   7.077 -0.6297 -0.3962 -0.6029
   68ccc     C1 1717   5.980   6.752   7.109 -0.7852  0.0664 -0.1135
   68ccc     H2 1718   5.936   6.715   7.202 -0.7274 -0.7835 -0.4188
   68ccc     C2 1719   5.972   6.637   7.008 -0.5809 -0.3335  0.4830
   68ccc     H3 1720   5.922   6.840   7.077 -1.3137  0.1960  1.1766
   68ccc     H4 1721   5.971   6.682   6.908 -0.1075 -2.6779 -0.6215
   68ccc     H5 1722   5.873   6.594   7.027 -1.0313 -0.3269 -1.7274
   68ccc     N2 1723   6.081   6.529   7.006  0.6544 -0.6971  0.3138
   68ccc     C3 1724   6.083   6.463   7.138  0.5255 -0.0889 -0.8992
   68ccc     C4 1725   6.063   6.428   6.902  0.3072 -0.3718 -0.0085
   68ccc     H6 1726   6.150   6.363   6.888  0.4961 -0.3907  1.1686
   68ccc     C5 1727   6.056   6.506   6.769  0.5441  0.0308  0.1863
   68ccc     H7 1728   5.974   6.371   6.930 -0.2054  0.8778  0.9664
   68ccc     H8 1729   6.137   6.579   6.776  0.4264  0.3601 -1.6666
   68ccc     H9 1730   5.957   6.553   6.764  0.3820  0.1488  3.2185
   68ccc     C6 1731   6.081   6.415   6.651  0.4338  0.1713  1.0007
   68ccc     O1 1732   5.965   6.367   6.608  0.0307  0.0707  0.3887
   68ccc     O2 1733   6.171   6.416   6.573 -0.7461  0.2793  0.0536
   68ccc    H10 1734   5.993   6.400   7.142 -1.0196  2.0561 -0.6792
   68ccc    H11 1735   6.073   6.528   7.225  1.2879  0.3421 -1.1364
   68ccc     C7 1736   6.216   6.384   7.154  0.5558  0.5388 -0.4418
   68ccc    H12 1737   6.296   6.459   7.140  1.4729 -0.1833  0.8435
   68ccc    H13 1738   6.231   6.317   7.069 -2.7373  0.0297 -0.6798
   68ccc     C8 1739   6.224   6.324   7.289  0.5743  0.4050  0.3898
   68ccc     O3 1740   6.130   6.288   7.360 -0.0054  0.8668 -0.3626
   68ccc     O4 1741   6.353   6.296   7.325  0.2046  0.3162  0.0997
   68ccc    H14 1742   5.900   6.396   6.675  0.1391 -0.8879  0.9115
   68ccc    H15 1743   6.416   6.330   7.259  0.5908 -0.5003  0.0455
   69ccc     N1 1744   6.798   7.045   7.039 -0.9372 -0.6734  0.1876
   69ccc     H1 1745   6.762   7.007   7.126 -0.0161  0.6620  1.1667
   69ccc     C1 1746   6.921   6.993   6.979  0.5228 -0.3802  0.3261
   69ccc     H2 1747   6.962   7.077   6.923 -0.5564 -0.4621 -0.5888
   69ccc     C2 1748   6.900   6.868   6.885 -0.4726  0.6278 -0.2546
   69ccc     H3 1749   6.983   6.960   7.064 -0.8623 -0.4623  1.3174
   69ccc     H4 1750   6.992   6.860   6.825  1.0517  1.1253  1.9670
   69ccc     H5 1751   6.818   6.891   6.816 -1.6140  2.1958  1.5731
   69ccc     N2 1752   6.870   6.735   6.954 -0.2094 -0.1860  0.5408
   69ccc     C3 1753   6.739   6.718   7.021 -0.3671  0.0414 -0.1756
   69ccc     C4 1754   6.886   6.614   6.866  0.2415  0.6214  0.3971
   69ccc     H6 1755   6.830   6.526   6.899  1.3493  0.2635  1.3591
   69ccc     C5 1756   7.042   6.584   6.874  0.5371  0.4372 -0.3161
   69ccc     H7 1757   6.849   6.641   6.766  0.5827  0.9741  0.3607
   69ccc     H8 1758   7.070   6.545   6.972  1.0392 -1.4811 -1.2006
   69ccc     H9 1759   7.095   6.676   6.845 -3.0732  2.1625 -1.8175
   69ccc     C6 1760   7.090   6.486   6.769 -0.1997 -0.0247  0.9111
   69ccc     O1 1761   7.220   6.469   6.777 -0.3985 -0.1607 -0.0468
   69ccc     O2 1762   7.031   6.457   6.665 -0.0930  0.0880 -0.3150
   69ccc    H10 1763   6.752   6.772   7.117  0.8007 -0.4563 -0.0393
   69ccc    H11 1764   6.720   6.613   7.047 -0.8364  0.0848 -0.3461
   69ccc     C7 1765   6.613   6.767   6.950  0.1057 -0.2656 -0.0431
   69ccc    H12 1766   6.603   6.736   6.846 -1.1069 -0.8419  0.2353
   69ccc    H13 1767   6.607   6.877   6.960  2.9558 -0.1170  0.2477
   69ccc     C8 1768   6.489   6.721   7.024 -0.1293  0.9352  0.2411
   69ccc     O3 1769   6.493   6.678   7.140  0.0320 -0.3529  0.8730
   69ccc     O4 1770   6.378   6.761   6.962  0.6528  0.0541  0.2526
   69ccc    H14 1771   7.244   6.498   6.867 -2.3519 -4.8585  2.1739
   69ccc    H15 1772   6.389   6.788   6.869 -2.0616 -0.0243 -0.1292
   70ccc     N1 1773   5.842   6.169  10.222  0.3928  0.5811  0.0966
   70ccc     H1 1774   5.832   6.270  10.215 -1.5914  0.3125 -1.5334
   70ccc     C1 1775   5.849   6.110  10.355  0.2523  0.1706 -1.0615
   70ccc     H2 1776   5.749   6.092  10.396  0.4448 -0.0859 -0.7024
   70ccc     C2 1777   5.920   6.213  10.453  0.4222 -0.3348 -0.2264
   70ccc     H3 1778   5.912   6.021  10.344 -3.2516 -2.5387 -0.3429
   70ccc     H4 1779   5.924   6.165  10.551  0.6452 -0.4732 -0.3024
   70ccc     H5 1780   5.862   6.306  10.461  1.6985  0.7622 -2.7827
   70ccc     N2 1781   6.061   6.260  10.427 -0.2448 -0.3853 -0.6726
   70ccc     C3 1782   6.161   6.158  10.391 -0.2004 -0.1187  0.1165
   70ccc     C4 1783   6.078   6.370  10.328 -0.2017 -0.3289 -0.1747
   70ccc     H6 1784   6.185   6.383  10.309 -0.2372  0.1120 -0.0825
   70ccc     C5 1785   6.032   6.510  10.383 -0.0730 -0.4335  0.0124
   70ccc     H7 1786   6.037   6.342  10.230 -3.4626  1.8651  0.4861
   70ccc     H8 1787   6.103   6.535  10.462  0.9586 -0.1148 -0.9985
   70ccc     H9 1788   5.930   6.507  10.424 -0.5614 -1.8283 -1.2125
   70ccc     C6 1789   6.051   6.620  10.284  0.2643  0.0019  0.2387
   70ccc     O1 1790   5.997   6.730  10.322  0.1703 -0.7049 -0.2559
   70ccc     O2 1791   6.086   6.602  10.167  0.0967  0.3168 -0.3523
   70ccc    H10 1792   6.254   6.214  10.379  0.2519 -0.8963 -0.0207
   70ccc    H11 1793   6.126   6.115  10.296  3.5452  0.2905 -1.5126
   70ccc     C7 1794   6.171   6.052  10.505  0.3676  0.3478  0.2447
   70ccc    H12 1795   6.092   5.977  10.490  1.0426 -0.4635  0.7077
   70ccc    H13 1796   6.159   6.103  10.601  1.7483  0.1446  0.5452
   70ccc     C8 1797   6.302   5.971  10.503  0.5341  0.6419 -0.3973
   70ccc     O3 1798   6.386   5.992  10.412  0.7537 -0.2304 -0.4566
   70ccc     O4 1799   6.347   5.933  10.626 -0.1919  0.1958  0.0074
   70ccc    H14 1800   5.986   6.731  10.419 -3.4194  2.0552 -0.5742
   70ccc    H15 1801   6.265   5.932  10.678  0.1093 -2.1159  0.4809
   71ccc     N1 1802   6.224   6.708   9.940  0.0044 -0.2643  0.0943
   71ccc     H1 1803   6.190   6.673  10.029 -0.2053  0.4151  0.2840
   71ccc     C1 1804   6.361   6.753   9.939 -0.3205 -0.0140 -0.3338
   71ccc     H2 1805   6.427   6.674   9.901  0.6568  0.0685  1.1930
   71ccc     C2 1806   6.421   6.777  10.082 -0.4466 -0.2860 -0.9668
   71ccc     H3 1807   6.370   6.844   9.878 -1.1944  1.0734  1.1445
   71ccc     H4 1808   6.513   6.836  10.075  0.2602 -1.1157  0.9697
   71ccc     H5 1809   6.453   6.679  10.118 -2.8526 -0.5766  0.4901
   71ccc     N2 1810   6.344   6.858  10.184  0.5012  0.0438 -0.0846
   71ccc     C3 1811   6.283   6.985  10.145 -0.0304  0.1387  0.0915
   71ccc     C4 1812   6.409   6.857  10.322 -0.3567 -0.3007 -0.1569
   71ccc     H6 1813   6.505   6.909  10.317  0.3290 -1.3168  1.9244
   71ccc     C5 1814   6.421   6.715  10.373  0.3037  0.4892  0.2697
   71ccc     H7 1815   6.345   6.911  10.393  1.0062  0.6721  0.3585
   71ccc     H8 1816   6.324   6.663  10.363 -0.9184  2.3266  2.2092
   71ccc     H9 1817   6.501   6.674  10.310  0.1118 -1.0945  1.0422
   71ccc     C6 1818   6.464   6.721  10.521 -0.1171  0.4264  0.7630
   71ccc     O1 1819   6.480   6.604  10.569 -0.0971 -0.2999 -0.7412
   71ccc     O2 1820   6.463   6.816  10.597 -0.2713 -0.1277 -0.2467
   71ccc    H10 1821   6.238   6.973  10.045  0.0285 -1.1064  0.2131
   71ccc    H11 1822   6.366   7.055  10.123  0.2574 -0.3773 -0.5092
   71ccc     C7 1823   6.185   7.053  10.245 -0.6651  0.7861  0.7055
   71ccc    H12 1824   6.255   7.106  10.310 -0.0520 -0.1221  0.7891
   71ccc    H13 1825   6.132   6.973  10.300 -2.2509  0.9423 -0.5445
   71ccc     C8 1826   6.077   7.146  10.179  0.3520  0.4208  0.1216
   71ccc     O3 1827   6.045   7.123  10.066 -0.0636  0.0935  0.1357
   71ccc     O4 1828   6.007   7.224  10.262 -0.5150  0.2439 -0.7082
   71ccc    H14 1829   6.452   6.557  10.488  0.2577 -0.8643 -0.5373
   71ccc    H15 1830   6.034   7.205  10.354  1.1889 -2.6476 -1.7547
   72ccc     N1 1831   4.850   7.398  10.078  0.1343  0.0422  0.0446
   72ccc     H1 1832   4.884   7.328  10.143 -0.1886  0.8099  1.0502
   72ccc     C1 1833   4.777   7.501  10.150  1.1112  0.6043  0.3862
   72ccc     H2 1834   4.849   7.575  10.185  0.5637  0.5751  1.6201
   72ccc     C2 1835   4.682   7.443  10.259 -0.2774  0.4336  0.2739
   72ccc     H3 1836   4.710   7.551  10.078  0.9162  1.3425  1.0725
   72ccc     H4 1837   4.611   7.523  10.285 -1.3098 -0.8285  1.3754
   72ccc     H5 1838   4.744   7.436  10.349  0.1371  0.6704  0.0063
   72ccc     N2 1839   4.612   7.321  10.222 -0.4126  0.6346  0.1756
   72ccc     C3 1840   4.520   7.324  10.106 -0.1636  0.1029  0.3626
   72ccc     C4 1841   4.555   7.249  10.336  0.4914  0.5580 -0.8826
   72ccc     H6 1842   4.464   7.299  10.372 -0.0781  0.1648 -1.7614
   72ccc     C5 1843   4.652   7.221  10.450 -0.2636  0.0664 -0.7099
   72ccc     H7 1844   4.509   7.152  10.312 -1.0895  0.8690  0.7194
   72ccc     H8 1845   4.653   7.306  10.520 -0.5456 -1.3510  1.0505
   72ccc     H9 1846   4.754   7.206  10.413  0.2487 -0.6040  0.9188
   72ccc     C6 1847   4.600   7.110  10.524  0.3905 -0.1775  0.3222
   72ccc     O1 1848   4.660   6.996  10.520  0.4461  0.1387  0.0568
   72ccc     O2 1849   4.492   7.129  10.579 -0.4752  0.1522  0.0291
   72ccc    H10 1850   4.547   7.390  10.022 -2.4892 -0.4548 -0.8792
   72ccc    H11 1851   4.420   7.352  10.142 -0.2708  1.1634 -0.7015
   72ccc     C7 1852   4.505   7.183  10.046 -0.0403  0.0958  0.0913
   72ccc    H12 1853   4.436   7.124  10.107 -0.5379  0.8707  0.2882
   72ccc    H13 1854   4.601   7.131  10.053  0.3711  0.7088 -0.8488
   72ccc     C8 1855   4.455   7.186   9.906 -0.2197  0.0014  0.5067
   72ccc     O3 1856   4.355   7.245   9.874 -0.0783 -0.0838 -0.4603
   72ccc     O4 1857   4.506   7.086   9.833 -0.0290  0.5736 -0.0176
   72ccc    H14 1858   4.745   7.014  10.477 -1.3115  3.2832 -2.3142
   72ccc    H15 1859   4.568   7.030   9.882  0.1339  1.4701  0.8169
   73ccc     N1 1860   4.642   6.814   9.483  0.2872 -0.9418 -0.1728
   73ccc     H1 1861   4.607   6.805   9.577 -0.4289  0.1725 -0.3282
   73ccc     C1 1862   4.584   6.744   9.368  0.3448  0.6051 -0.2580
   73ccc     H2 1863   4.538   6.811   9.295  0.5011  0.1640 -0.7630
   73ccc     C2 1864   4.483   6.640   9.416  0.7839  0.5592 -0.7314
   73ccc     H3 1865   4.668   6.691   9.321  0.4161  1.1263 -0.7239
   73ccc     H4 1866   4.393   6.684   9.462 -0.8822 -0.8863 -2.5382
   73ccc     H5 1867   4.527   6.579   9.497  0.0170  1.1813  0.1643
   73ccc     N2 1868   4.449   6.536   9.316 -0.6027 -0.0392 -0.4772
   73ccc     C3 1869   4.416   6.400   9.374 -0.4174  0.3010  0.6629
   73ccc     C4 1870   4.359   6.584   9.207 -0.7886 -0.2931  0.7093
   73ccc     H6 1871   4.260   6.601   9.251 -0.3994  2.0745  0.7404
   73ccc     C5 1872   4.353   6.489   9.083  0.3132  0.1666  0.1719
   73ccc     H7 1873   4.380   6.683   9.165 -1.2232 -0.7601 -0.6497
   73ccc     H8 1874   4.324   6.387   9.111  0.0646  0.0351 -0.5727
   73ccc     H9 1875   4.278   6.513   9.008 -0.8009  0.0894  1.2475
   73ccc     C6 1876   4.485   6.459   9.018  1.1105  0.7610  0.8896
   73ccc     O1 1877   4.593   6.462   9.099  0.4957 -0.2762 -0.0326
   73ccc     O2 1878   4.496   6.447   8.897  0.1450  0.2244  0.0253
   73ccc    H10 1879   4.486   6.369   9.452 -1.8450 -2.8746  0.7683
   73ccc    H11 1880   4.418   6.320   9.300  2.9734 -0.8243  1.9019
   73ccc     C7 1881   4.275   6.406   9.443  0.4477  0.6568  0.3492
   73ccc    H12 1882   4.192   6.425   9.374  0.9277  1.4226 -0.0243
   73ccc    H13 1883   4.267   6.476   9.528 -0.3772 -0.5934  1.3219
   73ccc     C8 1884   4.253   6.268   9.495 -0.5231 -0.1418 -0.1784
   73ccc     O3 1885   4.282   6.232   9.608 -0.3040  0.5071 -0.6694
   73ccc     O4 1886   4.169   6.194   9.426  0.1468 -0.2733 -0.1640
   73ccc    H14 1887   4.548   6.482   9.183  0.6496 -2.7536  0.6567
   73ccc    H15 1888   4.171   6.218   9.331  1.3281  0.7720  0.1115
   74ccc     N1 1889   6.850   6.949   8.419  0.3265 -0.2318  0.6259
   74ccc     H1 1890   6.910   6.901   8.353 -0.1485 -1.2615  0.9444
   74ccc     C1 1891   6.895   6.944   8.554  0.3494 -0.1104 -0.4646
   74ccc     H2 1892   6.947   7.040   8.565  0.8839 -0.2456 -1.7248
   74ccc     C2 1893   6.994   6.828   8.580 -0.2284  0.1067 -0.0222
   74ccc     H3 1894   6.803   6.950   8.613  0.3679 -0.8859 -0.3597
   74ccc     H4 1895   6.940   6.746   8.532 -3.8491  1.4227  1.6147
   74ccc     H5 1896   7.088   6.848   8.526 -0.0566 -2.2041 -0.6085
   74ccc     N2 1897   7.019   6.804   8.726 -0.5770 -0.6671  0.3166
   74ccc     C3 1898   6.899   6.755   8.798  0.4773  0.4744 -0.0872
   74ccc     C4 1899   7.081   6.920   8.794 -0.1810  0.6570 -0.0096
   74ccc     H6 1900   7.092   6.906   8.902 -0.9611  0.6250  0.0722
   74ccc     C5 1901   7.223   6.937   8.734  0.6000 -0.0003  0.1451
   74ccc     H7 1902   7.011   7.002   8.778 -1.5769 -0.6976 -1.0141
   74ccc     H8 1903   7.216   6.991   8.639 -0.5729  0.0807  0.2761
   74ccc     H9 1904   7.266   6.837   8.717 -1.7323 -1.1102  0.6347
   74ccc     C6 1905   7.313   7.016   8.829  0.1179 -0.3908  0.0255
   74ccc     O1 1906   7.401   7.092   8.764  0.3317 -0.2655 -0.0926
   74ccc     O2 1907   7.327   6.992   8.951  0.0782 -0.3280 -0.3174
   74ccc    H10 1908   6.828   6.834   8.827 -0.6167 -0.5674  0.1319
   74ccc    H11 1909   6.835   6.699   8.728  0.0590  1.3069 -0.3725
   74ccc     C7 1910   6.927   6.670   8.923  0.7428  0.4133 -0.0066
   74ccc    H12 1911   6.985   6.722   9.001  1.9713 -1.3722  0.2970
   74ccc    H13 1912   6.830   6.656   8.973 -0.8694  3.6891 -2.0030
   74ccc     C8 1913   6.994   6.535   8.892 -0.2833  0.3481 -0.2531
   74ccc     O3 1914   6.959   6.435   8.950  0.5736 -0.2629  0.0481
   74ccc     O4 1915   7.101   6.546   8.815 -0.2226  0.9928  0.1030
   74ccc    H14 1916   7.367   7.107   8.674 -2.8097  1.9279  1.3473
   74ccc    H15 1917   7.087   6.633   8.774  0.3958  0.7991 -0.5183
   75ccc     N1 1918   6.335   7.176   8.237 -0.4070 -0.6699  0.5615
   75ccc     H1 1919   6.373   7.254   8.289  0.7127 -0.1978 -0.9198
   75ccc     C1 1920   6.426   7.152   8.121 -0.3656  0.0460  0.1334
   75ccc     H2 1921   6.527   7.128   8.158 -0.4637 -1.1951 -0.3853
   75ccc     C2 1922   6.444   7.257   8.010  0.5423 -0.1591  0.1398
   75ccc     H3 1923   6.385   7.068   8.064 -0.4581  0.5657 -0.5671
   75ccc     H4 1924   6.347   7.249   7.959 -0.0855  1.3713  1.0454
   75ccc     H5 1925   6.528   7.238   7.942  0.4766  0.5284 -0.1431
   75ccc     N2 1926   6.466   7.403   8.053 -0.2179  0.2542  0.2617
   75ccc     C3 1927   6.595   7.427   8.131  0.1582  1.1966  0.4189
   75ccc     C4 1928   6.448   7.505   7.946 -0.1121 -0.5313  0.1135
   75ccc     H6 1929   6.510   7.476   7.861 -1.8922  1.0043 -1.7570
   75ccc     C5 1930   6.299   7.508   7.907 -0.0524  0.3573  0.2352
   75ccc     H7 1931   6.485   7.605   7.972 -1.4535  0.5392 -1.9797
   75ccc     H8 1932   6.246   7.417   7.878 -0.3038  0.9777 -1.3244
   75ccc     H9 1933   6.239   7.558   7.985  1.7931 -1.1173  2.6545
   75ccc     C6 1934   6.287   7.587   7.782  0.7192 -0.4952  0.1217
   75ccc     O1 1935   6.251   7.716   7.809  0.0470 -0.3581 -0.6357
   75ccc     O2 1936   6.346   7.563   7.682  0.3182  0.1653  0.1720
   75ccc    H10 1937   6.605   7.343   8.201 -1.6120 -0.9886 -1.8504
   75ccc    H11 1938   6.682   7.438   8.065  0.5959 -3.0143  0.1317
   75ccc     C7 1939   6.581   7.552   8.215  0.5294  0.3925 -0.5024
   75ccc    H12 1940   6.478   7.565   8.248  0.6737 -1.0322  0.5469
   75ccc    H13 1941   6.613   7.633   8.149  2.4148 -0.1402 -0.2804
   75ccc     C8 1942   6.688   7.541   8.322  0.1276  0.0088 -0.2973
   75ccc     O3 1943   6.794   7.602   8.308  0.2157  0.9236  0.1902
   75ccc     O4 1944   6.659   7.460   8.427 -0.7801 -0.0340 -0.0712
   75ccc    H14 1945   6.243   7.730   7.905  1.3501  0.6725 -0.6510
   75ccc    H15 1946   6.574   7.419   8.405 -1.1133  0.5228  0.1614
   76ccc     N1 1947   6.739   7.230   8.971 -0.0450  0.2384 -0.1912
   76ccc     H1 1948   6.670   7.286   9.020 -1.1731 -0.3698 -1.0461
   76ccc     C1 1949   6.755   7.092   9.023  0.0963  0.3298 -0.1176
   76ccc     H2 1950   6.664   7.052   9.070  0.5900 -2.9859 -1.8030
   76ccc     C2 1951   6.866   7.093   9.128 -1.2013  0.1244 -1.0919
   76ccc     H3 1952   6.780   7.029   8.936 -1.6709  0.9262 -1.0650
   76ccc     H4 1953   6.958   7.086   9.069 -0.0992 -3.9787  0.9624
   76ccc     H5 1954   6.859   7.004   9.192 -1.3299  0.0606 -1.1954
   76ccc     N2 1955   6.865   7.219   9.217  0.6368 -0.2226 -0.0789
   76ccc     C3 1956   7.000   7.242   9.273  0.1424  0.7944  0.5973
   76ccc     C4 1957   6.754   7.213   9.321 -0.2293 -0.2346 -0.0880
   76ccc     H6 1958   6.780   7.150   9.406 -2.8513 -1.2749 -0.0012
   76ccc     C5 1959   6.729   7.352   9.381  0.9149  0.7050  0.2721
   76ccc     H7 1960   6.664   7.173   9.272 -0.0186 -2.1162  1.0435
   76ccc     H8 1961   6.683   7.420   9.308 -1.0186 -0.0348  0.7493
   76ccc     H9 1962   6.823   7.389   9.423  1.2828  0.1280 -0.0307
   76ccc     C6 1963   6.634   7.332   9.495  0.4053 -0.8198  0.5099
   76ccc     O1 1964   6.578   7.450   9.528  0.0274  0.5196  0.4329
   76ccc     O2 1965   6.593   7.224   9.537  0.1695  0.6142  0.7670
   76ccc    H10 1966   7.043   7.145   9.299  0.1125  0.5291 -0.3214
   76ccc    H11 1967   6.974   7.295   9.365 -1.6810  3.8435 -1.5434
   76ccc     C7 1968   7.074   7.325   9.172  0.4273 -0.5856 -0.0944
   76ccc    H12 1969   7.024   7.422   9.175  0.5890 -0.5194  0.5396
   76ccc    H13 1970   7.074   7.290   9.068 -0.6640 -1.4963  0.2137
   76ccc     C8 1971   7.214   7.366   9.221  0.8146 -0.6474 -0.1028
   76ccc     O3 1972   7.277   7.460   9.179  0.4489 -0.3773  0.2589
   76ccc     O4 1973   7.253   7.283   9.312  0.4896 -0.0203 -0.7473
   76ccc    H14 1974   6.635   7.507   9.475  2.9170 -2.1093  0.5423
   76ccc    H15 1975   7.333   7.328   9.344  0.1587  0.2612 -0.3087
   77ccc     N1 1976   6.999   7.873   9.149  0.0238  0.2050 -0.0102
   77ccc     H1 1977   6.908   7.845   9.183  0.7751 -0.6651  1.3217
   77ccc     C1 1978   7.091   7.936   9.244  0.2617  0.6636  0.4769
   77ccc     H2 1979   7.047   8.029   9.282  0.6952  0.7105  0.8651
   77ccc     C2 1980   7.136   7.844   9.357 -0.0019  0.4233 -0.0208
   77ccc     H3 1981   7.176   7.977   9.188  1.6245 -1.6526  0.7789
   77ccc     H4 1982   7.198   7.761   9.324 -1.3125 -2.3803  4.2041
   77ccc     H5 1983   7.200   7.903   9.424 -1.5095  1.1774  0.7963
   77ccc     N2 1984   7.026   7.791   9.445  0.0285 -0.6094 -0.6075
   77ccc     C3 1985   6.935   7.904   9.499 -0.1029  0.7783 -0.3273
   77ccc     C4 1986   7.060   7.683   9.542  0.1255 -0.6232  0.4903
   77ccc     H6 1987   6.970   7.647   9.594 -0.4997  1.6542  1.0452
   77ccc     C5 1988   7.123   7.557   9.485 -0.3003 -0.5579 -0.1942
   77ccc     H7 1989   7.133   7.733   9.608  0.6717 -0.5309 -0.1778
   77ccc     H8 1990   7.058   7.516   9.408  1.1305  0.3232 -1.9008
   77ccc     H9 1991   7.218   7.580   9.435 -0.0710  0.4493  0.6812
   77ccc     C6 1992   7.140   7.447   9.588  0.6353  0.1304  0.2771
   77ccc     O1 1993   7.025   7.395   9.637  0.5419 -0.4132 -0.3691
   77ccc     O2 1994   7.244   7.417   9.640  0.2539  0.1210 -0.2483
   77ccc    H10 1995   6.991   7.963   9.573 -0.0296 -1.5179  1.5346
   77ccc    H11 1996   6.915   7.978   9.421  2.0942  1.4434 -0.2780
   77ccc     C7 1997   6.802   7.849   9.551 -0.2653 -0.1427 -0.2203
   77ccc    H12 1998   6.741   7.937   9.574 -0.4955 -0.3904  0.1108
   77ccc    H13 1999   6.816   7.787   9.640  1.4100 -0.7995 -0.9308
   77ccc     C8 2000   6.723   7.754   9.460  0.2725 -0.7461 -0.2588
   77ccc     O3 2001   6.603   7.746   9.464  0.1698  0.0592 -0.2655
   77ccc     O4 2002   6.802   7.655   9.410 -0.0955 -0.4565 -0.0146
   77ccc    H14 2003   7.057   7.315   9.682  1.8102  0.7541  0.8562
   77ccc    H15 2004   6.884   7.706   9.404  1.1350 -2.5027 -0.7838
   78ccc     N1 2005   5.760   5.709   8.439 -0.0408 -0.4303  0.6163
   78ccc     H1 2006   5.784   5.639   8.370  0.5353 -1.4882  1.8838
   78ccc     C1 2007   5.814   5.839   8.422  0.3476  0.4860 -0.4960
   78ccc     H2 2008   5.734   5.914   8.427 -0.6240 -0.5898  0.6328
   78ccc     C2 2009   5.876   5.852   8.276 -0.3170 -0.1553  0.5315
   78ccc     H3 2010   5.887   5.861   8.501 -0.9135 -0.7119  1.0409
   78ccc     H4 2011   5.914   5.954   8.268 -1.1979  0.1999  0.8203
   78ccc     H5 2012   5.789   5.850   8.210 -0.2282  2.1993  0.3242
   78ccc     N2 2013   5.992   5.761   8.246  0.5087 -0.6857  0.1144
   78ccc     C3 2014   6.111   5.769   8.334  0.1753 -0.4061 -0.3295
   78ccc     C4 2015   6.029   5.753   8.104  0.1582  0.1724 -0.5880
   78ccc     H6 2016   6.061   5.850   8.065 -0.0604  0.4087 -0.1795
   78ccc     C5 2017   5.925   5.696   8.011  0.5408  0.0227  0.9038
   78ccc     H7 2018   6.122   5.696   8.092  0.9713  0.3353  4.0422
   78ccc     H8 2019   5.870   5.785   7.978  2.3726  1.1931  0.9195
   78ccc     H9 2020   5.864   5.619   8.059  3.2993 -1.9967  1.2951
   78ccc     C6 2021   5.986   5.622   7.892 -0.4514 -0.1174  0.1504
   78ccc     O1 2022   5.897   5.539   7.830 -0.5694  0.6778  0.2018
   78ccc     O2 2023   6.075   5.669   7.825 -0.0304  0.1633 -0.0433
   78ccc    H10 2024   6.172   5.678   8.326  0.8720 -0.0365  0.6738
   78ccc    H11 2025   6.078   5.768   8.438 -2.1933  1.9511 -0.9985
   78ccc     C7 2026   6.195   5.896   8.309  0.3959  1.1161 -0.0394
   78ccc    H12 2027   6.128   5.982   8.319 -1.1234 -0.0273 -0.2104
   78ccc    H13 2028   6.244   5.905   8.211  2.6060  2.8948  1.1678
   78ccc     C8 2029   6.297   5.903   8.417  0.0499 -0.2319  0.0857
   78ccc     O3 2030   6.269   5.906   8.536 -0.2800  0.3556 -0.1173
   78ccc     O4 2031   6.416   5.952   8.377  0.2227 -0.2382 -0.3902
   78ccc    H14 2032   5.821   5.520   7.888 -2.0987  1.7911 -1.3846
   78ccc    H15 2033   6.406   5.934   8.282  1.1539 -0.7209 -0.3935
   79ccc     N1 2034   5.681   4.955   8.697 -0.1616  0.0813 -0.1951
   79ccc     H1 2035   5.610   4.965   8.769  0.1502  2.2908 -0.1526
   79ccc     C1 2036   5.780   4.846   8.714  0.3324  0.3940  0.6583
   79ccc     H2 2037   5.882   4.878   8.691 -0.1752  2.4486  1.1685
   79ccc     C2 2038   5.753   4.721   8.637  0.3923  0.8330  0.2247
   79ccc     H3 2039   5.770   4.816   8.819  0.1427 -2.5163 -0.1213
   79ccc     H4 2040   5.834   4.655   8.669 -0.3347  0.3043  1.0028
   79ccc     H5 2041   5.783   4.735   8.532  3.1740 -1.5215  0.6355
   79ccc     N2 2042   5.622   4.649   8.657 -0.4093  0.1356  0.0601
   79ccc     C3 2043   5.570   4.626   8.794 -0.0681 -0.0771 -0.1909
   79ccc     C4 2044   5.600   4.533   8.570  0.1227 -0.1853  0.9425
   79ccc     H6 2045   5.696   4.481   8.561  0.0036 -0.3941  0.8930
   79ccc     C5 2046   5.547   4.577   8.431  0.1815 -0.2968 -0.2411
   79ccc     H7 2047   5.522   4.465   8.605  0.3752 -1.2884 -0.5831
   79ccc     H8 2048   5.546   4.490   8.364  0.7531 -0.3764 -0.1496
   79ccc     H9 2049   5.606   4.655   8.380 -0.4253 -0.5619 -1.3630
   79ccc     C6 2050   5.412   4.646   8.423 -0.1713 -0.7512 -0.0436
   79ccc     O1 2051   5.408   4.760   8.498 -0.2764 -0.0481  0.6098
   79ccc     O2 2052   5.321   4.612   8.349  0.0974 -0.7073  0.4888
   79ccc    H10 2053   5.480   4.564   8.789 -1.1634  1.5473 -0.8497
   79ccc    H11 2054   5.536   4.719   8.840 -2.4513 -1.8392  1.7073
   79ccc     C7 2055   5.679   4.550   8.877  0.4160 -0.0551  0.5352
   79ccc    H12 2056   5.768   4.609   8.901 -0.7327  1.4569  1.0996
   79ccc    H13 2057   5.706   4.456   8.827 -1.3193  0.6208 -1.8028
   79ccc     C8 2058   5.619   4.513   9.008 -0.0169  0.1342  0.4044
   79ccc     O3 2059   5.504   4.525   9.039 -0.2008  0.4178  0.1815
   79ccc     O4 2060   5.697   4.435   9.090  0.4595  0.0391  0.3966
   79ccc    H14 2061   5.484   4.759   8.560 -0.9755  1.7598  1.5143
   79ccc    H15 2062   5.787   4.436   9.052 -0.4436  2.0831 -1.8681
   80ccc     N1 2063   5.911   5.893   7.634 -1.0175 -0.1112  0.4164
   80ccc     H1 2064   5.921   5.793   7.649  1.7819  0.0480  0.0157
   80ccc     C1 2065   6.026   5.976   7.672 -0.2226 -0.7296  0.6714
   80ccc     H2 2066   5.994   6.059   7.737 -1.2624  2.2854 -3.4392
   80ccc     C2 2067   6.095   6.029   7.544  0.4349 -0.1948 -0.4910
   80ccc     H3 2068   6.102   5.917   7.726 -0.7418 -1.4929  0.5659
   80ccc     H4 2069   6.187   6.084   7.570 -0.7205  2.3234 -1.5168
   80ccc     H5 2070   6.042   6.117   7.503 -0.1373  0.2159  1.1240
   80ccc     N2 2071   6.109   5.925   7.441 -0.2882 -0.2072  0.2647
   80ccc     C3 2072   6.097   5.979   7.304  0.5777  0.0508 -0.3268
   80ccc     C4 2073   6.239   5.856   7.463 -0.2441  1.0082  0.3975
   80ccc     H6 2074   6.331   5.901   7.424 -0.5048 -0.0781 -1.5957
   80ccc     C5 2075   6.235   5.708   7.417 -0.0360 -0.3361  1.1310
   80ccc     H7 2076   6.250   5.842   7.571  0.4125 -0.2167  0.1849
   80ccc     H8 2077   6.328   5.659   7.448  0.5900  0.3530  0.3311
   80ccc     H9 2078   6.230   5.709   7.308  0.4030  0.5846  1.1179
   80ccc     C6 2079   6.121   5.614   7.471 -0.1381 -0.3703 -0.3496
   80ccc     O1 2080   5.996   5.660   7.464 -0.1848  0.2429  0.2281
   80ccc     O2 2081   6.140   5.518   7.540  0.3143 -0.1097 -0.3214
   80ccc    H10 2082   6.132   5.902   7.234  0.4109  0.2654 -0.6492
   80ccc    H11 2083   6.168   6.062   7.301 -0.1428  0.7216  0.7267
   80ccc     C7 2084   5.963   6.021   7.262 -0.0288 -0.1077 -0.6287
   80ccc    H12 2085   5.939   6.115   7.314  0.5371 -1.3880  2.0084
   80ccc    H13 2086   5.891   5.946   7.296 -1.9073  2.1711  0.6057
   80ccc     C8 2087   5.958   6.056   7.114 -0.2571  0.0389  0.0448
   80ccc     O3 2088   6.058   6.095   7.053  0.0849  0.0756  0.1122
   80ccc     O4 2089   5.833   6.082   7.073  0.3734  0.4016  0.0576
   80ccc    H14 2090   6.011   5.751   7.432 -1.5043  0.4372  0.1468
   80ccc    H15 2091   5.774   6.057   7.145 -1.3670 -0.6150 -1.6669
   81ccc     N1 2092   5.246   5.750   7.216 -0.5946 -0.7015 -0.2976
   81ccc     H1 2093   5.277   5.841   7.250 -1.6647 -0.0367 -1.0663
   81ccc     C1 2094   5.110   5.743   7.169 -0.1257  0.3472 -0.5215
   81ccc     H2 2095   5.054   5.689   7.246  0.2781  1.5276  0.6271
   81ccc     C2 2096   5.104   5.676   7.026  0.2207 -0.1887 -0.0791
   81ccc     H3 2097   5.069   5.845   7.170  0.8119  0.7697 -1.9014
   81ccc     H4 2098   4.997   5.667   7.001 -0.7597  1.3624  3.2673
   81ccc     H5 2099   5.147   5.580   7.056 -0.2860 -0.0533  1.1062
   81ccc     N2 2100   5.181   5.748   6.921 -0.3604 -0.0903  0.2095
   81ccc     C3 2101   5.144   5.888   6.893 -0.2324 -0.5119  0.3836
   81ccc     C4 2102   5.182   5.678   6.791 -0.4300  0.0872 -0.2995
   81ccc     H6 2103   5.083   5.657   6.750  0.5594 -3.5624 -0.9660
   81ccc     C5 2104   5.260   5.547   6.806 -0.3149 -0.7629 -0.1987
   81ccc     H7 2105   5.238   5.733   6.714  1.4390 -2.0187 -0.4830
   81ccc     H8 2106   5.339   5.558   6.881  0.3087 -1.7313 -0.7079
   81ccc     H9 2107   5.194   5.471   6.850 -1.5461  0.9097  0.9188
   81ccc     C6 2108   5.322   5.500   6.675 -0.4821 -0.2697 -0.5123
   81ccc     O1 2109   5.459   5.509   6.661 -0.1549 -0.4929 -0.2880
   81ccc     O2 2110   5.255   5.438   6.594  0.0605 -0.3498  0.1220
   81ccc    H10 2111   5.113   5.937   6.986  0.3756  2.3559 -0.8727
   81ccc    H11 2112   5.059   5.893   6.824  0.8467 -0.4625 -0.9494
   81ccc     C7 2113   5.271   5.960   6.834  0.1166 -0.2454  0.6014
   81ccc    H12 2114   5.295   5.915   6.737  0.5261  0.8876  0.1637
   81ccc    H13 2115   5.353   5.959   6.907 -1.2045  1.1719  2.1503
   81ccc     C8 2116   5.239   6.100   6.805  0.4195 -0.0746  0.5057
   81ccc     O3 2117   5.124   6.138   6.794  0.1541 -0.2947  0.5260
   81ccc     O4 2118   5.341   6.167   6.763  0.6931  0.1443 -0.1559
   81ccc    H14 2119   5.479   5.587   6.716  1.0112 -0.3439 -0.9176
   81ccc    H15 2120   5.413   6.103   6.753  0.4040 -0.6494  2.2958
   82ccc     N1 2121   5.822   6.334   7.543  0.2467 -0.4304  0.0048
   82ccc     H1 2122   5.785   6.239   7.546 -0.4732 -0.1179  1.4039
   82ccc     C1 2123   5.940   6.371   7.619 -0.8507 -0.0787 -0.3426
   82ccc     H2 2124   5.960   6.276   7.672  0.8557 -0.2464 -1.2472
   82ccc     C2 2125   5.904   6.470   7.732  0.1231 -0.5291  0.0134
   82ccc     H3 2126   6.019   6.397   7.548 -0.3826  0.1682  0.2638
   82ccc     H4 2127   5.869   6.557   7.677 -1.0950 -1.3431 -0.5154
   82ccc     H5 2128   5.999   6.496   7.780 -0.4482 -0.0989  0.9093
   82ccc     N2 2129   5.799   6.433   7.833  1.0663  0.3062  1.1933
   82ccc     C3 2130   5.841   6.320   7.919 -0.0918 -0.4296 -0.3290
   82ccc     C4 2131   5.746   6.546   7.910 -0.6765  0.1712 -1.1693
   82ccc     H6 2132   5.704   6.497   7.999  0.9740 -1.3284 -1.1836
   82ccc     C5 2133   5.627   6.614   7.842 -0.2237 -0.0622  0.0901
   82ccc     H7 2134   5.820   6.619   7.944  0.0055 -1.6823  1.5171
   82ccc     H8 2135   5.653   6.669   7.750 -2.3315 -0.6335 -0.8604
   82ccc     H9 2136   5.590   6.689   7.912 -0.8751 -0.3607  0.0659
   82ccc     C6 2137   5.516   6.508   7.813  0.1911  0.0690  0.5722
   82ccc     O1 2138   5.533   6.433   7.704 -0.0951 -0.1418  0.2190
   82ccc     O2 2139   5.418   6.495   7.882 -0.0242 -0.1409  0.2232
   82ccc    H10 2140   5.881   6.363   8.011 -2.5307  0.0521  0.5350
   82ccc    H11 2141   5.929   6.265   7.881 -0.5733 -1.4516  0.0079
   82ccc     C7 2142   5.729   6.221   7.948 -0.8023 -0.0840  0.0547
   82ccc    H12 2143   5.682   6.212   7.849 -0.2780  1.8677 -0.3975
   82ccc    H13 2144   5.661   6.263   8.022 -0.1042  2.5231 -0.7249
   82ccc     C8 2145   5.780   6.078   7.992 -0.0029 -0.0284 -0.4093
   82ccc     O3 2146   5.888   6.048   8.026  0.1452 -0.0701  0.0996
   82ccc     O4 2147   5.695   5.982   7.974  0.7812  0.4826 -0.1639
   82ccc    H14 2148   5.628   6.448   7.691  0.1399  0.3022  2.2431
   82ccc    H15 2149   5.612   6.020   7.942 -0.7276 -2.2462  0.3649
   83ccc     N1 2150   5.517   6.392   6.696 -0.2881 -0.0242 -0.1251
   83ccc     H1 2151   5.444   6.328   6.726  1.0389 -0.9993  1.1262
   83ccc     C1 2152   5.524   6.438   6.559  0.6258  0.0430 -0.2621
   83ccc     H2 2153   5.556   6.542   6.551  0.4194  0.0855 -0.5320
   83ccc     C2 2154   5.395   6.425   6.479 -0.0128  0.5439  0.0683
   83ccc     H3 2155   5.595   6.367   6.514  1.7366  0.6152  0.5402
   83ccc     H4 2156   5.382   6.318   6.459  0.3753  0.4664  0.2339
   83ccc     H5 2157   5.420   6.468   6.382 -0.7109  2.0946  0.5638
   83ccc     N2 2158   5.270   6.481   6.541 -0.0038 -0.4427 -0.1870
   83ccc     C3 2159   5.155   6.432   6.459  0.4851  0.3397  0.1682
   83ccc     C4 2160   5.275   6.622   6.559 -0.3307 -0.3136  0.2227
   83ccc     H6 2161   5.246   6.670   6.465  2.6443 -0.3540 -0.7918
   83ccc     C5 2162   5.181   6.659   6.672  0.1132 -0.1418 -0.2556
   83ccc     H7 2163   5.371   6.656   6.600  0.2096 -2.6028  0.9463
   83ccc     H8 2164   5.190   6.768   6.679  0.0542 -0.2241  1.3987
   83ccc     H9 2165   5.074   6.649   6.647 -0.3525  1.9527  0.7521
   83ccc     C6 2166   5.205   6.605   6.812 -0.0262  0.2343 -0.1533
   83ccc     O1 2167   5.221   6.474   6.798 -0.1826 -0.0559 -0.7684
   83ccc     O2 2168   5.175   6.652   6.914  0.2764  0.3360 -0.3116
   83ccc    H10 2169   5.173   6.359   6.379  0.3743  0.5637 -0.0634
   83ccc    H11 2170   5.102   6.516   6.413 -1.0204 -0.2975  0.7048
   83ccc     C7 2171   5.069   6.351   6.559 -0.0600 -0.6332 -0.1565
   83ccc    H12 2172   5.028   6.424   6.630  1.1116  0.2238 -0.3367
   83ccc    H13 2173   5.143   6.285   6.607 -2.1432 -2.6523  0.3696
   83ccc     C8 2174   4.962   6.263   6.502  0.1134  0.6614 -0.0964
   83ccc     O3 2175   4.919   6.290   6.393  0.6463 -0.1863  0.1357
   83ccc     O4 2176   4.939   6.149   6.567  0.5013 -0.3924  0.0342
   83ccc    H14 2177   5.237   6.472   6.702 -1.8622 -0.2154 -1.0582
   83ccc    H15 2178   4.987   6.173   6.648 -0.1419 -1.5857  0.7731
   84ccc     N1 2179   4.723   5.360   8.353  0.2207  0.1108  0.0944
   84ccc     H1 2180   4.785   5.329   8.427 -0.6952 -0.2560  0.7252
   84ccc     C1 2181   4.582   5.361   8.374  0.4763  0.4495  0.3896
   84ccc     H2 2182   4.535   5.427   8.300  1.0734  0.1738 -0.2419
   84ccc     C2 2183   4.538   5.386   8.514  0.3686 -0.5794 -0.4917
   84ccc     H3 2184   4.545   5.260   8.352  2.9465 -0.4992  0.3640
   84ccc     H4 2185   4.569   5.489   8.533  0.3237 -0.5742 -0.4508
   84ccc     H5 2186   4.597   5.319   8.578 -0.3182  0.2615  1.0363
   84ccc     N2 2187   4.392   5.364   8.542  0.5341  0.7942 -0.1083
   84ccc     C3 2188   4.361   5.406   8.680  0.1579  0.8494  0.5302
   84ccc     C4 2189   4.302   5.420   8.439 -0.3628  0.7904  0.4475
   84ccc     H6 2190   4.345   5.386   8.344  0.1161 -2.3657  1.7241
   84ccc     C5 2191   4.286   5.570   8.456  0.6378  0.9707 -0.2465
   84ccc     H7 2192   4.203   5.375   8.457  0.5081 -0.8543  1.3096
   84ccc     H8 2193   4.209   5.585   8.533  1.2253  0.7524  0.3819
   84ccc     H9 2194   4.378   5.613   8.497  1.5080 -0.7603 -0.3255
   84ccc     C6 2195   4.237   5.639   8.327 -0.2081  0.4088 -0.4258
   84ccc     O1 2196   4.140   5.736   8.345 -0.5843  0.0776 -0.7741
   84ccc     O2 2197   4.303   5.633   8.226  0.2569  0.5529  0.0873
   84ccc    H10 2198   4.253   5.421   8.690  0.6515  2.8391  3.2971
   84ccc    H11 2199   4.389   5.510   8.700  0.8495  0.5776  0.9682
   84ccc     C7 2200   4.410   5.314   8.785 -0.4177  0.4766  0.5803
   84ccc    H12 2201   4.359   5.218   8.773 -0.4332  0.8752 -3.1492
   84ccc    H13 2202   4.518   5.303   8.769 -0.5769  0.6670 -0.7653
   84ccc     C8 2203   4.388   5.363   8.930 -0.4390 -0.2263 -0.0828
   84ccc     O3 2204   4.323   5.466   8.951  0.1595 -0.2883 -0.6384
   84ccc     O4 2205   4.413   5.270   9.018 -0.2679  0.1851 -0.2868
   84ccc    H14 2206   4.077   5.721   8.418  0.9570 -2.2651  0.1270
   84ccc    H15 2207   4.477   5.207   8.981 -1.7153 -1.4014 -0.1553
   85ccc     N1 2208   5.521   5.094   8.223 -0.4470  0.2982 -0.2874
   85ccc     H1 2209   5.566   5.184   8.232  0.8807 -0.5260  1.7638
   85ccc     C1 2210   5.589   4.963   8.205 -0.5586 -0.5127 -0.4078
   85ccc     H2 2211   5.692   4.985   8.233 -0.0421 -1.8742 -1.1831
   85ccc     C2 2212   5.596   4.916   8.054 -0.9746 -0.0103 -0.0466
   85ccc     H3 2213   5.551   4.886   8.274 -1.4066  0.0028 -0.2886
   85ccc     H4 2214   5.492   4.885   8.039 -1.5980  1.5966  0.8724
   85ccc     H5 2215   5.653   4.823   8.042  0.1086  0.5584  0.5703
   85ccc     N2 2216   5.644   5.011   7.953 -0.4786  0.2691 -0.9059
   85ccc     C3 2217   5.606   4.981   7.809 -0.4893  0.4636  0.3100
   85ccc     C4 2218   5.789   5.041   7.966 -0.7728  0.3735 -0.1998
   85ccc     H6 2219   5.855   4.972   7.912  0.7807  3.0928 -1.9084
   85ccc     C5 2220   5.814   5.185   7.912  0.0470  0.1841 -0.0405
   85ccc     H7 2221   5.823   5.046   8.070 -0.1381  1.3160 -0.4375
   85ccc     H8 2222   5.807   5.190   7.802  0.7808  1.4618 -0.0288
   85ccc     H9 2223   5.740   5.254   7.953  0.8268  2.2427 -2.0035
   85ccc     C6 2224   5.944   5.238   7.949 -0.3684  0.3831  0.7311
   85ccc     O1 2225   6.036   5.225   7.853  0.2785 -0.0574  0.3812
   85ccc     O2 2226   5.962   5.313   8.038  0.1979  0.0901  0.0883
   85ccc    H10 2227   5.638   4.883   7.773  2.4002  1.1819  0.7994
   85ccc    H11 2228   5.650   5.052   7.737  3.4488  0.6377  2.7330
   85ccc     C7 2229   5.453   4.995   7.791  0.0814  0.1845 -0.2619
   85ccc    H12 2230   5.435   4.973   7.685  1.0372 -0.9567 -0.2027
   85ccc    H13 2231   5.394   4.928   7.855  1.6637 -0.9403  0.0561
   85ccc     C8 2232   5.399   5.134   7.826  0.2533  0.7630  0.9847
   85ccc     O3 2233   5.302   5.181   7.769 -0.4038 -0.1400  0.5074
   85ccc     O4 2234   5.463   5.205   7.921 -0.1060  0.1147  0.6619
   85ccc    H14 2235   6.009   5.152   7.795  0.7757  0.5464 -0.6321
   85ccc    H15 2236   5.525   5.133   7.943 -1.0824 -1.6320 -1.9876
   86ccc     N1 2237   5.625   7.278   9.433 -0.4805  0.3131 -0.0546
   86ccc     H1 2238   5.543   7.335   9.447 -0.3064  0.6448 -0.3627
   86ccc     C1 2239   5.753   7.313   9.494  0.0331 -0.9135  0.0907
   86ccc     H2 2240   5.780   7.230   9.560 -1.0286 -1.2826  0.0793
   86ccc     C2 2241   5.747   7.442   9.575 -0.1457  0.5779 -0.2645
   86ccc     H3 2242   5.827   7.332   9.414 -1.6083 -0.5165 -1.3801
   86ccc     H4 2243   5.833   7.453   9.642 -0.5424 -0.1532  0.3687
   86ccc     H5 2244   5.666   7.430   9.648  0.4516 -0.3707  0.2517
   86ccc     N2 2245   5.710   7.569   9.505  0.1519 -0.0919 -0.0217
   86ccc     C3 2246   5.777   7.594   9.371  0.6717  0.0723 -0.7794
   86ccc     C4 2247   5.702   7.686   9.599 -0.0909  0.6629 -0.2219
   86ccc     H6 2248   5.651   7.651   9.689 -1.0535 -0.2464 -1.1085
   86ccc     C5 2249   5.624   7.804   9.544 -0.3249  0.0930  0.2993
   86ccc     H7 2250   5.800   7.729   9.623 -0.0460  0.4080  0.0538
   86ccc     H8 2251   5.518   7.783   9.527 -0.6187  2.0086 -0.4414
   86ccc     H9 2252   5.670   7.844   9.453 -2.9044  0.1343 -1.0276
   86ccc     C6 2253   5.620   7.922   9.638  0.2272 -0.5399  0.1712
   86ccc     O1 2254   5.503   7.933   9.699  0.3973 -0.0206  0.3179
   86ccc     O2 2255   5.723   7.966   9.683  0.0170  0.4212  0.0186
   86ccc    H10 2256   5.761   7.506   9.307 -0.9750 -1.4914  1.6863
   86ccc    H11 2257   5.742   7.685   9.320  0.9814  0.5955 -0.0580
   86ccc     C7 2258   5.931   7.606   9.383  0.3686 -0.0680  0.2292
   86ccc    H12 2259   5.967   7.514   9.431  0.6619 -1.4689 -2.5870
   86ccc    H13 2260   5.957   7.697   9.439 -2.7628 -1.0552  3.4699
   86ccc     C8 2261   6.006   7.615   9.251  0.9875 -0.3189  0.9610
   86ccc     O3 2262   5.958   7.632   9.144  0.1633 -0.9422  0.3459
   86ccc     O4 2263   6.135   7.639   9.268  0.1614 -0.2808 -0.0917
   86ccc    H14 2264   5.433   7.899   9.641 -0.6202  2.3667  0.0644
   86ccc    H15 2265   6.143   7.630   9.365  1.5742 -1.1381 -0.2691
   87ccc     N1 2266   4.891   7.068   9.127 -0.4152  0.5094  0.0523
   87ccc     H1 2267   4.866   7.043   9.222  1.3983  1.0744  0.6917
   87ccc     C1 2268   4.796   7.092   9.028  0.3883 -0.3816 -0.0905
   87ccc     H2 2269   4.699   7.087   9.078 -0.6622  2.0290 -1.8154
   87ccc     C2 2270   4.796   6.978   8.916 -0.1898  0.5246  0.5356
   87ccc     H3 2271   4.808   7.189   8.978 -2.1899  0.8309  1.5372
   87ccc     H4 2272   4.898   6.968   8.877  0.7578  2.6670  2.3828
   87ccc     H5 2273   4.737   7.013   8.830 -0.9066  1.4407  1.3839
   87ccc     N2 2274   4.745   6.844   8.949 -0.0556  0.1226 -0.3753
   87ccc     C3 2275   4.836   6.765   9.044  0.0907  0.5602 -0.5090
   87ccc     C4 2276   4.601   6.817   8.971  0.0749 -0.0927  0.0309
   87ccc     H6 2277   4.575   6.843   9.074  2.0816 -0.1011  0.5653
   87ccc     C5 2278   4.515   6.885   8.860  0.1129  0.2154 -0.7548
   87ccc     H7 2279   4.593   6.708   8.974 -0.6968 -0.0168  1.0013
   87ccc     H8 2280   4.564   6.867   8.764 -0.3984 -0.2057 -0.9439
   87ccc     H9 2281   4.513   6.993   8.879 -0.8153 -0.0778  1.0520
   87ccc     C6 2282   4.369   6.831   8.853  0.1888  0.2352  0.5374
   87ccc     O1 2283   4.286   6.893   8.765 -0.5581  0.2903  0.1581
   87ccc     O2 2284   4.312   6.768   8.937  0.7386  0.5053 -0.1138
   87ccc    H10 2285   4.794   6.666   9.064 -0.8767  0.9986 -0.3542
   87ccc    H11 2286   4.832   6.811   9.144  0.5415 -0.4127 -0.0393
   87ccc     C7 2287   4.980   6.734   8.994  0.5844  0.9375  0.5236
   87ccc    H12 2288   5.034   6.820   8.953  0.0622  0.1492 -1.9552
   87ccc    H13 2289   4.970   6.654   8.919  1.3605  1.2368  0.1066
   87ccc     C8 2290   5.040   6.665   9.112  0.2526 -0.1229  0.2215
   87ccc     O3 2291   4.984   6.648   9.214 -0.6175 -0.4010 -0.8023
   87ccc     O4 2292   5.152   6.607   9.085 -0.2626 -0.3738  0.6469
   87ccc    H14 2293   4.342   6.960   8.722 -2.0974  1.3859 -0.1581
   87ccc    H15 2294   5.178   6.626   8.993 -0.9880 -0.2897  0.4604
   88ccc     N1 2295   4.458   6.765  10.746 -0.3394  0.3208  0.5383
   88ccc     H1 2296   4.497   6.854  10.717 -0.9874  0.5857  0.4751
   88ccc     C1 2297   4.440   6.758  10.892  0.2003  0.8704 -0.0233
   88ccc     H2 2298   4.335   6.756  10.926 -0.0168 -0.0160 -0.7417
   88ccc     C2 2299   4.515   6.877  10.953 -0.5155 -0.8234  0.8214
   88ccc     H3 2300   4.475   6.662  10.933 -1.1592  0.1225 -0.5789
   88ccc     H4 2301   4.622   6.854  10.953  0.0926  1.7251 -1.8646
   88ccc     H5 2302   4.484   6.886  11.058 -1.3457 -0.9974  0.5966
   88ccc     N2 2303   4.496   7.010  10.880 -0.9017  0.1767  0.0878
   88ccc     C3 2304   4.357   7.058  10.874  0.3480 -0.3784  0.2586
   88ccc     C4 2305   4.586   7.120  10.924  0.0688  0.2316  0.4334
   88ccc     H6 2306   4.588   7.117  11.034 -1.4157  0.9155  0.4954
   88ccc     C5 2307   4.733   7.099  10.872  0.2664  0.1572  0.0828
   88ccc     H7 2308   4.541   7.216  10.895 -0.8296 -0.6206 -1.0497
   88ccc     H8 2309   4.776   7.003  10.902 -0.9129 -0.0871  1.0113
   88ccc     H9 2310   4.738   7.106  10.763  0.5337  0.3162  0.1041
   88ccc     C6 2311   4.825   7.202  10.933 -0.1498 -0.0397  0.1444
   88ccc     O1 2312   4.862   7.174  11.062  0.3189 -0.3451  0.2549
   88ccc     O2 2313   4.856   7.312  10.884  0.1215 -0.4550  0.0532
   88ccc    H10 2314   4.292   6.988  10.821 -1.1837  1.1011  0.1531
   88ccc    H11 2315   4.345   7.146  10.810 -1.8662 -0.5171  0.4600
   88ccc     C7 2316   4.301   7.075  11.012 -0.2205 -0.3225  0.0487
   88ccc    H12 2317   4.360   7.131  11.085 -0.0080 -0.8416  0.2727
   88ccc    H13 2318   4.279   6.978  11.057 -1.0200 -0.4177 -0.5286
   88ccc     C8 2319   4.157   7.139  11.008 -0.6355  0.7606 -1.1152
   88ccc     O3 2320   4.117   7.206  10.913 -0.4193  0.0951 -0.5489
   88ccc     O4 2321   4.076   7.120  11.119 -0.4639  0.0775 -0.7935
   88ccc    H14 2322   4.827   7.092  11.098  1.4821 -0.6291  0.7755
   88ccc    H15 2323   4.129   7.072  11.185  0.8906  2.2524 -0.2266
   89ccc     N1 2324   4.791   6.203  10.167 -0.3313  0.1525  0.0697
   89ccc     H1 2325   4.846   6.166  10.090  0.3890 -0.0068  0.6563
   89ccc     C1 2326   4.670   6.125  10.210 -0.1997 -0.1968  0.7892
   89ccc     H2 2327   4.706   6.083  10.305 -0.1755 -2.9514 -0.3906
   89ccc     C2 2328   4.632   6.014  10.114 -0.4594 -1.1348 -0.2884
   89ccc     H3 2329   4.587   6.195  10.227  0.2995  0.3953  0.8137
   89ccc     H4 2330   4.719   5.949  10.109 -1.0788 -2.2951  2.9921
   89ccc     H5 2331   4.550   5.960  10.164  0.6908 -2.3272  0.3360
   89ccc     N2 2332   4.596   6.061   9.975 -0.3607  1.0703 -0.0245
   89ccc     C3 2333   4.558   5.938   9.897  0.7372 -0.2737  0.2346
   89ccc     C4 2334   4.510   6.174   9.954 -0.1076 -0.1406  0.1086
   89ccc     H6 2335   4.499   6.245  10.037 -3.2669 -1.7034  1.1270
   89ccc     C5 2336   4.543   6.248   9.822 -0.0493 -0.0964  0.5689
   89ccc     H7 2337   4.407   6.137   9.949  0.2426 -0.9592 -1.4184
   89ccc     H8 2338   4.519   6.179   9.739  1.7064 -0.5982  0.4706
   89ccc     H9 2339   4.649   6.275   9.816 -0.2969  0.8534  0.4386
   89ccc     C6 2340   4.462   6.375   9.803 -0.6638  1.3359 -1.0787
   89ccc     O1 2341   4.500   6.439   9.693  0.1200  0.1078  0.2301
   89ccc     O2 2342   4.360   6.389   9.862 -0.6457  0.0076  0.3076
   89ccc    H10 2343   4.631   5.859   9.919  0.5273 -0.3556  0.6476
   89ccc    H11 2344   4.571   5.970   9.793 -2.8138 -1.0595 -0.4963
   89ccc     C7 2345   4.417   5.879   9.909  0.6357 -0.4620  0.4715
   89ccc    H12 2346   4.347   5.944   9.855  1.8309  1.6664  1.4525
   89ccc    H13 2347   4.383   5.883  10.013 -0.4160 -1.5209  0.1823
   89ccc     C8 2348   4.408   5.740   9.853  0.3369 -0.2854  0.5054
   89ccc     O3 2349   4.461   5.648   9.909 -0.4870 -0.2554  0.1261
   89ccc     O4 2350   4.386   5.739   9.721  0.0175  0.9995 -0.1596
   89ccc    H14 2351   4.575   6.392   9.652  0.3018  1.9353 -1.6052
   89ccc    H15 2352   4.356   5.830   9.703 -0.5889  0.9325  0.4895
   90ccc     N1 2353   5.579   5.680   9.080  0.0426  0.5199 -0.2140
   90ccc     H1 2354   5.657   5.731   9.039  0.3562 -0.4848 -0.8925
   90ccc     C1 2355   5.482   5.613   8.990 -0.7116 -0.5287 -0.7232
   90ccc     H2 2356   5.514   5.611   8.886 -0.8946  0.5219 -0.7979
   90ccc     C2 2357   5.344   5.682   8.986 -0.1174  0.4046 -1.3367
   90ccc     H3 2358   5.468   5.510   9.026 -0.6894 -0.8436 -1.6044
   90ccc     H4 2359   5.313   5.715   9.086 -2.2826 -1.1264 -1.4522
   90ccc     H5 2360   5.277   5.599   8.960 -0.5314  0.5740 -0.8176
   90ccc     N2 2361   5.324   5.792   8.887  0.5684  0.0107  0.3456
   90ccc     C3 2362   5.186   5.842   8.901  0.0101 -0.2843 -0.2915
   90ccc     C4 2363   5.442   5.887   8.892 -0.0156  0.2617 -0.2075
   90ccc     H6 2364   5.443   5.941   8.987 -1.0902  0.3691 -0.2474
   90ccc     C5 2365   5.428   5.974   8.768 -0.0592  0.1030 -0.3782
   90ccc     H7 2366   5.542   5.845   8.877  0.7465  1.3032  1.7706
   90ccc     H8 2367   5.338   6.032   8.790  0.9767  1.0640  1.3650
   90ccc     H9 2368   5.410   5.910   8.680 -4.2944 -0.2669  0.6359
   90ccc     C6 2369   5.543   6.065   8.743 -0.3970  0.6870 -0.3319
   90ccc     O1 2370   5.654   6.010   8.695 -0.1521 -0.2235 -0.1795
   90ccc     O2 2371   5.545   6.181   8.769  0.0532  0.1028  0.6150
   90ccc    H10 2372   5.186   5.951   8.903 -0.0936 -0.3094  1.1484
   90ccc    H11 2373   5.131   5.815   8.992  3.7917  0.2722  2.2674
   90ccc     C7 2374   5.109   5.772   8.789  0.2965 -0.5666 -0.0901
   90ccc    H12 2375   5.107   5.665   8.810  2.5762 -0.1988  2.2499
   90ccc    H13 2376   5.156   5.783   8.691  0.9007  0.8803  0.3366
   90ccc     C8 2377   4.968   5.828   8.784  0.3273  0.4881 -0.2878
   90ccc     O3 2378   4.908   5.862   8.882 -0.3427  0.3989  0.3599
   90ccc     O4 2379   4.913   5.831   8.663  0.2242 -0.3971  0.4075
   90ccc    H14 2380   5.629   5.916   8.706 -2.4212  0.1819 -1.5663
   90ccc    H15 2381   4.986   5.794   8.611 -0.2183 -1.5339  0.5939
   91ccc     N1 2382   6.211   5.952   9.242  0.0895  0.0380 -0.0911
   91ccc     H1 2383   6.169   6.043   9.255  0.7864  0.5508 -1.3342
   91ccc     C1 2384   6.344   5.939   9.303  0.5678  0.1310  0.3712
   91ccc     H2 2385   6.408   5.861   9.260 -2.3341 -1.3884 -1.3417
   91ccc     C2 2386   6.328   5.905   9.457 -0.4073  0.0368  0.1248
   91ccc     H3 2387   6.399   6.030   9.278 -1.9455  1.4911 -0.3138
   91ccc     H4 2388   6.432   5.895   9.492 -0.5847  2.3632  1.4927
   91ccc     H5 2389   6.287   5.805   9.475  2.5962 -1.3147 -0.2862
   91ccc     N2 2390   6.253   6.008   9.537  0.1074  0.6974 -0.3493
   91ccc     C3 2391   6.223   5.956   9.673  0.1429  0.4279  0.0964
   91ccc     C4 2392   6.307   6.147   9.535  0.4334  0.1600  0.7450
   91ccc     H6 2393   6.341   6.167   9.432 -1.0409 -1.6161 -0.1068
   91ccc     C5 2394   6.206   6.257   9.584 -0.6431  0.4336  0.3336
   91ccc     H7 2395   6.396   6.148   9.599  2.7560 -4.6672 -2.1105
   91ccc     H8 2396   6.184   6.249   9.691  1.8566 -1.1730  0.7594
   91ccc     H9 2397   6.118   6.246   9.519 -1.2510 -1.4704  1.4642
   91ccc     C6 2398   6.259   6.396   9.572 -0.5545 -0.6779 -0.1678
   91ccc     O1 2399   6.184   6.478   9.500 -0.3556 -0.8511 -0.0175
   91ccc     O2 2400   6.375   6.430   9.608  0.4142  0.1275  0.3093
   91ccc    H10 2401   6.211   6.034   9.749 -0.0613  0.3084  0.1863
   91ccc    H11 2402   6.308   5.899   9.710 -0.6212 -0.4777  0.4756
   91ccc     C7 2403   6.105   5.860   9.684 -0.3484  0.0648  0.1869
   91ccc    H12 2404   6.106   5.793   9.598 -0.2744 -0.2598  0.4393
   91ccc    H13 2405   6.106   5.796   9.773 -1.7230 -1.1959 -0.6933
   91ccc     C8 2406   5.964   5.929   9.677  0.4387  0.2095  0.5123
   91ccc     O3 2407   5.888   5.913   9.768 -0.6436 -0.1521 -0.0891
   91ccc     O4 2408   5.965   6.044   9.623  0.1014  0.1777 -0.1951
   91ccc    H14 2409   6.104   6.426   9.485 -1.2257  0.2616  0.7269
   91ccc    H15 2410   6.052   6.055   9.580 -0.3792 -0.6957 -1.4350
   92ccc     N1 2411   6.236   5.482   9.081 -0.2972  0.6200 -0.3361
   92ccc     H1 2412   6.221   5.565   9.138  1.9244 -0.7757  2.3608
   92ccc     C1 2413   6.312   5.509   8.959 -0.7940 -0.4860 -0.6486
   92ccc     H2 2414   6.402   5.566   8.986 -0.9505 -0.0682 -0.9823
   92ccc     C2 2415   6.235   5.593   8.858 -0.1274 -0.2388  0.5679
   92ccc     H3 2416   6.343   5.412   8.919 -0.7795 -0.7597  0.0223
   92ccc     H4 2417   6.305   5.649   8.795  1.8617 -1.9239  1.2089
   92ccc     H5 2418   6.192   5.675   8.916 -3.0472 -1.9315  0.8814
   92ccc     N2 2419   6.118   5.529   8.783 -0.0673 -0.2031 -0.2616
   92ccc     C3 2420   6.051   5.633   8.699  0.3959  0.6135  0.0038
   92ccc     C4 2421   6.155   5.397   8.711  0.7859  0.0022 -0.7623
   92ccc     H6 2422   6.198   5.436   8.617 -0.5211  1.6398 -0.7051
   92ccc     C5 2423   6.035   5.304   8.674  0.3645 -0.9250 -0.4642
   92ccc     H7 2424   6.231   5.345   8.770 -0.8721  1.2492  2.5861
   92ccc     H8 2425   6.049   5.239   8.586  1.2439 -0.8408 -0.3943
   92ccc     H9 2426   5.951   5.370   8.650  1.6309  1.8671  2.4195
   92ccc     C6 2427   5.982   5.226   8.790 -0.1752  0.2360 -0.2794
   92ccc     O1 2428   6.036   5.107   8.807  0.0558 -0.2460 -0.8323
   92ccc     O2 2429   5.871   5.249   8.838  0.0896 -0.9111 -0.1841
   92ccc    H10 2430   5.989   5.595   8.617  1.0544 -0.1490 -0.1507
   92ccc    H11 2431   6.131   5.674   8.636 -0.5325  0.4252 -1.3209
   92ccc     C7 2432   5.979   5.739   8.785 -0.3525  0.5837  0.5924
   92ccc    H12 2433   5.949   5.826   8.725  3.7832  1.2624 -0.7078
   92ccc    H13 2434   6.043   5.789   8.859 -0.5425 -0.6426  1.5930
   92ccc     C8 2435   5.857   5.690   8.857 -0.5738  0.1458  0.3003
   92ccc     O3 2436   5.769   5.758   8.907  0.0916  0.1377 -0.1140
   92ccc     O4 2437   5.860   5.552   8.879  0.2527  0.0655 -0.1904
   92ccc    H14 2438   6.102   5.102   8.736  0.0621 -0.4652 -0.8110
   92ccc    H15 2439   5.949   5.529   8.845  0.9499 -0.2210  1.7122
   93ccc     N1 2440   5.532   5.284   9.366  0.4659  0.2590  0.5343
   93ccc     H1 2441   5.514   5.383   9.374  0.6532  0.5460 -2.1777
   93ccc     C1 2442   5.435   5.192   9.307 -0.1421  0.0056  0.2611
   93ccc     H2 2443   5.474   5.156   9.211 -1.7903  1.2802 -0.8972
   93ccc     C2 2444   5.306   5.276   9.289 -0.2817 -0.6897  0.6302
   93ccc     H3 2445   5.418   5.104   9.372 -0.7514 -1.2105 -1.5075
   93ccc     H4 2446   5.232   5.201   9.260 -0.1265  0.4846 -3.0509
   93ccc     H5 2447   5.322   5.344   9.204 -0.2538 -1.9396 -0.3703
   93ccc     N2 2448   5.264   5.356   9.409  0.0617  0.1751  0.5891
   93ccc     C3 2449   5.247   5.261   9.524 -0.3873  0.5268 -0.3392
   93ccc     C4 2450   5.140   5.437   9.374  0.0631 -0.0442  0.3621
   93ccc     H6 2451   5.070   5.375   9.317 -1.4644  0.4639  1.6280
   93ccc     C5 2452   5.174   5.559   9.289  0.3591 -0.4259 -0.2581
   93ccc     H7 2453   5.082   5.478   9.458 -0.6064 -0.0599 -0.0885
   93ccc     H8 2454   5.222   5.634   9.355  1.3592 -2.3387  1.2580
   93ccc     H9 2455   5.245   5.536   9.208  1.6444 -0.0481  0.7289
   93ccc     C6 2456   5.051   5.628   9.231 -0.0454  0.7946  0.3938
   93ccc     O1 2457   5.018   5.604   9.098  0.4858  0.4815  0.0761
   93ccc     O2 2458   4.997   5.716   9.294  0.1765  0.2154  0.3601
   93ccc    H10 2459   5.318   5.178   9.528 -0.3345  0.6652  2.1747
   93ccc    H11 2460   5.152   5.211   9.505  0.4495 -0.7916 -1.1663
   93ccc     C7 2461   5.240   5.341   9.652  0.4605  0.1561  0.6206
   93ccc    H12 2462   5.209   5.268   9.728 -1.5524 -0.2200 -0.5118
   93ccc    H13 2463   5.152   5.407   9.651  1.6050  1.7076 -1.2750
   93ccc     C8 2464   5.373   5.402   9.700 -0.1084  0.3102 -0.0617
   93ccc     O3 2465   5.441   5.334   9.774  0.0837  0.2001 -0.1926
   93ccc     O4 2466   5.426   5.472   9.601 -0.1392 -0.0626  0.6273
   93ccc    H14 2467   5.079   5.531   9.078 -1.0216 -0.6663 -0.4501
   93ccc    H15 2468   5.364   5.450   9.529 -0.0746 -2.3116  1.2062
   94ccc     N1 2469   5.364   8.080  10.339  0.3711  0.5040 -0.4144
   94ccc     H1 2470   5.324   8.051  10.250  0.8427  1.5500 -0.9769
   94ccc     C1 2471   5.437   7.988  10.426 -0.5440 -0.3175  0.0923
   94ccc     H2 2472   5.510   7.934  10.364  1.3040  0.6886  1.3504
   94ccc     C2 2473   5.349   7.906  10.523 -0.0586  0.4091  0.2936
   94ccc     H3 2474   5.500   8.054  10.487 -2.5952  0.0179  1.9084
   94ccc     H4 2475   5.272   7.973  10.562 -0.5566 -0.6687  1.2280
   94ccc     H5 2476   5.422   7.881  10.601  0.4381  2.3248  0.4542
   94ccc     N2 2477   5.280   7.778  10.490 -0.0698 -0.0911 -0.4803
   94ccc     C3 2478   5.190   7.785  10.375 -0.0868 -0.0622 -0.2752
   94ccc     C4 2479   5.367   7.653  10.461 -0.8823  0.4644 -0.9279
   94ccc     H6 2480   5.298   7.570  10.440 -1.2462  0.5645 -0.1750
   94ccc     C5 2481   5.446   7.609  10.586  0.2238  0.0595  0.5403
   94ccc     H7 2482   5.437   7.676  10.380  0.1854 -1.4138 -0.5762
   94ccc     H8 2483   5.459   7.500  10.582 -0.4909 -0.0052 -0.2060
   94ccc     H9 2484   5.384   7.625  10.675 -1.2701 -2.0311 -0.0793
   94ccc     C6 2485   5.578   7.671  10.606  0.2765 -0.4779  0.5199
   94ccc     O1 2486   5.637   7.639  10.722  0.2302 -0.2054 -0.0277
   94ccc     O2 2487   5.631   7.735  10.519 -0.1433 -0.0462 -0.0804
   94ccc    H10 2488   5.246   7.824  10.290 -1.3957  0.6425 -0.8278
   94ccc    H11 2489   5.153   7.685  10.351  0.2516 -0.0693 -0.7624
   94ccc     C7 2490   5.072   7.886  10.393 -0.0252 -0.1994  0.1339
   94ccc    H12 2491   5.023   7.858  10.488  0.5318  1.0009  0.7825
   94ccc    H13 2492   5.113   7.987  10.404 -0.1373 -0.2375  0.9739
   94ccc     C8 2493   4.969   7.885  10.288  0.5121  0.3760 -0.4866
   94ccc     O3 2494   4.973   7.817  10.191 -0.2102 -0.3104  0.0781
   94ccc     O4 2495   4.855   7.954  10.311 -0.7679  0.1896  0.2915
   94ccc    H14 2496   5.572   7.572  10.752  1.7772 -1.8489 -0.2762
   94ccc    H15 2497   4.871   7.987  10.401  0.6125 -0.8573  0.4541
   95ccc     N1 2498   4.699   8.312   9.991  0.3673  0.2632  0.2682
   95ccc     H1 2499   4.704   8.405   9.951  1.3471 -0.0960 -0.4656
   95ccc     C1 2500   4.582   8.232   9.969  0.0548  0.4305  0.0182
   95ccc     H2 2501   4.538   8.189  10.060  3.9213 -3.9927 -0.0380
   95ccc     C2 2502   4.607   8.121   9.865  0.4061  0.8162  0.3731
   95ccc     H3 2503   4.506   8.301   9.928 -0.4480 -0.3687 -0.4236
   95ccc     H4 2504   4.637   8.166   9.769  2.3590 -2.4464 -0.6080
   95ccc     H5 2505   4.506   8.085   9.846  0.4482  1.2775 -0.8114
   95ccc     N2 2506   4.701   8.011   9.904  0.4924 -0.7010  0.3130
   95ccc     C3 2507   4.665   7.938  10.031 -0.4264  0.2200  0.1712
   95ccc     C4 2508   4.733   7.917   9.792 -0.0297  0.7760  0.1499
   95ccc     H6 2509   4.638   7.873   9.758  0.3462 -1.8275  2.2611
   95ccc     C5 2510   4.839   7.810   9.832  0.8771  0.2073  0.0495
   95ccc     H7 2511   4.771   7.983   9.713  0.3094 -1.3085 -1.4722
   95ccc     H8 2512   4.781   7.726   9.872  0.1724  0.2044 -0.9629
   95ccc     H9 2513   4.900   7.833   9.920  0.7309  1.0325 -0.0585
   95ccc     C6 2514   4.919   7.765   9.708 -0.0580  0.5041 -0.3679
   95ccc     O1 2515   4.921   7.636   9.689 -0.2193  0.8982  0.5374
   95ccc     O2 2516   4.963   7.839   9.629 -0.5610  0.0493  0.1422
   95ccc    H10 2517   4.681   8.014  10.109  1.6812  0.2766 -0.2808
   95ccc    H11 2518   4.740   7.865  10.067  0.1360  0.1218 -1.1751
   95ccc     C7 2519   4.527   7.872  10.036  0.9974  0.7262  0.0322
   95ccc    H12 2520   4.520   7.802   9.952  3.1515  2.0539 -1.3034
   95ccc    H13 2521   4.445   7.945  10.031  1.3620  1.0986 -0.7087
   95ccc     C8 2522   4.503   7.785  10.164 -0.0966 -0.0885  0.9308
   95ccc     O3 2523   4.575   7.791  10.260  0.4686 -0.2496  0.3538
   95ccc     O4 2524   4.393   7.718  10.161 -0.3948  0.6197 -0.5748
   95ccc    H14 2525   4.867   7.601   9.763  0.5617 -0.7613  0.3450
   95ccc    H15 2526   4.344   7.741  10.080  0.5080  2.6298 -0.5679
   96ccc     N1 2527   5.201   8.618   8.636  0.4568  0.4158 -0.1340
   96ccc     H1 2528   5.298   8.593   8.628  0.7066  1.6287 -1.0279
   96ccc     C1 2529   5.127   8.676   8.529  0.0126  0.2599  0.0979
   96ccc     H2 2530   5.026   8.635   8.532  0.4756 -0.8358  0.6290
   96ccc     C2 2531   5.184   8.651   8.387 -0.6511 -0.0288 -0.1947
   96ccc     H3 2532   5.120   8.782   8.556  1.4554  0.4477 -0.1884
   96ccc     H4 2533   5.124   8.709   8.316 -1.2280  0.0501  0.3496
   96ccc     H5 2534   5.168   8.546   8.357 -0.2045 -0.6131  1.5719
   96ccc     N2 2535   5.323   8.689   8.350 -0.1991 -0.0893 -0.0418
   96ccc     C3 2536   5.351   8.619   8.218  0.1264 -0.9733 -0.0693
   96ccc     C4 2537   5.359   8.834   8.353 -0.1314  0.1714  0.1382
   96ccc     H6 2538   5.305   8.890   8.276  1.1162  1.3812  0.1219
   96ccc     C5 2539   5.508   8.854   8.362  0.8945  0.0673  0.1694
   96ccc     H7 2540   5.316   8.863   8.450 -0.5121 -1.0544  0.3383
   96ccc     H8 2541   5.566   8.831   8.271  1.3832  0.8638  0.2708
   96ccc     H9 2542   5.548   8.789   8.441 -0.2466 -0.3011  0.4494
   96ccc     C6 2543   5.553   8.997   8.400  0.6955  0.0730 -0.5281
   96ccc     O1 2544   5.550   9.091   8.301 -0.6617 -0.2491  0.1286
   96ccc     O2 2545   5.593   9.026   8.507 -0.0606  0.1740  0.2608
   96ccc    H10 2546   5.446   8.667   8.190 -0.1750 -0.0700  0.4320
   96ccc    H11 2547   5.272   8.629   8.142  1.1768  1.7633 -0.8626
   96ccc     C7 2548   5.391   8.472   8.245  0.2076 -0.3861  0.7812
   96ccc    H12 2549   5.317   8.413   8.300 -1.3269 -1.1213 -2.0087
   96ccc    H13 2550   5.494   8.469   8.283 -0.1271  0.9200  1.8319
   96ccc     C8 2551   5.405   8.414   8.103  0.4157  0.8343  0.1379
   96ccc     O3 2552   5.369   8.465   7.996 -0.0105 -0.0680 -0.3895
   96ccc     O4 2553   5.451   8.293   8.095 -0.8237  0.5111  0.2570
   96ccc    H14 2554   5.488   9.045   8.240 -1.0222  1.3176 -0.7013
   96ccc    H15 2555   5.434   8.263   8.186 -1.7487  0.7110  0.1556
   97ccc     N1 2556   5.830   8.526   8.999 -0.3996 -0.3661  0.1749
   97ccc     H1 2557   5.789   8.444   8.956 -1.3669  0.7982 -1.2136
   97ccc     C1 2558   5.962   8.517   9.056  0.2703  0.0490  0.7676
   97ccc     H2 2559   5.960   8.575   9.149  0.3336 -0.5548  1.1487
   97ccc     C2 2560   6.092   8.548   8.974  0.1733 -0.0519 -0.0771
   97ccc     H3 2561   5.976   8.413   9.089  0.1743  0.3339  1.7286
   97ccc     H4 2562   6.170   8.549   9.051 -0.9180 -0.7228  1.0629
   97ccc     H5 2563   6.082   8.656   8.959  0.8141  0.1132  0.6516
   97ccc     N2 2564   6.116   8.455   8.859  0.1623  0.2549  0.2101
   97ccc     C3 2565   6.238   8.497   8.795 -0.1232  0.4146  0.5644
   97ccc     C4 2566   6.002   8.409   8.770 -0.0322 -0.3518 -0.2225
   97ccc     H6 2567   6.036   8.330   8.702  2.1468  0.9216 -0.6846
   97ccc     C5 2568   5.940   8.518   8.687  0.7160  0.3298  0.0753
   97ccc     H7 2569   5.931   8.364   8.840 -0.3918  1.0329  0.3175
   97ccc     H8 2570   6.016   8.542   8.610  2.7248 -2.4959  1.0866
   97ccc     H9 2571   5.916   8.609   8.743 -0.0188 -0.6260  1.3498
   97ccc     C6 2572   5.815   8.461   8.632  0.6762  0.4723 -0.3047
   97ccc     O1 2573   5.758   8.566   8.578  0.0864  0.3842 -0.2087
   97ccc     O2 2574   5.771   8.349   8.615  0.1036 -0.6788 -0.2791
   97ccc    H10 2575   6.230   8.600   8.759 -0.3341  0.7218  1.4855
   97ccc    H11 2576   6.255   8.446   8.699 -1.1606  0.2664  0.4542
   97ccc     C7 2577   6.369   8.483   8.879  0.0965 -0.5578  0.3894
   97ccc    H12 2578   6.371   8.537   8.974  0.6373 -1.3114  0.8192
   97ccc    H13 2579   6.441   8.529   8.810 -1.7279  0.4534 -0.8795
   97ccc     C8 2580   6.414   8.343   8.915 -0.2916  0.2334  0.5396
   97ccc     O3 2581   6.516   8.326   8.974  0.3308 -0.9173 -0.0107
   97ccc     O4 2582   6.325   8.248   8.894  0.0815  0.0730  0.1047
   97ccc    H14 2583   5.811   8.644   8.600  0.7774 -0.4903  1.3044
   97ccc    H15 2584   6.257   8.313   8.868 -0.5344 -0.9296 -0.8222
   98ccc     N1 2585   5.595   5.887  10.259 -0.2087  0.2157 -0.0159
   98ccc     H1 2586   5.620   5.904  10.162  0.5188  1.2722  0.3604
   98ccc     C1 2587   5.676   5.784  10.324 -0.4205  0.0521 -0.8948
   98ccc     H2 2588   5.774   5.773  10.277 -0.4431  1.1241 -1.1968
   98ccc     C2 2589   5.601   5.648  10.344 -0.2072 -0.6117  0.5850
   98ccc     H3 2590   5.700   5.829  10.421 -1.4086 -1.2595 -0.0174
   98ccc     H4 2591   5.511   5.672  10.403  0.2436 -0.1814  1.0979
   98ccc     H5 2592   5.671   5.591  10.406  2.2588  2.3319  0.5856
   98ccc     N2 2593   5.576   5.558  10.228  0.4918 -0.3316  0.9972
   98ccc     C3 2594   5.705   5.498  10.176 -0.1074  0.4372  0.7954
   98ccc     C4 2595   5.492   5.616  10.118  0.1527  0.0962 -0.4803
   98ccc     H6 2596   5.535   5.697  10.058 -1.3318  0.7445 -0.6793
   98ccc     C5 2597   5.364   5.670  10.176  0.2322 -0.2202 -1.1434
   98ccc     H7 2598   5.464   5.544  10.040  0.5380 -0.3505 -0.2131
   98ccc     H8 2599   5.385   5.754  10.243  2.0640 -0.5284 -1.3029
   98ccc     H9 2600   5.306   5.597  10.234 -0.7269  2.3328  1.1739
   98ccc     C6 2601   5.264   5.746  10.085 -0.3428  0.1014  0.3306
   98ccc     O1 2602   5.153   5.794  10.145  0.4194  0.3131 -0.1333
   98ccc     O2 2603   5.268   5.746   9.964 -0.3285 -0.0255 -0.0947
   98ccc    H10 2604   5.765   5.441  10.248  2.8596  1.0216 -1.1122
   98ccc    H11 2605   5.775   5.569  10.128 -0.1059  0.4719  0.8499
   98ccc     C7 2606   5.663   5.393  10.068  0.9308  0.7191  0.4434
   98ccc    H12 2607   5.611   5.426   9.977  1.8926 -0.0070 -0.3817
   98ccc    H13 2608   5.589   5.334  10.123  1.2718 -0.8743 -0.7470
   98ccc     C8 2609   5.777   5.305  10.023 -0.4418  0.0573 -0.0205
   98ccc     O3 2610   5.808   5.207  10.084  0.3660  0.0050  0.5733
   98ccc     O4 2611   5.856   5.376   9.944 -0.1673 -0.2394 -0.5417
   98ccc    H14 2612   5.163   5.788  10.242 -2.4967  1.8434  0.3314
   98ccc    H15 2613   5.795   5.450   9.927  1.3228  1.4093  1.0982
   99ccc     N1 2614   5.009   6.099   9.749  0.1294 -0.1384 -0.3170
   99ccc     H1 2615   5.071   6.165   9.703 -0.9657  1.4631  0.4469
   99ccc     C1 2616   4.893   6.064   9.667  0.2452 -0.0567  0.5938
   99ccc     H2 2617   4.807   6.119   9.706 -0.5714 -1.9704  1.5173
   99ccc     C2 2618   4.866   5.915   9.666  0.3532  0.5503 -0.3443
   99ccc     H3 2619   4.924   6.094   9.566 -0.3644  1.3839  0.8220
   99ccc     H4 2620   4.853   5.891   9.772 -0.5277  0.7406 -0.4088
   99ccc     H5 2621   4.957   5.866   9.629  0.6234  1.6002 -1.1090
   99ccc     N2 2622   4.753   5.856   9.579 -0.1917 -0.5033  0.8180
   99ccc     C3 2623   4.660   5.953   9.513  0.0446  0.5559  0.1692
   99ccc     C4 2624   4.742   5.706   9.558  0.2271 -0.4726 -0.2483
   99ccc     H6 2625   4.641   5.665   9.542  0.7372 -0.6382 -3.3383
   99ccc     C5 2626   4.818   5.622   9.658  0.3329 -0.2721 -0.6780
   99ccc     H7 2627   4.794   5.674   9.467  2.1135 -0.3493  0.7536
   99ccc     H8 2628   4.926   5.644   9.659 -0.0503  1.6840  1.1074
   99ccc     H9 2629   4.791   5.663   9.756 -2.0045 -1.0567 -0.9652
   99ccc     C6 2630   4.796   5.473   9.646 -0.3176 -0.6956  0.6790
   99ccc     O1 2631   4.887   5.398   9.716 -0.1544 -0.3557  0.0705
   99ccc     O2 2632   4.704   5.422   9.578 -0.2414  0.0443  0.0735
   99ccc    H10 2633   4.658   6.059   9.543  1.7271  0.2696  1.3688
   99ccc    H11 2634   4.556   5.918   9.515 -0.0012  0.5909 -1.1290
   99ccc     C7 2635   4.693   5.940   9.360 -0.0525 -0.0819 -0.3441
   99ccc    H12 2636   4.708   5.835   9.333  2.4289 -0.0131  0.6345
   99ccc    H13 2637   4.792   5.985   9.339 -0.9244  1.9969 -0.1580
   99ccc     C8 2638   4.588   6.009   9.279  0.0196  0.1143  0.0296
   99ccc     O3 2639   4.509   6.090   9.320  0.5471  0.3210  0.1436
   99ccc     O4 2640   4.566   5.935   9.179  0.8685 -0.0554  0.3124
   99ccc    H14 2641   4.931   5.469   9.766  1.4847  0.0738 -1.9175
   99ccc    H15 2642   4.638   5.870   9.175 -0.2281 -1.1924 -2.2275
  100ccc     N1 2643   4.884   7.527  10.618  0.3382  0.0926 -0.2140
  100ccc     H1 2644   4.888   7.513  10.718  1.6940  1.1320 -0.1155
  100ccc     C1 2645   4.804   7.637  10.567  0.5330  0.3393 -0.3721
  100ccc     H2 2646   4.870   7.724  10.573 -0.3279  1.0872 -1.5034
  100ccc     C2 2647   4.673   7.668  10.653  0.0178  0.1845 -0.6142
  100ccc     H3 2648   4.772   7.624  10.463 -1.1287  2.2338 -0.1263
  100ccc     H4 2649   4.598   7.588  10.641 -0.9768  0.7757  1.4714
  100ccc     H5 2650   4.633   7.756  10.603 -1.0077 -1.0941 -2.0882
  100ccc     N2 2651   4.702   7.691  10.798 -0.2421 -0.0751  0.3931
  100ccc     C3 2652   4.588   7.676  10.887  0.1428 -0.2480 -0.3241
  100ccc     C4 2653   4.777   7.816  10.813 -0.7131 -0.8914 -0.4423
  100ccc     H6 2654   4.859   7.826  10.741  0.2619  0.9189  0.8644
  100ccc     C5 2655   4.847   7.818  10.957 -0.0819 -0.1229  0.3489
  100ccc     H7 2656   4.715   7.905  10.807 -0.2789 -0.4947  0.6829
  100ccc     H8 2657   4.899   7.913  10.972  0.0934  0.0811 -1.4274
  100ccc     H9 2658   4.774   7.816  11.039  0.9667 -1.3600  1.2741
  100ccc     C6 2659   4.939   7.703  10.994  0.1305 -0.0135  0.2161
  100ccc     O1 2660   4.890   7.575  10.984 -0.2681  0.1371  0.3969
  100ccc     O2 2661   5.055   7.721  11.025  0.0646  0.4890 -0.0239
  100ccc    H10 2662   4.513   7.755  10.873 -0.6181 -0.7383  0.9327
  100ccc    H11 2663   4.603   7.687  10.995  2.8677  1.4597 -0.8349
  100ccc     C7 2664   4.524   7.533  10.872 -0.8628 -0.2064 -0.5658
  100ccc    H12 2665   4.483   7.509  10.773 -1.1283  0.3063 -0.5817
  100ccc    H13 2666   4.600   7.456  10.890  0.0757  0.8344 -0.0549
  100ccc     C8 2667   4.419   7.506  10.978  0.3219  0.0131  0.2393
  100ccc     O3 2668   4.443   7.463  11.089 -0.3374  0.2280 -0.3677
  100ccc     O4 2669   4.300   7.551  10.945  0.7445 -0.1229 -0.3929
  100ccc    H14 2670   4.821   7.593  10.917 -0.1677  0.0218  0.2601
  100ccc    H15 2671   4.314   7.591  10.858 -1.5938 -1.2969 -1.3768
  101ccc     N1 2672   5.170   7.006  11.040 -0.4466 -0.1361 -0.3153
  101ccc     H1 2673   5.206   7.096  11.069  2.4267 -1.3527  0.0657
  101ccc     C1 2674   5.204   6.893  11.126 -0.8583 -0.9926  0.2053
  101ccc     H2 2675   5.268   6.825  11.068 -0.4257  0.1601 -0.7079
  101ccc     C2 2676   5.083   6.798  11.160  1.3253  0.7695  0.4069
  101ccc     H3 2677   5.260   6.926  11.214  0.1499  0.8146 -1.0696
  101ccc     H4 2678   4.993   6.855  11.187 -1.1345 -3.3347  1.2634
  101ccc     H5 2679   5.065   6.734  11.073 -1.1187 -0.0920  1.5122
  101ccc     N2 2680   5.109   6.695  11.261  0.3555  0.6441 -0.3930
  101ccc     C3 2681   5.158   6.750  11.393 -0.1624  0.7158  0.2722
  101ccc     C4 2682   5.187   6.581  11.206  0.2517 -0.0627  0.5746
  101ccc     H6 2683   5.284   6.621  11.174  0.4183  0.8467  2.1629
  101ccc     C5 2684   5.186   6.450  11.293  0.0948  0.6594 -0.3816
  101ccc     H7 2685   5.149   6.544  11.110 -0.3319  0.1127  0.7386
  101ccc     H8 2686   5.268   6.385  11.260  1.6704  2.2021  0.3809
  101ccc     H9 2687   5.200   6.467  11.400  1.2761  0.5709 -0.5154
  101ccc     C6 2688   5.052   6.381  11.275  0.1043  0.0445 -0.3397
  101ccc     O1 2689   4.950   6.463  11.309  0.6362  0.6801  0.2873
  101ccc     O2 2690   5.039   6.261  11.253 -0.0554  1.0048  0.0595
  101ccc    H10 2691   5.258   6.787  11.368  0.8274 -1.9737  0.2152
  101ccc    H11 2692   5.182   6.673  11.466  0.4485  0.1848 -0.4790
  101ccc     C7 2693   5.076   6.873  11.444  0.3767  0.2211 -0.3481
  101ccc    H12 2694   5.128   6.926  11.524  0.8967  1.1144 -1.2675
  101ccc    H13 2695   5.054   6.957  11.377 -0.7929  0.5620  0.4534
  101ccc     C8 2696   4.939   6.835  11.504  0.1241  0.5190 -0.3606
  101ccc     O3 2697   4.836   6.865  11.455  0.4630 -0.2026 -0.3662
  101ccc     O4 2698   4.944   6.740  11.602 -0.3474 -0.1292 -0.4188
  101ccc    H14 2699   4.999   6.546  11.322 -2.2510  2.3838  0.6971
  101ccc    H15 2700   5.038   6.734  11.625 -0.2272  1.1136 -0.5490
  102ccc     N1 2701   6.604   7.671   7.610  0.2123 -0.3581 -0.6643
  102ccc     H1 2702   6.573   7.586   7.656 -0.6631 -0.1269 -0.8318
  102ccc     C1 2703   6.599   7.681   7.470  0.2009  0.4478  0.1343
  102ccc     H2 2704   6.546   7.774   7.448 -1.8632 -0.9820 -1.1107
  102ccc     C2 2705   6.528   7.563   7.399  0.5592 -0.2823  0.2110
  102ccc     H3 2706   6.701   7.694   7.432 -0.5780  0.7219 -1.8957
  102ccc     H4 2707   6.567   7.560   7.297  1.8986  3.4140  0.5554
  102ccc     H5 2708   6.422   7.591   7.409  0.2332 -1.0365 -0.9882
  102ccc     N2 2709   6.541   7.425   7.462 -0.6941 -0.0638 -0.7375
  102ccc     C3 2710   6.459   7.330   7.380  0.9040  0.1924  0.0999
  102ccc     C4 2711   6.680   7.379   7.477  1.1251 -0.0187  0.4374
  102ccc     H6 2712   6.713   7.348   7.377  0.0380  0.6112 -0.1233
  102ccc     C5 2713   6.694   7.271   7.586 -0.0571  0.1880 -0.1684
  102ccc     H7 2714   6.749   7.460   7.503  1.1820 -0.1407  0.6733
  102ccc     H8 2715   6.762   7.195   7.544  1.8559  1.3609  0.7387
  102ccc     H9 2716   6.597   7.222   7.597 -0.5531  1.5976  1.9631
  102ccc     C6 2717   6.752   7.312   7.720 -0.0296  0.2439 -0.2627
  102ccc     O1 2718   6.796   7.213   7.791 -0.6760 -0.4134 -0.2149
  102ccc     O2 2719   6.741   7.424   7.761  0.0156 -0.5736  0.0906
  102ccc    H10 2720   6.502   7.229   7.373 -2.0842 -1.1607  0.8144
  102ccc    H11 2721   6.452   7.362   7.275  0.8995 -1.2598 -0.3497
  102ccc     C7 2722   6.315   7.332   7.436 -0.0519 -0.5622  0.8147
  102ccc    H12 2723   6.235   7.315   7.363  0.0213  1.9142  0.0935
  102ccc    H13 2724   6.300   7.424   7.494 -0.3486 -0.9159  1.2933
  102ccc     C8 2725   6.290   7.217   7.534  0.6429  0.2297 -0.5890
  102ccc     O3 2726   6.213   7.130   7.513  0.3380  0.1710 -0.3300
  102ccc     O4 2727   6.346   7.239   7.657  0.4308 -0.0068  0.7129
  102ccc    H14 2728   6.795   7.135   7.733 -1.1638 -0.2800 -0.3844
  102ccc    H15 2729   6.397   7.320   7.640 -0.7204  1.0214  1.9737
  103ccc     N1 2730   7.054   7.755   8.267  0.0589 -0.7155  0.9937
  103ccc     H1 2731   7.064   7.710   8.177  0.5935  0.4795  0.4462
  103ccc     C1 2732   7.172   7.760   8.354 -0.1450 -1.0104  0.0661
  103ccc     H2 2733   7.213   7.859   8.334  0.7135 -1.1495  1.1068
  103ccc     C2 2734   7.280   7.647   8.330 -0.0305 -0.1179  0.3830
  103ccc     H3 2735   7.139   7.748   8.458  1.1288  1.3948  0.7785
  103ccc     H4 2736   7.309   7.664   8.226  1.2487 -0.1767  0.7140
  103ccc     H5 2737   7.238   7.545   8.328  1.3687 -0.6916 -0.8573
  103ccc     N2 2738   7.410   7.656   8.403  0.0426  0.8970 -0.0530
  103ccc     C3 2739   7.509   7.742   8.340  0.3817 -0.1371 -0.0415
  103ccc     C4 2740   7.405   7.639   8.551  0.1130  0.2813 -0.6756
  103ccc     H6 2741   7.357   7.726   8.597  0.4683 -0.8727  1.9682
  103ccc     C5 2742   7.318   7.528   8.595  0.9232  0.3858  0.3148
  103ccc     H7 2743   7.505   7.617   8.591 -0.4666 -1.1862  0.0046
  103ccc     H8 2744   7.214   7.558   8.577  0.1717 -1.8318  0.7759
  103ccc     H9 2745   7.330   7.436   8.538 -1.2623 -0.8533  1.7507
  103ccc     C6 2746   7.344   7.491   8.738 -0.5625  0.4318  0.6450
  103ccc     O1 2747   7.272   7.387   8.774  0.0727 -0.1255 -0.2156
  103ccc     O2 2748   7.398   7.561   8.825  1.0385  0.0817 -0.3532
  103ccc    H10 2749   7.574   7.774   8.422  0.0897  2.0205 -0.6220
  103ccc    H11 2750   7.466   7.833   8.295 -1.1490 -1.5095 -1.3976
  103ccc     C7 2751   7.580   7.665   8.227  0.5036 -0.0772 -0.0430
  103ccc    H12 2752   7.625   7.732   8.153  1.1323 -0.2520  0.1694
  103ccc    H13 2753   7.510   7.601   8.172 -0.9966  0.7229  0.9101
  103ccc     C8 2754   7.692   7.577   8.285 -0.5261  0.7398  0.2477
  103ccc     O3 2755   7.814   7.594   8.271  0.5170 -0.0292 -0.1110
  103ccc     O4 2756   7.648   7.472   8.349  0.3556 -0.3011  0.0590
  103ccc    H14 2757   7.230   7.346   8.696 -0.6237 -2.3934  1.3094
  103ccc    H15 2758   7.556   7.503   8.363 -0.0492 -2.2712  2.3028
  104ccc     N1 2759   5.515   6.779   8.214  0.1030 -0.5370 -0.2930
  104ccc     H1 2760   5.425   6.756   8.172 -0.9223  0.9357  1.0079
  104ccc     C1 2761   5.572   6.682   8.302  0.3363 -0.2743 -0.1744
  104ccc     H2 2762   5.655   6.635   8.247 -1.0933  0.4180 -3.0428
  104ccc     C2 2763   5.468   6.584   8.354 -0.0310 -0.4988 -0.4977
  104ccc     H3 2764   5.620   6.734   8.386  2.6565 -1.0908 -0.9544
  104ccc     H4 2765   5.413   6.550   8.265  0.3947 -1.3368 -0.4504
  104ccc     H5 2766   5.399   6.644   8.414  0.4448 -2.2739  1.8925
  104ccc     N2 2767   5.508   6.473   8.444  0.3873  0.1131 -0.6777
  104ccc     C3 2768   5.405   6.427   8.536  0.4343  0.0497  0.4641
  104ccc     C4 2769   5.603   6.376   8.383  0.2598 -0.8572  0.7288
  104ccc     H6 2770   5.542   6.323   8.309 -0.8492 -1.8160  2.2905
  104ccc     C5 2771   5.653   6.281   8.482 -0.6516 -0.0284 -0.5082
  104ccc     H7 2772   5.680   6.433   8.329  0.4115  0.2629  2.0855
  104ccc     H8 2773   5.585   6.202   8.513  1.1899 -1.9966 -1.3085
  104ccc     H9 2774   5.689   6.340   8.568 -0.5648 -0.5109 -0.2128
  104ccc     C6 2775   5.768   6.203   8.410  0.7756  0.3581  0.5731
  104ccc     O1 2776   5.854   6.145   8.493  1.1047  0.5987 -0.0301
  104ccc     O2 2777   5.783   6.180   8.292 -0.1270 -0.2318  0.2355
  104ccc    H10 2778   5.343   6.511   8.571  0.3536 -0.3973  1.4245
  104ccc    H11 2779   5.459   6.391   8.625  1.2335 -1.0047 -0.4293
  104ccc     C7 2780   5.312   6.318   8.485  0.5179 -0.0653  0.0083
  104ccc    H12 2781   5.309   6.237   8.559  1.4812  0.7688  0.9779
  104ccc    H13 2782   5.357   6.284   8.391  0.7045  1.0507 -0.3170
  104ccc     C8 2783   5.170   6.360   8.446  0.4327 -0.3043  0.3840
  104ccc     O3 2784   5.080   6.352   8.522 -0.0479 -0.7023 -0.1332
  104ccc     O4 2785   5.156   6.399   8.316 -0.6366 -0.0942 -0.1104
  104ccc    H14 2786   5.798   6.152   8.573 -2.8201 -1.9793 -2.3903
  104ccc    H15 2787   5.246   6.390   8.281 -0.6095 -0.1300 -0.0326
  105ccc     N1 2788   5.327   7.042   7.561 -0.0538 -0.1414 -0.3414
  105ccc     H1 2789   5.427   7.052   7.550  0.6125 -1.7300  3.2182
  105ccc     C1 2790   5.254   6.943   7.489  0.0461 -0.0351 -0.1254
  105ccc     H2 2791   5.205   6.872   7.557 -1.2407  0.3437 -0.6407
  105ccc     C2 2792   5.357   6.868   7.394 -0.0131 -0.3160  0.2146
  105ccc     H3 2793   5.190   6.998   7.419 -0.1484  1.4555  1.2221
  105ccc     H4 2794   5.445   6.829   7.447  2.3720  0.1120 -3.2388
  105ccc     H5 2795   5.398   6.950   7.333  0.0578 -0.8875 -0.5128
  105ccc     N2 2796   5.308   6.764   7.311 -0.3128  0.0387 -0.7505
  105ccc     C3 2797   5.408   6.737   7.203 -0.2107 -0.0892 -0.7994
  105ccc     C4 2798   5.256   6.643   7.382 -0.2409  0.2086  0.0227
  105ccc     H6 2799   5.335   6.569   7.400 -0.2764  0.2040  0.1584
  105ccc     C5 2800   5.143   6.584   7.296 -0.0309 -0.2223  0.3990
  105ccc     H7 2801   5.203   6.674   7.473  2.5143  1.1279  1.3544
  105ccc     H8 2802   5.180   6.525   7.211 -0.5941  0.3842 -0.2773
  105ccc     H9 2803   5.061   6.649   7.261  0.7380  0.9786  0.7835
  105ccc     C6 2804   5.060   6.484   7.378  0.2039 -0.7287 -0.1703
  105ccc     O1 2805   4.977   6.419   7.310 -0.6627 -0.1784 -0.1301
  105ccc     O2 2806   5.076   6.461   7.500 -0.3759 -0.5912  0.0074
  105ccc    H10 2807   5.375   6.643   7.155  1.4578  0.5259 -3.2623
  105ccc    H11 2808   5.510   6.731   7.245  0.1411  1.0263 -1.4711
  105ccc     C7 2809   5.401   6.846   7.093 -0.1270  0.8179  0.0847
  105ccc    H12 2810   5.422   6.946   7.132  2.6975  0.9319 -1.5939
  105ccc    H13 2811   5.299   6.833   7.056 -0.2192  2.6165 -0.3415
  105ccc     C8 2812   5.493   6.822   6.971 -0.6083 -0.0280  0.1390
  105ccc     O3 2813   5.467   6.739   6.885  0.2777 -0.0043 -0.1506
  105ccc     O4 2814   5.618   6.855   6.994  0.2931  0.0971 -0.3197
  105ccc    H14 2815   5.000   6.440   7.218  0.8424  0.6433  0.4061
  105ccc    H15 2816   5.612   6.906   7.076  1.6718  0.5742 -0.5015
  106ccc     N1 2817   6.025   7.877  10.437 -0.7278 -0.3762  0.2590
  106ccc     H1 2818   6.036   7.791  10.385  1.1779 -0.3985  0.6321
  106ccc     C1 2819   6.038   7.852  10.578 -0.2273  0.2225 -0.6157
  106ccc     H2 2820   5.935   7.844  10.614 -0.5259 -0.3106 -1.5678
  106ccc     C2 2821   6.116   7.716  10.592  0.2398 -0.6274 -0.6680
  106ccc     H3 2822   6.103   7.925  10.628  1.5456 -3.0092  1.9881
  106ccc     H4 2823   6.220   7.752  10.590  0.5674 -1.5361 -0.2877
  106ccc     H5 2824   6.115   7.672  10.692 -2.9759  1.1315  0.1355
  106ccc     N2 2825   6.081   7.611  10.486  0.1499  0.0907 -0.3549
  106ccc     C3 2826   6.188   7.543  10.410 -0.4002 -0.3926  0.1375
  106ccc     C4 2827   5.950   7.532  10.501 -0.6092 -0.1265 -0.3679
  106ccc     H6 2828   5.894   7.567  10.589  1.0139 -0.1504  0.6994
  106ccc     C5 2829   5.872   7.530  10.374 -0.2895  0.6910 -0.4653
  106ccc     H7 2830   5.979   7.429  10.525 -0.0730  0.1007 -0.0357
  106ccc     H8 2831   5.855   7.632  10.339  0.1219  0.7267 -0.5639
  106ccc     H9 2832   5.935   7.489  10.294 -1.7795  1.4937 -2.0910
  106ccc     C6 2833   5.745   7.458  10.378 -0.1149 -0.4137  0.0897
  106ccc     O1 2834   5.677   7.481  10.264 -0.0473  0.6890  0.3769
  106ccc     O2 2835   5.695   7.404  10.474  0.0129  0.4652  0.1582
  106ccc    H10 2836   6.154   7.478  10.329  0.5700 -1.1634  0.3279
  106ccc    H11 2837   6.249   7.490  10.485 -2.0128 -1.1763  0.9073
  106ccc     C7 2838   6.292   7.630  10.335 -0.2320 -0.3807  0.8244
  106ccc    H12 2839   6.336   7.707  10.399 -0.5238  0.5713 -0.0954
  106ccc    H13 2840   6.369   7.564  10.295  1.5760  2.7921 -1.1538
  106ccc     C8 2841   6.223   7.689  10.211  0.6261  1.0203  0.2967
  106ccc     O3 2842   6.107   7.682  10.184  0.0945  0.4366  0.5003
  106ccc     O4 2843   6.299   7.784  10.149 -0.2918  0.0054 -0.0280
  106ccc    H14 2844   5.742   7.521  10.204 -1.3226  1.5879 -0.4346
  106ccc    H15 2845   6.391   7.770  10.180  0.1093  3.1397  0.3616
  107ccc     N1 2846   5.965   7.595   9.876 -0.4843  0.2856 -0.5956
  107ccc     H1 2847   5.977   7.662   9.801 -1.8604  1.0727 -0.1371
  107ccc     C1 2848   6.010   7.465   9.843 -0.0997  0.4034  0.2480
  107ccc     H2 2849   5.931   7.393   9.868  0.2982 -0.9655 -2.2657
  107ccc     C2 2850   6.134   7.409   9.914 -0.1720 -1.6781 -0.3018
  107ccc     H3 2851   6.018   7.471   9.734  2.4169 -3.0446  0.1714
  107ccc     H4 2852   6.130   7.300   9.926 -3.8127 -1.5489  0.0927
  107ccc     H5 2853   6.121   7.450  10.015 -3.6029 -1.8232 -0.6294
  107ccc     N2 2854   6.271   7.445   9.868 -0.0987  0.3042 -0.3053
  107ccc     C3 2855   6.306   7.588   9.864  0.2143  0.2095  0.0209
  107ccc     C4 2856   6.307   7.369   9.744 -0.5835 -0.2551 -0.3839
  107ccc     H6 2857   6.222   7.372   9.675  0.1971  2.2160 -1.2650
  107ccc     C5 2858   6.342   7.225   9.776 -0.0259 -0.6212 -0.5160
  107ccc     H7 2859   6.388   7.417   9.688 -0.5695  1.9046  1.4420
  107ccc     H8 2860   6.371   7.185   9.678 -0.8503  1.0081 -1.4339
  107ccc     H9 2861   6.252   7.174   9.813 -1.0010 -0.7231 -2.9386
  107ccc     C6 2862   6.453   7.199   9.882 -0.0493  0.3191  0.5557
  107ccc     O1 2863   6.477   7.301   9.966  0.0516  0.1489 -0.1691
  107ccc     O2 2864   6.517   7.099   9.881  0.3973  0.1879 -0.1340
  107ccc    H10 2865   6.260   7.643   9.947 -2.3364  0.5325 -1.5711
  107ccc    H11 2866   6.260   7.634   9.776  0.8062  0.4544 -0.1632
  107ccc     C7 2867   6.452   7.616   9.864  0.7500 -0.0698  0.5669
  107ccc    H12 2868   6.485   7.602   9.968  1.4412  0.4335  0.4186
  107ccc    H13 2869   6.508   7.552   9.796  1.3164  4.2482 -3.2361
  107ccc     C8 2870   6.489   7.762   9.826 -0.8396  0.1365 -0.4612
  107ccc     O3 2871   6.422   7.820   9.740  0.5207  0.0558 -0.6546
  107ccc     O4 2872   6.611   7.795   9.868 -0.0927 -0.0024 -0.8901
  107ccc    H14 2873   6.403   7.356   9.935 -1.4541 -1.0912  1.1401
  107ccc    H15 2874   6.647   7.722   9.922  0.7002  0.6498 -0.5255
  108ccc     N1 2875   6.681   8.088   9.046 -0.2790 -0.3022 -0.1128
  108ccc     H1 2876   6.615   8.164   9.032  0.3306  0.2386 -0.0239
  108ccc     C1 2877   6.778   8.061   8.939 -0.8331  0.3595 -0.0794
  108ccc     H2 2878   6.802   7.954   8.930 -2.4019  0.1574 -2.2893
  108ccc     C2 2879   6.910   8.138   8.964 -0.5458 -0.4905 -0.4207
  108ccc     H3 2880   6.734   8.089   8.843  0.7151  2.0761 -0.2949
  108ccc     H4 2881   6.981   8.105   8.887  2.5749 -0.2099  2.2419
  108ccc     H5 2882   6.941   8.113   9.066 -1.8256 -1.8869 -0.3541
  108ccc     N2 2883   6.923   8.291   8.950 -0.3331 -0.1869 -0.2503
  108ccc     C3 2884   6.850   8.357   9.059 -0.0078 -0.1373 -0.0356
  108ccc     C4 2885   6.889   8.340   8.819 -0.3943  0.2983  0.0511
  108ccc     H6 2886   6.805   8.288   8.770 -0.5360  2.6741 -2.3171
  108ccc     C5 2887   7.011   8.314   8.733 -0.8363 -0.2258 -0.0710
  108ccc     H7 2888   6.874   8.447   8.833  0.9016  0.1353  3.1252
  108ccc     H8 2889   6.997   8.217   8.682 -2.0551  0.2454 -0.6506
  108ccc     H9 2890   7.103   8.318   8.793 -0.4114  1.4388 -0.8204
  108ccc     C6 2891   7.026   8.417   8.625  0.0520 -0.4902  0.3735
  108ccc     O1 2892   7.059   8.361   8.514  0.2154 -0.0734  0.3409
  108ccc     O2 2893   6.998   8.535   8.629  0.2693  1.1696  0.0730
  108ccc    H10 2894   6.858   8.298   9.152 -1.6220  1.1806  0.9813
  108ccc    H11 2895   6.741   8.365   9.046 -0.2098  0.5166  1.8175
  108ccc     C7 2896   6.910   8.495   9.084  0.0632  0.5439 -0.5842
  108ccc    H12 2897   6.902   8.566   9.000  0.9694 -0.4449 -1.5182
  108ccc    H13 2898   7.019   8.482   9.083  0.1821  0.3944  4.2717
  108ccc     C8 2899   6.849   8.556   9.204 -1.0958 -0.5971 -0.1533
  108ccc     O3 2900   6.882   8.521   9.314  0.0556  0.5873 -0.0307
  108ccc     O4 2901   6.727   8.611   9.189  0.1301  0.2382 -0.3310
  108ccc    H14 2902   7.046   8.266   8.526  1.8257 -0.3280  0.1597
  108ccc    H15 2903   6.707   8.624   9.095 -0.6165 -0.1628 -0.2334
  109ccc     N1 2904   6.516   8.097   9.847  0.3951 -0.6240  0.1447
  109ccc     H1 2905   6.510   8.012   9.792 -1.4453  0.5612 -1.5404
  109ccc     C1 2906   6.442   8.079   9.973 -1.2087 -0.1172 -0.0206
  109ccc     H2 2907   6.400   7.978   9.967 -0.1206 -0.6536  0.9531
  109ccc     C2 2908   6.316   8.157  10.001  0.4215 -0.1163 -0.3731
  109ccc     H3 2909   6.507   8.092  10.061  1.8158 -0.3810 -2.1419
  109ccc     H4 2910   6.341   8.261  10.021  1.3175  0.3319 -3.4507
  109ccc     H5 2911   6.283   8.102  10.090 -0.5786 -1.0160 -1.2872
  109ccc     N2 2912   6.208   8.157   9.894  0.5212  0.0892  0.2585
  109ccc     C3 2913   6.114   8.273   9.915  0.7140 -0.1916  0.4232
  109ccc     C4 2914   6.151   8.022   9.858 -0.1417  0.0466  0.2334
  109ccc     H6 2915   6.229   7.946   9.846 -0.2151  0.4302 -3.4959
  109ccc     C5 2916   6.078   8.027   9.723  0.0185 -0.0158  0.2569
  109ccc     H7 2917   6.085   7.990   9.940 -0.1343  1.5405  0.8318
  109ccc     H8 2918   6.130   8.089   9.649  2.3884 -0.1763  1.7443
  109ccc     H9 2919   5.977   8.060   9.750 -1.3799 -0.9447 -3.4421
  109ccc     C6 2920   6.051   7.898   9.650 -0.0704  0.0308 -0.0517
  109ccc     O1 2921   6.118   7.885   9.535 -0.1338  0.9232 -0.1813
  109ccc     O2 2922   6.010   7.798   9.703 -0.9445  0.2343  0.0529
  109ccc    H10 2923   6.173   8.363   9.931 -0.6282  1.0692 -1.4445
  109ccc    H11 2924   6.049   8.286   9.827  0.4474  0.2045  0.6757
  109ccc     C7 2925   6.022   8.252  10.037 -0.7135  0.5389  0.8132
  109ccc    H12 2926   6.078   8.221  10.126  0.2230 -2.8967 -0.8550
  109ccc    H13 2927   5.951   8.172  10.011 -1.2969  1.3601 -0.1397
  109ccc     C8 2928   5.954   8.378  10.070 -0.0872  0.4963  0.5010
  109ccc     O3 2929   5.969   8.490  10.024 -0.1236 -0.0787 -0.4982
  109ccc     O4 2930   5.875   8.357  10.170  0.8004 -0.1472 -0.0435
  109ccc    H14 2931   6.165   7.970   9.527  3.9149 -0.9654  2.0469
  109ccc    H15 2932   5.816   8.434  10.158  0.3971 -0.0855  2.0774
  110ccc     N1 2933   3.435   6.005   9.161 -0.2932 -0.3765  0.4236
  110ccc     H1 2934   3.470   6.087   9.112 -0.2969  0.4903  1.8403
  110ccc     C1 2935   3.475   5.981   9.297 -0.0286  0.1805  0.4720
  110ccc     H2 2936   3.438   5.884   9.333  1.5195 -1.7836 -3.0346
  110ccc     C2 2937   3.626   5.959   9.321  0.0951 -0.3518  0.0964
  110ccc     H3 2938   3.437   6.064   9.358 -2.0034  0.6573 -1.3434
  110ccc     H4 2939   3.643   5.936   9.427 -1.4994  0.8451  0.6299
  110ccc     H5 2940   3.655   6.064   9.308 -2.3251  0.3195 -0.1703
  110ccc     N2 2941   3.700   5.866   9.222  0.7267 -0.3830 -0.3030
  110ccc     C3 2942   3.843   5.889   9.250 -0.5209 -0.4301  0.1699
  110ccc     C4 2943   3.661   5.732   9.252  0.2977  0.3281 -0.0235
  110ccc     H6 2944   3.713   5.698   9.342  0.6524 -1.7070 -0.9669
  110ccc     C5 2945   3.686   5.651   9.128  0.3132 -0.1496 -0.2129
  110ccc     H7 2946   3.553   5.720   9.265  0.4802 -3.8674 -1.6362
  110ccc     H8 2947   3.785   5.661   9.080  0.7250 -1.6647  0.2800
  110ccc     H9 2948   3.610   5.679   9.055  0.1258  0.4300  0.2039
  110ccc     C6 2949   3.652   5.505   9.150  0.2165  0.3422 -0.2924
  110ccc     O1 2950   3.754   5.436   9.193  0.5380 -0.1078  0.1965
  110ccc     O2 2951   3.561   5.446   9.096  0.0633  0.2924 -0.7801
  110ccc    H10 2952   3.902   5.807   9.208 -1.1623 -0.3983 -0.7817
  110ccc    H11 2953   3.858   5.875   9.358 -1.2189 -0.6061  0.2440
  110ccc     C7 2954   3.894   6.021   9.197  0.1971 -0.2519 -0.4307
  110ccc    H12 2955   3.837   6.111   9.225  1.0654  1.0434 -2.7724
  110ccc    H13 2956   3.993   6.038   9.241 -0.2174 -0.0517  0.4532
  110ccc     C8 2957   3.911   6.020   9.052  0.0539  0.2907 -0.0256
  110ccc     O3 2958   4.002   6.061   8.984  0.0748  0.4364  0.0167
  110ccc     O4 2959   3.803   5.981   8.986 -0.2669 -0.3314  0.5318
  110ccc    H14 2960   3.818   5.496   9.236 -1.6630  2.4364  0.0165
  110ccc    H15 2961   3.759   5.955   9.069  2.0181 -0.0393  1.8707
  111ccc     N1 2962   3.191   6.095   8.387  0.0523 -0.2587  0.0312
  111ccc     H1 2963   3.171   6.178   8.331 -0.8452 -1.3371 -1.2679
  111ccc     C1 2964   3.240   5.978   8.317 -0.3152  0.3880 -1.3141
  111ccc     H2 2965   3.345   6.005   8.302 -0.6668  3.9395  1.8839
  111ccc     C2 2966   3.157   5.971   8.185 -0.2464 -0.6889  0.0093
  111ccc     H3 2967   3.221   5.880   8.363 -2.3475 -0.0025 -2.8957
  111ccc     H4 2968   3.185   6.067   8.140  1.3662 -1.4262 -0.6055
  111ccc     H5 2969   3.051   5.964   8.215  0.2972 -3.8877  1.3473
  111ccc     N2 2970   3.196   5.859   8.089 -0.7554  0.1435 -0.6643
  111ccc     C3 2971   3.135   5.724   8.115  0.1273  0.0801 -0.2134
  111ccc     C4 2972   3.178   5.911   7.943  0.0356  0.2239 -0.2062
  111ccc     H6 2973   3.189   5.825   7.876  0.8321  1.3733 -1.5688
  111ccc     C5 2974   3.281   6.008   7.898 -0.3219 -0.5897  0.1650
  111ccc     H7 2975   3.081   5.957   7.920 -0.1573  0.9173  1.8813
  111ccc     H8 2976   3.374   5.983   7.951 -0.8662  0.2405  1.5415
  111ccc     H9 2977   3.247   6.109   7.926 -0.3151 -0.9041  1.3332
  111ccc     C6 2978   3.301   6.006   7.747  0.6821  0.1020  0.0276
  111ccc     O1 2979   3.396   6.089   7.707 -0.1127  0.0206 -0.9040
  111ccc     O2 2980   3.211   5.983   7.669  0.3685 -0.2403  0.1805
  111ccc    H10 2981   3.125   5.693   8.220  2.4521  0.1750  0.0500
  111ccc    H11 2982   3.032   5.721   8.075  0.8773 -0.0623 -2.1914
  111ccc     C7 2983   3.222   5.616   8.045  0.3658 -0.0910  0.0284
  111ccc    H12 2984   3.209   5.621   7.936 -1.7826 -0.5875  0.2275
  111ccc    H13 2985   3.326   5.649   8.050  0.2732  0.3360 -0.7980
  111ccc     C8 2986   3.191   5.471   8.072  0.0164 -0.0987  0.4789
  111ccc     O3 2987   3.119   5.397   8.011 -0.3932 -0.3772  0.0564
  111ccc     O4 2988   3.270   5.426   8.175 -0.0721 -0.2782 -0.2327
  111ccc    H14 2989   3.429   6.125   7.791 -1.2915 -1.7714  0.3404
  111ccc    H15 2990   3.299   5.512   8.209 -0.2689  0.2931 -1.4501
  112ccc     N1 2991   4.513   6.443   7.856 -0.3652 -0.4562 -0.3874
  112ccc     H1 2992   4.496   6.421   7.758 -0.7670 -0.5396 -0.3006
  112ccc     C1 2993   4.529   6.578   7.899  0.1574 -0.0678 -0.1954
  112ccc     H2 2994   4.429   6.618   7.922  0.5795  0.7090  0.3280
  112ccc     C2 2995   4.613   6.677   7.803 -0.6255  0.3050 -0.3075
  112ccc     H3 2996   4.583   6.569   7.994 -0.5362  1.6310  0.3876
  112ccc     H4 2997   4.629   6.775   7.848  0.8158 -0.2982  0.5272
  112ccc     H5 2998   4.557   6.694   7.710 -2.3655  1.0467  0.8486
  112ccc     N2 2999   4.747   6.618   7.757 -0.5684 -0.5597 -0.4914
  112ccc     C3 3000   4.821   6.714   7.680 -0.1080 -0.4397 -0.0125
  112ccc     C4 3001   4.834   6.574   7.870  0.4780  0.6515  0.2927
  112ccc     H6 3002   4.889   6.652   7.923  0.0932  0.1540  1.4464
  112ccc     C5 3003   4.928   6.463   7.814  0.1081 -0.5900 -0.1650
  112ccc     H7 3004   4.765   6.536   7.947 -0.0077  2.1092  0.5936
  112ccc     H8 3005   4.975   6.498   7.721  0.9322 -1.4925 -0.1006
  112ccc     H9 3006   4.864   6.378   7.786 -0.5652 -0.5432  1.1645
  112ccc     C6 3007   5.042   6.440   7.904 -0.0167 -0.2035 -0.1893
  112ccc     O1 3008   5.040   6.318   7.956  0.0508 -0.0305  0.0952
  112ccc     O2 3009   5.111   6.530   7.953 -0.1789  1.1367 -0.3503
  112ccc    H10 3010   4.919   6.679   7.647 -0.1518  0.2137 -0.8464
  112ccc    H11 3011   4.833   6.811   7.730  1.7074  0.6641 -2.4550
  112ccc     C7 3012   4.755   6.733   7.542  0.1790 -0.6169 -0.3909
  112ccc    H12 3013   4.673   6.805   7.553 -0.7854 -1.9323  1.2346
  112ccc    H13 3014   4.693   6.649   7.511 -3.7744  2.2053 -0.4461
  112ccc     C8 3015   4.842   6.794   7.437 -0.2346  0.3671 -0.6592
  112ccc     O3 3016   4.952   6.837   7.459  0.4551  0.5136  0.1952
  112ccc     O4 3017   4.806   6.750   7.316 -0.5471 -0.1606  0.2852
  112ccc    H14 3018   4.953   6.279   7.936 -0.3791  0.8687  0.1529
  112ccc    H15 3019   4.716   6.715   7.330 -0.6567  0.3805  0.9790
  113ccc     N1 3020   4.354   6.078   7.451 -0.0117 -0.0849 -0.4975
  113ccc     H1 3021   4.321   6.168   7.486 -3.1931 -1.8324  1.2587
  113ccc     C1 3022   4.353   6.065   7.310  0.2361 -0.5477  1.0401
  113ccc     H2 3023   4.430   5.993   7.281  1.3381  0.9673  0.1366
  113ccc     C2 3024   4.389   6.198   7.234 -0.1195 -0.4846 -0.1098
  113ccc     H3 3025   4.256   6.026   7.277  0.5314 -0.5179  0.1180
  113ccc     H4 3026   4.407   6.185   7.126  0.5140 -1.7817  0.1471
  113ccc     H5 3027   4.302   6.264   7.241 -0.0610 -0.4013 -0.1655
  113ccc     N2 3028   4.514   6.272   7.283 -1.2112 -0.3889  0.6717
  113ccc     C3 3029   4.633   6.189   7.290 -0.3757  0.6616 -0.4849
  113ccc     C4 3030   4.538   6.401   7.209  0.5204  0.4311 -0.0496
  113ccc     H6 3031   4.633   6.449   7.237  0.5839  0.2398  0.0642
  113ccc     C5 3032   4.429   6.503   7.236 -0.3042 -0.6322 -0.3024
  113ccc     H7 3033   4.553   6.373   7.104  2.4693 -3.1345  1.1237
  113ccc     H8 3034   4.390   6.485   7.337 -0.1372  0.0182 -0.1167
  113ccc     H9 3035   4.345   6.486   7.169  1.1494  0.9344 -2.6152
  113ccc     C6 3036   4.471   6.648   7.230  0.1410  0.1034 -0.1617
  113ccc     O1 3037   4.495   6.677   7.103  0.0106 -0.5770 -0.1159
  113ccc     O2 3038   4.533   6.707   7.313  0.1001 -0.6920 -0.0078
  113ccc    H10 3039   4.621   6.102   7.357  0.6008  1.1373  0.3274
  113ccc    H11 3040   4.715   6.249   7.332  0.8728 -0.5621 -1.1294
  113ccc     C7 3041   4.670   6.122   7.157  0.1452 -0.7152 -0.5600
  113ccc    H12 3042   4.586   6.061   7.121 -0.2685 -0.4564 -0.0316
  113ccc    H13 3043   4.694   6.200   7.083  1.8491 -0.9482 -0.2534
  113ccc     C8 3044   4.793   6.030   7.154 -0.0668 -0.2322 -0.7877
  113ccc     O3 3045   4.801   5.934   7.229 -0.0124 -0.0981 -0.2971
  113ccc     O4 3046   4.864   6.031   7.041 -0.0754 -0.8239 -0.1593
  113ccc    H14 3047   4.467   6.595   7.058 -2.4608  0.1259  0.1061
  113ccc    H15 3048   4.806   6.086   6.985  0.4309  0.4127  0.5002
  114ccc     N1 3049   4.323   7.034   9.181  0.6535 -0.3381 -0.0411
  114ccc     H1 3050   4.285   6.963   9.242 -1.0506  1.5099  1.1085
  114ccc     C1 3051   4.452   7.089   9.224  0.3530 -0.5264 -0.2805
  114ccc     H2 3052   4.499   7.011   9.286  0.6343  0.1348  0.3585
  114ccc     C2 3053   4.434   7.222   9.311 -0.5884  0.4284  0.1787
  114ccc     H3 3054   4.510   7.110   9.134  2.2399  0.6851  1.1628
  114ccc     H4 3055   4.335   7.210   9.357 -1.2273  0.7619 -1.0782
  114ccc     H5 3056   4.424   7.302   9.237 -1.1725  1.8268  1.7493
  114ccc     N2 3057   4.532   7.266   9.423  0.3085 -0.1843  0.1161
  114ccc     C3 3058   4.479   7.391   9.494  0.0814  0.1674 -0.6512
  114ccc     C4 3059   4.677   7.268   9.388 -0.2397 -0.7527 -0.3849
  114ccc     H6 3060   4.730   7.291   9.481 -0.9443  2.5119 -0.7344
  114ccc     C5 3061   4.706   7.374   9.282  0.1021  0.0309  0.0363
  114ccc     H7 3062   4.709   7.170   9.350 -0.7369 -0.8049 -0.6739
  114ccc     H8 3063   4.658   7.354   9.186  0.4243 -1.9941  0.2833
  114ccc     H9 3064   4.678   7.475   9.316  0.7841  0.2083  0.0789
  114ccc     C6 3065   4.850   7.379   9.242  0.3123  0.5432 -0.2600
  114ccc     O1 3066   4.876   7.479   9.161  0.4221 -0.2369 -0.2978
  114ccc     O2 3067   4.938   7.324   9.307  0.2155 -0.2189 -0.2562
  114ccc    H10 3068   4.378   7.376   9.534  0.0772 -1.5108 -1.2679
  114ccc    H11 3069   4.487   7.467   9.415 -2.3285 -0.1638 -1.2444
  114ccc     C7 3070   4.570   7.441   9.611  0.6463 -0.7081 -0.4716
  114ccc    H12 3071   4.670   7.477   9.583  0.3865 -0.0186 -0.5193
  114ccc    H13 3072   4.579   7.365   9.690  1.1852 -0.2533 -0.0937
  114ccc     C8 3073   4.497   7.556   9.684  1.3994 -0.5702  0.4583
  114ccc     O3 3074   4.384   7.591   9.658 -0.6718  0.0818  0.3519
  114ccc     O4 3075   4.555   7.598   9.798  0.3312  0.7341  0.4810
  114ccc    H14 3076   4.795   7.515   9.121 -1.5151 -2.7399  1.1752
  114ccc    H15 3077   4.637   7.545   9.789  2.4465  3.8136  0.8632
  115ccc     N1 3078   3.575   6.790   9.211  0.3429  0.5009  0.1919
  115ccc     H1 3079   3.563   6.735   9.126  0.1268  2.6451 -1.1949
  115ccc     C1 3080   3.485   6.785   9.321  0.1913 -0.1533  0.2539
  115ccc     H2 3081   3.448   6.681   9.322 -2.2832  0.6995  0.7806
  115ccc     C2 3082   3.372   6.886   9.341  0.6018  0.8164 -0.0801
  115ccc     H3 3083   3.553   6.783   9.407 -0.6962 -1.4365  0.9547
  115ccc     H4 3084   3.410   6.986   9.365 -2.2611  1.2903  2.7568
  115ccc     H5 3085   3.322   6.859   9.435  1.1919  0.3304  0.1017
  115ccc     N2 3086   3.266   6.905   9.235 -0.6492  0.0080  0.2026
  115ccc     C3 3087   3.315   6.996   9.136 -0.8678 -0.2721  0.1621
  115ccc     C4 3088   3.209   6.780   9.171 -0.0613  0.5301  0.0236
  115ccc     H6 3089   3.147   6.796   9.081  1.6993 -3.3178 -2.0027
  115ccc     C5 3090   3.112   6.711   9.273  0.7880  1.1641  0.5328
  115ccc     H7 3091   3.291   6.712   9.145 -0.8216  0.2171 -1.6257
  115ccc     H8 3092   3.012   6.754   9.283  0.2985 -0.1947  1.6419
  115ccc     H9 3093   3.153   6.706   9.375 -0.4942  0.2701  1.0094
  115ccc     C6 3094   3.091   6.567   9.228  0.4676  0.3097  0.1340
  115ccc     O1 3095   3.053   6.491   9.327 -0.4424  0.0414 -0.3299
  115ccc     O2 3096   3.089   6.540   9.109 -0.1618 -0.3290  0.0957
  115ccc    H10 3097   3.356   6.938   9.052  1.2277  2.6208 -0.9089
  115ccc    H11 3098   3.384   7.067   9.185 -1.1605  0.5310 -0.5664
  115ccc     C7 3099   3.197   7.075   9.077 -0.2130 -0.5483 -0.4685
  115ccc    H12 3100   3.144   7.114   9.164 -0.7170 -1.3747 -0.3998
  115ccc    H13 3101   3.119   7.017   9.026  1.9011 -1.8373 -2.3618
  115ccc     C8 3102   3.234   7.181   8.981  0.6051  0.1268 -0.9814
  115ccc     O3 3103   3.277   7.163   8.871  0.1527  0.4833  0.2217
  115ccc     O4 3104   3.237   7.308   9.032 -0.0859 -0.6569  0.5722
  115ccc    H14 3105   3.066   6.546   9.407 -0.3642  1.0889 -1.0508
  115ccc    H15 3106   3.195   7.291   9.118 -0.4586 -1.9888  0.1443
  116ccc     N1 3107   4.143   7.005   9.507 -0.4192  0.5647 -0.0981
  116ccc     H1 3108   4.232   7.049   9.526 -0.9527  1.5913  0.0621
  116ccc     C1 3109   4.023   7.081   9.553 -0.6111 -0.7992 -0.0583
  116ccc     H2 3110   4.056   7.184   9.566 -1.2087 -0.7585  1.1824
  116ccc     C2 3111   3.988   7.028   9.696  0.7829 -0.0911 -0.1308
  116ccc     H3 3112   3.940   7.078   9.481 -0.7677  2.5472 -0.0571
  116ccc     H4 3113   4.074   6.998   9.758  1.3158 -1.2969 -1.4362
  116ccc     H5 3114   3.946   6.927   9.683  0.2012  0.2238 -0.7196
  116ccc     N2 3115   3.889   7.102   9.774  0.5025  0.4112  0.3967
  116ccc     C3 3116   3.900   7.063   9.917 -0.2001 -0.4873 -0.2054
  116ccc     C4 3117   3.758   7.126   9.712 -0.0347  0.2695  0.1353
  116ccc     H6 3118   3.688   7.186   9.772 -0.0100  2.9767 -2.3929
  116ccc     C5 3119   3.690   7.002   9.665  0.0106  0.2860 -0.4511
  116ccc     H7 3120   3.764   7.179   9.616 -1.3282 -0.1980 -0.2133
  116ccc     H8 3121   3.747   6.948   9.589  0.4963  0.8937 -0.5250
  116ccc     H9 3122   3.697   6.929   9.746 -1.7232  1.2457  0.5847
  116ccc     C6 3123   3.542   7.000   9.633 -0.4427 -1.1489 -0.0048
  116ccc     O1 3124   3.488   6.875   9.624  0.4043  0.1967  0.3419
  116ccc     O2 3125   3.484   7.100   9.633  0.3510 -0.2890 -0.5249
  116ccc    H10 3126   3.997   7.099   9.953 -1.0841  2.2777 -0.4544
  116ccc    H11 3127   3.903   6.954   9.908 -0.4468 -0.5032 -0.1015
  116ccc     C7 3128   3.788   7.115  10.017  0.7202  0.1226 -0.1540
  116ccc    H12 3129   3.685   7.089   9.991  0.5867  1.5441 -1.1376
  116ccc    H13 3130   3.789   7.225  10.018  1.2616  0.2643 -4.4593
  116ccc     C8 3131   3.806   7.059  10.157  0.8801  0.1891 -0.1508
  116ccc     O3 3132   3.864   6.958  10.187 -0.1356  0.0899 -0.2366
  116ccc     O4 3133   3.709   7.097  10.237 -0.9000 -0.0094 -0.3027
  116ccc    H14 3134   3.572   6.826   9.629  1.2242  1.3157 -1.8130
  116ccc    H15 3135   3.664   7.167  10.187  1.1822  2.2503  0.8573
  117ccc     N1 3136   3.820   6.563   9.829  0.0841 -0.2068  0.5976
  117ccc     H1 3137   3.881   6.483   9.815 -1.7312 -1.7575  1.3518
  117ccc     C1 3138   3.818   6.625   9.956  0.1981  0.8549  1.1436
  117ccc     H2 3139   3.861   6.725   9.948  2.4735 -0.2839 -1.4766
  117ccc     C2 3140   3.915   6.545  10.053 -0.0113 -0.3248 -0.4426
  117ccc     H3 3141   3.717   6.632   9.998 -0.1208 -0.2995  0.5878
  117ccc     H4 3142   3.864   6.456  10.092  0.8784 -1.3352 -1.5424
  117ccc     H5 3143   3.915   6.609  10.142  0.3792 -0.9112 -0.0109
  117ccc     N2 3144   4.053   6.514  10.013  0.3675 -0.6441 -0.2728
  117ccc     C3 3145   4.125   6.424  10.107 -0.4133  0.2530  0.1463
  117ccc     C4 3146   4.123   6.638   9.969 -0.1926  0.0368 -0.4190
  117ccc     H6 3147   4.207   6.610   9.905  1.0354  0.4002  1.0214
  117ccc     C5 3148   4.161   6.725  10.084 -1.2551  0.1358 -0.5453
  117ccc     H7 3149   4.066   6.708   9.907 -0.8775  1.1000  1.3945
  117ccc     H8 3150   4.231   6.670  10.149 -0.7107 -0.6694 -1.7946
  117ccc     H9 3151   4.069   6.752  10.135  0.2120  0.6225  1.9306
  117ccc     C6 3152   4.238   6.846  10.038  0.2839  0.2406  0.2729
  117ccc     O1 3153   4.262   6.933  10.140 -0.2112 -0.0793 -0.0952
  117ccc     O2 3154   4.295   6.840   9.930  0.3157  0.5057 -0.5240
  117ccc    H10 3155   4.124   6.452  10.214 -0.9297 -1.2314  0.5336
  117ccc    H11 3156   4.226   6.418  10.065 -0.2732 -0.6950  0.6232
  117ccc     C7 3157   4.069   6.280  10.097  0.1762 -1.0786 -0.1992
  117ccc    H12 3158   4.037   6.268   9.993 -1.1133  0.9692 -0.0716
  117ccc    H13 3159   3.977   6.270  10.157 -1.1348  1.6542 -1.6300
  117ccc     C8 3160   4.172   6.183  10.127 -0.2557  0.0689  0.1823
  117ccc     O3 3161   4.263   6.199  10.211  0.2181  0.0896 -0.4498
  117ccc     O4 3162   4.137   6.058  10.099 -0.0065 -0.0084 -0.0600
  117ccc    H14 3163   4.217   6.885  10.212  1.6539 -2.1028 -0.2222
  117ccc    H15 3164   4.054   6.077  10.052  0.2273 -3.9864 -2.2983
  118ccc     N1 3165   5.540   7.706   8.549 -0.0185  0.2587  0.4778
  118ccc     H1 3166   5.543   7.650   8.464  0.2696 -0.0600  0.6915
  118ccc     C1 3167   5.659   7.773   8.594 -0.5706 -0.4389 -0.0688
  118ccc     H2 3168   5.719   7.817   8.513 -1.5965  0.6747 -0.2408
  118ccc     C2 3169   5.753   7.690   8.684 -0.4073  0.6928 -0.2299
  118ccc     H3 3170   5.625   7.862   8.649  1.1074 -0.1150  0.4982
  118ccc     H4 3171   5.769   7.594   8.632 -2.1466  0.0605  0.3937
  118ccc     H5 3172   5.701   7.655   8.774  0.7161 -3.0375 -0.9655
  118ccc     N2 3173   5.890   7.742   8.729  0.7435 -0.2348 -0.1441
  118ccc     C3 3174   5.995   7.761   8.620  0.2824  0.6558  0.1858
  118ccc     C4 3175   5.886   7.865   8.805 -0.1445  0.0234 -0.0847
  118ccc     H6 3176   5.987   7.889   8.841  0.4049 -0.3891 -1.3275
  118ccc     C5 3177   5.797   7.843   8.932  0.0324  0.7442  0.1278
  118ccc     H7 3178   5.843   7.945   8.743 -0.7915 -0.4726 -0.2759
  118ccc     H8 3179   5.692   7.861   8.908 -0.0292  0.4281  0.1568
  118ccc     H9 3180   5.806   7.738   8.963  0.2250  0.4153 -1.0327
  118ccc     C6 3181   5.837   7.925   9.050  0.2700  0.9249 -0.6769
  118ccc     O1 3182   5.786   7.877   9.163  0.3534  0.0088  0.6378
  118ccc     O2 3183   5.907   8.022   9.041 -0.6883  0.4411 -0.3557
  118ccc    H10 3184   6.087   7.802   8.663 -0.7015  1.4976  1.5353
  118ccc    H11 3185   5.954   7.834   8.549  1.5381  0.5950 -0.6188
  118ccc     C7 3186   6.024   7.632   8.543 -0.7263  0.6284 -0.3843
  118ccc    H12 3187   6.037   7.551   8.615  1.7253  1.6199  0.3506
  118ccc    H13 3188   5.942   7.602   8.476 -1.1868 -0.4141  0.6348
  118ccc     C8 3189   6.150   7.638   8.455  0.3469  0.3670 -0.0315
  118ccc     O3 3190   6.228   7.730   8.454 -0.0821  0.3424  0.5213
  118ccc     O4 3191   6.162   7.517   8.400 -0.1257  0.2930  0.1717
  118ccc    H14 3192   5.711   7.825   9.128  1.4022 -0.6937 -0.6346
  118ccc    H15 3193   6.085   7.459   8.409  0.0036  0.3888  2.0254
  119ccc     N1 3194   5.102   7.395   8.185  0.3974 -0.3049  0.5989
  119ccc     H1 3195   5.126   7.326   8.255 -1.4171 -0.0980  1.4619
  119ccc     C1 3196   5.096   7.337   8.056 -0.8435  0.3682 -0.1590
  119ccc     H2 3197   5.135   7.405   7.979 -1.3819  1.4734  0.5257
  119ccc     C2 3198   4.955   7.305   8.019  0.1898  0.4650 -0.2026
  119ccc     H3 3199   5.149   7.242   8.043 -2.2524 -0.1303 -2.5568
  119ccc     H4 3200   4.946   7.288   7.911 -2.4044 -0.5543  0.1160
  119ccc     H5 3201   4.906   7.395   8.056  0.2633 -0.1960  1.5621
  119ccc     N2 3202   4.883   7.194   8.083 -0.0592  0.5774  0.0759
  119ccc     C3 3203   4.730   7.183   8.077 -0.1697 -0.1274  0.1241
  119ccc     C4 3204   4.945   7.063   8.078  0.0700  0.9412  0.5894
  119ccc     H6 3205   5.050   7.060   8.109  0.0492 -1.9024  0.5197
  119ccc     C5 3206   4.939   7.009   7.932 -0.0923 -0.2668 -0.5419
  119ccc     H7 3207   4.888   7.001   8.149  0.3264  1.5930  1.3733
  119ccc     H8 3208   4.988   7.082   7.866  0.0934  1.1565  1.0954
  119ccc     H9 3209   4.840   6.980   7.898 -1.3170 -1.2667  3.5414
  119ccc     C6 3210   5.024   6.879   7.930 -0.5285  0.0465 -0.1482
  119ccc     O1 3211   5.098   6.867   7.822 -0.5560  0.1550 -0.0034
  119ccc     O2 3212   5.050   6.815   8.032 -0.1885 -0.5068 -0.0182
  119ccc    H10 3213   4.697   7.101   8.141  1.2676 -1.2190 -0.4869
  119ccc    H11 3214   4.696   7.179   7.972 -0.3031  0.7179  0.1315
  119ccc     C7 3215   4.658   7.308   8.130  0.5413  0.0273  0.1669
  119ccc    H12 3216   4.691   7.393   8.069  1.0051 -1.0467 -1.1197
  119ccc    H13 3217   4.688   7.323   8.235  1.2733 -1.9050  0.2508
  119ccc     C8 3218   4.504   7.307   8.113 -0.6720  0.7849  0.1427
  119ccc     O3 3219   4.439   7.233   8.183  0.3702  0.0576  0.0787
  119ccc     O4 3220   4.461   7.327   7.990 -0.1209  0.0011 -0.7544
  119ccc    H14 3221   5.091   6.949   7.769 -0.1153 -0.3329 -0.8274
  119ccc    H15 3222   4.533   7.375   7.946 -1.0382  2.0699 -0.0314
  120ccc     N1 3223   5.480   7.372   6.779  0.5374 -0.3262  0.1277
  120ccc     H1 3224   5.421   7.291   6.761  2.8533 -2.3490  1.2754
  120ccc     C1 3225   5.571   7.402   6.672 -0.4416  0.3493 -0.4485
  120ccc     H2 3226   5.528   7.488   6.619  3.6302  1.4279 -2.1761
  120ccc     C2 3227   5.572   7.290   6.562  0.4361 -0.1297  0.0960
  120ccc     H3 3228   5.668   7.437   6.711 -0.0884 -1.2776  0.1719
  120ccc     H4 3229   5.645   7.315   6.484  0.4969 -1.9026 -0.4364
  120ccc     H5 3230   5.474   7.296   6.513  1.4883  1.9445 -1.8580
  120ccc     N2 3231   5.605   7.154   6.621  0.0623 -0.4725 -0.3884
  120ccc     C3 3232   5.746   7.153   6.668 -0.9324 -0.4904  0.2205
  120ccc     C4 3233   5.548   7.037   6.553 -0.4482  0.0001 -0.5655
  120ccc     H6 3234   5.571   6.943   6.604 -3.4618 -0.0562  0.7995
  120ccc     C5 3235   5.598   7.031   6.411  0.3872  0.1983  0.0386
  120ccc     H7 3236   5.440   7.056   6.560 -0.3504  1.1266 -1.8006
  120ccc     H8 3237   5.707   7.030   6.419  0.4630  0.5286 -0.8607
  120ccc     H9 3238   5.569   7.112   6.343  1.0039  1.4855  1.2945
  120ccc     C6 3239   5.552   6.901   6.348 -0.0772 -0.1336 -0.0523
  120ccc     O1 3240   5.549   6.911   6.215 -0.1748 -0.7724 -0.1289
  120ccc     O2 3241   5.520   6.796   6.405  0.5322 -0.0195 -0.2936
  120ccc    H10 3242   5.815   7.139   6.583 -2.8275  0.7102 -1.5673
  120ccc    H11 3243   5.780   7.246   6.716 -2.3084  1.0886 -1.7863
  120ccc     C7 3244   5.772   7.051   6.770  0.2636 -0.9969 -0.4237
  120ccc    H12 3245   5.714   7.089   6.855  0.7746 -1.5723  0.1902
  120ccc    H13 3246   5.736   6.950   6.748 -0.2763 -0.8745 -0.0959
  120ccc     C8 3247   5.915   7.042   6.822 -0.3348  0.6425  0.0076
  120ccc     O3 3248   5.996   6.966   6.769 -0.1501  0.5576 -0.2718
  120ccc     O4 3249   5.945   7.109   6.932 -0.4345 -0.1976  0.2958
  120ccc    H14 3250   5.583   6.996   6.184  0.0400 -0.5165  0.7848
  120ccc    H15 3251   5.857   7.144   6.953 -2.1686 -3.1262 -1.6980
  121ccc     N1 3252   4.896   7.148   7.150 -0.0846  0.5672  0.4146
  121ccc     H1 3253   4.959   7.069   7.143  1.5229  1.8083  0.7572
  121ccc     C1 3254   4.765   7.133   7.092 -0.0917  0.4156  0.8209
  121ccc     H2 3255   4.684   7.146   7.166 -1.7364  1.1618 -1.0583
  121ccc     C2 3256   4.751   6.993   7.016 -0.3305 -0.3609 -0.0712
  121ccc     H3 3257   4.754   7.220   7.026 -0.5504  1.6353  2.4413
  121ccc     H4 3258   4.649   6.980   6.980 -0.5744 -0.5007  0.6583
  121ccc     H5 3259   4.748   6.917   7.095 -0.1006 -2.5568 -2.1229
  121ccc     N2 3260   4.861   6.965   6.922 -0.2641 -0.0694 -0.0512
  121ccc     C3 3261   4.865   7.051   6.801 -0.1511  0.8420 -0.2250
  121ccc     C4 3262   4.886   6.828   6.883  0.0821 -0.2077 -0.4637
  121ccc     H6 3263   4.980   6.813   6.828 -0.5835 -1.2295 -1.3292
  121ccc     C5 3264   4.778   6.755   6.799 -0.7209  0.1435  0.2624
  121ccc     H7 3265   4.908   6.769   6.973 -1.8645 -1.6396 -0.9118
  121ccc     H8 3266   4.758   6.818   6.711 -1.1351  0.4409  0.5654
  121ccc     H9 3267   4.678   6.755   6.845  0.0966  0.1136  2.1061
  121ccc     C6 3268   4.818   6.620   6.763 -0.0521 -0.4806  0.2639
  121ccc     O1 3269   4.757   6.555   6.658 -0.1042 -0.1912  0.5190
  121ccc     O2 3270   4.883   6.556   6.845 -0.3134 -0.0834  0.4329
  121ccc    H10 3271   4.842   7.155   6.827  0.0649  1.1871 -1.3817
  121ccc    H11 3272   4.791   7.012   6.729 -0.9111 -0.7095  1.3596
  121ccc     C7 3273   5.004   7.048   6.729  0.8127  0.4705 -0.4542
  121ccc    H12 3274   4.997   7.110   6.638  0.5689 -0.8077 -1.3098
  121ccc    H13 3275   5.030   6.955   6.678 -0.1330 -0.6932  1.1684
  121ccc     C8 3276   5.129   7.088   6.808  0.4967 -0.1839 -0.0766
  121ccc     O3 3277   5.210   7.177   6.770  0.5531 -0.1328 -0.0140
  121ccc     O4 3278   5.133   7.033   6.927  0.5824  0.1183 -0.0818
  121ccc    H14 3279   4.695   6.618   6.619 -1.8539 -1.7442  0.7114
  121ccc    H15 3280   5.045   6.992   6.932 -0.2894  2.1065  1.9512
  122ccc     N1 3281   4.122   7.339   8.138 -0.1104 -0.5720 -0.1216
  122ccc     H1 3282   4.206   7.358   8.084 -1.0720  1.1462 -1.0939
  122ccc     C1 3283   4.079   7.448   8.227 -0.8618 -0.4374  0.2710
  122ccc     H2 3284   4.011   7.523   8.185  0.7542  2.4964  2.7828
  122ccc     C2 3285   4.201   7.510   8.289  0.3531  0.4062 -0.4283
  122ccc     H3 3286   4.016   7.403   8.304 -1.1871  2.3236  1.6765
  122ccc     H4 3287   4.248   7.442   8.361  3.1303  2.0891 -0.5641
  122ccc     H5 3288   4.173   7.605   8.337  1.6730  0.1046  0.9842
  122ccc     N2 3289   4.311   7.553   8.197 -0.4768 -0.3091  1.1995
  122ccc     C3 3290   4.263   7.649   8.094 -0.0045  0.1330  0.4048
  122ccc     C4 3291   4.438   7.604   8.262  0.0939  0.3863  0.2354
  122ccc     H6 3292   4.412   7.699   8.311 -1.3407  1.1744 -1.9677
  122ccc     C5 3293   4.492   7.514   8.371  0.3130  0.0917 -0.1865
  122ccc     H7 3294   4.517   7.615   8.187 -0.4412 -1.6740 -0.6667
  122ccc     H8 3295   4.422   7.535   8.452  0.3343  0.9393 -0.3799
  122ccc     H9 3296   4.480   7.406   8.360  0.1840  0.1043 -0.1791
  122ccc     C6 3297   4.627   7.565   8.414  0.3622  0.5380 -0.3814
  122ccc     O1 3298   4.654   7.529   8.535 -0.0521 -0.1684 -0.3464
  122ccc     O2 3299   4.704   7.644   8.364 -0.1710 -0.4677  0.0102
  122ccc    H10 3300   4.163   7.621   8.058  0.6876  0.3143 -1.7381
  122ccc    H11 3301   4.263   7.753   8.128 -0.6695  0.0020  0.8104
  122ccc     C7 3302   4.361   7.654   7.971  0.2140  0.0328 -0.1526
  122ccc    H12 3303   4.354   7.563   7.910  1.4613 -0.3909  0.3088
  122ccc    H13 3304   4.466   7.670   7.997 -0.2403 -0.8182  2.2793
  122ccc     C8 3305   4.322   7.764   7.874  0.8817 -0.4085 -0.4653
  122ccc     O3 3306   4.223   7.739   7.805  0.1238 -0.3045 -0.8369
  122ccc     O4 3307   4.323   7.882   7.941 -0.0122  0.1168  0.5132
  122ccc    H14 3308   4.577   7.479   8.568 -0.8591  1.1323 -0.1986
  122ccc    H15 3309   4.371   7.865   8.024 -1.6806 -0.1919  1.4553
  123ccc     N1 3310   4.319   7.613   7.528 -0.4909 -0.6718 -0.3097
  123ccc     H1 3311   4.388   7.686   7.543 -1.1557 -0.4280  1.5854
  123ccc     C1 3312   4.225   7.632   7.417 -0.3644 -0.2505  0.1633
  123ccc     H2 3313   4.154   7.548   7.409  0.9782 -1.2439 -1.6715
  123ccc     C2 3314   4.302   7.641   7.284  0.3213 -0.2510 -0.2189
  123ccc     H3 3315   4.169   7.726   7.415  0.0145 -0.0414 -1.3656
  123ccc     H4 3316   4.357   7.547   7.276  1.4121  0.3141  0.5158
  123ccc     H5 3317   4.378   7.720   7.298  0.0507  0.4008 -2.2353
  123ccc     N2 3318   4.231   7.667   7.152 -0.0330 -0.2409 -0.6446
  123ccc     C3 3319   4.308   7.667   7.025 -0.8178  0.0236  0.2020
  123ccc     C4 3320   4.104   7.586   7.149  0.1554 -0.4343 -0.3411
  123ccc     H6 3321   4.050   7.596   7.244  0.6247 -0.1170 -0.1051
  123ccc     C5 3322   4.116   7.439   7.118  0.4498 -0.3948 -0.1151
  123ccc     H7 3323   4.039   7.626   7.070  1.1719 -0.6818 -1.3171
  123ccc     H8 3324   4.206   7.397   7.165 -1.0340 -1.1057  2.1926
  123ccc     H9 3325   4.118   7.413   7.012 -0.9568 -1.8984  0.1920
  123ccc     C6 3326   3.995   7.367   7.164  0.2532  0.6924  0.4603
  123ccc     O1 3327   3.973   7.246   7.107  0.0300  0.2255  0.8589
  123ccc     O2 3328   3.948   7.393   7.273  0.5867 -0.0721  0.1992
  123ccc    H10 3329   4.352   7.569   7.005  1.2722  1.3909 -2.1452
  123ccc    H11 3330   4.248   7.686   6.935  1.9525  0.4417 -1.5888
  123ccc     C7 3331   4.413   7.779   7.028 -0.7108  0.7344  0.5763
  123ccc    H12 3332   4.359   7.873   7.048 -0.1317  1.6357 -1.8828
  123ccc    H13 3333   4.495   7.772   7.101 -1.6599 -1.2981  1.4895
  123ccc     C8 3334   4.470   7.803   6.887  0.4748 -0.6278  0.1988
  123ccc     O3 3335   4.457   7.909   6.828 -0.4554 -0.3487  0.1872
  123ccc     O4 3336   4.569   7.718   6.856  0.4382 -0.2109  0.1762
  123ccc    H14 3337   3.899   7.213   7.161  0.3804  0.2525  1.3620
  123ccc    H15 3338   4.572   7.668   6.939  0.5469  0.5826  0.6496
  124ccc     N1 3339   3.715   6.600   7.799 -0.6384  0.1073 -0.3545
  124ccc     H1 3340   3.726   6.668   7.725  1.4935  0.5024  0.2884
  124ccc     C1 3341   3.720   6.651   7.935  0.1436  0.1732 -0.3260
  124ccc     H2 3342   3.649   6.735   7.938 -1.3894 -1.1529  0.7341
  124ccc     C2 3343   3.855   6.702   7.986  0.1033 -0.0905 -0.0028
  124ccc     H3 3344   3.669   6.582   8.003  1.1554  1.9160  2.2575
  124ccc     H4 3345   3.918   6.612   7.982 -0.8467 -1.0343  3.7950
  124ccc     H5 3346   3.856   6.725   8.093 -0.3568  1.9526 -0.4269
  124ccc     N2 3347   3.915   6.817   7.909 -0.0184  0.1571 -0.4433
  124ccc     C3 3348   3.979   6.785   7.782  0.0348 -0.3980 -0.1018
  124ccc     C4 3349   3.832   6.933   7.878  0.9154  0.8734  0.1320
  124ccc     H6 3350   3.895   7.009   7.831 -0.6024  2.2402  0.2598
  124ccc     C5 3351   3.770   6.990   8.005  0.2430 -0.7269  0.0065
  124ccc     H7 3352   3.753   6.898   7.810  1.2604 -0.3248  0.3361
  124ccc     H8 3353   3.706   6.911   8.047 -1.1673 -0.2305 -1.1367
  124ccc     H9 3354   3.850   7.004   8.078 -1.1085 -0.1347  1.3854
  124ccc     C6 3355   3.698   7.128   7.984 -0.4750  0.2875  0.6855
  124ccc     O1 3356   3.647   7.172   8.099  0.2668 -0.3329  0.8305
  124ccc     O2 3357   3.660   7.169   7.878 -0.4780 -0.0249  0.0161
  124ccc    H10 3358   4.036   6.873   7.747  2.0982 -0.7058  2.3359
  124ccc    H11 3359   3.917   6.767   7.694 -0.0689 -0.5747  0.0073
  124ccc     C7 3360   4.065   6.663   7.787  0.0395 -0.0457 -0.3100
  124ccc    H12 3361   4.138   6.669   7.869 -2.1012 -0.0679  1.6469
  124ccc    H13 3362   3.996   6.578   7.795  0.3641  0.0330  4.2853
  124ccc     C8 3363   4.156   6.637   7.669  0.2240 -0.1936 -1.0830
  124ccc     O3 3364   4.142   6.545   7.593 -0.2711  0.2167 -0.1694
  124ccc     O4 3365   4.252   6.727   7.657  0.1077  0.2812  0.2105
  124ccc    H14 3366   3.677   7.106   8.164 -0.9466 -0.3785  1.3627
  124ccc    H15 3367   4.237   6.783   7.735 -1.7785 -1.4181  1.1239
  125ccc     N1 3368   3.997   5.862   7.556  0.0269 -0.2376  0.2396
  125ccc     H1 3369   4.002   5.905   7.647  1.6550 -2.0572  1.0525
  125ccc     C1 3370   4.069   5.736   7.536  0.0845  0.7135 -0.0128
  125ccc     H2 3371   4.105   5.729   7.432 -1.2094  1.2332 -0.5069
  125ccc     C2 3372   3.972   5.609   7.557 -0.2341 -0.1378  0.3727
  125ccc     H3 3373   4.161   5.730   7.594 -0.4748 -1.4488  0.7046
  125ccc     H4 3374   3.889   5.636   7.489  1.7803  0.6451 -1.8376
  125ccc     H5 3375   3.934   5.607   7.660  1.0508 -1.3294  0.8239
  125ccc     N2 3376   4.033   5.479   7.508 -0.2301  0.4109  0.3752
  125ccc     C3 3377   4.143   5.434   7.589 -0.3808 -0.9309  0.2614
  125ccc     C4 3378   4.072   5.487   7.363  0.1378  0.2896 -0.4245
  125ccc     H6 3379   3.992   5.530   7.302 -1.6859  0.5600  2.0882
  125ccc     C5 3380   4.107   5.342   7.313 -0.6735 -0.3152  0.4033
  125ccc     H7 3381   4.161   5.551   7.363  1.7726 -1.8770  0.7091
  125ccc     H8 3382   4.212   5.312   7.321 -1.3057 -2.7761 -0.1905
  125ccc     H9 3383   4.047   5.276   7.377 -1.6427 -1.2602 -1.4102
  125ccc     C6 3384   4.093   5.318   7.172  0.4635 -0.0406 -0.0532
  125ccc     O1 3385   4.147   5.202   7.128 -0.2924 -0.4018 -0.0452
  125ccc     O2 3386   4.038   5.396   7.098  0.9904  0.2756 -0.0670
  125ccc    H10 3387   4.204   5.516   7.629 -1.5499  0.5000 -0.8677
  125ccc    H11 3388   4.209   5.368   7.532  0.1167  0.0139 -0.2604
  125ccc     C7 3389   4.085   5.348   7.703 -0.2517 -0.5322  0.2711
  125ccc    H12 3390   4.024   5.272   7.653  0.6592 -0.4489 -0.9848
  125ccc    H13 3391   4.009   5.403   7.761 -0.9374  0.6865 -1.7583
  125ccc     C8 3392   4.193   5.268   7.777  0.0211 -0.6260 -0.0142
  125ccc     O3 3393   4.269   5.194   7.716 -0.0686 -0.2898 -0.0101
  125ccc     O4 3394   4.202   5.287   7.908  0.5401  0.3179  0.4966
  125ccc    H14 3395   4.177   5.154   7.207 -0.3226  1.9639  1.4685
  125ccc    H15 3396   4.148   5.367   7.913 -1.0200 -0.6342 -0.7648
  126SOL     OW 3397   2.665   3.551   5.281 -0.1427  0.0683 -0.2294
  126SOL    HW1 3398   2.760   3.562   5.286  0.1404 -0.8915 -2.9112
  126SOL    HW2 3399   2.631   3.640   5.278  0.5950  0.4330  1.5110
  127SOL     OW 3400   6.035   6.069   4.604  0.7585  0.4428  0.0497
  127SOL    HW1 3401   6.090   6.146   4.618 -0.3718  1.5369 -1.4068
  127SOL    HW2 3402   5.967   6.076   4.670 -1.1916  2.4491 -2.1005
  128SOL     OW 3403   2.070   2.259   8.301 -0.9128 -0.6342  0.1877
  128SOL    HW1 3404   2.094   2.282   8.391 -2.6842 -0.6351  0.6847
  128SOL    HW2 3405   2.026   2.337   8.267 -0.0266 -0.5444 -0.7749
  129SOL     OW 3406   3.321   6.129   4.964 -0.1123 -0.2461 -0.1593
  129SOL    HW1 3407   3.253   6.149   4.899  0.2919  0.5503 -0.3446
  129SOL    HW2 3408   3.381   6.070   4.919 -0.0136  0.0394 -0.4065
  130SOL     OW 3409   3.684   5.729   0.178 -0.0969 -0.1415  0.2957
  130SOL    HW1 3410   3.670   5.695   0.266 -0.1475  0.0731  0.3713
  130SOL    HW2 3411   3.770   5.771   0.182  0.3029 -0.9176 -0.0002
  131SOL     OW 3412   0.618   8.639   3.323  0.3249 -0.5438  0.0401
  131SOL    HW1 3413   0.601   8.622   3.416  2.9143  0.6706  0.7608
  131SOL    HW2 3414   0.695   8.587   3.303  0.9537  0.7619 -0.9268
  132SOL     OW 3415   8.296   1.666   9.182 -0.4656 -0.1068  0.4309
  132SOL    HW1 3416   8.236   1.729   9.141  1.2285  2.7382  2.1667
  132SOL    HW2 3417   8.248   1.632   9.257 -0.0136  2.0720  1.7478
  133SOL     OW 3418   8.433   4.800   1.655  0.2279  0.3184 -0.3161
  133SOL    HW1 3419   8.506   4.751   1.615 -0.4435 -0.5790 -0.4675
  133SOL    HW2 3420   8.450   4.794   1.750  0.7903  0.8162 -0.3803
  134SOL     OW 3421   1.852   5.747   6.960  0.3305  0.0994 -0.5150
  134SOL    HW1 3422   1.936   5.709   6.986 -0.7718 -1.6530  0.6514
  134SOL    HW2 3423   1.788   5.679   6.981 -1.6636  2.3296  0.9572
  135SOL     OW 3424   1.297   0.280   4.943 -0.3889 -0.4039 -0.3917
  135SOL    HW1 3425   1.311   0.185   4.939  2.5234  0.0617 -2.6399
  135SOL    HW2 3426   1.205   0.291   4.920 -1.0933 -2.7348  1.0894
  136SOL     OW 3427   4.778   4.301   4.467 -0.2225 -0.2309 -0.4862
  136SOL    HW1 3428   4.815   4.215   4.446  2.3406  0.6994  0.0453
  136SOL    HW2 3429   4.852   4.361   4.460 -1.7396  1.7706  0.2567
  137SOL     OW 3430   3.030   2.456   7.029  0.3151  0.2977 -0.3751
  137SOL    HW1 3431   3.115   2.445   6.987  0.2007 -0.9855 -0.2741
  137SOL    HW2 3432   3.046   2.517   7.101  0.8117  1.3335 -1.3576
  138SOL     OW 3433   8.307   3.164   6.438  0.0521  0.5512 -0.1472
  138SOL    HW1 3434   8.225   3.151   6.485 -0.1305 -2.9931 -1.3101
  138SOL    HW2 3435   8.374   3.128   6.496  0.4060  0.5540 -0.5505
  139SOL     OW 3436   7.842   4.342   7.361  0.2812 -0.3202 -0.1666
  139SOL    HW1 3437   7.918   4.350   7.418  0.9135 -2.3342 -0.6883
  139SOL    HW2 3438   7.779   4.405   7.396  0.3117 -2.1331  3.2937
  140SOL     OW 3439   5.900   8.950   1.356  0.7672 -0.1218  0.7670
  140SOL    HW1 3440   5.910   9.024   1.296  1.1926 -0.2455  0.6801
  140SOL    HW2 3441   5.876   8.876   1.299 -0.9470  0.2309  1.0088
  141SOL     OW 3442   2.759   4.707   2.346 -0.1774 -0.3839 -0.0174
  141SOL    HW1 3443   2.698   4.781   2.349 -1.2596 -1.1830 -1.5594
  141SOL    HW2 3444   2.752   4.673   2.257  0.9230 -1.8452  0.4217
  142SOL     OW 3445   6.112   9.429   0.481  0.0944 -0.5498 -0.0275
  142SOL    HW1 3446   6.131   9.402   0.391 -0.8818 -0.3655 -0.2888
  142SOL    HW2 3447   6.180   9.493   0.501 -0.6634  0.6404 -1.2128
  143SOL     OW 3448   4.522   8.699   7.160 -0.1463  0.0247  0.4020
  143SOL    HW1 3449   4.466   8.628   7.189  0.7463 -0.2977  1.3824
  143SOL    HW2 3450   4.512   8.767   7.226 -1.3050  0.9910 -0.7402
  144SOL     OW 3451   0.426   3.238   6.827  0.6113  0.2398 -0.4775
  144SOL    HW1 3452   0.465   3.155   6.855  1.6979  0.6050 -0.8759
  144SOL    HW2 3453   0.370   3.213   6.753 -0.4455 -0.3866  0.5310
  145SOL     OW 3454   3.287   2.320   3.773  0.6325  0.0940 -0.2534
  145SOL    HW1 3455   3.212   2.361   3.732  0.1697 -0.7048 -0.2211
  145SOL    HW2 3456   3.252   2.280   3.852  0.9582 -0.8446 -0.5779
  146SOL     OW 3457   6.893   1.591   7.333  0.3150  0.2658 -0.4023
  146SOL    HW1 3458   6.898   1.571   7.426  2.8975 -0.5093 -0.6779
  146SOL    HW2 3459   6.859   1.680   7.329 -0.6909 -0.0358  1.2406
  147SOL     OW 3460   4.063   3.852   2.120 -0.2819  0.4169 -0.0532
  147SOL    HW1 3461   4.075   3.758   2.130  0.5091  0.4799 -0.3686
  147SOL    HW2 3462   3.971   3.862   2.095 -0.0983 -0.3444 -1.0465
  148SOL     OW 3463   0.450   3.467   3.688 -0.0702  0.2302 -1.1214
  148SOL    HW1 3464   0.404   3.422   3.617  0.6750  0.9191 -2.0625
  148SOL    HW2 3465   0.543   3.459   3.666  0.2021 -0.0448  0.0844
  149SOL     OW 3466   1.768   2.000   2.974 -0.2794  0.1974  0.1591
  149SOL    HW1 3467   1.838   2.028   2.916 -0.3287 -0.8051 -0.3925
  149SOL    HW2 3468   1.707   2.074   2.977  1.2408  1.4309  1.3563
  150SOL     OW 3469   4.909   4.503   6.121 -0.1206 -0.3042  0.4358
  150SOL    HW1 3470   4.866   4.550   6.049  0.3138 -0.5112  0.0388
  150SOL    HW2 3471   4.925   4.415   6.086  0.9062 -0.1329  0.4809
  151SOL     OW 3472   7.175   6.183   8.565 -0.5179  0.0810 -0.4356
  151SOL    HW1 3473   7.235   6.145   8.501 -2.1839 -1.6113 -1.0331
  151SOL    HW2 3474   7.090   6.144   8.544 -1.1893 -0.1401  2.5261
  152SOL     OW 3475   4.965   1.112   2.017 -0.1588  0.1741 -0.2538
  152SOL    HW1 3476   4.960   1.202   1.984 -1.0928  0.1273 -0.2457
  152SOL    HW2 3477   4.929   1.058   1.946  1.5661 -0.3229 -0.7708
  153SOL     OW 3478   5.144   8.007   1.913  0.1918 -0.4152 -0.0897
  153SOL    HW1 3479   5.196   7.999   1.993  1.7319 -0.4804 -1.0680
  153SOL    HW2 3480   5.135   7.917   1.881 -0.5041 -0.4003  0.0649
  154SOL     OW 3481   1.446   8.557   4.429 -0.2668  0.4287 -0.0191
  154SOL    HW1 3482   1.458   8.631   4.489 -0.8105  0.2008  0.3702
  154SOL    HW2 3483   1.535   8.522   4.418  0.1333  1.7195 -0.9623
  155SOL     OW 3484   9.015   5.851   7.065 -0.1526 -0.1566  0.3663
  155SOL    HW1 3485   8.961   5.822   7.139 -2.3393  0.9207 -0.7752
  155SOL    HW2 3486   9.009   5.947   7.067 -0.2442 -0.1237 -1.2177
  156SOL     OW 3487   5.538   9.216   5.224  0.3698 -0.0660  0.4713
  156SOL    HW1 3488   5.475   9.283   5.248 -0.2038 -0.3338 -0.2605
  156SOL    HW2 3489   5.617   9.265   5.202 -0.4747  0.4852 -1.4244
  157SOL     OW 3490   0.739   2.961   6.539  0.1790 -0.3979  0.1959
  157SOL    HW1 3491   0.756   2.974   6.633  1.9453  1.3755 -0.3216
  157SOL    HW2 3492   0.662   3.015   6.521 -1.0956 -1.9421  0.9090
  158SOL     OW 3493   2.756   1.885   6.850 -0.5878  0.0443 -0.0106
  158SOL    HW1 3494   2.718   1.798   6.853  0.5128 -0.4125  1.1512
  158SOL    HW2 3495   2.726   1.927   6.931  0.5340  0.0472  0.4020
  159SOL     OW 3496   1.290   4.579   0.640 -0.0945  0.0971  0.5764
  159SOL    HW1 3497   1.380   4.568   0.671 -0.1701  2.0056  1.4925
  159SOL    HW2 3498   1.254   4.650   0.692 -1.4134  0.9187 -1.3866
  160SOL     OW 3499   7.201   8.190   7.354  0.2314 -0.0226  0.0998
  160SOL    HW1 3500   7.130   8.224   7.300  2.0700  0.0299 -2.3059
  160SOL    HW2 3501   7.176   8.098   7.370  0.3127 -0.4046 -1.9060
  161SOL     OW 3502   3.675   3.780   8.192  0.1285 -0.3077  0.3735
  161SOL    HW1 3503   3.690   3.689   8.216  1.8789  0.1625  1.0651
  161SOL    HW2 3504   3.584   3.797   8.217  0.7503 -0.9310  3.1837
  162SOL     OW 3505   0.016   7.822   7.087  0.4140  0.1654 -0.2074
  162SOL    HW1 3506  -0.052   7.822   7.154  2.7532  1.2431  2.2109
  162SOL    HW2 3507   0.042   7.730   7.079 -0.0065  0.0102  0.2135
  163SOL     OW 3508   1.596   0.099   8.248 -0.1254  0.0088  0.4856
  163SOL    HW1 3509   1.656   0.115   8.321  0.5139  0.0049 -0.0354
  163SOL    HW2 3510   1.648   0.051   8.184 -0.6688  0.0528  0.0059
  164SOL     OW 3511   1.774   5.079   2.796  0.1497  0.3600 -0.3086
  164SOL    HW1 3512   1.767   5.172   2.820  0.7314  0.7304 -1.5476
  164SOL    HW2 3513   1.728   5.033   2.867 -0.7238  1.6307 -0.0204
  165SOL     OW 3514   3.253   6.805   2.742  0.6727 -0.1573 -0.4977
  165SOL    HW1 3515   3.268   6.754   2.663 -0.0431  1.4796 -1.7291
  165SOL    HW2 3516   3.299   6.888   2.726 -2.5229  1.6676 -0.8340
  166SOL     OW 3517   4.662   2.584   8.823  0.2475  0.4962 -0.2167
  166SOL    HW1 3518   4.690   2.665   8.780  0.1325  0.5910 -0.1112
  166SOL    HW2 3519   4.686   2.515   8.761 -0.0773  0.6439 -0.5101
  167SOL     OW 3520   7.073   5.040   7.302  0.0913  0.0266 -0.2850
  167SOL    HW1 3521   6.987   5.075   7.279 -0.4580 -1.2077 -0.1637
  167SOL    HW2 3522   7.067   4.947   7.280  1.0324 -0.2758  0.7298
  168SOL     OW 3523   3.211   8.898   7.295 -0.1032 -0.1923  0.5969
  168SOL    HW1 3524   3.132   8.853   7.265 -1.1511  2.8309 -1.4662
  168SOL    HW2 3525   3.274   8.888   7.223  0.3639 -0.0890  0.9889
  169SOL     OW 3526   4.371   3.330   3.260 -0.2935  0.2199 -0.3365
  169SOL    HW1 3527   4.424   3.273   3.203  0.9030  1.0264 -0.0522
  169SOL    HW2 3528   4.332   3.270   3.323 -0.6350 -0.5343 -1.2499
  170SOL     OW 3529   8.834   5.887   4.771  0.3012 -0.3994  0.3020
  170SOL    HW1 3530   8.823   5.934   4.853  0.4373  1.3466 -0.6452
  170SOL    HW2 3531   8.789   5.804   4.784 -0.3943  0.2070  1.8358
  171SOL     OW 3532   8.182   2.020   9.351 -0.1661 -0.1302 -0.3402
  171SOL    HW1 3533   8.141   1.964   9.417 -1.1690  0.5023 -0.4155
  171SOL    HW2 3534   8.109   2.055   9.300  0.3176  2.4371  0.6686
  172SOL     OW 3535   0.518   5.228   1.158  0.5107  0.6290 -0.3298
  172SOL    HW1 3536   0.480   5.313   1.140 -3.6705 -0.9422  0.4750
  172SOL    HW2 3537   0.507   5.179   1.077  3.1193  0.8783 -0.8713
  173SOL     OW 3538   5.745   3.482   1.208 -0.2462 -0.1154  0.1251
  173SOL    HW1 3539   5.813   3.503   1.273 -0.2631  0.5783 -0.0811
  173SOL    HW2 3540   5.738   3.387   1.212  0.2593 -0.1387  0.6364
  174SOL     OW 3541   0.568   7.502   2.882 -0.4534 -0.3454  0.1673
  174SOL    HW1 3542   0.660   7.477   2.886 -0.2932 -0.2697 -2.2284
  174SOL    HW2 3543   0.552   7.550   2.963  1.4294 -0.9374  0.9027
  175SOL     OW 3544   3.419   8.233   5.156 -0.0630  0.4318  0.7510
  175SOL    HW1 3545   3.400   8.285   5.235 -0.8852  0.8253  0.2986
  175SOL    HW2 3546   3.509   8.204   5.168 -0.6194 -0.6489  2.4806
  176SOL     OW 3547   3.571   0.554   6.954 -0.3816 -0.1550  0.6102
  176SOL    HW1 3548   3.543   0.463   6.947 -2.1713  0.4707 -1.0189
  176SOL    HW2 3549   3.505   0.596   7.008 -0.2058  0.4132  0.3933
  177SOL     OW 3550   1.916   8.915   7.954  0.4690 -0.0338  0.1818
  177SOL    HW1 3551   1.950   8.829   7.930 -0.2879 -0.1539 -0.4662
  177SOL    HW2 3552   1.947   8.973   7.884 -1.2899 -0.2863 -0.8334
  178SOL     OW 3553   4.948   2.155   8.113  0.4695 -0.1194 -0.4900
  178SOL    HW1 3554   4.952   2.137   8.019  1.2407  0.5114 -0.5863
  178SOL    HW2 3555   4.906   2.078   8.151  0.6301 -0.6060 -1.2917
  179SOL     OW 3556   5.667   9.338   0.260 -0.0994  0.1368  0.6321
  179SOL    HW1 3557   5.744   9.393   0.275  0.6156 -0.5198 -0.5124
  179SOL    HW2 3558   5.695   9.250   0.286  0.3324 -0.5420 -1.8946
  180SOL     OW 3559   7.086   2.193   2.073 -0.2619  0.5063 -0.1021
  180SOL    HW1 3560   7.040   2.170   2.154  1.0752 -0.9317  0.2688
  180SOL    HW2 3561   7.177   2.170   2.089  0.2474  1.4003 -1.5693
  181SOL     OW 3562   2.461   3.765   8.984  0.2731  0.5169 -0.5116
  181SOL    HW1 3563   2.492   3.687   8.937  0.5238  0.3356 -0.0444
  181SOL    HW2 3564   2.367   3.768   8.966  0.1819 -0.1485 -0.1691
  182SOL     OW 3565   6.296   7.299   6.446  0.1766 -0.2591 -0.6911
  182SOL    HW1 3566   6.215   7.336   6.411  0.8160  0.0525 -1.9091
  182SOL    HW2 3567   6.356   7.300   6.371  2.0704  1.8181  0.7768
  183SOL     OW 3568   2.088   2.983   1.277 -0.2926 -0.1412  0.5758
  183SOL    HW1 3569   2.092   3.028   1.361  0.1880 -1.6849  1.4022
  183SOL    HW2 3570   2.004   3.009   1.239 -1.8203 -1.6313  2.8132
  184SOL     OW 3571   5.380   5.869   1.645 -0.4053 -0.5889 -0.3296
  184SOL    HW1 3572   5.454   5.869   1.706 -0.3248 -1.3845 -0.4274
  184SOL    HW2 3573   5.334   5.951   1.664 -1.4376 -1.6601  2.0746
  185SOL     OW 3574   6.430   7.686   5.662  0.1890 -0.5302  0.2590
  185SOL    HW1 3575   6.343   7.670   5.699 -0.2432 -0.8807 -0.8928
  185SOL    HW2 3576   6.490   7.639   5.720 -0.2551  0.7013  1.7578
  186SOL     OW 3577   0.090   2.476   5.355  0.3333  0.1193  0.2045
  186SOL    HW1 3578   0.057   2.397   5.313  0.5548  0.2857 -0.2989
  186SOL    HW2 3579   0.133   2.524   5.284  0.9346  0.2909  0.6768
  187SOL     OW 3580   8.270   1.108   3.907 -0.2237  0.3570  0.2087
  187SOL    HW1 3581   8.343   1.149   3.953  0.5693  0.6985 -1.3168
  187SOL    HW2 3582   8.192   1.140   3.952  0.4845  1.5404  0.6131
  188SOL     OW 3583   4.453   3.784   9.122 -0.2541  0.2951 -0.3870
  188SOL    HW1 3584   4.472   3.766   9.030  0.4108 -1.6638  0.1017
  188SOL    HW2 3585   4.368   3.743   9.137  0.0068 -0.0886  0.0577
  189SOL     OW 3586   1.269   5.097   0.510  0.2082 -0.7953 -0.4969
  189SOL    HW1 3587   1.283   5.102   0.416 -0.2006 -2.7820 -0.6840
  189SOL    HW2 3588   1.333   5.032   0.541  0.7881  0.3071  0.7081
  190SOL     OW 3589   2.918   8.864   1.096 -0.5672  0.0940 -0.1931
  190SOL    HW1 3590   2.877   8.940   1.137 -0.6501 -0.5629  0.9476
  190SOL    HW2 3591   3.008   8.890   1.080 -0.8585  0.7862 -0.7316
  191SOL     OW 3592   9.143   5.283   8.091 -0.0257  0.4689  0.2824
  191SOL    HW1 3593   9.146   5.370   8.131  2.6511  1.6045 -2.1947
  191SOL    HW2 3594   9.103   5.297   8.005  0.7029 -0.6779 -0.2592
  192SOL     OW 3595   1.096   3.007   1.254 -0.0664 -0.7039  0.2653
  192SOL    HW1 3596   1.181   3.040   1.224 -0.4898 -0.6685 -0.9446
  192SOL    HW2 3597   1.050   3.085   1.285 -0.7206 -0.2393 -1.7452
  193SOL     OW 3598   4.704   0.343   5.206  0.5027 -0.1906 -0.3485
  193SOL    HW1 3599   4.640   0.410   5.229  0.6208  0.1441 -0.9890
  193SOL    HW2 3600   4.655   0.261   5.211  0.0045  0.0682 -0.8800
  194SOL     OW 3601   2.391   1.234   3.201  0.0474  0.1852 -0.1787
  194SOL    HW1 3602   2.471   1.188   3.174  0.0851  0.9457 -1.3992
  194SOL    HW2 3603   2.354   1.268   3.120 -2.4473 -1.5987  0.1634
  195SOL     OW 3604   1.783   5.348   2.927 -0.0841  0.0754 -0.5485
  195SOL    HW1 3605   1.691   5.367   2.945  0.3883  0.6792  1.4174
  195SOL    HW2 3606   1.805   5.400   2.850 -0.7700  1.7849  0.3896
  196SOL     OW 3607   2.452   1.040   1.331 -0.3954  0.3640 -0.0448
  196SOL    HW1 3608   2.422   1.035   1.241 -2.1734 -0.3472  0.5627
  196SOL    HW2 3609   2.422   0.958   1.371  0.1885  0.7615  1.2387
  197SOL     OW 3610   8.020   6.790   1.139 -0.0918 -0.0338 -0.3489
  197SOL    HW1 3611   8.093   6.822   1.193  1.3774 -0.8119 -1.8222
  197SOL    HW2 3612   7.986   6.715   1.187  1.0213 -0.5500 -0.3421
  198SOL     OW 3613   4.215   2.418   7.183  0.5385 -0.1288  0.4420
  198SOL    HW1 3614   4.223   2.489   7.246 -0.6605 -1.5079  2.1893
  198SOL    HW2 3615   4.158   2.354   7.225 -1.6924 -0.3609 -2.6970
  199SOL     OW 3616   0.671   7.447   6.056 -0.1733  0.6006  0.1226
  199SOL    HW1 3617   0.665   7.447   6.152  2.0507  1.0483  0.2864
  199SOL    HW2 3618   0.688   7.355   6.033  2.0816  0.9272  0.3854
  200SOL     OW 3619   1.878   6.825   0.600 -0.1475 -0.3224  0.5504
  200SOL    HW1 3620   1.864   6.764   0.672  3.2837 -1.8584 -0.0138
  200SOL    HW2 3621   1.935   6.892   0.636  0.3165 -0.2580 -0.3031
  201SOL     OW 3622   0.158   2.091   6.726 -0.0559  0.4933 -0.3704
  201SOL    HW1 3623   0.142   2.171   6.676  0.2378  1.9530  1.8082
  201SOL    HW2 3624   0.165   2.120   6.817 -0.6369 -2.0962  0.5537
  202SOL     OW 3625   0.410   0.799   8.807 -0.0044 -0.1719  0.3073
  202SOL    HW1 3626   0.424   0.893   8.797  0.6168 -0.3129 -0.1817
  202SOL    HW2 3627   0.487   0.769   8.854 -0.2014 -0.4395  0.4579
  203SOL     OW 3628   4.219   0.971   4.723 -0.3887 -0.1815 -0.4922
  203SOL    HW1 3629   4.151   0.910   4.692  1.0827 -1.1304 -1.9387
  203SOL    HW2 3630   4.233   1.030   4.648  1.9914 -1.4243 -1.0842
  204SOL     OW 3631   6.324   2.281   8.697  0.2030  0.4044  0.1831
  204SOL    HW1 3632   6.304   2.214   8.763 -0.4258  0.0020 -0.4111
  204SOL    HW2 3633   6.338   2.232   8.616 -0.7264  1.0134 -0.3604
  205SOL     OW 3634   3.085   0.055   7.209  0.2571 -0.3146  0.0795
  205SOL    HW1 3635   3.102   0.140   7.249  0.8084 -1.4596  2.3720
  205SOL    HW2 3636   2.992   0.057   7.187  0.6344  1.5001 -1.4859
  206SOL     OW 3637   3.705   7.293   2.296 -0.1009  0.0173 -0.0387
  206SOL    HW1 3638   3.633   7.231   2.303 -1.0015  1.0789  0.1022
  206SOL    HW2 3639   3.674   7.372   2.341  0.9289  0.6680 -0.4497
  207SOL     OW 3640   7.350   4.008   0.531  0.2038 -0.2807  0.0863
  207SOL    HW1 3641   7.322   3.966   0.450 -0.0897 -1.5171  0.8051
  207SOL    HW2 3642   7.445   4.011   0.525  0.0934  1.3868 -1.1384
  208SOL     OW 3643   0.572   1.065   9.155 -0.3135  0.2732  0.1266
  208SOL    HW1 3644   0.558   1.010   9.231  0.5450  0.4075  0.3850
  208SOL    HW2 3645   0.562   1.155   9.188  0.0021  0.3303  0.0665
  209SOL     OW 3646   3.404   2.280   2.408  0.1741  0.1397  0.3049
  209SOL    HW1 3647   3.347   2.338   2.459  1.2076 -0.1646  1.8395
  209SOL    HW2 3648   3.346   2.211   2.376 -0.6401  0.7995  0.3303
  210SOL     OW 3649   6.640   2.951   6.243  0.0633 -0.4053 -0.7691
  210SOL    HW1 3650   6.605   3.035   6.211 -0.3081 -1.3462 -2.9414
  210SOL    HW2 3651   6.719   2.936   6.190  1.4428 -0.3197  1.2241
  211SOL     OW 3652   3.506   3.773   5.429 -0.3198 -0.2655  0.6630
  211SOL    HW1 3653   3.484   3.824   5.351 -0.2769 -0.3513  0.5951
  211SOL    HW2 3654   3.549   3.836   5.487 -0.3127 -0.2129  0.6004
  212SOL     OW 3655   0.678   7.407   5.044 -0.0558 -0.5422  0.1493
  212SOL    HW1 3656   0.715   7.331   5.089  0.2744 -0.0176  0.7734
  212SOL    HW2 3657   0.586   7.409   5.072  0.6276  0.9715  2.4639
  213SOL     OW 3658   4.978   3.763   0.891  0.0755  0.1224  0.4561
  213SOL    HW1 3659   4.968   3.858   0.888  0.3644  0.1442  0.0735
  213SOL    HW2 3660   4.892   3.729   0.864  0.0069  0.2755  0.4794
  214SOL     OW 3661   3.423   5.329   6.841  0.1086 -0.4089  0.2053
  214SOL    HW1 3662   3.405   5.414   6.801  0.0323 -0.9731 -0.9738
  214SOL    HW2 3663   3.415   5.267   6.770  1.3463 -1.2847  0.8140
  215SOL     OW 3664   3.943   2.091   1.416 -0.4084 -0.2923 -0.3342
  215SOL    HW1 3665   3.888   2.020   1.452  0.4646 -2.0285 -2.3091
  215SOL    HW2 3666   3.913   2.101   1.326  0.4331  0.8978 -0.4890
  216SOL     OW 3667   5.937   0.281   4.671  0.2614 -0.0708 -0.0249
  216SOL    HW1 3668   5.995   0.223   4.721  0.6032  0.7919  0.5899
  216SOL    HW2 3669   5.851   0.241   4.680 -0.2598  1.6330  3.8139
  217SOL     OW 3670   0.789   2.032   7.727 -0.3400 -0.2417  0.1352
  217SOL    HW1 3671   0.705   2.009   7.767 -0.9928 -0.0322 -1.1216
  217SOL    HW2 3672   0.831   1.947   7.710 -0.8788 -0.3875 -0.4788
  218SOL     OW 3673   9.135   3.090   0.473  0.1950 -0.3089 -0.3334
  218SOL    HW1 3674   9.153   3.089   0.379  0.4026  0.8686 -0.3128
  218SOL    HW2 3675   9.208   3.140   0.511 -0.2598 -0.1752  0.3747
  219SOL     OW 3676   1.057   5.374   6.617 -0.0733 -0.1125 -0.4849
  219SOL    HW1 3677   0.990   5.441   6.630  0.9201  0.8838 -0.3720
  219SOL    HW2 3678   1.120   5.389   6.687  0.3633 -0.9267 -0.6906
  220SOL     OW 3679   4.366   0.793   0.342 -0.9522  0.0137 -0.1837
  220SOL    HW1 3680   4.319   0.725   0.294 -0.0525 -0.8553  0.1451
  220SOL    HW2 3681   4.298   0.841   0.389 -1.7840  0.5526 -1.9099
  221SOL     OW 3682   9.182   3.179   5.261  0.2735  0.0969  0.3336
  221SOL    HW1 3683   9.230   3.263   5.257 -1.0672  0.8494 -0.1981
  221SOL    HW2 3684   9.093   3.204   5.282 -0.5310 -1.0451 -1.5724
  222SOL     OW 3685   9.331   3.636   2.519 -0.3243  0.0354  0.8385
  222SOL    HW1 3686   9.395   3.691   2.563 -0.2405  0.2974  0.3906
  222SOL    HW2 3687   9.384   3.575   2.467 -0.4187 -0.4310  1.2808
  223SOL     OW 3688   7.326   6.627   2.577 -0.5896  0.3201  0.1977
  223SOL    HW1 3689   7.308   6.556   2.516 -0.9990  0.6113 -0.0222
  223SOL    HW2 3690   7.363   6.584   2.654 -1.6705 -0.2265  0.4165
  224SOL     OW 3691   2.536   0.943   0.904 -0.3171 -0.1016  0.5708
  224SOL    HW1 3692   2.503   1.032   0.906 -2.1242 -0.6607 -2.0694
  224SOL    HW2 3693   2.479   0.895   0.965 -1.4502 -0.0824 -0.4440
  225SOL     OW 3694   9.014   2.086   2.136  0.2947 -0.2045 -0.7098
  225SOL    HW1 3695   8.969   2.165   2.165  1.1983  0.0814 -0.0806
  225SOL    HW2 3696   8.987   2.018   2.198  1.2439  0.1165  0.0535
  226SOL     OW 3697   4.612   2.189   2.054  0.0502 -0.3325  0.3000
  226SOL    HW1 3698   4.698   2.230   2.042 -0.4476  0.6115 -0.1382
  226SOL    HW2 3699   4.584   2.165   1.966 -0.3977 -0.0779  0.3676
  227SOL     OW 3700   5.514   3.508   8.305 -0.1587  0.2477  0.4139
  227SOL    HW1 3701   5.434   3.455   8.312  0.1565 -0.0817  1.6646
  227SOL    HW2 3702   5.482   3.596   8.287 -0.8030  0.1008  0.8071
  228SOL     OW 3703   7.754   1.432   2.408  0.1371 -0.1969  0.1953
  228SOL    HW1 3704   7.694   1.504   2.430  1.7973  1.6940 -1.3061
  228SOL    HW2 3705   7.833   1.450   2.459  1.0078 -0.2528 -1.1101
  229SOL     OW 3706   6.414   2.376   6.244 -0.4434 -0.2878 -1.0115
  229SOL    HW1 3707   6.468   2.328   6.181 -0.9705 -1.9036 -0.2582
  229SOL    HW2 3708   6.472   2.393   6.317  0.0785  1.3033 -1.7741
  230SOL     OW 3709   0.305   7.789   3.079  0.0486 -0.6427  0.9138
  230SOL    HW1 3710   0.378   7.731   3.096 -0.0290 -1.2601 -0.7059
  230SOL    HW2 3711   0.238   7.733   3.040 -0.2369  0.3980 -0.1550
  231SOL     OW 3712   0.846   2.317   4.838  0.9839  0.5406 -0.1819
  231SOL    HW1 3713   0.908   2.279   4.901 -1.1388 -0.6821  1.2052
  231SOL    HW2 3714   0.902   2.345   4.765  2.9458 -2.7751 -0.0845
  232SOL     OW 3715   2.553   0.061   8.892 -0.1244 -0.3534 -0.0284
  232SOL    HW1 3716   2.483   0.008   8.856  0.0400  0.1151 -1.0427
  232SOL    HW2 3717   2.618   0.067   8.822  1.5520 -1.8919  1.3487
  233SOL     OW 3718   3.745   5.812   1.842 -0.1568  0.4422 -0.2666
  233SOL    HW1 3719   3.823   5.851   1.802  0.3282 -1.5786 -1.3534
  233SOL    HW2 3720   3.742   5.723   1.806 -1.6481 -0.2745  1.5931
  234SOL     OW 3721   4.454   1.030   6.003  0.6069  0.1818  0.1920
  234SOL    HW1 3722   4.506   0.990   5.933  2.6294  2.6368  0.2377
  234SOL    HW2 3723   4.402   1.098   5.959 -1.2759 -1.0337  0.4480
  235SOL     OW 3724   2.352   2.822   4.278  0.6339 -0.2320  0.3220
  235SOL    HW1 3725   2.388   2.860   4.199  0.1673 -1.6581 -0.6009
  235SOL    HW2 3726   2.366   2.888   4.346  0.9413  1.0383 -0.9648
  236SOL     OW 3727   6.973   6.179   6.415  0.5000  0.2645 -0.5925
  236SOL    HW1 3728   7.007   6.133   6.491  0.2401  0.7673 -0.1657
  236SOL    HW2 3729   6.878   6.176   6.426  0.4635  0.3690 -0.8784
  237SOL     OW 3730   7.142   9.414   9.368 -0.0228 -0.6024 -0.2662
  237SOL    HW1 3731   7.194   9.493   9.378 -1.4667 -0.1117  4.9294
  237SOL    HW2 3732   7.053   9.445   9.354 -0.1777 -1.3513 -1.0052
  238SOL     OW 3733   7.997   4.737   1.799  0.6787  0.4386  0.5936
  238SOL    HW1 3734   7.927   4.745   1.864  2.3800 -1.4722  2.7334
  238SOL    HW2 3735   8.060   4.676   1.838  3.0714  1.3242 -1.6961
  239SOL     OW 3736   7.041   0.814   0.530  0.0367 -0.1183 -0.5282
  239SOL    HW1 3737   6.987   0.868   0.473  0.6976  1.5084  0.3671
  239SOL    HW2 3738   7.124   0.861   0.538  0.5207 -1.0980  0.5271
  240SOL     OW 3739   6.435   6.380   0.942  0.3116 -0.0043  0.2866
  240SOL    HW1 3740   6.527   6.356   0.947  0.0433 -1.4331 -1.1609
  240SOL    HW2 3741   6.410   6.361   0.852 -0.8797  2.3615  0.0610
  241SOL     OW 3742   1.116   6.843   8.588  0.1250 -0.3217  0.4091
  241SOL    HW1 3743   1.062   6.768   8.562  1.6865 -1.0283 -0.8520
  241SOL    HW2 3744   1.204   6.807   8.597  0.9269  1.3859 -0.3671
  242SOL     OW 3745   8.198   2.145   0.286 -0.2274  0.1760 -0.8781
  242SOL    HW1 3746   8.117   2.095   0.297 -1.0847  1.2036 -2.2096
  242SOL    HW2 3747   8.265   2.079   0.270 -0.9970 -0.6410 -0.7968
  243SOL     OW 3748   4.157   2.777   4.897  0.1861  0.2585 -0.2345
  243SOL    HW1 3749   4.143   2.842   4.827 -0.1366  0.2704 -0.1639
  243SOL    HW2 3750   4.098   2.805   4.967  0.5923  0.3105  0.0852
  244SOL     OW 3751   2.393   9.279   1.244  0.5085  0.3662 -0.0638
  244SOL    HW1 3752   2.343   9.354   1.276 -1.6429  0.6545 -3.8308
  244SOL    HW2 3753   2.482   9.313   1.231 -0.2190  1.9910 -0.8232
  245SOL     OW 3754   7.964   7.630   5.066  0.1158  0.1574  0.0584
  245SOL    HW1 3755   8.020   7.666   5.135  0.2055 -0.4814  0.3268
  245SOL    HW2 3756   7.876   7.630   5.105  0.2896 -0.9199  0.4557
  246SOL     OW 3757   8.364   8.624   4.662 -0.1072 -0.1836 -0.2530
  246SOL    HW1 3758   8.299   8.597   4.596  0.3062 -0.3854 -0.5753
  246SOL    HW2 3759   8.351   8.562   4.734  0.9707 -1.4024 -1.0702
  247SOL     OW 3760   0.647   7.395   2.446 -0.1628 -0.0380  0.7122
  247SOL    HW1 3761   0.699   7.390   2.366 -1.7459 -0.0371 -0.3564
  247SOL    HW2 3762   0.668   7.315   2.494  2.1782  0.8401  1.1735
  248SOL     OW 3763   1.643   0.489   7.466 -0.2182  0.2059  0.1291
  248SOL    HW1 3764   1.605   0.437   7.537 -0.2123  0.5993  0.4246
  248SOL    HW2 3765   1.567   0.524   7.419 -0.2584 -2.0370 -1.5597
  249SOL     OW 3766   5.698   7.944   6.926  0.0078  0.1032 -0.8119
  249SOL    HW1 3767   5.770   7.946   6.989  2.0843  2.4185 -3.1675
  249SOL    HW2 3768   5.629   7.996   6.967  0.3490 -0.5278  0.6131
  250SOL     OW 3769   3.587   5.366   4.707  0.2853 -0.1623  1.2601
  250SOL    HW1 3770   3.640   5.286   4.711 -0.8025 -1.0558 -1.1806
  250SOL    HW2 3771   3.501   5.339   4.737 -0.9039 -0.7106 -2.3835
  251SOL     OW 3772   1.273   9.253   9.158 -0.5355 -0.4544  0.2822
  251SOL    HW1 3773   1.290   9.170   9.113 -0.8343 -1.3192  1.7226
  251SOL    HW2 3774   1.178   9.264   9.152 -0.3119  0.6773 -1.4160
  252SOL     OW 3775   4.397   0.239   3.289 -0.1645  0.0333 -0.3075
  252SOL    HW1 3776   4.392   0.147   3.312  1.2677 -0.1345 -0.6045
  252SOL    HW2 3777   4.374   0.242   3.196 -0.6039  0.0217 -0.1975
  253SOL     OW 3778   8.656   1.974   0.652 -0.1866 -0.4010 -0.1569
  253SOL    HW1 3779   8.565   1.948   0.666 -0.0430 -0.9597 -0.2428
  253SOL    HW2 3780   8.708   1.908   0.697  0.1442  0.9709  1.5025
  254SOL     OW 3781   2.104   7.931   9.203  0.2432 -0.1616  0.1071
  254SOL    HW1 3782   2.066   8.015   9.176 -0.2856 -0.0198  1.2382
  254SOL    HW2 3783   2.190   7.954   9.239 -0.6480  0.1588  2.1329
  255SOL     OW 3784   2.915   2.472   0.364 -0.3964  0.4573  0.7915
  255SOL    HW1 3785   2.993   2.418   0.371  1.1929  2.8308  2.2503
  255SOL    HW2 3786   2.848   2.413   0.330  2.2385 -1.4004 -1.4081
  256SOL     OW 3787   7.493   8.916   7.712 -0.2727 -0.1504  0.2514
  256SOL    HW1 3788   7.552   8.989   7.692 -2.3234  1.3363 -0.5690
  256SOL    HW2 3789   7.493   8.862   7.633 -0.1660 -0.0478  0.1813
  257SOL     OW 3790   8.814   3.921   1.208 -0.3247  0.6231  0.4096
  257SOL    HW1 3791   8.854   3.853   1.154 -0.7022  1.0622 -0.4320
  257SOL    HW2 3792   8.754   3.873   1.266  0.5771  0.0859  0.8981
  258SOL     OW 3793   6.771   5.161   6.094  0.2273 -0.4226 -0.1060
  258SOL    HW1 3794   6.700   5.150   6.031  2.3471  0.4312 -2.7634
  258SOL    HW2 3795   6.778   5.077   6.139 -0.6867 -1.3810 -1.7242
  259SOL     OW 3796   1.288   1.718   9.264 -0.2395  0.1374 -0.1053
  259SOL    HW1 3797   1.337   1.638   9.247 -0.4709  0.0679 -0.4668
  259SOL    HW2 3798   1.203   1.703   9.223 -0.9615 -0.1920  1.4781
  260SOL     OW 3799   2.000   3.992   1.852 -0.3787 -0.3837  0.6242
  260SOL    HW1 3800   1.932   4.056   1.871  0.7014  0.7844  0.5843
  260SOL    HW2 3801   2.076   4.022   1.900  0.4276 -1.0862 -0.1967
  261SOL     OW 3802   4.437   8.397   2.921 -0.3893 -0.0415  0.9979
  261SOL    HW1 3803   4.470   8.462   2.859  0.3324 -1.9871 -0.7229
  261SOL    HW2 3804   4.378   8.447   2.978 -0.4657  1.9755 -0.7504
  262SOL     OW 3805   9.209   2.337   8.332  0.5858  0.2454 -0.2144
  262SOL    HW1 3806   9.240   2.310   8.246 -1.2833 -1.0813 -0.5078
  262SOL    HW2 3807   9.231   2.265   8.390 -0.1862  0.1365 -0.0460
  263SOL     OW 3808   5.749   9.026   6.819 -0.1492 -0.5304 -0.2297
  263SOL    HW1 3809   5.740   8.934   6.844 -4.0263 -0.4406 -0.9603
  263SOL    HW2 3810   5.722   9.028   6.727  0.8494  1.1949 -0.4990
  264SOL     OW 3811   3.936   5.279   3.868 -0.3331  0.4465 -1.2060
  264SOL    HW1 3812   3.951   5.335   3.791 -1.3108 -0.4508 -2.0691
  264SOL    HW2 3813   3.851   5.307   3.901  0.1502  0.9246 -0.3600
  265SOL     OW 3814   0.066   7.060   7.314  0.3805 -0.5697  0.5982
  265SOL    HW1 3815   0.001   7.084   7.248  0.7500 -0.4152  0.2948
  265SOL    HW2 3816   0.104   7.144   7.342  0.4350 -0.6596  0.7923
  266SOL     OW 3817   2.556   5.299   6.299 -0.1413  0.2287  0.3454
  266SOL    HW1 3818   2.465   5.273   6.283 -0.0173 -0.1631  0.2768
  266SOL    HW2 3819   2.606   5.218   6.291  0.3147  0.5825 -0.4095
  267SOL     OW 3820   3.743   9.305   4.217 -0.3492 -0.2357  0.4055
  267SOL    HW1 3821   3.796   9.243   4.167  1.6240  0.7839  1.1570
  267SOL    HW2 3822   3.694   9.355   4.151  0.8633 -0.1099 -0.4178
  268SOL     OW 3823   0.142   7.756   7.885  0.2852 -0.2410 -0.0141
  268SOL    HW1 3824   0.055   7.792   7.902  0.0273 -0.3831 -1.0054
  268SOL    HW2 3825   0.152   7.686   7.950 -0.1258  0.1190  0.4435
  269SOL     OW 3826   3.927   0.515   0.165  0.3988  0.0892  0.0757
  269SOL    HW1 3827   3.932   0.424   0.136 -1.0328  1.0695 -3.4687
  269SOL    HW2 3828   4.003   0.557   0.125  0.5191  0.6815  0.9084
  270SOL     OW 3829   8.700   8.350   5.055  0.8945  0.4855  0.3898
  270SOL    HW1 3830   8.739   8.285   5.112 -0.0397 -0.3969  0.0396
  270SOL    HW2 3831   8.764   8.364   4.985 -0.3645 -2.7475 -1.5289
  271SOL     OW 3832   2.377   5.731   7.309  0.4190 -0.0732  0.1954
  271SOL    HW1 3833   2.323   5.792   7.358 -1.0274 -1.4587  0.3634
  271SOL    HW2 3834   2.328   5.649   7.311  1.2988 -0.6626 -1.8853
  272SOL     OW 3835   1.694   9.397   0.974 -0.0992  0.1895 -0.2431
  272SOL    HW1 3836   1.626   9.337   0.944 -0.2451  1.2496 -2.0599
  272SOL    HW2 3837   1.647   9.470   1.012 -0.0118  1.1979 -2.0303
  273SOL     OW 3838   9.219   1.640   9.101  0.3768 -0.3024  0.2423
  273SOL    HW1 3839   9.207   1.549   9.074  0.1719 -0.0521 -0.5223
  273SOL    HW2 3840   9.236   1.688   9.019 -0.5687  0.5203  0.5202
  274SOL     OW 3841   5.303   2.491   7.194 -0.2082  0.4612 -0.5408
  274SOL    HW1 3842   5.234   2.433   7.225  0.9899 -0.7505 -0.0697
  274SOL    HW2 3843   5.300   2.482   7.098 -0.7551  0.4758 -0.5262
  275SOL     OW 3844   2.237   3.529   1.322  0.1029  0.3680 -0.2209
  275SOL    HW1 3845   2.330   3.528   1.298 -0.0800  3.0117 -1.2362
  275SOL    HW2 3846   2.193   3.570   1.247 -1.8263 -0.4127  0.4450
  276SOL     OW 3847   2.927   6.348   0.813 -0.4174 -0.3127 -0.1673
  276SOL    HW1 3848   2.929   6.443   0.803 -1.4475 -0.2549  0.1681
  276SOL    HW2 3849   2.869   6.317   0.743  1.4589 -0.8712 -1.5121
  277SOL     OW 3850   4.422   1.464   5.320  0.1036  0.2750  0.3712
  277SOL    HW1 3851   4.424   1.374   5.288  0.2294  0.9124 -1.5280
  277SOL    HW2 3852   4.427   1.457   5.415 -0.4778 -1.7392  0.2696
  278SOL     OW 3853   1.594   4.077   1.603  0.7374  0.0782 -0.1705
  278SOL    HW1 3854   1.557   4.079   1.691  0.8500  0.3648 -0.1295
  278SOL    HW2 3855   1.671   4.133   1.608  0.7515  0.0847 -0.4486
  279SOL     OW 3856   8.447   6.810   7.699 -0.1731 -0.0222 -0.6180
  279SOL    HW1 3857   8.441   6.849   7.786  1.0392 -0.2649 -0.4091
  279SOL    HW2 3858   8.517   6.745   7.708 -0.0259 -0.0268 -1.7819
  280SOL     OW 3859   4.789   3.373   6.667 -0.4762 -0.1718  0.0335
  280SOL    HW1 3860   4.858   3.426   6.708 -1.5487  1.0053  0.3640
  280SOL    HW2 3861   4.811   3.372   6.574 -0.2462  0.5847  0.0732
  281SOL     OW 3862   6.718   5.197   0.675  0.0902  0.6510 -0.5156
  281SOL    HW1 3863   6.688   5.106   0.678  2.0805 -0.0048  0.0840
  281SOL    HW2 3864   6.728   5.221   0.767 -0.3737  1.4635 -0.6790
  282SOL     OW 3865   9.323   7.433   0.432  0.5684 -0.1232  0.7435
  282SOL    HW1 3866   9.414   7.405   0.433  0.2459 -1.1641  1.9168
  282SOL    HW2 3867   9.278   7.371   0.489 -1.2614 -0.8944 -1.4321
  283SOL     OW 3868   5.123   8.833   1.268 -0.0933  0.1977 -1.1389
  283SOL    HW1 3869   5.031   8.858   1.268 -0.0981  0.3180  1.7989
  283SOL    HW2 3870   5.123   8.740   1.245 -1.1638 -0.3971  1.1621
  284SOL     OW 3871   1.880   6.440   6.307  0.3184 -0.2065 -0.1568
  284SOL    HW1 3872   1.888   6.444   6.402 -0.1986 -0.1682 -0.1127
  284SOL    HW2 3873   1.834   6.358   6.290  1.9320 -1.0740 -0.4794
  285SOL     OW 3874   8.828   4.194   0.622 -0.4877  0.0891  0.1649
  285SOL    HW1 3875   8.830   4.270   0.564  1.5907 -0.9517 -1.1887
  285SOL    HW2 3876   8.749   4.146   0.595 -1.1543  1.1317  0.2230
  286SOL     OW 3877   0.818   1.206   1.941 -0.6109  0.1381  0.0171
  286SOL    HW1 3878   0.743   1.217   1.999 -1.8875 -0.6051 -1.4445
  286SOL    HW2 3879   0.809   1.117   1.908  0.6846  0.1951 -0.5075
  287SOL     OW 3880   6.776   9.001   1.618  0.3127 -0.1940  0.2216
  287SOL    HW1 3881   6.789   9.069   1.684  2.2204  0.8851 -1.2151
  287SOL    HW2 3882   6.822   8.925   1.653  1.4636  0.4290  0.0991
  288SOL     OW 3883   7.618   8.231   1.602 -0.6493 -0.1358 -0.8908
  288SOL    HW1 3884   7.658   8.208   1.686 -0.4455  1.1592 -0.6174
  288SOL    HW2 3885   7.524   8.233   1.619 -0.6617 -0.6209 -0.8899
  289SOL     OW 3886   5.296   3.075   0.016 -0.2173 -0.0802 -0.6768
  289SOL    HW1 3887   5.346   3.100  -0.062 -1.3214  0.9678 -1.0595
  289SOL    HW2 3888   5.250   2.996  -0.010  0.3987 -0.4455 -0.6733
  290SOL     OW 3889   3.449   2.023   4.080 -0.0874 -0.4149 -0.1872
  290SOL    HW1 3890   3.373   1.991   4.128  1.4195 -1.8186  1.3575
  290SOL    HW2 3891   3.519   1.961   4.102  1.5505  0.9404 -1.3980
  291SOL     OW 3892   4.839   0.649   5.844 -0.1883  0.8867  0.1318
  291SOL    HW1 3893   4.905   0.692   5.790 -0.4193  1.0540 -0.0165
  291SOL    HW2 3894   4.787   0.597   5.783 -0.4172  1.0349  0.1978
  292SOL     OW 3895   0.338   3.726   8.613  0.5300 -0.0266  0.6131
  292SOL    HW1 3896   0.297   3.710   8.699  0.9266  1.2239  1.0514
  292SOL    HW2 3897   0.278   3.685   8.550 -0.7053  0.5964  1.3549
  293SOL     OW 3898   8.242   9.047   2.729 -0.1543 -0.1033 -0.0081
  293SOL    HW1 3899   8.211   9.007   2.810 -2.3377 -0.0035 -0.7630
  293SOL    HW2 3900   8.235   8.977   2.664 -0.1415  0.3430 -0.4909
  294SOL     OW 3901   0.211   7.029   3.220 -0.4221  0.0925  0.2993
  294SOL    HW1 3902   0.221   7.015   3.314 -1.4904  1.3107  0.6141
  294SOL    HW2 3903   0.117   7.028   3.206 -0.2830  0.4344 -0.6780
  295SOL     OW 3904   7.755   1.747   9.440  0.4019 -0.0045  0.5157
  295SOL    HW1 3905   7.762   1.680   9.508  0.3992  0.5634  1.0716
  295SOL    HW2 3906   7.667   1.783   9.449 -0.2893 -1.2313 -1.0101
  296SOL     OW 3907   6.535   1.158   1.690  0.2701  0.3873 -0.1652
  296SOL    HW1 3908   6.459   1.117   1.651 -0.7717  0.0779  2.1030
  296SOL    HW2 3909   6.528   1.139   1.784  2.2694  1.7203  0.3065
  297SOL     OW 3910   3.967   5.307   5.122 -0.0445 -0.0969 -0.0618
  297SOL    HW1 3911   4.020   5.386   5.111  0.0547 -0.1040  0.3697
  297SOL    HW2 3912   3.883   5.330   5.082 -0.5388  0.7798  1.4363
  298SOL     OW 3913   2.951   6.538   8.805  0.3746  0.2509  0.1528
  298SOL    HW1 3914   2.945   6.618   8.751 -1.0005  0.5815  0.7694
  298SOL    HW2 3915   2.945   6.569   8.895 -0.7025 -0.5914  0.3823
  299SOL     OW 3916   6.079   3.928   2.683  0.2811 -0.0154  0.6491
  299SOL    HW1 3917   6.092   4.013   2.725 -0.0563  0.4364 -0.1530
  299SOL    HW2 3918   6.115   3.865   2.746  0.3913  0.7008  1.3175
  300SOL     OW 3919   7.038   3.022   7.898 -0.0499  0.5148  0.3391
  300SOL    HW1 3920   6.970   3.029   7.965 -1.8600  0.6537 -1.4645
  300SOL    HW2 3921   7.004   2.957   7.836  1.8836 -0.0922 -0.1186
  301SOL     OW 3922   7.464   2.392   2.532  0.2708  0.6957  0.2504
  301SOL    HW1 3923   7.454   2.302   2.501 -1.1304  0.9459 -0.0254
  301SOL    HW2 3924   7.555   2.414   2.510  0.9622 -0.9929  1.2534
  302SOL     OW 3925   5.157   7.244   3.180 -0.5357  0.6951 -0.0821
  302SOL    HW1 3926   5.207   7.198   3.113  2.9170  1.6180  1.7633
  302SOL    HW2 3927   5.128   7.175   3.240 -1.5466  0.1584 -1.1717
  303SOL     OW 3928   0.845   2.587   2.583  0.4411  0.0060  0.2979
  303SOL    HW1 3929   0.858   2.538   2.664 -0.5295  0.2543  0.6080
  303SOL    HW2 3930   0.903   2.544   2.519 -0.0727 -1.2649  0.6793
  304SOL     OW 3931   8.423   2.613   3.784 -0.5103 -0.5826 -0.4467
  304SOL    HW1 3932   8.405   2.539   3.842  0.6515 -0.7741 -0.3144
  304SOL    HW2 3933   8.416   2.575   3.696  0.6780 -1.0098 -0.3707
  305SOL     OW 3934   8.818   9.164   6.200  0.2681 -0.0851  0.2816
  305SOL    HW1 3935   8.868   9.230   6.152  1.2593 -0.6814  0.4875
  305SOL    HW2 3936   8.740   9.150   6.146 -0.1032  1.4464  0.3720
  306SOL     OW 3937   1.386   1.914   5.849 -0.0614  0.1099  0.1477
  306SOL    HW1 3938   1.302   1.910   5.803 -0.3876  0.6241  0.6846
  306SOL    HW2 3939   1.426   1.829   5.833 -0.2164  0.2422 -0.9934
  307SOL     OW 3940   2.564   7.015   1.816  0.4642  0.4160  0.1742
  307SOL    HW1 3941   2.648   7.061   1.819  2.7052 -3.4155 -0.4791
  307SOL    HW2 3942   2.540   7.015   1.723  0.7328 -0.1459  0.1020
  308SOL     OW 3943   8.784   4.821   6.157 -0.4911 -0.1231  0.3976
  308SOL    HW1 3944   8.744   4.746   6.113 -1.7942 -0.6931  2.4853
  308SOL    HW2 3945   8.712   4.861   6.205  1.2211 -0.5535  3.4235
  309SOL     OW 3946   0.395   7.485   1.029 -0.1326 -0.0230  0.3824
  309SOL    HW1 3947   0.431   7.554   1.084  0.9309  0.0175 -0.3478
  309SOL    HW2 3948   0.356   7.531   0.955  0.0003 -0.1646  0.2229
  310SOL     OW 3949   0.134   7.506   3.120  0.6315  0.4422  0.2410
  310SOL    HW1 3950   0.158   7.509   3.028  1.3145  0.8975  0.4294
  310SOL    HW2 3951   0.174   7.425   3.153 -0.7135 -0.4057 -0.1541
  311SOL     OW 3952   1.079   8.987   6.916  0.2353 -0.0232  0.2545
  311SOL    HW1 3953   1.160   9.024   6.953  1.2911 -1.8422 -0.1745
  311SOL    HW2 3954   1.074   9.026   6.828  0.2815  0.6086  0.5263
  312SOL     OW 3955   3.090   2.460   9.341 -0.2652  0.4368  0.9938
  312SOL    HW1 3956   3.157   2.410   9.295 -0.4938 -1.1388  2.3481
  312SOL    HW2 3957   3.131   2.544   9.359  1.1096 -0.2619  1.1981
  313SOL     OW 3958   1.278   2.750   5.259 -0.4919 -0.0343  0.4166
  313SOL    HW1 3959   1.331   2.672   5.276 -1.1019 -0.2683  1.2703
  313SOL    HW2 3960   1.203   2.717   5.209  0.0079  0.2565 -0.5542
  314SOL     OW 3961   9.238   3.856   7.408 -0.7531 -0.4205 -0.0322
  314SOL    HW1 3962   9.145   3.868   7.388 -0.7150 -1.4014 -0.8129
  314SOL    HW2 3963   9.283   3.898   7.335 -0.5872 -0.4601  0.0490
  315SOL     OW 3964   6.442   2.139   2.406 -0.3119  0.2071  0.5915
  315SOL    HW1 3965   6.455   2.067   2.343 -2.3922  0.5202 -0.2310
  315SOL    HW2 3966   6.530   2.171   2.424  0.3869 -0.4387 -1.5539
  316SOL     OW 3967   9.039   3.261   8.340  0.2032  0.1191  0.3233
  316SOL    HW1 3968   9.028   3.291   8.430  0.7733  0.1121  0.3973
  316SOL    HW2 3969   9.110   3.197   8.344  0.0150 -0.1181 -0.0798
  317SOL     OW 3970   0.714   7.760   8.915 -0.2258 -0.0148  0.2442
  317SOL    HW1 3971   0.667   7.772   8.833 -0.9813  2.6535  1.0318
  317SOL    HW2 3972   0.646   7.750   8.981  0.3647 -0.0098  0.8691
  318SOL     OW 3973   4.538   0.117   6.274  0.5991  0.3580  0.3201
  318SOL    HW1 3974   4.541   0.124   6.370 -0.5668  1.3201  0.3034
  318SOL    HW2 3975   4.445   0.116   6.253  0.8010  3.0796 -0.9736
  319SOL     OW 3976   1.956   5.753   1.622  0.1693  0.1255 -0.2131
  319SOL    HW1 3977   1.955   5.666   1.664 -0.3584  0.9010  1.4284
  319SOL    HW2 3978   2.049   5.769   1.605  0.5074  0.2101  1.6035
  320SOL     OW 3979   5.754   3.205   6.800  0.2089 -0.3089  0.2892
  320SOL    HW1 3980   5.824   3.149   6.834  1.7154  1.6971  0.5715
  320SOL    HW2 3981   5.713   3.242   6.878  1.5025  1.6882  0.0504
  321SOL     OW 3982   0.224   2.587   1.716  0.4031  0.2525 -0.4299
  321SOL    HW1 3983   0.319   2.592   1.709  0.4019 -0.0773 -0.6919
  321SOL    HW2 3984   0.209   2.529   1.790  0.4071  1.0603  0.2090
  322SOL     OW 3985   6.230   3.205   2.279 -0.0988 -0.0841 -0.0163
  322SOL    HW1 3986   6.279   3.256   2.344  0.6359 -1.3018  0.4008
  322SOL    HW2 3987   6.265   3.116   2.287  0.2313 -0.2012 -2.2859
  323SOL     OW 3988   1.452   8.674   0.434  0.3876  0.3691 -0.6243
  323SOL    HW1 3989   1.542   8.706   0.444  0.5268 -0.4538  0.9159
  323SOL    HW2 3990   1.406   8.707   0.511 -0.6524  0.8155 -1.4251
  324SOL     OW 3991   5.816   7.375   4.275  0.3537 -0.5574 -0.0923
  324SOL    HW1 3992   5.902   7.416   4.279 -0.1624  0.6372 -1.0532
  324SOL    HW2 3993   5.824   7.306   4.209  1.2426 -2.0985  1.5764
  325SOL     OW 3994   1.687   2.856   4.806 -0.8139  0.4170 -0.4960
  325SOL    HW1 3995   1.634   2.777   4.820  0.0182  0.3117  2.5140
  325SOL    HW2 3996   1.775   2.832   4.836  0.7680  0.9338 -4.4128
  326SOL     OW 3997   5.163   6.055   1.360 -0.2924  0.3872 -0.7334
  326SOL    HW1 3998   5.247   6.095   1.385  0.1804  0.1360 -1.8731
  326SOL    HW2 3999   5.178   5.961   1.369 -0.3419  0.3267 -1.2590
  327SOL     OW 4000   7.045   2.749   3.668  0.3516 -0.3273 -0.3308
  327SOL    HW1 4001   7.069   2.796   3.748  0.9537 -0.8329 -0.2181
  327SOL    HW2 4002   7.106   2.782   3.601  0.4603 -0.5919 -0.3634
  328SOL     OW 4003   7.482   2.419   2.001 -0.1750  0.7586 -0.3977
  328SOL    HW1 4004   7.455   2.510   2.012 -2.4258  0.1838 -0.8529
  328SOL    HW2 4005   7.417   2.381   1.942  0.9161 -1.0635 -0.4887
  329SOL     OW 4006   1.336   7.612   0.825  0.3306 -0.2120 -0.0945
  329SOL    HW1 4007   1.328   7.547   0.754  0.3840  0.4181 -0.6774
  329SOL    HW2 4008   1.347   7.695   0.780  0.4861  0.1773  0.6642
  330SOL     OW 4009   5.443   4.223   6.090 -0.5565  0.1404  0.0635
  330SOL    HW1 4010   5.470   4.136   6.063 -2.1070 -0.1299 -0.7006
  330SOL    HW2 4011   5.457   4.225   6.185 -1.1840 -1.1940  0.1921
  331SOL     OW 4012   5.342   5.032   3.415 -0.3810 -0.0411 -0.8264
  331SOL    HW1 4013   5.434   5.013   3.434  0.3184  0.9767 -3.0958
  331SOL    HW2 4014   5.315   5.092   3.484  0.2813 -1.3175  0.5736
  332SOL     OW 4015   7.845   3.027   9.139  0.2370  0.1122  0.3321
  332SOL    HW1 4016   7.895   3.069   9.209  0.3436  1.6340 -0.6389
  332SOL    HW2 4017   7.777   2.978   9.185 -0.1541  1.6953  1.4867
  333SOL     OW 4018   2.371   8.024   3.972  0.0804 -0.4520 -0.2003
  333SOL    HW1 4019   2.403   8.095   3.917  0.4312 -0.2714  0.2361
  333SOL    HW2 4020   2.300   8.063   4.022 -0.6435 -0.7782 -0.9559
  334SOL     OW 4021   7.139   0.522   0.427 -0.0447 -0.0591  0.2479
  334SOL    HW1 4022   7.052   0.561   0.426 -0.0253  0.0410  1.5789
  334SOL    HW2 4023   7.179   0.550   0.344 -1.0997  0.2740 -0.1540
  335SOL     OW 4024   1.505   8.954   8.162 -0.1676 -0.5925  0.1661
  335SOL    HW1 4025   1.565   8.901   8.110 -0.0304  0.2046 -0.4917
  335SOL    HW2 4026   1.418   8.922   8.138 -0.1111 -0.1334 -0.6544
  336SOL     OW 4027   1.358   4.467   4.585 -0.1614  0.3156 -0.0649
  336SOL    HW1 4028   1.417   4.536   4.617 -0.4123  0.2431  0.5610
  336SOL    HW2 4029   1.341   4.491   4.494  2.8572 -1.0157 -1.0458
  337SOL     OW 4030   8.503   8.576   2.900 -0.0409  0.2169  0.7297
  337SOL    HW1 4031   8.419   8.560   2.856  0.4404  0.1207 -0.1535
  337SOL    HW2 4032   8.495   8.529   2.983 -0.4031 -0.8246  0.1227
  338SOL     OW 4033   0.303   9.344   2.656 -0.6102  0.2433 -0.1014
  338SOL    HW1 4034   0.260   9.425   2.627  0.3522  0.9514  0.4027
  338SOL    HW2 4035   0.279   9.279   2.591 -1.2644  0.9821 -0.6086
  339SOL     OW 4036   5.778   8.949   1.043 -0.2019  0.6276  0.2201
  339SOL    HW1 4037   5.782   8.855   1.061 -2.0281  0.1080 -1.7997
  339SOL    HW2 4038   5.691   8.976   1.074  0.0988  1.5288  0.2884
  340SOL     OW 4039   9.376   9.201   6.820 -0.5255 -0.0946  0.5099
  340SOL    HW1 4040   9.323   9.212   6.899 -0.3965 -0.0922  0.5951
  340SOL    HW2 4041   9.434   9.276   6.819 -1.4204  0.6118 -0.2778
  341SOL     OW 4042   8.759   3.671   8.099  0.2722 -0.2669  0.0853
  341SOL    HW1 4043   8.762   3.592   8.152 -1.1061  0.4117  1.2014
  341SOL    HW2 4044   8.831   3.725   8.132  0.2738 -0.4225  0.3344
  342SOL     OW 4045   3.838   7.334   1.623  0.0831 -0.0864  0.4870
  342SOL    HW1 4046   3.830   7.319   1.717  0.7860 -1.4409  0.3536
  342SOL    HW2 4047   3.908   7.274   1.595  1.7530  2.2347 -0.4520
  343SOL     OW 4048   9.353   8.532   1.388 -0.3007 -0.2451 -0.2935
  343SOL    HW1 4049   9.355   8.590   1.464 -1.0557  0.7790 -1.0516
  343SOL    HW2 4050   9.338   8.445   1.425  1.7412 -0.1136  0.9198
  344SOL     OW 4051   7.455   4.925   5.763  0.1641 -0.1669  0.1909
  344SOL    HW1 4052   7.481   4.996   5.703  0.3987 -0.9854 -0.6897
  344SOL    HW2 4053   7.538   4.891   5.797  0.0905 -0.6006 -0.0656
  345SOL     OW 4054   3.866   3.696   1.863  0.1491 -0.3174  0.0894
  345SOL    HW1 4055   3.843   3.789   1.864 -1.4076 -0.6781 -1.3018
  345SOL    HW2 4056   3.815   3.658   1.935  0.2896 -0.2159  0.2433
  346SOL     OW 4057   4.178   6.828   6.667  0.2035 -0.0329 -0.1504
  346SOL    HW1 4058   4.129   6.788   6.595 -2.1439  0.3799  1.1750
  346SOL    HW2 4059   4.164   6.769   6.741  1.1330  0.4757  0.4497
  347SOL     OW 4060   1.702   3.477   6.007 -0.4253 -0.1128 -0.0820
  347SOL    HW1 4061   1.703   3.520   5.922  1.5480  0.4747  0.2256
  347SOL    HW2 4062   1.695   3.384   5.987 -2.1630  0.1509 -0.8099
  348SOL     OW 4063   4.160   5.623   2.363  0.1221  0.1234 -0.1461
  348SOL    HW1 4064   4.234   5.629   2.303 -0.7749 -0.7259 -1.3580
  348SOL    HW2 4065   4.104   5.555   2.326 -0.6576 -0.1092  1.4271
  349SOL     OW 4066   5.034   7.313   2.625 -0.0635 -0.2727  0.2472
  349SOL    HW1 4067   5.047   7.330   2.718  0.9548  1.4192 -0.1913
  349SOL    HW2 4068   5.056   7.395   2.582  1.1385 -1.5545 -1.6449
  350SOL     OW 4069   0.704   3.498   5.409  0.1354 -0.6804 -0.0849
  350SOL    HW1 4070   0.731   3.421   5.459  0.2744 -0.4976  0.1225
  350SOL    HW2 4071   0.779   3.557   5.412  0.1680 -0.6918 -0.5627
  351SOL     OW 4072   8.118   4.478   8.917 -0.2437  0.3117 -0.0731
  351SOL    HW1 4073   8.098   4.566   8.883 -0.1943 -0.0840 -1.1403
  351SOL    HW2 4074   8.053   4.421   8.876 -0.0101 -0.2150  0.2893
  352SOL     OW 4075   2.800   6.489   1.765  0.0842 -0.1984 -0.2337
  352SOL    HW1 4076   2.706   6.487   1.782  0.1344 -2.9653  0.0389
  352SOL    HW2 4077   2.809   6.536   1.682 -1.2680  2.3935  1.0406
  353SOL     OW 4078   4.036   0.864   7.940  0.6658 -0.0168 -0.5097
  353SOL    HW1 4079   3.954   0.830   7.905  0.2344 -0.8128  1.2424
  353SOL    HW2 4080   4.025   0.960   7.938 -0.3530 -0.1232 -0.1645
  354SOL     OW 4081   7.100   4.152   0.736  0.6032 -0.5177 -0.5261
  354SOL    HW1 4082   7.165   4.171   0.669  0.7166  2.8578  0.4623
  354SOL    HW2 4083   7.151   4.142   0.817  0.0070  1.1767  0.0767
  355SOL     OW 4084   5.866   5.042   0.273  0.0441 -0.0331 -0.5953
  355SOL    HW1 4085   5.882   5.032   0.179 -0.3670 -0.2185 -0.6445
  355SOL    HW2 4086   5.784   5.091   0.279  1.9480  3.2818 -0.3582
  356SOL     OW 4087   3.678   3.672   1.595  0.3090  0.1682 -0.3738
  356SOL    HW1 4088   3.736   3.609   1.639 -1.1504 -0.1491  1.1424
  356SOL    HW2 4089   3.636   3.621   1.525 -0.3396 -0.3831  0.4051
  357SOL     OW 4090   6.448   4.287   2.540  0.3533 -0.1069  0.2845
  357SOL    HW1 4091   6.408   4.373   2.526 -0.4315 -0.5081  0.0173
  357SOL    HW2 4092   6.445   4.245   2.454  1.2878 -0.1715  0.2828
  358SOL     OW 4093   4.257   3.108   4.061  0.0160  0.3650  0.6266
  358SOL    HW1 4094   4.234   3.045   3.992  2.5541  0.1025 -0.0223
  358SOL    HW2 4095   4.180   3.110   4.117 -1.6576 -0.3309 -1.5407
  359SOL     OW 4096   9.144   6.400   5.168  0.0554 -0.1852  0.3395
  359SOL    HW1 4097   9.190   6.419   5.086 -0.7437 -1.9323 -0.5360
  359SOL    HW2 4098   9.207   6.421   5.237  1.1228  0.2291 -0.7531
  360SOL     OW 4099   0.108   0.150   8.660  0.1759 -0.6941  0.0924
  360SOL    HW1 4100   0.179   0.181   8.604 -0.8491 -0.3645 -1.0435
  360SOL    HW2 4101   0.136   0.172   8.749  0.8996  0.6027 -0.4506
  361SOL     OW 4102   1.202   6.571   8.815 -0.0023  0.1357  0.4902
  361SOL    HW1 4103   1.203   6.476   8.818 -0.1971  0.0757 -0.8565
  361SOL    HW2 4104   1.121   6.593   8.769  0.0576  0.9526  0.7531
  362SOL     OW 4105   7.509   3.770   4.759  0.2359 -0.3176  0.8902
  362SOL    HW1 4106   7.494   3.820   4.679  2.7526 -0.5330  0.2359
  362SOL    HW2 4107   7.431   3.785   4.812  0.0067  2.5695 -0.1692
  363SOL     OW 4108   1.594   9.160   1.311 -0.0957 -0.3988  0.1491
  363SOL    HW1 4109   1.574   9.124   1.224 -0.1202 -0.7071  0.2810
  363SOL    HW2 4110   1.683   9.131   1.328 -0.2644 -0.7497  0.4343
  364SOL     OW 4111   4.029   0.837   5.028  0.6870 -0.5643 -0.5051
  364SOL    HW1 4112   4.013   0.787   4.949  1.1803 -1.5535  0.0173
  364SOL    HW2 4113   4.123   0.828   5.045  0.8527  0.8638 -0.6288
  365SOL     OW 4114   5.303   6.120   6.293 -0.4150  0.0598  0.2040
  365SOL    HW1 4115   5.271   6.185   6.231  1.7496 -0.2546 -1.3109
  365SOL    HW2 4116   5.226   6.097   6.345 -2.3184  0.3404 -2.3467
  366SOL     OW 4117   8.881   5.065   7.284 -0.5689  0.3978  0.0490
  366SOL    HW1 4118   8.975   5.080   7.269 -0.3784  0.2716  1.0801
  366SOL    HW2 4119   8.846   5.152   7.304 -0.2687  0.1498  1.7409
  367SOL     OW 4120   5.254   4.227   8.587  0.6667 -0.0997 -0.9633
  367SOL    HW1 4121   5.338   4.182   8.597 -0.3283 -1.5262  1.5049
  367SOL    HW2 4122   5.249   4.286   8.662 -0.2963  0.3656 -1.3803
  368SOL     OW 4123   7.109   1.904   1.946  0.0321 -0.2598  0.0762
  368SOL    HW1 4124   7.022   1.865   1.949 -1.6942  3.3869 -0.1277
  368SOL    HW2 4125   7.125   1.934   2.036  1.1645 -1.0216  0.1433
  369SOL     OW 4126   2.648   8.106   1.364  0.8167 -0.2192 -0.0017
  369SOL    HW1 4127   2.733   8.062   1.365  1.2651  0.6021 -0.6963
  369SOL    HW2 4128   2.663   8.185   1.312 -0.0001  0.6944  1.1252
  370SOL     OW 4129   0.571   4.825   3.355  0.0893 -0.3767 -0.3597
  370SOL    HW1 4130   0.565   4.757   3.422  0.1091  0.6201  0.6677
  370SOL    HW2 4131   0.602   4.779   3.277 -0.2017 -1.5995  0.2338
  371SOL     OW 4132   2.465   7.573   6.365 -0.5757  0.3248 -0.4102
  371SOL    HW1 4133   2.375   7.554   6.392 -0.5002 -0.4345 -0.6851
  371SOL    HW2 4134   2.517   7.561   6.445 -0.8219  1.5658 -0.0545
  372SOL     OW 4135   5.255   3.301   4.062 -0.1788 -0.1521 -0.2946
  372SOL    HW1 4136   5.278   3.388   4.096 -0.1967 -0.0498 -0.5416
  372SOL    HW2 4137   5.228   3.318   3.972  0.2608 -0.4804 -0.4841
  373SOL     OW 4138   8.649   8.500   1.598  0.7225  0.1296  0.2875
  373SOL    HW1 4139   8.717   8.443   1.565  0.9257 -0.3388  1.4725
  373SOL    HW2 4140   8.575   8.487   1.538  0.8368 -1.2286  0.4232
  374SOL     OW 4141   4.067   7.605   0.054  0.2733  0.3187  0.0965
  374SOL    HW1 4142   4.109   7.519   0.053  1.9873  1.0897  2.0028
  374SOL    HW2 4143   4.022   7.611  -0.030  1.0235 -1.9913 -0.5075
  375SOL     OW 4144   9.273   5.394   3.146 -0.1377  0.6758 -0.1087
  375SOL    HW1 4145   9.316   5.405   3.061  2.1995  0.5231  1.0111
  375SOL    HW2 4146   9.272   5.299   3.161  0.7123  0.7760  0.6417
  376SOL     OW 4147   0.353   6.948   4.263 -0.5238  0.0835  0.1621
  376SOL    HW1 4148   0.420   6.969   4.328 -0.0299 -2.1094  0.4063
  376SOL    HW2 4149   0.344   7.027   4.210  0.0421  1.4291  2.0629
  377SOL     OW 4150   8.700   8.226   6.416  0.4210  0.1175 -0.5191
  377SOL    HW1 4151   8.669   8.217   6.506  3.2579  2.3783  0.7948
  377SOL    HW2 4152   8.643   8.293   6.378 -0.1528 -0.1268 -0.1005
  378SOL     OW 4153   1.480   6.241   4.316 -0.2831 -0.7853  0.1837
  378SOL    HW1 4154   1.499   6.281   4.401  0.4562 -0.0634 -0.3230
  378SOL    HW2 4155   1.393   6.275   4.293 -1.1470 -2.1597  1.3418
  379SOL     OW 4156   3.572   2.158   1.371 -0.3109  0.1479 -0.3059
  379SOL    HW1 4157   3.628   2.201   1.435 -0.6867 -0.4182  0.4226
  379SOL    HW2 4158   3.508   2.109   1.424 -0.5316 -0.4588 -1.1083
  380SOL     OW 4159   6.840   5.214   1.557  0.7872 -0.1375  0.0916
  380SOL    HW1 4160   6.797   5.288   1.601  1.5011 -0.3765  1.2189
  380SOL    HW2 4161   6.769   5.154   1.535  0.3177  0.4136  0.0940
  381SOL     OW 4162   1.763   6.618   5.803  0.0548  0.0612 -0.3129
  381SOL    HW1 4163   1.838   6.560   5.815 -0.8240 -0.8240  1.0483
  381SOL    HW2 4164   1.798   6.693   5.756  1.8209 -0.2883  0.4071
  382SOL     OW 4165   8.463   1.647   6.810  0.0473 -0.2541  0.1305
  382SOL    HW1 4166   8.485   1.740   6.806 -1.1728  0.1474  1.9311
  382SOL    HW2 4167   8.369   1.646   6.827 -0.0275 -1.8286 -0.3335
  383SOL     OW 4168   0.769   8.206   0.868 -0.4552  0.3976 -0.5997
  383SOL    HW1 4169   0.740   8.115   0.873 -1.0786  0.6003 -0.4979
  383SOL    HW2 4170   0.714   8.252   0.931  1.6579  0.3965  1.3238
  384SOL     OW 4171   4.526   8.163   8.071 -0.1536 -0.1802 -0.6175
  384SOL    HW1 4172   4.477   8.216   8.134  1.0043 -0.1208  0.2642
  384SOL    HW2 4173   4.571   8.227   8.016 -0.5563 -0.2392 -1.0220
  385SOL     OW 4174   3.445   0.597   6.503  0.2111 -0.5556 -0.0627
  385SOL    HW1 4175   3.467   0.668   6.562 -0.9499 -0.6587  0.5127
  385SOL    HW2 4176   3.465   0.631   6.415 -0.6144  0.5948  0.1779
  386SOL     OW 4177   1.045   3.700   8.669 -0.3633 -0.3304 -0.3593
  386SOL    HW1 4178   1.007   3.783   8.640 -2.8625 -0.8044  1.4408
  386SOL    HW2 4179   1.088   3.721   8.753 -2.0051 -1.0780  0.6808
  387SOL     OW 4180   4.673   7.440   3.955 -0.3758  0.7730 -0.4626
  387SOL    HW1 4181   4.711   7.355   3.936  0.9999  0.6332  2.5521
  387SOL    HW2 4182   4.712   7.499   3.891  1.8806 -0.1294  0.0306
  388SOL     OW 4183   1.988   9.157   3.662  0.0883  0.1346 -0.1043
  388SOL    HW1 4184   2.049   9.155   3.737 -0.4471 -0.0794  0.3308
  388SOL    HW2 4185   1.928   9.084   3.679 -0.8238  0.8878 -0.0836
  389SOL     OW 4186   7.017   2.014   0.165 -0.6004 -0.1449  1.3450
  389SOL    HW1 4187   6.989   2.079   0.229 -1.3641  0.2670  0.5875
  389SOL    HW2 4188   6.971   1.934   0.190 -0.9409  0.0301  1.2818
  390SOL     OW 4189   1.421   8.450   6.377 -0.2718 -0.0475  0.2071
  390SOL    HW1 4190   1.342   8.460   6.324  0.2185 -0.1172 -0.5367
  390SOL    HW2 4191   1.389   8.441   6.467 -0.9930  3.8835  0.4310
  391SOL     OW 4192   1.647   1.004   3.736 -0.1909  0.2755  0.0977
  391SOL    HW1 4193   1.674   0.956   3.814  0.2445  0.1276 -0.1456
  391SOL    HW2 4194   1.696   0.963   3.664 -2.2057 -1.0311 -0.5759
  392SOL     OW 4195   7.603   8.150   2.853  0.6123  0.0702  0.0395
  392SOL    HW1 4196   7.692   8.164   2.884  1.2783 -0.7518 -1.4425
  392SOL    HW2 4197   7.609   8.072   2.797 -1.0443 -0.0375 -0.0211
  393SOL     OW 4198   3.510   2.526   3.772  0.0659 -0.6734 -0.2178
  393SOL    HW1 4199   3.455   2.454   3.802  0.7878 -1.2543 -0.2654
  393SOL    HW2 4200   3.533   2.574   3.852 -0.8422 -0.1831 -0.2461
  394SOL     OW 4201   4.249   5.434   0.594 -0.1660 -0.0018 -0.3235
  394SOL    HW1 4202   4.214   5.512   0.549  0.4331  0.0848 -0.6403
  394SOL    HW2 4203   4.298   5.470   0.668 -0.9796 -0.1366  0.2828
  395SOL     OW 4204   0.351   9.146   2.865 -0.4555 -0.0644 -0.1212
  395SOL    HW1 4205   0.334   9.206   2.793 -1.5398 -0.2342 -0.0147
  395SOL    HW2 4206   0.341   9.200   2.944 -1.6821 -0.4140 -0.0145
  396SOL     OW 4207   1.473   6.637   6.620  0.0323 -0.1258  0.4416
  396SOL    HW1 4208   1.429   6.675   6.543 -0.7677 -1.2249  0.3439
  396SOL    HW2 4209   1.564   6.665   6.611 -0.1708  0.2387 -0.6019
  397SOL     OW 4210   0.156   7.267   0.773 -0.2014  0.2408  0.2239
  397SOL    HW1 4211   0.168   7.175   0.749 -1.1818 -0.0258  0.7442
  397SOL    HW2 4212   0.223   7.314   0.723 -0.9052 -0.5419 -1.4904
  398SOL     OW 4213   1.000   2.350   4.589 -0.0082 -0.0934 -0.9438
  398SOL    HW1 4214   1.060   2.291   4.542  0.7111 -1.5927  1.7337
  398SOL    HW2 4215   1.054   2.425   4.613 -0.2639  0.4708 -2.1466
  399SOL     OW 4216   2.596   5.843   9.168  0.5904  0.3575  0.1995
  399SOL    HW1 4217   2.661   5.878   9.229  0.8779 -0.7191  0.5121
  399SOL    HW2 4218   2.631   5.758   9.141  0.2370  0.6099 -1.1049
  400SOL     OW 4219   7.932   9.116   2.791 -0.0155 -0.3023  0.2693
  400SOL    HW1 4220   7.981   9.037   2.815  0.4935 -0.3184 -0.7784
  400SOL    HW2 4221   7.852   9.083   2.751 -0.7035 -0.2755  1.6085
  401SOL     OW 4222   5.625   6.785   4.718  0.0131  0.0326 -0.2568
  401SOL    HW1 4223   5.658   6.743   4.797 -0.2049  0.4307  0.0472
  401SOL    HW2 4224   5.673   6.867   4.712  0.8558 -0.5049 -1.1667
  402SOL     OW 4225   2.989   6.476   2.407  0.3145 -0.1664  0.3537
  402SOL    HW1 4226   2.965   6.401   2.353  2.0570 -0.1946 -0.4081
  402SOL    HW2 4227   2.935   6.548   2.375 -0.6986 -0.8604  0.4738
  403SOL     OW 4228   5.447   3.279   4.372  0.4806 -0.3217  0.1259
  403SOL    HW1 4229   5.443   3.349   4.438  3.4198 -1.8612  2.0374
  403SOL    HW2 4230   5.425   3.199   4.420 -0.2113 -1.0856 -1.4366
  404SOL     OW 4231   2.817   4.259   4.498  0.3984  0.1437 -0.2411
  404SOL    HW1 4232   2.796   4.349   4.524 -0.9322 -0.7388  1.9646
  404SOL    HW2 4233   2.886   4.232   4.559  2.9291  0.5992 -2.7942
  405SOL     OW 4234   9.067   7.090   7.861 -0.2535  0.0047 -0.0340
  405SOL    HW1 4235   9.117   7.015   7.826  0.6850  0.5822  0.0531
  405SOL    HW2 4236   9.108   7.109   7.945 -0.0339  1.0712 -0.3789
  406SOL     OW 4237   9.363   6.174   4.927  0.0313 -0.6227 -0.2280
  406SOL    HW1 4238   9.295   6.109   4.943 -0.1758 -0.2082  0.5727
  406SOL    HW2 4239   9.316   6.250   4.894  0.4528 -1.4848 -2.9611
  407SOL     OW 4240   4.209   1.049   8.306  0.5001 -0.2770  0.1296
  407SOL    HW1 4241   4.242   1.058   8.217 -1.7875  0.1980 -0.7072
  407SOL    HW2 4242   4.218   1.137   8.344  0.9097 -0.3341  0.1656
  408SOL     OW 4243   3.388   2.676   2.197 -0.4013  0.0155 -0.3164
  408SOL    HW1 4244   3.480   2.695   2.218 -0.3420  0.8888 -1.3034
  408SOL    HW2 4245   3.393   2.624   2.116 -0.7277 -1.1099  0.3727
  409SOL     OW 4246   0.084   4.983   0.145  0.2371  0.0748 -0.4809
  409SOL    HW1 4247   0.008   4.988   0.088  0.0488 -0.4055 -0.2771
  409SOL    HW2 4248   0.075   5.057   0.205 -0.6732 -0.6538  0.2830
  410SOL     OW 4249   4.671   8.069   1.679  0.4092 -0.6006 -0.1604
  410SOL    HW1 4250   4.639   7.993   1.727 -1.6387  0.6672  0.5597
  410SOL    HW2 4251   4.729   8.114   1.740  0.5124 -0.8245 -0.0925
  411SOL     OW 4252   3.299   7.345   6.090 -0.4634  0.4156  0.1254
  411SOL    HW1 4253   3.315   7.263   6.136 -0.7855  1.6658  2.5280
  411SOL    HW2 4254   3.363   7.406   6.126  0.4807  0.9560 -2.4074
  412SOL     OW 4255   3.266   1.166   4.267 -0.1542 -0.0850 -0.3058
  412SOL    HW1 4256   3.206   1.238   4.251 -0.9980 -0.6570  0.2466
  412SOL    HW2 4257   3.282   1.168   4.361 -0.1284 -0.5786 -0.2986
  413SOL     OW 4258   7.372   6.547   0.189  0.3039 -0.3423 -0.0894
  413SOL    HW1 4259   7.431   6.603   0.240  1.6995 -2.2345  0.4356
  413SOL    HW2 4260   7.330   6.491   0.254 -1.0408  0.0451 -0.6111
  414SOL     OW 4261   3.575   1.897   0.514  0.0894  0.0330  0.0408
  414SOL    HW1 4262   3.517   1.844   0.459  0.2261  0.0568 -0.1281
  414SOL    HW2 4263   3.569   1.985   0.477 -2.4501  0.8124  2.1434
  415SOL     OW 4264   5.687   8.519   2.152  0.4250  0.4986 -0.0124
  415SOL    HW1 4265   5.777   8.532   2.181  0.8259  2.2152 -1.8864
  415SOL    HW2 4266   5.685   8.554   2.063 -1.7332 -0.8846 -0.5474
  416SOL     OW 4267   4.364   6.363   2.131 -0.1624 -0.2577  0.3128
  416SOL    HW1 4268   4.424   6.329   2.064  0.6335 -1.3910  1.5777
  416SOL    HW2 4269   4.376   6.458   2.127  0.2840 -0.3497 -0.7734
  417SOL     OW 4270   0.307   4.450   8.090  0.0305  0.3296 -0.1330
  417SOL    HW1 4271   0.368   4.456   8.016  2.0940 -1.0315  1.4002
  417SOL    HW2 4272   0.243   4.385   8.063  1.2996 -0.8399 -0.3832
  418SOL     OW 4273   1.094   8.188   0.611  0.1491 -1.0895  0.3319
  418SOL    HW1 4274   1.179   8.218   0.579  0.3415 -1.8176  0.1384
  418SOL    HW2 4275   1.062   8.130   0.542 -0.3196 -1.1422  0.5893
  419SOL     OW 4276   1.542   9.324   5.522  0.2368 -0.0167  0.6749
  419SOL    HW1 4277   1.632   9.292   5.518 -0.3145 -1.7150  1.1872
  419SOL    HW2 4278   1.538   9.372   5.605  0.3026 -1.2056  1.3894
  420SOL     OW 4279   8.369   2.312   5.468  0.3316 -0.0385 -0.7960
  420SOL    HW1 4280   8.372   2.270   5.554 -1.7652 -0.5204 -0.9183
  420SOL    HW2 4281   8.460   2.322   5.442  1.0278  0.8217  1.8337
  421SOL     OW 4282   2.445   6.203   4.155 -0.0513  0.2100 -0.0883
  421SOL    HW1 4283   2.526   6.204   4.104  0.3830 -1.3834  0.5311
  421SOL    HW2 4284   2.473   6.215   4.245 -0.5362  0.0549  0.0840
  422SOL     OW 4285   5.373   5.203   6.891 -0.2690 -0.5061 -0.4205
  422SOL    HW1 4286   5.337   5.116   6.875  0.0739 -0.5211 -1.1356
  422SOL    HW2 4287   5.452   5.187   6.944 -1.6311 -0.4229  1.7098
  423SOL     OW 4288   1.376   2.785   6.085 -0.0953  0.7045 -0.0356
  423SOL    HW1 4289   1.453   2.752   6.133 -0.8325 -3.2102 -1.3420
  423SOL    HW2 4290   1.405   2.788   5.994 -1.3514 -0.4275 -0.4848
  424SOL     OW 4291   5.241   8.914   6.584 -0.0677  0.1945 -0.5729
  424SOL    HW1 4292   5.290   8.932   6.665  1.2132 -2.2973 -0.7452
  424SOL    HW2 4293   5.308   8.913   6.515 -1.0830  1.7925 -1.6043
  425SOL     OW 4294   3.338   5.489   6.106  0.4600 -0.2761  0.5853
  425SOL    HW1 4295   3.387   5.466   6.027 -0.1904  0.7376 -0.1254
  425SOL    HW2 4296   3.385   5.564   6.143  0.4053 -0.3557  0.8168
  426SOL     OW 4297   7.824   8.654   2.287 -0.0603 -0.4024  0.4327
  426SOL    HW1 4298   7.786   8.617   2.207  0.8457 -1.4317  0.4710
  426SOL    HW2 4299   7.912   8.681   2.262 -0.0217 -0.0801  0.9120
  427SOL     OW 4300   7.636   7.846   1.860 -0.3169  0.5018 -0.1155
  427SOL    HW1 4301   7.608   7.892   1.939 -0.6176 -0.9197  0.6243
  427SOL    HW2 4302   7.730   7.832   1.872 -0.6553 -1.1525  0.7626
  428SOL     OW 4303   0.229   8.378   9.004 -0.1620 -0.4622  0.1597
  428SOL    HW1 4304   0.138   8.351   8.993 -1.3944  2.4329  2.4372
  428SOL    HW2 4305   0.240   8.386   9.099  1.4001  2.4304 -0.2004
  429SOL     OW 4306   0.204   0.361   2.122  0.1300  0.1827  0.4839
  429SOL    HW1 4307   0.288   0.386   2.083  0.0655 -0.9482 -0.3835
  429SOL    HW2 4308   0.208   0.266   2.130 -0.3431  0.2812  2.1366
  430SOL     OW 4309   2.066   7.340   8.984  0.3441 -0.7860  0.3093
  430SOL    HW1 4310   2.122   7.398   9.035  0.5714  0.2372 -1.0534
  430SOL    HW2 4311   2.012   7.400   8.932  0.1461 -1.7969 -0.6585
  431SOL     OW 4312   4.191   7.016   5.069  0.6844  0.2408  0.0255
  431SOL    HW1 4313   4.151   6.949   5.014  0.8466 -0.8045  1.1472
  431SOL    HW2 4314   4.148   7.006   5.154  1.9969  0.3233  0.7187
  432SOL     OW 4315   6.042   3.506   0.268  0.5988  0.0949  0.0234
  432SOL    HW1 4316   5.987   3.473   0.338 -0.1884  1.1819 -0.0704
  432SOL    HW2 4317   5.987   3.568   0.221  1.3972  0.0219 -1.0308
  433SOL     OW 4318   8.148   7.876   3.573  0.7016 -0.2720  0.2750
  433SOL    HW1 4319   8.075   7.814   3.583 -0.6408  1.1555 -0.4280
  433SOL    HW2 4320   8.190   7.877   3.659  0.1078 -1.3600  0.5953
  434SOL     OW 4321   8.935   5.714   4.237 -0.0453  0.1892  0.2317
  434SOL    HW1 4322   8.990   5.636   4.225  2.1471  1.5009  1.4138
  434SOL    HW2 4323   8.913   5.743   4.149  1.0540 -0.4347 -0.2450
  435SOL     OW 4324   3.394   4.701   5.278 -0.1006  0.5921 -0.2190
  435SOL    HW1 4325   3.480   4.664   5.298 -0.6387 -0.4644  0.2058
  435SOL    HW2 4326   3.374   4.756   5.353 -1.6278 -2.4972  1.7614
  436SOL     OW 4327   4.288   3.197   7.988  0.2337 -0.0280 -0.0368
  436SOL    HW1 4328   4.250   3.177   7.903  0.9832  1.2799 -0.7033
  436SOL    HW2 4329   4.372   3.237   7.967  1.1552 -1.1856  1.3611
  437SOL     OW 4330   7.573   4.249   2.768 -0.0178  0.0583 -0.5618
  437SOL    HW1 4331   7.655   4.299   2.769 -0.5930  0.9897  0.1393
  437SOL    HW2 4332   7.595   4.167   2.814  0.6603  0.0654 -0.8632
  438SOL     OW 4333   1.601   8.314   8.822 -0.0348  0.4541 -0.7205
  438SOL    HW1 4334   1.673   8.258   8.851  0.5059  1.5510  0.1033
  438SOL    HW2 4335   1.530   8.254   8.803  0.7664 -0.5660 -0.5273
  439SOL     OW 4336   5.794   6.023   6.807  0.5216 -0.3642  0.2927
  439SOL    HW1 4337   5.818   6.021   6.900  0.2845 -1.3685  0.3402
  439SOL    HW2 4338   5.873   5.995   6.761  0.4457 -0.4696  0.2266
  440SOL     OW 4339   0.893   7.857   3.941  0.2733 -0.2029 -0.1126
  440SOL    HW1 4340   0.959   7.861   4.011 -1.4382 -0.6484  1.5808
  440SOL    HW2 4341   0.883   7.764   3.923 -1.5530 -0.3035  1.2933
  441SOL     OW 4342   1.063   2.929   9.405 -0.0167  0.2511  0.2198
  441SOL    HW1 4343   1.048   3.023   9.393  3.0576  0.6123 -1.1814
  441SOL    HW2 4344   1.158   2.919   9.402 -0.3035 -2.9566  0.1492
  442SOL     OW 4345   4.896   1.051   0.604  0.3681 -0.0285 -0.6795
  442SOL    HW1 4346   4.824   0.994   0.631 -0.8835  1.9162  0.1342
  442SOL    HW2 4347   4.872   1.081   0.517  0.3227  0.4193 -0.5120
  443SOL     OW 4348   2.041   4.365   9.394  0.1667 -0.2572  0.8761
  443SOL    HW1 4349   2.100   4.441   9.388  0.4013 -0.4712  0.3877
  443SOL    HW2 4350   2.048   4.324   9.308 -2.0987  0.7396  0.2008
  444SOL     OW 4351   3.117   2.292   4.677 -0.5773  0.6166 -0.1849
  444SOL    HW1 4352   3.093   2.202   4.698  0.3520  0.5571  0.6806
  444SOL    HW2 4353   3.190   2.311   4.736 -0.0298  1.5519 -1.1595
  445SOL     OW 4354   6.011   7.803   6.619  0.0349 -0.2294  0.0882
  445SOL    HW1 4355   5.922   7.780   6.591  0.0750  0.6662 -0.8091
  445SOL    HW2 4356   6.001   7.890   6.658  0.3674 -0.5226  0.8314
  446SOL     OW 4357   0.063   0.159   7.729  0.2002  0.0943  0.3168
  446SOL    HW1 4358   0.069   0.232   7.790 -1.5814  0.7901 -0.3038
  446SOL    HW2 4359   0.137   0.102   7.752  1.6438  2.1022  0.7673
  447SOL     OW 4360   8.955   0.886   4.951  0.4109 -0.4418 -0.5480
  447SOL    HW1 4361   8.976   0.970   4.991 -3.2960  2.5681 -4.4273
  447SOL    HW2 4362   8.898   0.842   5.015  1.6299  0.3433  1.1102
  448SOL     OW 4363   6.899   5.178   2.939 -0.0172 -0.4885 -0.2188
  448SOL    HW1 4364   6.818   5.132   2.919  0.3735 -1.2170 -0.1621
  448SOL    HW2 4365   6.945   5.183   2.855 -0.3303  0.3468 -0.3443
  449SOL     OW 4366   3.946   6.437   6.894  0.1007  0.8052 -0.1342
  449SOL    HW1 4367   3.941   6.357   6.946  2.0392  0.0837 -1.0242
  449SOL    HW2 4368   3.885   6.422   6.821 -0.7221  0.7908  0.5503
  450SOL     OW 4369   1.348   4.475   6.442 -0.1440  0.4182 -1.0922
  450SOL    HW1 4370   1.339   4.391   6.486 -1.0711  0.3326 -1.4383
  450SOL    HW2 4371   1.419   4.461   6.380 -1.1429 -0.5154 -2.0588
  451SOL     OW 4372   7.426   4.519   7.253  0.1034  0.1496 -0.0997
  451SOL    HW1 4373   7.511   4.516   7.208 -1.1979  1.9718 -2.8295
  451SOL    HW2 4374   7.373   4.453   7.209 -0.5747  0.5989  0.0376
  452SOL     OW 4375   1.193   5.638   4.706  0.1755  0.6985  0.4216
  452SOL    HW1 4376   1.240   5.615   4.625  0.1783  0.9976  0.3344
  452SOL    HW2 4377   1.102   5.615   4.688 -0.0197  1.8411 -0.1024
  453SOL     OW 4378   0.111   2.316   4.545 -0.1670  0.3937  0.4425
  453SOL    HW1 4379   0.044   2.281   4.486 -0.2248  1.9069 -0.4425
  453SOL    HW2 4380   0.077   2.402   4.571  0.4615  0.2851  1.6741
  454SOL     OW 4381   5.822   0.500   8.458 -0.0155 -0.1622  0.2214
  454SOL    HW1 4382   5.751   0.525   8.517  0.3363  0.4955  0.3675
  454SOL    HW2 4383   5.798   0.412   8.428 -0.1278 -0.5721  1.4619
  455SOL     OW 4384   3.594   3.683   2.246  0.0471  0.3293  0.4022
  455SOL    HW1 4385   3.617   3.679   2.338 -0.1125  0.8082  0.4642
  455SOL    HW2 4386   3.503   3.713   2.244 -1.0596 -2.8047  0.2067
  456SOL     OW 4387   4.608   1.483   6.104 -0.5446 -0.0595  0.0175
  456SOL    HW1 4388   4.612   1.508   6.197  0.6728 -2.9067  0.8029
  456SOL    HW2 4389   4.687   1.522   6.066  1.0000 -2.0194  1.0784
  457SOL     OW 4390   5.377   1.239   7.979  0.0343 -0.4756 -0.4989
  457SOL    HW1 4391   5.391   1.217   8.071  0.6382 -1.1156 -0.7359
  457SOL    HW2 4392   5.326   1.320   7.981 -0.5770 -0.8752  0.3994
  458SOL     OW 4393   0.129   9.188   3.620  0.8165 -0.0172  0.3027
  458SOL    HW1 4394   0.127   9.092   3.614  4.3919 -0.0978 -0.5936
  458SOL    HW2 4395   0.120   9.218   3.529 -1.6478  0.5978  0.7063
  459SOL     OW 4396   7.376   7.301   2.495 -0.4702 -0.0097  0.0410
  459SOL    HW1 4397   7.368   7.244   2.418 -2.5179 -0.4718  0.5801
  459SOL    HW2 4398   7.349   7.245   2.569 -1.3333  1.2947  0.7282
  460SOL     OW 4399   1.189   1.557   6.864 -0.0543 -0.2883  0.3881
  460SOL    HW1 4400   1.116   1.557   6.926 -0.1646 -0.7896  0.2597
  460SOL    HW2 4401   1.162   1.618   6.796 -1.6803 -2.6779 -1.1953
  461SOL     OW 4402   1.063   4.767   4.741  0.7016  0.4787  0.5836
  461SOL    HW1 4403   1.157   4.783   4.750  0.6238  1.7617 -0.6965
  461SOL    HW2 4404   1.040   4.806   4.656 -0.8124 -0.6129  0.4756
  462SOL     OW 4405   6.266   1.644   9.217  0.0395 -0.5448  0.2272
  462SOL    HW1 4406   6.310   1.658   9.301  1.1616  0.0399 -0.4497
  462SOL    HW2 4407   6.287   1.722   9.166 -0.2232 -1.1234 -0.7753
  463SOL     OW 4408   8.347   5.211   6.583  0.1216 -0.4943 -0.0297
  463SOL    HW1 4409   8.331   5.305   6.571 -0.6900 -0.5580  0.4608
  463SOL    HW2 4410   8.391   5.205   6.667  1.7112 -0.4211 -0.8381
  464SOL     OW 4411   2.170   5.552   8.553  0.0634 -0.0609 -0.3821
  464SOL    HW1 4412   2.236   5.621   8.547 -1.8278  1.7418 -1.0909
  464SOL    HW2 4413   2.168   5.514   8.466  1.0372 -0.9873 -0.0171
  465SOL     OW 4414   8.719   3.341   4.523 -0.0410  0.3350  0.4261
  465SOL    HW1 4415   8.719   3.280   4.449 -1.8012  1.1722 -0.3145
  465SOL    HW2 4416   8.802   3.388   4.515  0.1795 -0.1985 -0.5175
  466SOL     OW 4417   6.070   7.187   1.088 -0.3469  0.2345 -0.1730
  466SOL    HW1 4418   6.056   7.123   1.158  1.4123 -0.1927 -0.1946
  466SOL    HW2 4419   6.088   7.269   1.133 -0.1702  0.1660 -0.1156
  467SOL     OW 4420   0.104   6.473   5.864 -0.5027  0.3345  0.5558
  467SOL    HW1 4421   0.137   6.386   5.840  0.2280  0.4966  0.9604
  467SOL    HW2 4422   0.083   6.515   5.781  2.0747  0.9173  0.1683
  468SOL     OW 4423   5.083   3.968   0.209 -0.1743 -0.5352  0.2549
  468SOL    HW1 4424   5.090   3.941   0.300 -0.9998  0.1179  0.5142
  468SOL    HW2 4425   5.065   3.887   0.161  2.1116 -1.1730  0.4251
  469SOL     OW 4426   1.731   4.937   5.302  0.1440  0.0886 -0.1017
  469SOL    HW1 4427   1.729   4.876   5.376 -0.2841  0.1079 -0.0976
  469SOL    HW2 4428   1.749   4.882   5.226 -0.8135 -0.1173 -0.1783
  470SOL     OW 4429   4.113   8.090   6.882  0.7346  0.1087 -0.0261
  470SOL    HW1 4430   4.180   8.144   6.923 -0.2952  0.7630  0.8447
  470SOL    HW2 4431   4.050   8.153   6.846  0.0889 -0.4902  0.0278
  471SOL     OW 4432   8.223   4.057   0.179 -0.0202  0.0110 -0.0891
  471SOL    HW1 4433   8.227   4.000   0.102 -0.2498 -0.5600  0.3128
  471SOL    HW2 4434   8.192   4.000   0.249 -0.6125  0.7279  0.2398
  472SOL     OW 4435   9.142   4.901   8.742  0.0613  0.1955 -0.1142
  472SOL    HW1 4436   9.203   4.974   8.753  1.1011 -1.0815  3.1321
  472SOL    HW2 4437   9.060   4.943   8.715  1.0295  2.4259  0.2421
  473SOL     OW 4438   0.223   2.386   1.901 -0.0364 -0.1699  0.1599
  473SOL    HW1 4439   0.159   2.319   1.878  0.9883 -1.2179  0.3087
  473SOL    HW2 4440   0.299   2.337   1.932  1.1167  1.0184 -0.7262
  474SOL     OW 4441   2.174   3.640   1.068  0.2208 -0.2327 -0.9351
  474SOL    HW1 4442   2.141   3.617   0.981 -0.3371 -2.9307 -0.0376
  474SOL    HW2 4443   2.101   3.688   1.109 -0.6089 -1.4802 -0.9210
  475SOL     OW 4444   3.341   1.412   7.416  0.1490 -0.3445  0.1922
  475SOL    HW1 4445   3.302   1.469   7.350 -0.5701 -0.3928  0.5713
  475SOL    HW2 4446   3.376   1.471   7.482  1.7680 -0.2559 -0.7101
  476SOL     OW 4447   8.118   5.172   7.314  0.9769 -0.1486 -0.2253
  476SOL    HW1 4448   8.194   5.159   7.372  0.7971 -0.9303 -0.1503
  476SOL    HW2 4449   8.126   5.102   7.249  0.3491 -0.2022 -0.2467
  477SOL     OW 4450   0.247   0.028   2.298  0.7059  0.3048  0.0802
  477SOL    HW1 4451   0.277   0.111   2.336  0.4565 -0.5600  2.2388
  477SOL    HW2 4452   0.168   0.006   2.348  0.3478 -0.8583 -0.9753
  478SOL     OW 4453   6.519   6.921   4.750  0.0253 -0.5893  0.1902
  478SOL    HW1 4454   6.544   6.959   4.665 -0.9252  0.6216  0.4295
  478SOL    HW2 4455   6.427   6.896   4.739 -0.4758  0.7038  1.2191
  479SOL     OW 4456   0.935   1.810   7.677  0.3052  0.2329  0.3490
  479SOL    HW1 4457   0.936   1.755   7.755 -0.3895  0.8759  0.8129
  479SOL    HW2 4458   1.025   1.807   7.644  0.0998 -1.7687 -0.0494
  480SOL     OW 4459   6.514   5.466   2.625 -0.4812 -0.0377  0.5693
  480SOL    HW1 4460   6.418   5.476   2.624 -0.4256  0.3762 -0.3505
  480SOL    HW2 4461   6.544   5.514   2.549  0.6649  1.8605  2.1663
  481SOL     OW 4462   8.762   7.494   1.871  0.0209 -0.1312  0.4457
  481SOL    HW1 4463   8.852   7.486   1.841  0.2886  0.6634  1.0065
  481SOL    HW2 4464   8.709   7.483   1.792  0.6990  1.5829 -0.2839
  482SOL     OW 4465   7.097   3.697   7.405 -0.0335  0.0393  0.0507
  482SOL    HW1 4466   7.084   3.698   7.500 -1.0477  2.6915 -0.0741
  482SOL    HW2 4467   7.189   3.673   7.393 -0.1030 -1.1107  1.6418
  483SOL     OW 4468   0.787   0.159   0.305 -0.1470  0.2214 -0.1333
  483SOL    HW1 4469   0.797   0.087   0.243 -2.1271 -0.4517  0.2866
  483SOL    HW2 4470   0.864   0.214   0.290  0.1995 -0.7374 -2.0856
  484SOL     OW 4471   7.245   5.172   5.915  0.3338  0.5926 -0.4915
  484SOL    HW1 4472   7.243   5.082   5.883 -2.0174  0.7767 -0.9801
  484SOL    HW2 4473   7.292   5.167   5.998 -1.6007 -1.4661  0.5220
  485SOL     OW 4474   5.346   3.564   3.436 -0.5341 -0.1756 -0.5498
  485SOL    HW1 4475   5.409   3.530   3.500 -0.4090  0.8324 -0.1330
  485SOL    HW2 4476   5.285   3.617   3.487 -0.4308  0.6391 -1.2622
  486SOL     OW 4477   5.484   3.137   1.717 -0.4939  0.1084 -0.1700
  486SOL    HW1 4478   5.504   3.045   1.736  0.0734  0.0978 -0.7890
  486SOL    HW2 4479   5.422   3.163   1.785  0.3159 -0.3649  0.7606
  487SOL     OW 4480   0.368   5.895   0.440  0.2029  0.0976 -0.2391
  487SOL    HW1 4481   0.427   5.821   0.430 -0.5141 -0.4826 -0.1978
  487SOL    HW2 4482   0.300   5.881   0.374  1.0501  1.6872 -1.4938
  488SOL     OW 4483   1.181   3.232   8.419 -0.4268 -0.0712  0.2639
  488SOL    HW1 4484   1.211   3.259   8.506  0.4895  1.3934 -0.4679
  488SOL    HW2 4485   1.184   3.136   8.421 -1.2045 -0.0899  2.0943
  489SOL     OW 4486   5.602   6.674   2.280  0.2025  0.6853  0.1170
  489SOL    HW1 4487   5.534   6.649   2.342  0.1309 -2.7561 -1.2604
  489SOL    HW2 4488   5.575   6.636   2.197  2.7181  1.1090 -0.9550
  490SOL     OW 4489   4.644   1.576   3.770  0.5822  0.4002 -0.1646
  490SOL    HW1 4490   4.725   1.598   3.816  1.6269 -0.6857 -1.4464
  490SOL    HW2 4491   4.623   1.487   3.800  0.5478  0.1995 -0.7795
  491SOL     OW 4492   6.746   7.073   5.689 -0.0140 -0.1086 -0.1727
  491SOL    HW1 4493   6.696   7.148   5.655 -0.1247  0.4522  1.2065
  491SOL    HW2 4494   6.826   7.073   5.636 -0.6719  0.0681 -1.1935
  492SOL     OW 4495   3.927   8.214   7.472 -0.6012 -0.3867 -0.0565
  492SOL    HW1 4496   3.841   8.200   7.512 -0.3763  0.3516  0.6868
  492SOL    HW2 4497   3.990   8.191   7.541 -0.2095 -0.1371 -0.3286
  493SOL     OW 4498   9.012   2.676   1.462  0.7507 -0.3413 -0.4245
  493SOL    HW1 4499   9.055   2.591   1.455 -1.0066 -1.0517 -3.5357
  493SOL    HW2 4500   9.067   2.735   1.411  1.3827  0.1989  0.8404
  494SOL     OW 4501   7.698   6.503   1.208  0.0900  0.1999 -0.4383
  494SOL    HW1 4502   7.692   6.493   1.113  0.1748  0.6771 -0.4951
  494SOL    HW2 4503   7.792   6.497   1.227  0.0925  0.3477 -0.4091
  495SOL     OW 4504   2.761   5.123   7.152 -0.7985  0.3447 -0.6667
  495SOL    HW1 4505   2.744   5.083   7.067  1.3036 -0.7532 -0.6232
  495SOL    HW2 4506   2.696   5.085   7.211 -0.3507 -1.1841 -1.1558
  496SOL     OW 4507   8.017   5.476   2.275 -0.2205  0.3447 -0.2866
  496SOL    HW1 4508   8.073   5.496   2.351  0.3147  0.1725 -0.6298
  496SOL    HW2 4509   8.076   5.484   2.200  0.1615 -2.9298 -0.4275
  497SOL     OW 4510   6.133   6.984   2.228  0.3150  0.1273 -0.0402
  497SOL    HW1 4511   6.072   7.040   2.278  0.3288  0.1676 -0.0691
  497SOL    HW2 4512   6.121   7.011   2.137  0.5240  0.2746 -0.0246
  498SOL     OW 4513   8.944   7.832   8.480 -0.0654 -0.2911  0.7255
  498SOL    HW1 4514   8.980   7.898   8.422 -1.6187 -0.9606 -1.0455
  498SOL    HW2 4515   8.865   7.872   8.517  0.0043 -0.4868  1.0993
  499SOL     OW 4516   3.908   6.575   5.068  0.1561  0.7451 -0.0611
  499SOL    HW1 4517   3.864   6.572   5.153 -0.9556  0.6510 -0.6321
  499SOL    HW2 4518   3.905   6.667   5.042 -2.6691  0.2889 -1.6018
  500SOL     OW 4519   3.410   7.822   6.033  0.3676  0.3137 -0.0241
  500SOL    HW1 4520   3.428   7.841   6.125  0.3024  0.0744  0.0378
  500SOL    HW2 4521   3.324   7.860   6.017 -0.4365 -1.2370  0.5025
  501SOL     OW 4522   1.685   1.851   4.127 -0.1627  0.1606 -0.0626
  501SOL    HW1 4523   1.726   1.803   4.055 -1.1694  1.0811 -1.2711
  501SOL    HW2 4524   1.597   1.814   4.133 -0.6825  1.3091 -0.4839
  502SOL     OW 4525   5.723   5.743   7.205 -0.0800 -0.6831 -0.0123
  502SOL    HW1 4526   5.650   5.691   7.172 -0.4820 -1.5056  2.0475
  502SOL    HW2 4527   5.801   5.701   7.169 -0.5073 -1.5728  0.0809
  503SOL     OW 4528   8.351   7.087   0.955 -0.6383  0.0696 -0.0682
  503SOL    HW1 4529   8.345   6.992   0.948  0.5627  0.0050 -0.3312
  503SOL    HW2 4530   8.295   7.109   1.030  0.7219 -1.0670  1.3408
  504SOL     OW 4531   0.269   6.090   2.205 -0.9260  0.2054 -0.2149
  504SOL    HW1 4532   0.293   6.041   2.284 -3.1384 -1.2401 -0.4025
  504SOL    HW2 4533   0.229   6.170   2.239 -1.5132 -0.2322  0.1510
  505SOL     OW 4534   2.835   0.018   7.839 -0.4099 -0.2861  0.2490
  505SOL    HW1 4535   2.802   0.079   7.904 -0.0662 -2.4455  2.5381
  505SOL    HW2 4536   2.925   0.001   7.866  0.6152  0.7561 -2.3203
  506SOL     OW 4537   2.234   0.073   9.340  0.3148 -0.1682 -0.2283
  506SOL    HW1 4538   2.182   0.041   9.413  0.8719  0.8156  0.6118
  506SOL    HW2 4539   2.169   0.102   9.275 -0.1831 -2.2791 -0.7019
  507SOL     OW 4540   7.653   0.725   7.568 -0.7998  0.2692 -0.0630
  507SOL    HW1 4541   7.592   0.739   7.641 -1.4383 -2.4296 -0.0455
  507SOL    HW2 4542   7.599   0.694   7.496  0.4077 -1.2532 -0.3427
  508SOL     OW 4543   1.687   2.969   3.914  0.1456  0.3255  0.0450
  508SOL    HW1 4544   1.667   2.987   3.823  0.4945  0.4575 -0.0055
  508SOL    HW2 4545   1.716   3.053   3.950  0.5611  0.1505  0.1289
  509SOL     OW 4546   6.672   3.201   7.298  0.3923 -0.5122  0.4323
  509SOL    HW1 4547   6.647   3.112   7.275  3.7930 -1.4636  0.1132
  509SOL    HW2 4548   6.653   3.253   7.220  1.1335 -1.5519 -0.4600
  510SOL     OW 4549   6.659   3.516   4.875  0.3189  0.3354  0.0839
  510SOL    HW1 4550   6.671   3.438   4.822 -0.7945  1.5525 -2.0305
  510SOL    HW2 4551   6.571   3.506   4.912 -0.6069  1.4376 -1.7354
  511SOL     OW 4552   7.769   3.938   3.474 -0.0482 -0.1270 -0.1777
  511SOL    HW1 4553   7.729   3.851   3.480 -0.3584 -0.1296 -2.0154
  511SOL    HW2 4554   7.714   3.993   3.530 -0.1151 -1.0076  0.6403
  512SOL     OW 4555   0.242   2.576   5.167 -0.2236  0.3753 -0.1790
  512SOL    HW1 4556   0.273   2.497   5.123  0.9403 -0.1411  1.4990
  512SOL    HW2 4557   0.269   2.647   5.109 -1.0653 -0.4364 -1.5819
  513SOL     OW 4558   1.426   7.241   1.358 -0.0087 -0.5819 -0.1717
  513SOL    HW1 4559   1.477   7.240   1.439  0.3232  1.5072 -0.3171
  513SOL    HW2 4560   1.352   7.299   1.377 -0.4019 -0.7697 -1.0843
  514SOL     OW 4561   7.017   3.305   6.811 -0.5299  0.2617  0.6456
  514SOL    HW1 4562   7.038   3.359   6.887  0.4261  1.8908 -0.7333
  514SOL    HW2 4563   7.091   3.319   6.751  0.4670 -3.6956  0.8161
  515SOL     OW 4564   4.377   2.522   5.284 -0.5657 -0.1063 -0.7726
  515SOL    HW1 4565   4.312   2.510   5.215 -3.0444 -0.1382  1.4529
  515SOL    HW2 4566   4.324   2.533   5.364  2.1825  0.2568  1.0488
  516SOL     OW 4567   1.549   0.898   5.442 -0.0152  0.7840  0.3648
  516SOL    HW1 4568   1.615   0.920   5.377  0.9052 -1.1943  0.6084
  516SOL    HW2 4569   1.532   0.804   5.430 -1.3532  0.8315  1.5890
  517SOL     OW 4570   8.607   0.445   3.041 -0.4435 -0.0904 -0.1040
  517SOL    HW1 4571   8.535   0.411   3.093 -0.6642  0.4048 -0.0847
  517SOL    HW2 4572   8.569   0.459   2.954  0.0055 -1.2350 -0.4947
  518SOL     OW 4573   9.267   0.400   4.603  0.1322  0.0883 -0.1127
  518SOL    HW1 4574   9.240   0.463   4.670 -0.1573  0.3327 -0.4559
  518SOL    HW2 4575   9.342   0.355   4.641  0.6473  0.9739 -0.0595
  519SOL     OW 4576   5.231   1.579   7.344 -0.0042 -0.3021  0.6341
  519SOL    HW1 4577   5.154   1.544   7.389  0.6783 -1.7288  0.7232
  519SOL    HW2 4578   5.304   1.528   7.380  0.6698 -0.7873 -1.3603
  520SOL     OW 4579   3.199   6.113   4.013 -0.0449  0.5860  0.2506
  520SOL    HW1 4580   3.166   6.195   4.050 -1.0849  0.1368  0.3386
  520SOL    HW2 4581   3.137   6.092   3.944 -0.0767 -0.3918  0.5740
  521SOL     OW 4582   2.849   8.919   7.429  0.0021  0.3458 -0.6951
  521SOL    HW1 4583   2.922   8.971   7.463  1.2092 -2.1989  0.7764
  521SOL    HW2 4584   2.817   8.870   7.506 -2.1233  0.1277 -1.6885
  522SOL     OW 4585   0.912   3.872   9.304 -0.5248 -0.3080  0.8390
  522SOL    HW1 4586   0.881   3.876   9.394 -1.2031 -1.0401  0.6410
  522SOL    HW2 4587   0.982   3.806   9.306  1.4445  1.7432  1.3993
  523SOL     OW 4588   2.435   1.096   2.335 -0.5760  0.3045  0.6617
  523SOL    HW1 4589   2.482   1.026   2.290  0.6052  1.1962  0.4705
  523SOL    HW2 4590   2.438   1.170   2.274  0.4673  1.3227  1.9054
  524SOL     OW 4591   1.566   9.101   7.194 -0.4617  0.2894 -0.1733
  524SOL    HW1 4592   1.619   9.156   7.252  1.0318 -0.5112 -0.7483
  524SOL    HW2 4593   1.537   9.030   7.251 -1.7367  1.2358  0.3766
  525SOL     OW 4594   2.877   5.265   9.131 -0.4376 -0.5192  0.0131
  525SOL    HW1 4595   2.927   5.230   9.058 -1.4799 -1.3477 -0.3213
  525SOL    HW2 4596   2.940   5.316   9.182 -0.0300  1.3605 -2.2909
  526SOL     OW 4597   7.737   2.266   4.595  0.0755  0.0195 -0.2209
  526SOL    HW1 4598   7.691   2.347   4.573  0.1847  0.3328  0.7076
  526SOL    HW2 4599   7.687   2.229   4.668  1.1614  0.2371  0.6387
  527SOL     OW 4600   2.668   8.149   4.519 -0.1649  0.1185  0.1072
  527SOL    HW1 4601   2.670   8.211   4.446  0.2046 -0.8289 -0.6881
  527SOL    HW2 4602   2.582   8.164   4.559  0.5415  2.2538  0.9052
  528SOL     OW 4603   7.265   1.482   9.326 -0.2265  0.9255 -0.3057
  528SOL    HW1 4604   7.203   1.465   9.254  0.9459 -2.1714 -0.6571
  528SOL    HW2 4605   7.350   1.490   9.282  0.3798 -0.2179  0.6380
  529SOL     OW 4606   2.010   8.522   0.536  0.1129 -0.3572 -0.5185
  529SOL    HW1 4607   1.991   8.429   0.542  0.0496 -0.2263  1.6722
  529SOL    HW2 4608   2.105   8.526   0.519  0.2927 -0.7905  0.3942
  530SOL     OW 4609   6.949   3.857   1.814 -0.3578  0.1420  0.2805
  530SOL    HW1 4610   6.931   3.951   1.826 -0.9790 -0.0331  0.7242
  530SOL    HW2 4611   7.044   3.853   1.802 -0.3893  0.8894 -0.3239
  531SOL     OW 4612   1.168   6.481   2.109  0.2496  0.2982  0.2243
  531SOL    HW1 4613   1.131   6.558   2.065  0.2282 -0.0695 -0.4000
  531SOL    HW2 4614   1.123   6.478   2.194 -0.3393  0.4990 -0.0811
  532SOL     OW 4615   0.199   6.390   7.589 -0.0402  0.6337 -0.4939
  532SOL    HW1 4616   0.225   6.478   7.560 -1.3072  0.6436 -1.6178
  532SOL    HW2 4617   0.170   6.402   7.679 -2.7411  1.8624 -1.4909
  533SOL     OW 4618   7.452   0.568   1.127 -0.4958 -0.6595  0.3933
  533SOL    HW1 4619   7.361   0.560   1.158 -0.3992  1.2748  1.2361
  533SOL    HW2 4620   7.488   0.641   1.177  0.7195  0.3346 -1.8645
  534SOL     OW 4621   8.246   7.853   6.389 -0.5521  0.1168  0.2299
  534SOL    HW1 4622   8.189   7.777   6.377  0.7753 -0.9294  0.5077
  534SOL    HW2 4623   8.315   7.841   6.324 -0.2871  1.0486  0.3377
  535SOL     OW 4624   3.646   1.507   1.345 -0.4221  0.2358  0.4208
  535SOL    HW1 4625   3.733   1.526   1.381 -0.5864  0.7945  0.5290
  535SOL    HW2 4626   3.663   1.469   1.259  0.0194 -1.9647  1.4288
  536SOL     OW 4627   3.148   2.940   7.342 -0.1283  0.0828  0.4239
  536SOL    HW1 4628   3.179   2.950   7.432 -0.6295 -0.0339  0.6120
  536SOL    HW2 4629   3.053   2.955   7.348 -0.1626  0.0595 -0.0810
  537SOL     OW 4630   7.842   4.311   0.360 -0.2715 -0.2753  0.6538
  537SOL    HW1 4631   7.933   4.314   0.333  0.3436  0.5742  2.7163
  537SOL    HW2 4632   7.844   4.332   0.454 -2.6363  0.3057  0.6054
  538SOL     OW 4633   3.000   8.765   4.222  0.0724  0.1862  0.1313
  538SOL    HW1 4634   3.042   8.812   4.150  0.7708 -0.0272  0.3970
  538SOL    HW2 4635   3.045   8.681   4.224  0.6543  0.5238  1.3766
  539SOL     OW 4636   3.694   9.338   3.758  0.4434  0.4466  0.8386
  539SOL    HW1 4637   3.710   9.321   3.666  0.5610  1.1712  0.7216
  539SOL    HW2 4638   3.728   9.261   3.804  2.1814  0.9449  0.4273
  540SOL     OW 4639   0.186   1.005   2.956 -0.3451 -0.3105 -0.3763
  540SOL    HW1 4640   0.247   0.943   2.918  0.2841  0.3931 -0.5138
  540SOL    HW2 4641   0.188   0.985   3.050 -0.5800 -0.8755 -0.4870
  541SOL     OW 4642   0.282   8.464   3.306  0.6801  0.0599 -0.0258
  541SOL    HW1 4643   0.261   8.446   3.398  1.6862  0.0802  0.2211
  541SOL    HW2 4644   0.378   8.474   3.306  0.8263 -1.3001 -1.3154
  542SOL     OW 4645   6.326   3.502   5.417 -0.2499  0.1331 -0.9085
  542SOL    HW1 4646   6.329   3.566   5.488 -2.5780  0.6285 -1.2166
  542SOL    HW2 4647   6.404   3.520   5.365  0.6043  0.8443  0.5744
  543SOL     OW 4648   3.021   3.447   5.774 -0.2314 -0.0071 -0.3870
  543SOL    HW1 4649   2.981   3.361   5.765 -1.9449  0.6983  0.3018
  543SOL    HW2 4650   2.950   3.504   5.804  1.3256  1.2261  1.0827
  544SOL     OW 4651   6.390   7.254   1.354  0.0018 -0.5098  0.1280
  544SOL    HW1 4652   6.429   7.221   1.435 -0.6413  1.7437  1.4041
  544SOL    HW2 4653   6.465   7.283   1.302  0.4828 -2.8342 -0.5223
  545SOL     OW 4654   7.241   4.047   0.232 -0.2390  0.2081  0.5281
  545SOL    HW1 4655   7.331   4.075   0.246 -0.7074  1.7199  0.6319
  545SOL    HW2 4656   7.220   4.078   0.144 -0.2975 -1.1592  0.0425
  546SOL     OW 4657   1.453   6.507   5.367 -0.4039  0.0443 -0.4207
  546SOL    HW1 4658   1.543   6.538   5.361  1.3450 -4.6202 -0.1778
  546SOL    HW2 4659   1.431   6.516   5.460  1.0743 -1.9753  0.1502
  547SOL     OW 4660   3.125   0.695   2.836 -0.1476  0.0462 -0.1399
  547SOL    HW1 4661   3.173   0.619   2.867 -1.8699 -0.9804 -0.0018
  547SOL    HW2 4662   3.170   0.770   2.877  1.2882 -0.8821  0.0284
  548SOL     OW 4663   1.630   3.474   2.099 -0.1775 -0.2396  0.2789
  548SOL    HW1 4664   1.568   3.471   2.025 -0.5562 -0.8781  0.6177
  548SOL    HW2 4665   1.713   3.500   2.059 -0.1630 -1.4958 -0.5224
  549SOL     OW 4666   5.104   3.051   4.047 -0.1249 -0.2849  0.3993
  549SOL    HW1 4667   5.159   2.985   4.090  1.0433 -0.7615 -1.7457
  549SOL    HW2 4668   5.134   3.134   4.083  0.1663 -0.7348  1.2173
  550SOL     OW 4669   1.740   8.070   2.313  0.1288  0.0310  0.3744
  550SOL    HW1 4670   1.724   7.986   2.270  1.6535 -0.0706 -0.0458
  550SOL    HW2 4671   1.787   8.048   2.393  0.7352  0.4799  0.1522
  551SOL     OW 4672   8.992   2.090   6.996  0.2180  0.2413  0.0950
  551SOL    HW1 4673   8.941   2.170   6.984  2.6027  2.1481  2.1701
  551SOL    HW2 4674   8.949   2.045   7.069 -0.7723 -0.1098 -0.6933
  552SOL     OW 4675   0.453   0.982   6.615 -0.1760  0.0176 -0.1380
  552SOL    HW1 4676   0.520   1.040   6.650  1.5565 -2.5991  1.0511
  552SOL    HW2 4677   0.495   0.938   6.541 -1.0338 -0.6220 -0.2635
  553SOL     OW 4678   0.650   7.074   0.287 -0.1724  0.0389 -0.1155
  553SOL    HW1 4679   0.708   7.117   0.350  4.6452 -2.1683 -2.7242
  553SOL    HW2 4680   0.645   6.983   0.318  0.0732 -0.4316 -1.4230
  554SOL     OW 4681   4.548   3.206   0.699 -0.4251  0.2639  0.2984
  554SOL    HW1 4682   4.515   3.218   0.788  1.8578  0.1640  1.1903
  554SOL    HW2 4683   4.541   3.112   0.683 -1.0217  0.3093  0.2994
  555SOL     OW 4684   0.560   8.422   8.347  0.0889 -0.4360 -0.1591
  555SOL    HW1 4685   0.632   8.466   8.393  0.5733 -1.4457  0.0853
  555SOL    HW2 4686   0.503   8.492   8.318 -0.8091  0.2253  2.9670
  556SOL     OW 4687   8.118   0.955   6.503  0.3024 -0.0039  0.4305
  556SOL    HW1 4688   8.175   0.883   6.529 -1.6488 -1.7238  0.0631
  556SOL    HW2 4689   8.151   0.982   6.417 -0.2094 -1.8463 -0.3689
  557SOL     OW 4690   7.679   2.184   2.302 -0.1494 -0.4906  0.2237
  557SOL    HW1 4691   7.719   2.145   2.381 -1.9100 -0.1746  1.2895
  557SOL    HW2 4692   7.657   2.273   2.329 -1.1245 -0.5115 -0.5053
  558SOL     OW 4693   6.882   7.929   7.360 -0.8079  0.4404  0.0047
  558SOL    HW1 4694   6.805   7.888   7.401  0.0144 -0.0926  1.0327
  558SOL    HW2 4695   6.898   8.007   7.412 -2.4044  2.1452 -1.9896
  559SOL     OW 4696   5.332   2.667   5.783  0.3444  0.5435 -0.2907
  559SOL    HW1 4697   5.279   2.678   5.862  0.8894  2.5789 -0.1739
  559SOL    HW2 4698   5.269   2.666   5.712  0.0238  1.2811 -0.0210
  560SOL     OW 4699   7.511   4.744   3.909 -0.6324  0.3335 -0.0003
  560SOL    HW1 4700   7.439   4.718   3.967 -1.4605  0.7279 -0.8266
  560SOL    HW2 4701   7.525   4.667   3.853 -0.8249  0.4693 -0.2380
  561SOL     OW 4702   4.136   3.084   6.598 -0.0251 -0.4325  0.5928
  561SOL    HW1 4703   4.054   3.081   6.548 -0.1957 -3.0671  0.9559
  561SOL    HW2 4704   4.131   3.167   6.647 -1.5607  0.3750 -0.8797
  562SOL     OW 4705   0.501   9.402   9.022 -0.3802 -0.4912 -0.3913
  562SOL    HW1 4706   0.482   9.342   9.094  0.2504 -1.0776 -0.7069
  562SOL    HW2 4707   0.486   9.489   9.059  1.3051 -0.7026  0.8883
  563SOL     OW 4708   5.179   2.627   5.244 -0.0478  0.3319  0.4988
  563SOL    HW1 4709   5.144   2.538   5.250  1.2263 -0.3121 -1.2579
  563SOL    HW2 4710   5.115   2.674   5.191 -0.1660  0.1740  0.5001
  564SOL     OW 4711   3.323   2.105   0.929  0.4859  0.2381 -0.0060
  564SOL    HW1 4712   3.372   2.119   1.010 -0.9586 -2.8364  1.4829
  564SOL    HW2 4713   3.382   2.053   0.874 -0.1687 -1.4448  0.8525
  565SOL     OW 4714   4.490   5.207   4.620  0.3082 -0.0245  0.3411
  565SOL    HW1 4715   4.496   5.257   4.701  1.0387 -0.5864  0.6373
  565SOL    HW2 4716   4.552   5.250   4.560 -0.3101  0.4569  0.0422
  566SOL     OW 4717   5.479   3.975   6.972  0.1718 -0.3306  0.3945
  566SOL    HW1 4718   5.411   3.908   6.975 -1.1375  0.9357 -0.3022
  566SOL    HW2 4719   5.507   3.978   6.881 -1.1113  1.3675  0.0440
  567SOL     OW 4720   2.289   7.707   2.881 -0.0851 -0.1900 -0.3620
  567SOL    HW1 4721   2.233   7.646   2.833 -0.4357  0.6106 -0.9812
  567SOL    HW2 4722   2.250   7.793   2.866  1.5096  0.4347 -1.1183
  568SOL     OW 4723   5.558   9.258   1.480  0.3244  0.4661 -0.0170
  568SOL    HW1 4724   5.513   9.295   1.404  0.2331  0.0765 -0.1538
  568SOL    HW2 4725   5.651   9.265   1.458  0.3313  1.0818  0.1776
  569SOL     OW 4726   5.223   5.841   0.992 -0.3613 -0.2670 -0.1216
  569SOL    HW1 4727   5.160   5.889   1.045 -1.3126  0.1637 -1.6254
  569SOL    HW2 4728   5.265   5.781   1.053 -0.0792  1.5591  1.5185
  570SOL     OW 4729   9.172   1.084   3.595 -0.2217  0.3092 -0.3243
  570SOL    HW1 4730   9.214   1.102   3.679 -1.5564 -0.6900  0.5695
  570SOL    HW2 4731   9.100   1.147   3.590 -0.5733 -0.1013 -0.4055
  571SOL     OW 4732   4.258   6.403   3.118  0.0517 -0.6778 -0.1119
  571SOL    HW1 4733   4.245   6.334   3.052 -1.1078 -0.8130  0.2496
  571SOL    HW2 4734   4.179   6.399   3.172 -0.6821  1.9094 -0.9523
  572SOL     OW 4735   3.971   7.074   5.601 -0.5953 -0.5868  0.2549
  572SOL    HW1 4736   3.895   7.123   5.570  1.1978  1.3933 -1.1386
  572SOL    HW2 4737   3.934   7.008   5.660 -3.2466  1.3199  0.8458
  573SOL     OW 4738   0.180   6.644   2.301 -0.2378  0.6099 -0.2995
  573SOL    HW1 4739   0.190   6.550   2.287  1.5492  0.8982 -1.0170
  573SOL    HW2 4740   0.173   6.654   2.396 -2.5175 -0.4212 -0.3182
  574SOL     OW 4741   8.247   0.870   4.366  0.6738  0.1022 -0.3107
  574SOL    HW1 4742   8.311   0.808   4.332  0.6266  0.0565 -0.3177
  574SOL    HW2 4743   8.238   0.847   4.459  0.0175 -0.4605 -0.5071
  575SOL     OW 4744   0.929   3.139   6.143 -0.3976  0.0500 -0.2339
  575SOL    HW1 4745   1.004   3.168   6.091  0.3441  0.5158  1.0667
  575SOL    HW2 4746   0.853   3.160   6.089  0.4129 -1.0957 -1.9019
  576SOL     OW 4747   8.741   7.731   8.680 -0.1748 -0.0328 -0.1685
  576SOL    HW1 4748   8.655   7.742   8.721  0.8069  1.3992  1.5666
  576SOL    HW2 4749   8.800   7.710   8.752  0.6424 -2.7275 -1.5779
  577SOL     OW 4750   7.406   8.987   1.665  0.5906  0.1110 -0.3000
  577SOL    HW1 4751   7.405   8.976   1.570  1.2481  1.1829 -0.4366
  577SOL    HW2 4752   7.497   9.005   1.687  0.2864  0.8174  0.4171
  578SOL     OW 4753   4.367   6.603   6.464 -0.3017 -0.5867 -0.3252
  578SOL    HW1 4754   4.389   6.545   6.391 -2.0021 -1.3257 -0.2713
  578SOL    HW2 4755   4.275   6.586   6.481 -0.4073  0.9873  0.7474
  579SOL     OW 4756   1.397   4.670   3.461 -0.3392  0.1935  0.0625
  579SOL    HW1 4757   1.453   4.620   3.402  0.1815 -0.3084  0.9705
  579SOL    HW2 4758   1.404   4.625   3.545 -1.0435  0.9187  0.5180
  580SOL     OW 4759   0.251   1.569   8.748 -0.1565  0.4324  0.1921
  580SOL    HW1 4760   0.245   1.528   8.661 -1.2191 -2.1744  1.4445
  580SOL    HW2 4761   0.273   1.660   8.729 -1.1399  0.1133 -2.8593
  581SOL     OW 4762   7.140   4.150   3.383 -0.1998  0.2614 -0.0514
  581SOL    HW1 4763   7.155   4.245   3.377  0.1522  0.3286  1.7595
  581SOL    HW2 4764   7.054   4.143   3.425  0.8632 -0.2265  2.0878
  582SOL     OW 4765   8.458   8.619   7.812 -0.5734  0.0392 -0.1656
  582SOL    HW1 4766   8.498   8.706   7.807 -0.3886  0.0252  0.9205
  582SOL    HW2 4767   8.492   8.582   7.892 -2.0959 -0.3169  0.3407
  583SOL     OW 4768   5.178   1.768   7.694 -0.3144 -0.5866  0.1580
  583SOL    HW1 4769   5.131   1.690   7.726  0.5465 -1.4525 -0.6641
  583SOL    HW2 4770   5.260   1.733   7.660 -0.3156  0.5931 -1.0538
  584SOL     OW 4771   3.090   6.445   6.351 -0.0450  0.4282 -0.1449
  584SOL    HW1 4772   3.164   6.504   6.367 -0.8802  1.1626  1.1417
  584SOL    HW2 4773   3.120   6.386   6.282  0.8073  2.3636 -1.4526
  585SOL     OW 4774   1.311   0.041   1.238  0.0026  0.3888 -0.3388
  585SOL    HW1 4775   1.371   0.100   1.191  0.6196 -0.7247 -0.9544
  585SOL    HW2 4776   1.361  -0.039   1.251 -1.1122 -0.2958 -0.2137
  586SOL     OW 4777   7.046   0.722   8.489 -0.2957 -0.2630 -0.2562
  586SOL    HW1 4778   7.082   0.675   8.565  0.1309 -0.0040 -0.2969
  586SOL    HW2 4779   7.049   0.814   8.514 -1.8846 -0.3039  0.1421
  587SOL     OW 4780   4.579   1.931   1.166  0.4112  0.5188 -0.1414
  587SOL    HW1 4781   4.493   1.915   1.127  0.6567 -0.9323 -0.1115
  587SOL    HW2 4782   4.561   1.989   1.240 -0.5821 -0.0335  0.0537
  588SOL     OW 4783   4.001   4.802   7.152 -0.2735  0.2122 -0.0548
  588SOL    HW1 4784   4.079   4.818   7.099 -0.1137 -0.9212 -0.1892
  588SOL    HW2 4785   4.001   4.872   7.216  0.2228  0.8843 -0.7763
  589SOL     OW 4786   5.237   2.168   2.473 -0.0442 -0.4475 -0.2884
  589SOL    HW1 4787   5.203   2.143   2.559  2.2237 -1.5669  0.3371
  589SOL    HW2 4788   5.290   2.093   2.445  1.8021  1.1552 -1.2359
  590SOL     OW 4789   2.709   3.964   7.777 -0.0354 -0.9773  0.2943
  590SOL    HW1 4790   2.712   4.059   7.792 -0.1314 -0.9444  0.1030
  590SOL    HW2 4791   2.783   3.947   7.720  2.0371 -1.5119  3.0498
  591SOL     OW 4792   8.648   4.729   4.330  0.3694  0.3150 -0.4823
  591SOL    HW1 4793   8.676   4.688   4.412 -0.3521  1.0522  0.1411
  591SOL    HW2 4794   8.565   4.687   4.309 -0.3767  1.4489  0.1639
  592SOL     OW 4795   9.039   4.694   0.019 -0.3773  0.1486 -0.1448
  592SOL    HW1 4796   9.086   4.777   0.028 -1.2884  0.6775 -0.1518
  592SOL    HW2 4797   9.072   4.656  -0.062 -0.2582  0.7041 -0.3578
  593SOL     OW 4798   8.657   5.759   8.737  0.6930 -0.2099  0.0955
  593SOL    HW1 4799   8.749   5.736   8.719  1.1313  1.6283 -0.0361
  593SOL    HW2 4800   8.659   5.804   8.821  0.0441  0.7473 -0.4008
  594SOL     OW 4801   7.633   5.707   5.699 -0.0704 -0.1932 -0.1876
  594SOL    HW1 4802   7.726   5.696   5.676 -0.1557  0.3113 -0.7688
  594SOL    HW2 4803   7.589   5.721   5.616 -0.9048 -2.0408 -0.0602
  595SOL     OW 4804   3.010   2.759   3.077  0.4579  0.4145  0.4602
  595SOL    HW1 4805   3.035   2.815   3.003 -2.3738  0.3548 -0.5903
  595SOL    HW2 4806   3.031   2.670   3.047  2.3019  0.6503  1.0105
  596SOL     OW 4807   0.730   7.312   9.218 -0.1455 -0.3170  0.3421
  596SOL    HW1 4808   0.671   7.362   9.273  1.1087  2.5218 -0.8043
  596SOL    HW2 4809   0.794   7.376   9.186  1.7783 -2.7218 -0.8400
  597SOL     OW 4810   0.302   0.350   3.763  0.4406  0.2656  0.2065
  597SOL    HW1 4811   0.232   0.348   3.828  1.8801 -1.1303  1.7902
  597SOL    HW2 4812   0.291   0.270   3.712  0.1847  0.6267 -0.3031
  598SOL     OW 4813   9.379   6.963   3.152 -0.3596  0.4433  0.5700
  598SOL    HW1 4814   9.356   6.898   3.218 -0.9222 -1.3235 -1.3364
  598SOL    HW2 4815   9.304   7.023   3.150 -2.2121 -1.8385 -1.3150
  599SOL     OW 4816   8.279   4.258   2.938  0.3638 -0.8090  0.4290
  599SOL    HW1 4817   8.188   4.281   2.957  0.0660 -0.7100 -1.1014
  599SOL    HW2 4818   8.313   4.333   2.889  0.6535 -1.7678 -0.8474
  600SOL     OW 4819   4.934   4.511   4.458 -0.1752 -0.3192  0.0331
  600SOL    HW1 4820   4.896   4.576   4.399  2.7897  1.3613 -0.1143
  600SOL    HW2 4821   4.947   4.559   4.540  1.2126 -0.9524  0.1896
  601SOL     OW 4822   4.854   1.249   6.919 -0.1405 -0.0062  0.1256
  601SOL    HW1 4823   4.903   1.182   6.871 -1.7502 -1.0720 -0.0541
  601SOL    HW2 4824   4.859   1.220   7.011 -2.7652 -1.6330 -0.2192
  602SOL     OW 4825   0.539   7.532   4.791 -0.4503  0.3970  0.6683
  602SOL    HW1 4826   0.559   7.510   4.882  0.2438  0.4503  0.5271
  602SOL    HW2 4827   0.499   7.619   4.795  1.4300  1.2712  0.7279
  603SOL     OW 4828   2.323   4.223   5.083  0.0190 -0.1514 -0.2968
  603SOL    HW1 4829   2.239   4.216   5.130  0.7226 -1.8880  0.7642
  603SOL    HW2 4830   2.314   4.165   5.008  0.1185  0.0014 -0.4281
  604SOL     OW 4831   4.242   7.432   2.019  0.3548  0.8340  0.1002
  604SOL    HW1 4832   4.213   7.388   2.099 -1.9686  0.8310 -0.6982
  604SOL    HW2 4833   4.246   7.362   1.953  1.1947  1.0222 -0.0589
  605SOL     OW 4834   4.146   7.888   0.914 -0.5111  0.4085 -0.6122
  605SOL    HW1 4835   4.173   7.937   0.991 -1.4000  2.0963 -1.3520
  605SOL    HW2 4836   4.219   7.896   0.853 -0.0428 -0.4569 -0.1835
  606SOL     OW 4837   4.738   1.298   8.984 -0.4405 -0.5494 -0.7286
  606SOL    HW1 4838   4.817   1.298   9.039 -1.2076  1.5595  0.4214
  606SOL    HW2 4839   4.769   1.327   8.898 -0.0018  0.6895 -0.1726
  607SOL     OW 4840   7.162   3.324   3.771  0.1891 -0.2632  0.4362
  607SOL    HW1 4841   7.253   3.299   3.755  0.2505 -0.5750  1.2656
  607SOL    HW2 4842   7.113   3.242   3.764  0.1364 -0.3022  1.2223
  608SOL     OW 4843   5.226   4.329   9.379 -0.5329  0.1957 -1.0304
  608SOL    HW1 4844   5.244   4.262   9.445  0.3928  0.3192 -1.1425
  608SOL    HW2 4845   5.282   4.305   9.305 -0.9106  0.5547 -1.4315
  609SOL     OW 4846   5.450   4.233   8.011  0.3819  0.0341  0.4817
  609SOL    HW1 4847   5.505   4.166   7.970  0.4940 -0.7567  1.9107
  609SOL    HW2 4848   5.364   4.221   7.970 -0.1527 -2.3930  2.2196
  610SOL     OW 4849   8.484   4.078   0.721 -0.2443  0.0447  0.1537
  610SOL    HW1 4850   8.564   4.112   0.761  0.8566 -1.1496 -0.9802
  610SOL    HW2 4851   8.504   3.986   0.702 -1.7891 -0.1947 -0.3914
  611SOL     OW 4852   1.362   6.644   1.682  0.2429  0.0541 -0.5126
  611SOL    HW1 4853   1.415   6.613   1.755  0.5746  0.2047 -0.6885
  611SOL    HW2 4854   1.418   6.707   1.636  0.5792 -1.0935 -1.7245
  612SOL     OW 4855   4.889   2.233   4.475 -0.0149 -0.1709 -0.3700
  612SOL    HW1 4856   4.829   2.159   4.488 -0.0595  0.0023  0.4539
  612SOL    HW2 4857   4.920   2.223   4.386 -0.8946 -0.5450 -0.6432
  613SOL     OW 4858   6.812   6.534   6.426 -0.5317  0.1865 -0.2360
  613SOL    HW1 4859   6.907   6.542   6.436 -0.5160  0.3032 -0.4908
  613SOL    HW2 4860   6.776   6.583   6.500 -0.4132  1.1438 -0.8134
  614SOL     OW 4861   7.019   8.322   0.521 -0.0287  0.2910 -0.4963
  614SOL    HW1 4862   6.991   8.391   0.461 -3.2064 -1.1985 -0.8469
  614SOL    HW2 4863   7.095   8.282   0.479 -1.0598  0.5176 -2.6295
  615SOL     OW 4864   3.890   3.933   6.600 -0.3507 -0.5957 -0.2654
  615SOL    HW1 4865   3.948   3.913   6.527  0.0274  0.4433 -0.2690
  615SOL    HW2 4866   3.887   3.853   6.652  1.3554 -0.5826 -0.0950
  616SOL     OW 4867   6.582   8.472   6.589  0.2205 -0.4136 -0.1865
  616SOL    HW1 4868   6.638   8.549   6.598  1.9125 -1.6984  0.5011
  616SOL    HW2 4869   6.514   8.499   6.528 -0.4874  2.3440  1.7203
  617SOL     OW 4870   5.135   4.116   5.501  0.5227 -0.0206  0.2657
  617SOL    HW1 4871   5.198   4.089   5.568 -0.5738 -1.0271  0.9161
  617SOL    HW2 4872   5.097   4.197   5.535 -1.3300 -1.4506  1.7977
  618SOL     OW 4873   1.150   4.787   2.160 -0.0338 -0.4225  0.6812
  618SOL    HW1 4874   1.183   4.839   2.233 -1.6492  1.1902  0.2881
  618SOL    HW2 4875   1.220   4.724   2.141  2.2547  2.0731  0.6758
  619SOL     OW 4876   2.422   3.266   0.498 -0.8382  0.4289  0.3316
  619SOL    HW1 4877   2.426   3.173   0.520 -0.4430  0.6711  1.3139
  619SOL    HW2 4878   2.489   3.306   0.553  0.7809  0.9457 -1.9536
  620SOL     OW 4879   7.133   4.219   1.299  0.5680 -0.3958 -0.4784
  620SOL    HW1 4880   7.194   4.182   1.363  0.2062 -0.9263 -0.4391
  620SOL    HW2 4881   7.052   4.234   1.349 -0.2869 -2.4235 -1.1892
  621SOL     OW 4882   9.416   8.338   7.020  0.1212 -0.7299  0.2825
  621SOL    HW1 4883   9.328   8.303   7.002 -0.0012 -0.5044  0.4516
  621SOL    HW2 4884   9.473   8.287   6.962 -0.2606 -0.0889 -0.6830
  622SOL     OW 4885   2.916   4.641   3.275  0.5281  0.1556  0.2845
  622SOL    HW1 4886   2.924   4.629   3.369  3.2036  0.4465  0.1272
  622SOL    HW2 4887   2.896   4.734   3.263  2.2455  0.5759  0.5089
  623SOL     OW 4888   5.783   5.385   6.627  0.5039 -0.0880  0.1308
  623SOL    HW1 4889   5.860   5.410   6.678  1.2589  0.0256 -1.0496
  623SOL    HW2 4890   5.727   5.338   6.689  2.1575 -1.4045  0.6760
  624SOL     OW 4891   5.443   2.421   5.868  0.2186  0.3143  0.2515
  624SOL    HW1 4892   5.498   2.379   5.802 -0.5485 -0.9031  0.3655
  624SOL    HW2 4893   5.416   2.504   5.828  0.5856  0.0511 -0.5487
  625SOL     OW 4894   6.073   1.999   1.043 -0.2897 -0.0586  0.0080
  625SOL    HW1 4895   6.043   1.991   0.953 -0.6636 -0.0209  0.1312
  625SOL    HW2 4896   6.140   1.930   1.052 -0.2076 -0.0182 -0.3155
  626SOL     OW 4897   2.255   6.829   7.409 -0.3215  0.2079 -0.5165
  626SOL    HW1 4898   2.195   6.833   7.334 -1.4243  2.0300  0.4112
  626SOL    HW2 4899   2.203   6.789   7.479  0.0870  0.2268 -0.2048
  627SOL     OW 4900   0.738   1.083   2.389  0.3309 -0.0277 -0.0376
  627SOL    HW1 4901   0.685   1.022   2.338  0.2911  0.7164 -0.9071
  627SOL    HW2 4902   0.821   1.088   2.342  0.1057  1.0646 -0.3387
  628SOL     OW 4903   2.598   6.698   8.657  0.4567 -0.2226 -0.0940
  628SOL    HW1 4904   2.589   6.693   8.752 -0.1927  0.3809 -0.1214
  628SOL    HW2 4905   2.635   6.613   8.632  1.0024 -0.2327  0.7335
  629SOL     OW 4906   0.284   1.107   3.401  0.4196 -0.1713  0.4103
  629SOL    HW1 4907   0.243   1.156   3.330  1.2512  0.3432  0.2792
  629SOL    HW2 4908   0.247   1.144   3.481  1.2911  0.9095  0.3253
  630SOL     OW 4909   4.446   3.315   1.978 -0.2974  0.1773 -0.3544
  630SOL    HW1 4910   4.520   3.376   1.973 -0.8523  0.8802 -0.0143
  630SOL    HW2 4911   4.452   3.277   2.065 -0.0925 -0.0861 -0.4809
  631SOL     OW 4912   3.020   8.877   6.661  0.1515  0.5317 -0.2791
  631SOL    HW1 4913   2.931   8.903   6.684 -0.2406  1.1435 -2.3203
  631SOL    HW2 4914   3.076   8.931   6.716 -0.7416  0.7530  0.4146
  632SOL     OW 4915   3.340   3.111   4.603 -0.3410 -0.5828  0.1921
  632SOL    HW1 4916   3.435   3.105   4.588 -0.4229 -0.6637 -0.2974
  632SOL    HW2 4917   3.301   3.096   4.517 -0.7526  1.0870  0.0667
  633SOL     OW 4918   6.776   5.610   2.039 -0.6002  0.1977  0.4119
  633SOL    HW1 4919   6.697   5.594   1.988 -0.2704  0.1143 -0.0750
  633SOL    HW2 4920   6.839   5.646   1.976  1.2090 -3.7682 -0.2404
  634SOL     OW 4921   3.274   2.844   6.813 -0.7728 -0.4765  0.3892
  634SOL    HW1 4922   3.206   2.821   6.877 -0.2748 -0.5402  0.9036
  634SOL    HW2 4923   3.336   2.771   6.817 -0.3611 -0.1321  0.3702
  635SOL     OW 4924   3.025   6.549   2.665 -0.4290 -0.7616  0.3630
  635SOL    HW1 4925   3.057   6.633   2.632 -2.3005  0.3398  1.2791
  635SOL    HW2 4926   3.009   6.498   2.586 -0.7840  0.3147 -0.2745
  636SOL     OW 4927   7.694   4.517   4.307  0.4589  0.0560  0.0965
  636SOL    HW1 4928   7.692   4.611   4.288 -0.4425  0.6658  2.9672
  636SOL    HW2 4929   7.605   4.496   4.334  0.5330 -1.7581 -0.9863
  637SOL     OW 4930   6.878   6.301   2.341  0.4641  0.0372  0.4713
  637SOL    HW1 4931   6.894   6.349   2.422 -3.3864  0.4224  1.0929
  637SOL    HW2 4932   6.842   6.217   2.370  0.3538 -0.3722 -0.8400
  638SOL     OW 4933   2.550   2.704   3.081 -0.3456 -0.0916 -0.7522
  638SOL    HW1 4934   2.591   2.628   3.040  0.0021 -0.1724 -0.2578
  638SOL    HW2 4935   2.620   2.744   3.132 -1.3690 -1.3899  1.7514
  639SOL     OW 4936   5.403   2.415   1.728  0.4480  0.1310  0.4288
  639SOL    HW1 4937   5.450   2.332   1.734  0.9357  0.3318 -0.5002
  639SOL    HW2 4938   5.391   2.442   1.819  2.7107  0.3936  0.6605
  640SOL     OW 4939   0.085   6.613   6.802  0.4795 -0.2699 -0.1280
  640SOL    HW1 4940   0.129   6.531   6.778 -1.9029 -1.7337  0.3934
  640SOL    HW2 4941   0.021   6.627   6.733  1.8792  2.0202 -1.0371
  641SOL     OW 4942   2.719   0.502   5.109 -1.0101 -0.1364 -0.3347
  641SOL    HW1 4943   2.739   0.415   5.075  0.7070  0.1806 -0.1663
  641SOL    HW2 4944   2.712   0.558   5.031 -0.4634 -0.0966 -0.3570
  642SOL     OW 4945   6.532   2.211   1.640 -0.3696  0.1952 -0.1481
  642SOL    HW1 4946   6.498   2.300   1.650 -0.2264  0.2315  0.0181
  642SOL    HW2 4947   6.626   2.224   1.627 -0.2368  0.0255  0.6231
  643SOL     OW 4948   4.070   5.660   5.545  0.3253 -0.1854 -0.0035
  643SOL    HW1 4949   4.078   5.747   5.506 -0.0446  0.0217  0.3673
  643SOL    HW2 4950   4.102   5.600   5.478 -1.8336  0.0185 -1.2619
  644SOL     OW 4951   5.286   0.593   5.601 -0.0881  0.2678 -0.6015
  644SOL    HW1 4952   5.346   0.661   5.572  1.1782 -0.2018  0.8682
  644SOL    HW2 4953   5.311   0.516   5.550 -0.9964  0.6717 -1.6820
  645SOL     OW 4954   6.342   7.945   5.941  0.1373 -0.0228 -0.0094
  645SOL    HW1 4955   6.345   7.961   6.035 -0.7185  0.7410 -0.1098
  645SOL    HW2 4956   6.420   7.892   5.924 -0.0949 -0.8055  1.2479
  646SOL     OW 4957   0.319   2.193   2.956  0.2005  0.0649  0.0794
  646SOL    HW1 4958   0.413   2.174   2.957  0.1162 -0.3421  0.5832
  646SOL    HW2 4959   0.297   2.202   2.863  0.2148 -2.4003 -0.1773
  647SOL     OW 4960   3.366   4.490   2.324  0.2419  0.3985  0.7338
  647SOL    HW1 4961   3.367   4.428   2.396 -0.1948 -0.5027 -0.0337
  647SOL    HW2 4962   3.278   4.527   2.324  0.1851  0.2666  0.5568
  648SOL     OW 4963   1.054   3.676   3.987 -0.5237  0.1999 -0.3513
  648SOL    HW1 4964   1.136   3.672   3.939 -0.0075 -0.4259  0.5646
  648SOL    HW2 4965   1.073   3.632   4.070 -1.9545 -0.5000 -0.3881
  649SOL     OW 4966   7.324   7.007   7.825  0.0507 -0.4418 -0.5385
  649SOL    HW1 4967   7.247   7.061   7.813 -0.3683 -1.0577 -0.6506
  649SOL    HW2 4968   7.373   7.016   7.743 -0.3810 -0.7948 -0.8428
  650SOL     OW 4969   1.868   9.118   8.540 -0.5547  0.1095 -0.2310
  650SOL    HW1 4970   1.928   9.122   8.614  0.2256  0.5905 -0.8833
  650SOL    HW2 4971   1.899   9.042   8.489 -1.5044 -0.6326  0.2868
  651SOL     OW 4972   7.134   4.223   5.447  0.3347 -0.0579 -0.0551
  651SOL    HW1 4973   7.197   4.294   5.434  1.1554 -0.5849  0.9501
  651SOL    HW2 4974   7.050   4.268   5.460  0.7652  0.7179  0.0963
  652SOL     OW 4975   4.577   4.164   1.093 -0.5708 -0.0323 -0.5199
  652SOL    HW1 4976   4.586   4.211   1.010  0.6216 -2.0898 -1.6003
  652SOL    HW2 4977   4.660   4.181   1.138 -1.1324  0.9099  0.1614
  653SOL     OW 4978   5.350   2.950   1.392  0.4705 -0.4045 -0.1086
  653SOL    HW1 4979   5.360   3.044   1.375 -0.9174 -0.2630 -0.2263
  653SOL    HW2 4980   5.285   2.945   1.462  0.9935 -1.2647  0.3266
  654SOL     OW 4981   4.056   0.326   3.620 -0.3058 -0.1867 -0.1769
  654SOL    HW1 4982   4.010   0.244   3.607 -0.2857  0.2278 -3.1779
  654SOL    HW2 4983   3.987   0.392   3.629 -0.3083 -0.1732 -0.2992
  655SOL     OW 4984   4.543   2.789   6.978 -0.5252 -0.4049 -0.4084
  655SOL    HW1 4985   4.613   2.790   6.912  0.0071 -0.0087  0.1537
  655SOL    HW2 4986   4.525   2.881   6.995  0.9630 -0.4510  1.6772
  656SOL     OW 4987   4.272   0.611   8.414  0.1567  0.1403 -0.1099
  656SOL    HW1 4988   4.222   0.534   8.443 -0.2250  1.1007  1.8236
  656SOL    HW2 4989   4.304   0.587   8.327 -0.8202 -1.8134  0.0464
  657SOL     OW 4990   8.691   5.835   0.318 -0.0724 -0.2134  0.2569
  657SOL    HW1 4991   8.657   5.795   0.238  0.2549  1.8072 -0.9429
  657SOL    HW2 4992   8.786   5.832   0.308  0.0719 -2.2535  1.7849
  658SOL     OW 4993   8.471   6.675   4.720 -0.4644 -0.1087  0.5754
  658SOL    HW1 4994   8.559   6.637   4.728 -0.4453 -0.0252  0.7610
  658SOL    HW2 4995   8.418   6.628   4.785 -0.2958  0.5941  1.2254
  659SOL     OW 4996   4.402   8.488   3.939  0.0060  0.1140 -0.0528
  659SOL    HW1 4997   4.313   8.487   3.974 -0.1779 -0.0394 -0.5178
  659SOL    HW2 4998   4.397   8.544   3.862  0.2585 -0.1005 -0.2270
  660SOL     OW 4999   6.546   2.959   7.280  0.1184  0.2708  0.0819
  660SOL    HW1 5000   6.481   3.005   7.333  0.0697  0.4084 -0.0979
  660SOL    HW2 5001   6.503   2.944   7.196  0.1070 -0.1636  0.1632
  661SOL     OW 5002   3.063   7.722   3.719 -0.5459 -0.0109  0.1335
  661SOL    HW1 5003   3.018   7.768   3.648 -0.6889  1.5435  1.2069
  661SOL    HW2 5004   2.995   7.671   3.762 -0.3572 -1.3825 -1.1610
  662SOL     OW 5005   4.660   4.557   8.147  0.1082  0.4813  0.3370
  662SOL    HW1 5006   4.580   4.541   8.197 -0.5700 -0.2442 -0.9717
  662SOL    HW2 5007   4.710   4.476   8.156  0.2850  0.5952  0.3827
  663SOL     OW 5008   8.800   4.208   8.788 -0.1965  0.0687 -0.0783
  663SOL    HW1 5009   8.724   4.150   8.789  0.7051 -1.1296  0.2985
  663SOL    HW2 5010   8.817   4.222   8.695  0.9901 -2.1850 -0.2247
  664SOL     OW 5011   7.532   4.490   8.007  0.8925 -0.0632 -0.2806
  664SOL    HW1 5012   7.467   4.420   8.008  0.4865  0.3139  0.0122
  664SOL    HW2 5013   7.614   4.446   7.985  0.5683 -0.5657 -0.4999
  665SOL     OW 5014   4.776   3.784   6.688  0.2466 -0.6603 -1.0869
  665SOL    HW1 5015   4.779   3.690   6.667  3.1444 -1.2345  1.4800
  665SOL    HW2 5016   4.805   3.788   6.779  0.2035  2.7586 -1.1848
  666SOL     OW 5017   2.019   8.276   2.028 -0.4268 -0.5090  0.4198
  666SOL    HW1 5018   1.956   8.343   1.999  0.4916  0.0247 -0.3751
  666SOL    HW2 5019   2.059   8.245   1.947 -0.5223 -1.7050  0.8261
  667SOL     OW 5020   0.968   6.170   2.055  0.3515  0.0703 -0.4812
  667SOL    HW1 5021   1.058   6.156   2.085  0.9854  0.4760 -2.1730
  667SOL    HW2 5022   0.914   6.132   2.125  1.8545 -1.6957 -0.2411
  668SOL     OW 5023   4.203   0.469   5.877  0.0658  0.0585 -0.0113
  668SOL    HW1 5024   4.110   0.485   5.864  0.3296  0.1929 -1.8299
  668SOL    HW2 5025   4.236   0.549   5.920 -0.6116  0.0831  0.4602
  669SOL     OW 5026   3.151   4.776   7.789 -0.4506 -0.1770 -0.8245
  669SOL    HW1 5027   3.157   4.829   7.868 -2.3303  0.1292 -0.8720
  669SOL    HW2 5028   3.135   4.839   7.719  0.8426 -0.4814 -1.4022
  670SOL     OW 5029   6.733   6.747   0.227 -0.1509  0.2013 -0.2922
  670SOL    HW1 5030   6.741   6.791   0.312 -2.5314  0.8459 -0.3635
  670SOL    HW2 5031   6.638   6.744   0.210  0.2679 -0.2417 -2.7542
  671SOL     OW 5032   0.248   6.149   0.568  0.3132  0.3328 -0.1829
  671SOL    HW1 5033   0.304   6.190   0.503  0.6435 -0.2693 -0.2847
  671SOL    HW2 5034   0.260   6.055   0.554 -1.1678  0.1882 -0.6075
  672SOL     OW 5035   1.868   8.688   4.197 -0.5849 -0.3428  0.0541
  672SOL    HW1 5036   1.921   8.725   4.267 -2.1762  0.8144  0.6820
  672SOL    HW2 5037   1.931   8.664   4.129  0.7519  0.7602  0.8719
  673SOL     OW 5038   6.605   3.547   3.359 -0.3505 -0.1185  0.2269
  673SOL    HW1 5039   6.640   3.625   3.402  1.4766 -1.2708  0.9236
  673SOL    HW2 5040   6.522   3.530   3.403 -0.7586  1.4150  0.0736
  674SOL     OW 5041   4.956   8.084   3.621 -0.8613  0.4115  0.5696
  674SOL    HW1 5042   4.919   8.073   3.709 -0.4044 -1.8398  0.5144
  674SOL    HW2 5043   4.919   8.166   3.590 -1.5109  0.9409  2.6271
  675SOL     OW 5044   0.010   1.372   8.040  0.3471  0.0546 -0.6214
  675SOL    HW1 5045  -0.075   1.415   8.029 -1.0381 -2.2898  0.4993
  675SOL    HW2 5046   0.006   1.297   7.980  1.9451  0.3663 -1.1296
  676SOL     OW 5047   3.738   6.593   1.190 -0.4257  0.6930  0.0682
  676SOL    HW1 5048   3.827   6.628   1.192 -0.1911  0.1278 -0.4509
  676SOL    HW2 5049   3.725   6.564   1.099 -0.2533 -1.5010  0.7289
  677SOL     OW 5050   1.327   8.347   3.402  0.1821  0.3451  0.4759
  677SOL    HW1 5051   1.344   8.264   3.447 -1.1630  0.0474  0.4660
  677SOL    HW2 5052   1.409   8.395   3.409 -0.4707  1.1060  4.9727
  678SOL     OW 5053   0.790   8.566   8.435 -0.4001 -0.0003  0.3071
  678SOL    HW1 5054   0.813   8.600   8.521 -0.9330 -0.7972  0.7690
  678SOL    HW2 5055   0.848   8.490   8.423 -0.8759 -0.3638  0.3011
  679SOL     OW 5056   1.293   9.105   3.519  0.1369  0.6892 -0.1195
  679SOL    HW1 5057   1.253   9.095   3.605 -1.0298  1.5855 -0.5389
  679SOL    HW2 5058   1.246   9.178   3.479  1.2937  0.8859 -1.1575
  680SOL     OW 5059   3.315   8.200   1.692  0.4648 -0.2275 -0.2616
  680SOL    HW1 5060   3.246   8.230   1.633 -0.3952 -1.5387  0.0383
  680SOL    HW2 5061   3.313   8.263   1.764 -1.6492 -1.2133  0.6063
  681SOL     OW 5062   7.339   7.555   4.155 -0.3782  0.4707 -0.0471
  681SOL    HW1 5063   7.357   7.640   4.116  0.8977  0.1247 -0.2421
  681SOL    HW2 5064   7.266   7.521   4.104 -0.9972  1.5184  0.1388
  682SOL     OW 5065   8.152   0.223   6.538 -0.3798 -0.6853 -0.2611
  682SOL    HW1 5066   8.124   0.195   6.625 -0.1760 -0.2896 -0.0699
  682SOL    HW2 5067   8.083   0.281   6.507  1.3256  2.2331  1.1903
  683SOL     OW 5068   8.351   5.000   7.809  0.4351 -0.3653  0.2690
  683SOL    HW1 5069   8.376   4.908   7.803 -0.3018 -0.4923 -1.0604
  683SOL    HW2 5070   8.269   5.006   7.759 -0.4714  0.6654  1.8228
  684SOL     OW 5071   0.560   1.325   8.195  0.7160  0.4749 -0.0747
  684SOL    HW1 5072   0.538   1.413   8.223  0.8657  0.2947  0.6141
  684SOL    HW2 5073   0.565   1.274   8.276  0.2467 -0.2505 -0.4889
  685SOL     OW 5074   7.834   7.726   6.384 -0.8235  0.3110  0.1464
  685SOL    HW1 5075   7.751   7.773   6.388 -1.5540 -1.0379  1.3329
  685SOL    HW2 5076   7.892   7.773   6.443 -0.5652  1.5736 -1.0946
  686SOL     OW 5077   7.794   3.621   0.533 -0.0734  0.2817 -0.1480
  686SOL    HW1 5078   7.732   3.597   0.464  0.0878 -0.8207  0.0751
  686SOL    HW2 5079   7.853   3.684   0.493  0.7084 -1.1965 -1.3386
  687SOL     OW 5080   4.487   2.365   7.504  0.1881 -0.6211  0.0328
  687SOL    HW1 5081   4.395   2.339   7.495  0.5694 -1.9661 -0.0894
  687SOL    HW2 5082   4.503   2.365   7.598 -0.0916  0.1768  0.0817
  688SOL     OW 5083   6.266   5.823   2.470 -0.0904 -0.6033  0.4358
  688SOL    HW1 5084   6.210   5.894   2.502  1.6602  0.2792  1.6619
  688SOL    HW2 5085   6.282   5.845   2.378 -0.5788 -0.0909  0.4662
  689SOL     OW 5086   0.476   4.032   0.244 -0.3209  0.2582 -0.5069
  689SOL    HW1 5087   0.527   3.958   0.212  1.4921  1.7947 -1.2530
  689SOL    HW2 5088   0.522   4.060   0.323 -0.4758  1.1429 -0.7261
  690SOL     OW 5089   5.785   6.107   6.484 -0.2964 -0.0285  0.1147
  690SOL    HW1 5090   5.847   6.036   6.468 -0.0151  0.0727  0.7354
  690SOL    HW2 5091   5.835   6.187   6.473 -0.3074  0.0536  0.6502
  691SOL     OW 5092   3.712   4.817   5.324 -0.1253  0.0493  0.0652
  691SOL    HW1 5093   3.798   4.785   5.350 -0.8299 -2.4837 -0.5455
  691SOL    HW2 5094   3.730   4.897   5.274  1.8522 -0.4230 -0.0236
  692SOL     OW 5095   0.557   1.486   7.729  0.5120  0.5970 -0.0765
  692SOL    HW1 5096   0.492   1.547   7.694  2.2232  1.9857 -0.9565
  692SOL    HW2 5097   0.577   1.428   7.655 -0.3144 -0.3485  0.4369
  693SOL     OW 5098   2.232   1.890   3.682 -0.3084 -0.0886  0.1024
  693SOL    HW1 5099   2.250   1.824   3.749 -2.3178 -0.6670  0.0911
  693SOL    HW2 5100   2.267   1.852   3.601  0.4600 -0.1873  0.4714
  694SOL     OW 5101   0.352   3.927   8.301 -0.2679 -0.1168  0.3316
  694SOL    HW1 5102   0.334   3.892   8.214  1.0737  1.7195 -0.7195
  694SOL    HW2 5103   0.265   3.934   8.342 -0.9746 -0.4463 -1.0600
  695SOL     OW 5104   7.575   4.488   7.021 -0.3494 -0.0949  0.9065
  695SOL    HW1 5105   7.575   4.483   6.926 -2.1057  1.3204  0.8071
  695SOL    HW2 5106   7.652   4.438   7.048  0.6033  0.1563 -1.2750
  696SOL     OW 5107   3.872   6.031   3.778  0.3376  0.1749  0.0499
  696SOL    HW1 5108   3.898   6.115   3.816 -0.6588 -0.3309  1.9155
  696SOL    HW2 5109   3.795   6.052   3.724  1.3234  0.7808 -1.1439
  697SOL     OW 5110   5.805   4.818   5.523  0.6931 -0.2982  0.1492
  697SOL    HW1 5111   5.894   4.814   5.489  0.5181 -0.3516 -0.3025
  697SOL    HW2 5112   5.766   4.735   5.497  0.4617 -0.2093  0.2158
  698SOL     OW 5113   6.584   1.617   1.237 -0.3280  0.3534  0.4602
  698SOL    HW1 5114   6.559   1.579   1.153  1.0535 -1.4099  0.7950
  698SOL    HW2 5115   6.505   1.614   1.290 -0.7095 -0.3649 -0.1440
  699SOL     OW 5116   4.939   1.966   6.114 -0.5726  0.6416  0.0166
  699SOL    HW1 5117   4.860   1.955   6.062 -0.1173 -1.5513 -0.2726
  699SOL    HW2 5118   4.924   1.912   6.192 -0.4332  2.3239  1.2493
  700SOL     OW 5119   1.861   1.675   7.489 -0.0536 -0.0253 -0.0254
  700SOL    HW1 5120   1.805   1.628   7.428 -1.0793  0.5658  0.4348
  700SOL    HW2 5121   1.864   1.620   7.567 -0.1297  0.0136  0.0053
  701SOL     OW 5122   7.328   9.228   1.750  0.5210  0.4534  0.1208
  701SOL    HW1 5123   7.410   9.268   1.778  1.5853 -1.1087 -0.7697
  701SOL    HW2 5124   7.347   9.135   1.740 -0.6524  0.4569 -2.6476
  702SOL     OW 5125   1.585   0.170   1.072  0.6194 -0.2754 -0.4569
  702SOL    HW1 5126   1.535   0.248   1.045  0.3912 -0.2942 -0.0960
  702SOL    HW2 5127   1.653   0.204   1.130 -0.0120 -0.4442  0.3838
  703SOL     OW 5128   7.285   6.902   3.770  0.1512 -0.1129 -0.2622
  703SOL    HW1 5129   7.272   6.895   3.676 -0.9482 -0.2970 -0.1028
  703SOL    HW2 5130   7.290   6.997   3.787  1.5816 -0.0974 -0.6477
  704SOL     OW 5131   9.064   0.191   2.010  0.0187  0.2288  0.0442
  704SOL    HW1 5132   9.076   0.096   2.008 -3.6801 -0.3474  0.1433
  704SOL    HW2 5133   9.132   0.224   2.068 -0.6273 -2.7574  2.5901
  705SOL     OW 5134   1.781   3.715   3.881 -0.0789  0.1987  0.1455
  705SOL    HW1 5135   1.842   3.649   3.848 -1.5846 -2.1345  1.9076
  705SOL    HW2 5136   1.808   3.731   3.971 -0.0356  1.6707 -0.1062
  706SOL     OW 5137   3.610   3.997   0.234  0.7719  0.2292  0.3622
  706SOL    HW1 5138   3.681   4.008   0.297 -0.4016  0.6194  1.6470
  706SOL    HW2 5139   3.612   4.077   0.182  1.5340  0.0525  0.1065
  707SOL     OW 5140   7.040   7.935   0.578  0.4732  0.0480  0.4823
  707SOL    HW1 5141   7.009   7.962   0.664 -1.3767 -0.2267 -0.0761
  707SOL    HW2 5142   6.978   7.975   0.517  0.3552 -1.7241 -0.5773
  708SOL     OW 5143   5.797   2.395   7.551 -0.4068 -0.0134  0.5966
  708SOL    HW1 5144   5.881   2.423   7.515 -0.3425  0.4364  1.1086
  708SOL    HW2 5145   5.736   2.464   7.526  0.1601  1.6776  3.6613
  709SOL     OW 5146   9.066   1.931   9.256  0.0338  0.9429 -0.2116
  709SOL    HW1 5147   9.102   1.986   9.187  0.3782  1.1792  0.1601
  709SOL    HW2 5148   9.090   1.842   9.231  0.4851  1.0601 -0.2002
  710SOL     OW 5149   2.981   0.561   3.215 -0.8406  0.2613 -0.3050
  710SOL    HW1 5150   2.932   0.479   3.222  0.3315 -0.3092  1.4731
  710SOL    HW2 5151   3.069   0.535   3.189 -0.1042  0.8186  1.5527
  711SOL     OW 5152   1.550   4.563   7.940  0.1311  0.1679 -0.2244
  711SOL    HW1 5153   1.582   4.640   7.987 -0.4108  0.2921 -0.0557
  711SOL    HW2 5154   1.467   4.542   7.983 -0.2740  0.1713 -1.0069
  712SOL     OW 5155   4.712   1.352   1.086 -0.1119 -0.4438  0.2245
  712SOL    HW1 5156   4.662   1.353   1.167  1.9720 -0.8505  1.5396
  712SOL    HW2 5157   4.676   1.278   1.036 -1.2747 -0.2943  0.8254
  713SOL     OW 5158   2.925   1.601   5.559 -0.5638  0.0616 -0.7325
  713SOL    HW1 5159   2.909   1.516   5.600 -1.5017  1.9867  3.1867
  713SOL    HW2 5160   2.837   1.632   5.535 -0.3636  0.4638 -0.9447
  714SOL     OW 5161   5.084   4.922   5.163  0.0430 -0.7021  0.2537
  714SOL    HW1 5162   5.125   5.008   5.157  0.1219 -0.6758  1.1118
  714SOL    HW2 5163   5.111   4.889   5.249 -1.9949 -0.5668  0.9545
  715SOL     OW 5164   3.905   5.028   7.659  0.0675  0.2206  0.0591
  715SOL    HW1 5165   3.956   5.006   7.737  1.3956  2.0561 -0.2646
  715SOL    HW2 5166   3.860   5.110   7.683  0.3784  0.7232 -1.0491
  716SOL     OW 5167   3.244   1.000   8.576  0.2990  0.0481 -0.2215
  716SOL    HW1 5168   3.325   1.008   8.526  0.5590 -2.1053 -0.1559
  716SOL    HW2 5169   3.191   1.075   8.547  1.0256 -0.3514 -2.6471
  717SOL     OW 5170   8.099   1.203   5.286  0.4152 -0.3706  0.6760
  717SOL    HW1 5171   8.074   1.187   5.195 -0.9783 -1.0073  1.1521
  717SOL    HW2 5172   8.020   1.181   5.336  1.6375 -1.4526  2.1534
  718SOL     OW 5173   5.110   4.151   7.676 -0.3128 -0.2379 -0.0720
  718SOL    HW1 5174   5.201   4.127   7.659  0.0705  1.0949  0.0909
  718SOL    HW2 5175   5.091   4.219   7.611 -1.5219 -1.2440 -0.7927
  719SOL     OW 5176   7.654   4.916   2.913  0.7475  0.1483  0.0393
  719SOL    HW1 5177   7.694   4.864   2.843 -2.6055 -2.1598 -0.2670
  719SOL    HW2 5178   7.580   4.960   2.872 -0.5816 -0.3225  1.8633
  720SOL     OW 5179   5.961   6.231   6.251  0.2481  0.2274 -0.2897
  720SOL    HW1 5180   6.024   6.288   6.295 -0.3751 -0.2786  1.2893
  720SOL    HW2 5181   6.003   6.145   6.249 -0.2758 -0.0530  0.5343
  721SOL     OW 5182   1.998   0.097   8.600 -0.4471  0.0226 -0.0178
  721SOL    HW1 5183   1.910   0.070   8.628 -0.2893 -0.2476  0.2147
  721SOL    HW2 5184   2.019   0.039   8.528  0.4145 -1.3282  1.3055
  722SOL     OW 5185   2.755   4.566   3.071 -0.2302 -0.0186  0.2530
  722SOL    HW1 5186   2.830   4.558   3.131  0.2973 -0.0704 -0.4076
  722SOL    HW2 5187   2.679   4.544   3.125  0.2648 -0.2851  0.8501
  723SOL     OW 5188   4.120   0.975   4.243 -0.0396 -0.5754 -0.0057
  723SOL    HW1 5189   4.100   0.930   4.161  0.9173 -0.2534 -0.4222
  723SOL    HW2 5190   4.056   1.046   4.247  1.8193  1.2647 -1.9913
  724SOL     OW 5191   2.664   5.312   5.559 -0.0062 -0.5598  0.3454
  724SOL    HW1 5192   2.633   5.388   5.608 -0.4521  0.2029 -1.0769
  724SOL    HW2 5193   2.585   5.272   5.523  0.2779 -1.3455  0.5835
  725SOL     OW 5194   2.039   9.436   6.633  0.1200  0.7323  0.4418
  725SOL    HW1 5195   2.091   9.463   6.557 -1.5989  1.9979 -0.3183
  725SOL    HW2 5196   2.099   9.382   6.685  1.4776  0.2469 -1.5621
  726SOL     OW 5197   7.205   9.331   7.237  0.5500  0.2739  0.3564
  726SOL    HW1 5198   7.115   9.359   7.219  0.2361  0.0646  1.6014
  726SOL    HW2 5199   7.257   9.411   7.224  0.1196  0.5325  0.1935
  727SOL     OW 5200   4.313   7.296   6.206 -0.2320  0.1742 -0.1608
  727SOL    HW1 5201   4.308   7.365   6.140  2.9678  1.4308  0.8134
  727SOL    HW2 5202   4.373   7.231   6.169 -0.3239 -0.2845  0.4851
  728SOL     OW 5203   8.086   4.785   0.615  0.0124  0.0240  0.1332
  728SOL    HW1 5204   8.104   4.691   0.610 -1.1211 -0.1996  0.1186
  728SOL    HW2 5205   8.123   4.812   0.699 -0.6978 -0.6755  0.6849
  729SOL     OW 5206   9.074   0.013   8.632  0.2507 -0.5630  0.2562
  729SOL    HW1 5207   9.045  -0.033   8.711  0.2658 -0.0531  0.5615
  729SOL    HW2 5208   9.169   0.013   8.638  0.3651 -2.5281 -0.9088
  730SOL     OW 5209   3.649   5.239   3.950  0.0480  0.3543 -0.3485
  730SOL    HW1 5210   3.629   5.177   4.020  1.0021  0.9733  0.4951
  730SOL    HW2 5211   3.572   5.238   3.894 -0.6888 -0.2336  0.6570
  731SOL     OW 5212   7.125   1.253   4.995 -0.1379  0.2566 -0.2442
  731SOL    HW1 5213   7.051   1.195   5.012 -0.2321  0.1625 -0.9886
  731SOL    HW2 5214   7.122   1.270   4.901  0.9038  0.0980 -0.3129
  732SOL     OW 5215   2.536   6.201   2.952  0.0068 -0.1393 -0.0216
  732SOL    HW1 5216   2.557   6.157   3.034 -0.3014  0.1284  0.2032
  732SOL    HW2 5217   2.506   6.131   2.894 -0.8071 -0.1813  0.4432
  733SOL     OW 5218   1.539   7.589   3.451  0.6137  0.4258 -0.2494
  733SOL    HW1 5219   1.521   7.524   3.384  0.5128 -0.0834  0.2657
  733SOL    HW2 5220   1.588   7.658   3.405  0.2256  0.2602 -0.9192
  734SOL     OW 5221   7.895   7.114   5.816 -0.4980 -0.0491 -0.2073
  734SOL    HW1 5222   7.812   7.103   5.769 -0.3228  0.6997 -0.6997
  734SOL    HW2 5223   7.925   7.024   5.833 -1.9431 -0.3321  0.9437
  735SOL     OW 5224   4.440   7.341   6.453 -0.5159  0.4193 -0.3366
  735SOL    HW1 5225   4.389   7.333   6.372  0.2288 -1.7506 -0.5986
  735SOL    HW2 5226   4.521   7.384   6.427  0.7685 -2.4594 -1.2217
  736SOL     OW 5227   1.547   7.534   2.599 -0.2554 -0.3045  0.0189
  736SOL    HW1 5228   1.573   7.511   2.687  2.2860 -0.8697 -0.8564
  736SOL    HW2 5229   1.507   7.455   2.563 -0.7237 -0.2559  0.4218
  737SOL     OW 5230   7.497   0.432   0.350  0.1992  0.1457  1.0043
  737SOL    HW1 5231   7.563   0.378   0.394  1.0026 -0.3209 -0.7203
  737SOL    HW2 5232   7.548   0.493   0.296 -0.7569 -0.2275 -0.3586
  738SOL     OW 5233   4.983   4.187   1.999 -0.3586  0.2460  0.2301
  738SOL    HW1 5234   5.053   4.251   1.988 -0.5648  0.4238 -0.0724
  738SOL    HW2 5235   4.920   4.208   1.930 -1.1085  0.6199  1.0213
  739SOL     OW 5236   3.280   7.312   0.018 -0.0341 -0.3256 -0.0202
  739SOL    HW1 5237   3.213   7.310   0.086  1.3788  0.9403  1.4424
  739SOL    HW2 5238   3.362   7.296   0.065  0.9501  0.4354 -1.4537
  740SOL     OW 5239   7.638   4.938   7.652 -0.7416  0.6747  0.2630
  740SOL    HW1 5240   7.687   5.003   7.602 -0.5499  0.2559 -0.0913
  740SOL    HW2 5241   7.692   4.923   7.730  0.2225 -0.5417 -0.6070
  741SOL     OW 5242   9.014   4.127   1.912 -0.2103 -0.6501 -0.0507
  741SOL    HW1 5243   8.996   4.082   1.830  1.0797 -2.4429  0.6049
  741SOL    HW2 5244   8.943   4.101   1.971 -0.5362 -0.2442 -0.2647
  742SOL     OW 5245   0.098   8.956   2.464  0.2367  0.3273  0.3344
  742SOL    HW1 5246   0.084   8.926   2.374 -0.3084 -0.4782  0.6842
  742SOL    HW2 5247   0.085   8.878   2.518  0.6452  0.7890  1.1083
  743SOL     OW 5248   5.213   7.584   6.056 -0.0077 -0.4626  0.6825
  743SOL    HW1 5249   5.146   7.635   6.011  0.5063  1.2308  1.7785
  743SOL    HW2 5250   5.263   7.543   5.985 -0.8498  0.0006 -0.1981
  744SOL     OW 5251   6.995   0.411   8.946 -0.3730  0.8242 -0.1179
  744SOL    HW1 5252   7.012   0.328   8.989 -0.8227  0.0814 -1.3719
  744SOL    HW2 5253   6.900   0.414   8.935 -0.1823  0.4620 -2.1073
  745SOL     OW 5254   1.248   0.473   3.750 -0.1753 -0.2862  0.3314
  745SOL    HW1 5255   1.182   0.423   3.798 -0.0563 -1.5482 -0.7852
  745SOL    HW2 5256   1.198   0.523   3.686 -0.1134 -0.8642 -0.1817
  746SOL     OW 5257   4.334   6.921   3.058 -0.3112  0.1228  0.2750
  746SOL    HW1 5258   4.255   6.870   3.075  1.3132 -2.6112 -0.1375
  746SOL    HW2 5259   4.389   6.907   3.135 -0.3266  2.3124  0.7316
  747SOL     OW 5260   3.407   5.748   6.188 -0.1330 -0.6724 -0.2948
  747SOL    HW1 5261   3.318   5.743   6.222  0.8471 -3.4620  2.0478
  747SOL    HW2 5262   3.462   5.765   6.265  1.4047  0.9982 -1.6945
  748SOL     OW 5263   9.032   7.367   9.418 -0.5983 -0.2525  0.4170
  748SOL    HW1 5264   9.035   7.295   9.480 -0.3319 -0.4068  0.2224
  748SOL    HW2 5265   9.086   7.338   9.345  0.3320  0.5510  0.7702
  749SOL     OW 5266   6.695   5.617   1.118 -0.4600 -0.1231  0.2926
  749SOL    HW1 5267   6.636   5.654   1.184  1.1911  3.6650 -0.2418
  749SOL    HW2 5268   6.642   5.617   1.038 -1.2573 -1.2837  0.7955
  750SOL     OW 5269   6.871   6.524   0.827  0.1131  0.6668 -0.2423
  750SOL    HW1 5270   6.946   6.576   0.799 -0.5487  2.1635  0.7053
  750SOL    HW2 5271   6.850   6.557   0.914 -0.5428 -0.9685  0.2478
  751SOL     OW 5272   6.504   5.465   5.451  0.4912  0.1520 -0.0950
  751SOL    HW1 5273   6.584   5.420   5.425 -0.2836 -1.2687 -0.0905
  751SOL    HW2 5274   6.436   5.429   5.393 -0.2657  0.8399  0.3509
  752SOL     OW 5275   8.112   5.187   5.430 -0.1955 -0.2155 -0.1474
  752SOL    HW1 5276   8.071   5.117   5.480 -2.3326  1.3934  0.4437
  752SOL    HW2 5277   8.041   5.248   5.411  1.3215  1.0892 -1.8974
  753SOL     OW 5278   6.783   8.291   1.917  0.2582 -0.2506  0.1013
  753SOL    HW1 5279   6.715   8.301   1.983  1.6649 -1.1611  1.7085
  753SOL    HW2 5280   6.786   8.197   1.900  1.3199 -0.2461  0.2591
  754SOL     OW 5281   7.063   6.429   4.799  0.1709  0.5110 -0.0613
  754SOL    HW1 5282   6.975   6.454   4.770  0.0541  1.1094  0.7700
  754SOL    HW2 5283   7.050   6.396   4.888  0.7400  0.2359 -0.0782
  755SOL     OW 5284   5.285   9.155   4.873 -0.2214 -0.1900  0.3986
  755SOL    HW1 5285   5.364   9.100   4.872 -0.7828 -1.0279  1.0924
  755SOL    HW2 5286   5.249   9.143   4.960 -0.5823  0.9838  0.4186
  756SOL     OW 5287   2.294   8.024   8.340  0.3271  0.2770 -0.1759
  756SOL    HW1 5288   2.385   7.997   8.353  0.2757 -1.4743 -2.9050
  756SOL    HW2 5289   2.243   7.965   8.396  0.8031  0.7216  0.7381
  757SOL     OW 5290   5.145   5.198   4.768  1.0313  0.0663  0.4262
  757SOL    HW1 5291   5.080   5.266   4.789  1.6015  0.9750 -0.6768
  757SOL    HW2 5292   5.174   5.166   4.853  0.2722  0.7576  0.9580
  758SOL     OW 5293   6.778   0.208   7.793 -0.2331 -0.1519  0.0945
  758SOL    HW1 5294   6.753   0.239   7.706  2.2208 -0.0460 -0.5970
  758SOL    HW2 5295   6.804   0.287   7.840 -1.5677 -0.2076  0.9584
  759SOL     OW 5296   8.751   2.459   4.539  0.1839 -0.3455 -0.0751
  759SOL    HW1 5297   8.661   2.471   4.570  0.4900  2.4547 -0.1565
  759SOL    HW2 5298   8.756   2.367   4.515 -2.5997 -0.5916  0.1343
  760SOL     OW 5299   3.906   3.427   3.052  0.5667  0.5205 -0.6196
  760SOL    HW1 5300   3.968   3.474   3.107 -0.2190 -0.7994  1.4463
  760SOL    HW2 5301   3.936   3.336   3.053 -0.5671  0.1346 -0.7806
  761SOL     OW 5302   8.716   3.729   4.164 -0.5905 -0.5711  0.1927
  761SOL    HW1 5303   8.706   3.654   4.106 -2.3516  0.4074 -0.7971
  761SOL    HW2 5304   8.627   3.763   4.176  0.1713  1.3637  0.6113
  762SOL     OW 5305   0.359   7.607   3.682  0.0031 -0.1478 -0.4203
  762SOL    HW1 5306   0.301   7.564   3.744  2.2863  2.5633  3.8225
  762SOL    HW2 5307   0.443   7.562   3.692  0.9541  1.6932  0.0596
  763SOL     OW 5308   3.952   2.019   3.441  0.1876 -0.7652  0.0005
  763SOL    HW1 5309   3.974   2.111   3.452 -0.0015 -0.6816 -0.3367
  763SOL    HW2 5310   3.954   1.983   3.530  0.0229 -0.3863  0.1574
  764SOL     OW 5311   4.345   3.982   0.233 -0.0936  0.1296 -0.1271
  764SOL    HW1 5312   4.279   4.050   0.252  0.3837  0.6717 -0.3993
  764SOL    HW2 5313   4.427   4.018   0.267  0.0446 -0.6043  0.3302
  765SOL     OW 5314   8.997   9.237   5.290 -0.2310 -0.1905  0.5316
  765SOL    HW1 5315   9.040   9.307   5.241 -2.0804  0.5076 -0.1571
  765SOL    HW2 5316   9.030   9.156   5.251 -0.6946  0.3552 -1.0293
  766SOL     OW 5317   8.035   3.753   4.672 -0.1854 -0.2930 -0.8114
  766SOL    HW1 5318   7.970   3.759   4.603  0.3603 -2.5271 -1.5729
  766SOL    HW2 5319   7.997   3.693   4.736 -0.4219  1.2720  0.5447
  767SOL     OW 5320   1.543   7.625   0.554 -0.3488 -0.0029 -0.0158
  767SOL    HW1 5321   1.480   7.575   0.502 -0.9766 -0.4451  1.1451
  767SOL    HW2 5322   1.532   7.715   0.523 -1.4219 -0.1070  0.0183
  768SOL     OW 5323   1.834   5.485   7.283  0.4687 -0.5825  0.1871
  768SOL    HW1 5324   1.814   5.477   7.190 -0.3445 -0.1821  0.3209
  768SOL    HW2 5325   1.779   5.558   7.313 -0.2184 -1.5221  1.2497
  769SOL     OW 5326   1.945   3.248   0.692 -0.3069  0.2372 -0.1725
  769SOL    HW1 5327   1.885   3.232   0.764 -0.4083 -0.0098 -0.3102
  769SOL    HW2 5328   1.964   3.342   0.697 -0.0490  0.1562  0.3771
  770SOL     OW 5329   1.124   4.496   5.883 -0.3480  0.4737 -0.1410
  770SOL    HW1 5330   1.127   4.457   5.970 -0.0901 -0.1344 -0.4125
  770SOL    HW2 5331   1.121   4.590   5.898  1.0551  0.4233  0.5087
  771SOL     OW 5332   9.378   0.036   3.637  0.0176  0.3331  0.4355
  771SOL    HW1 5333   9.297   0.070   3.675 -0.2763 -0.2783  0.3479
  771SOL    HW2 5334   9.366  -0.059   3.635  1.6486  0.0257  2.6100
  772SOL     OW 5335   0.345   8.246   5.793  0.2693  0.0152 -0.3357
  772SOL    HW1 5336   0.335   8.269   5.701 -3.9491  0.1042  0.0438
  772SOL    HW2 5337   0.355   8.330   5.838 -0.6210  0.1887 -0.4470
  773SOL     OW 5338   7.753   6.844   6.334 -0.4405 -0.0698 -0.2638
  773SOL    HW1 5339   7.777   6.776   6.270 -1.9407 -0.3413 -0.5557
  773SOL    HW2 5340   7.752   6.799   6.418 -2.5039 -0.6935 -0.5946
  774SOL     OW 5341   2.845   7.930   7.017  0.3445 -0.7707  0.1252
  774SOL    HW1 5342   2.851   8.005   7.075  1.2957 -0.0794 -0.8420
  774SOL    HW2 5343   2.758   7.936   6.978  0.7268  0.3151 -0.5812
  775SOL     OW 5344   1.357   2.246   7.117  0.0869 -0.4856 -0.1411
  775SOL    HW1 5345   1.425   2.192   7.076  0.7428  0.7777 -0.7428
  775SOL    HW2 5346   1.398   2.278   7.197 -0.5966 -1.5415  0.6523
  776SOL     OW 5347   1.328   3.786   3.565  0.1292 -0.1920  0.5687
  776SOL    HW1 5348   1.395   3.819   3.625 -0.4017 -0.0676  1.1025
  776SOL    HW2 5349   1.269   3.860   3.552  0.8149  0.1070 -0.9557
  777SOL     OW 5350   9.126   0.046   4.394 -0.1705 -0.1189  0.1624
  777SOL    HW1 5351   9.051   0.049   4.453 -1.1683 -1.8311 -0.9641
  777SOL    HW2 5352   9.087   0.044   4.306  1.0828 -2.7159 -0.4010
  778SOL     OW 5353   4.988   3.091   9.397 -0.2327 -0.2399 -0.0852
  778SOL    HW1 5354   4.927   3.028   9.360  1.4670 -0.5854 -2.3998
  778SOL    HW2 5355   5.048   3.037   9.450  1.0078 -0.5835 -1.7831
  779SOL     OW 5356   4.104   7.414   5.823 -0.5151  0.2452 -0.2443
  779SOL    HW1 5357   4.146   7.424   5.908 -0.2054  0.1161 -0.3834
  779SOL    HW2 5358   4.091   7.320   5.813 -0.4052  0.2468 -0.4114
  780SOL     OW 5359   0.568   7.435   4.522 -0.0971 -0.2374  0.1525
  780SOL    HW1 5360   0.662   7.449   4.534  0.0764 -1.4219  0.2206
  780SOL    HW2 5361   0.531   7.440   4.610  0.0551 -0.8620  0.2532
  781SOL     OW 5362   3.264   3.575   6.618 -0.3840 -0.5397  0.3325
  781SOL    HW1 5363   3.238   3.483   6.622  2.2032 -1.4908 -2.5478
  781SOL    HW2 5364   3.331   3.585   6.686 -0.4255 -0.8641  0.4205
  782SOL     OW 5365   7.877   4.447   2.128  0.0582 -0.0825 -0.1858
  782SOL    HW1 5366   7.864   4.538   2.102  0.8131 -0.1355 -0.8097
  782SOL    HW2 5367   7.832   4.396   2.060 -0.6818 -0.1618  0.3698
  783SOL     OW 5368   8.181   3.961   1.956  0.7878  0.4163 -0.1815
  783SOL    HW1 5369   8.223   4.026   2.013 -1.0832  0.8677  0.7149
  783SOL    HW2 5370   8.109   3.926   2.009 -0.1917 -0.0891 -1.8320
  784SOL     OW 5371   3.649   1.182   5.896  0.3699  0.2403 -0.2179
  784SOL    HW1 5372   3.618   1.142   5.815  0.3996 -0.2184 -0.0067
  784SOL    HW2 5373   3.727   1.231   5.871  0.2845  0.2317 -0.4970
  785SOL     OW 5374   4.591   0.376   6.148 -0.1542 -0.6894 -0.3865
  785SOL    HW1 5375   4.588   0.299   6.204  0.5377 -0.7555 -0.4356
  785SOL    HW2 5376   4.575   0.342   6.059 -1.9644 -0.4923 -0.1618
  786SOL     OW 5377   3.359   5.587   2.878  0.2870  0.9738  0.3585
  786SOL    HW1 5378   3.292   5.633   2.828  0.8594  1.8208  0.3561
  786SOL    HW2 5379   3.342   5.611   2.970  0.9116  1.6246  0.3073
  787SOL     OW 5380   4.995   4.756   1.289  0.2176  0.8000 -0.7240
  787SOL    HW1 5381   4.980   4.851   1.290  0.1105  0.7823 -0.7652
  787SOL    HW2 5382   4.961   4.726   1.374 -1.2322  0.5596 -1.3713
  788SOL     OW 5383   8.169   1.136   1.358  0.1804 -0.2104  0.0423
  788SOL    HW1 5384   8.245   1.182   1.395  1.2808 -0.2395 -2.1286
  788SOL    HW2 5385   8.197   1.111   1.270 -2.2110 -0.5986 -0.6287
  789SOL     OW 5386   0.762   8.115   7.836  0.4170  0.2955  0.4566
  789SOL    HW1 5387   0.835   8.108   7.898  1.8560 -0.2763 -1.2482
  789SOL    HW2 5388   0.788   8.059   7.763 -1.9437 -0.2480  0.0013
  790SOL     OW 5389   0.229   2.055   4.477 -0.3047 -0.2004 -0.1950
  790SOL    HW1 5390   0.248   2.068   4.569 -0.5456 -0.8707 -0.0496
  790SOL    HW2 5391   0.203   2.142   4.445  0.1811  0.1140  0.2663
  791SOL     OW 5392   4.361   1.143   1.457  0.0190 -0.5065 -0.6811
  791SOL    HW1 5393   4.384   1.052   1.472 -0.6490 -0.7259 -0.9687
  791SOL    HW2 5394   4.268   1.141   1.432 -0.5159  0.4059  1.1256
  792SOL     OW 5395   0.240   3.761   1.493 -0.3011 -0.4331  0.1568
  792SOL    HW1 5396   0.215   3.839   1.443  0.0762 -0.5189 -0.1709
  792SOL    HW2 5397   0.176   3.756   1.564 -1.3130 -0.7308 -0.7571
  793SOL     OW 5398   7.982   3.097   5.801 -0.3978  0.3199 -0.5593
  793SOL    HW1 5399   8.011   3.152   5.874 -0.8677  0.5237 -0.5234
  793SOL    HW2 5400   8.062   3.081   5.751 -0.0720  0.1992 -0.0156
  794SOL     OW 5401   4.081   0.381   6.148  0.0243  0.0839 -0.0583
  794SOL    HW1 5402   4.166   0.412   6.179 -1.0403  1.6218  1.4503
  794SOL    HW2 5403   4.092   0.371   6.053  1.9836 -0.1153  0.1713
  795SOL     OW 5404   9.010   4.586   6.621 -0.8313 -0.0421 -0.6321
  795SOL    HW1 5405   8.943   4.618   6.562 -1.2066 -2.4674 -1.5619
  795SOL    HW2 5406   8.962   4.539   6.689 -0.2113  0.3404  0.0880
  796SOL     OW 5407   1.757   7.793   6.408  0.3999  0.5925 -0.6019
  796SOL    HW1 5408   1.739   7.865   6.348 -0.7104  0.5325 -0.3466
  796SOL    HW2 5409   1.816   7.830   6.473 -0.9239  1.5474  0.0737
  797SOL     OW 5410   9.324   8.441   0.083  0.2382  0.0213 -0.1749
  797SOL    HW1 5411   9.413   8.450   0.051 -0.3515  0.6658 -1.6814
  797SOL    HW2 5412   9.298   8.530   0.108 -0.0760 -0.1213  0.0222
  798SOL     OW 5413   1.159   7.894   5.297 -0.0906 -0.1987  0.1227
  798SOL    HW1 5414   1.176   7.803   5.321 -1.6689 -0.5022  0.1258
  798SOL    HW2 5415   1.102   7.927   5.367  0.8477  0.9459  0.3772
  799SOL     OW 5416   2.222   9.375   2.871  0.3239  0.4399 -0.3692
  799SOL    HW1 5417   2.154   9.438   2.898  0.4698  0.1331  0.7279
  799SOL    HW2 5418   2.301   9.405   2.915  0.0461 -1.4254  1.4472
  800SOL     OW 5419   0.008   3.501   1.813  0.0965  0.2761 -0.0225
  800SOL    HW1 5420  -0.024   3.455   1.736  0.2146 -0.6855  0.4950
  800SOL    HW2 5421   0.101   3.516   1.796 -0.1538  1.1810 -0.6068
  801SOL     OW 5422   3.207   3.777   5.461 -0.1521  0.0234 -0.1187
  801SOL    HW1 5423   3.193   3.689   5.426  0.2161  0.0710 -0.3973
  801SOL    HW2 5424   3.298   3.797   5.439  0.3716 -0.3151  1.7274
  802SOL     OW 5425   3.162   1.463   3.991  0.5775  0.1938 -0.4283
  802SOL    HW1 5426   3.223   1.399   3.954 -0.0843 -1.3248  1.0762
  802SOL    HW2 5427   3.127   1.510   3.914 -0.4616 -2.6143 -1.7405
  803SOL     OW 5428   7.346   2.760   9.229 -0.5878  0.3632  0.4016
  803SOL    HW1 5429   7.309   2.822   9.167 -1.2718 -0.7940 -0.3700
  803SOL    HW2 5430   7.395   2.814   9.291  0.8218  1.4874 -1.6298
  804SOL     OW 5431   2.318   4.388   6.061 -0.5130 -0.3084  0.1368
  804SOL    HW1 5432   2.315   4.444   6.138 -1.2773  0.8373 -0.7157
  804SOL    HW2 5433   2.364   4.440   5.995  0.8400 -1.5761  0.0420
  805SOL     OW 5434   7.226   4.649   5.129  0.0536  0.1101  0.0134
  805SOL    HW1 5435   7.177   4.665   5.210 -1.9289 -3.3051 -0.4069
  805SOL    HW2 5436   7.312   4.619   5.158 -0.4288 -0.4722  0.8431
  806SOL     OW 5437   6.471   2.301   0.041  0.0266 -0.3916  0.1649
  806SOL    HW1 5438   6.393   2.250   0.022 -1.4316  1.8238  0.0206
  806SOL    HW2 5439   6.445   2.359   0.112  1.4443  0.6116 -0.1052
  807SOL     OW 5440   7.521   1.732   0.884 -0.2717 -0.5769  0.2876
  807SOL    HW1 5441   7.460   1.770   0.947 -1.4363  1.4841 -2.0114
  807SOL    HW2 5442   7.476   1.654   0.851 -0.6072 -0.4256  0.3889
  808SOL     OW 5443   3.445   6.794   4.786  0.1412 -0.5380  0.2545
  808SOL    HW1 5444   3.462   6.887   4.767  0.5701 -0.3276  1.6018
  808SOL    HW2 5445   3.518   6.768   4.842 -1.9683 -0.6420  3.0580
  809SOL     OW 5446   0.449   2.735   8.888 -0.0964  0.4451  0.2593
  809SOL    HW1 5447   0.511   2.696   8.950 -0.7091 -0.0546  0.5690
  809SOL    HW2 5448   0.442   2.826   8.915 -0.6038  0.1542  1.1414
  810SOL     OW 5449   5.718   6.060   1.441  0.3451  0.2961 -0.0827
  810SOL    HW1 5450   5.643   6.005   1.419 -0.5305  1.3550  0.2252
  810SOL    HW2 5451   5.790   5.998   1.454 -0.8933 -0.8660  1.3926
  811SOL     OW 5452   0.646   2.541   5.566  0.3921 -0.1035  0.1993
  811SOL    HW1 5453   0.558   2.503   5.563  0.7251 -0.8035 -0.8232
  811SOL    HW2 5454   0.631   2.636   5.566 -0.3792 -0.2182  0.7699
  812SOL     OW 5455   1.474   4.720   4.454  0.0994 -0.6391 -0.2012
  812SOL    HW1 5456   1.535   4.789   4.429 -0.7619 -0.3543 -1.5693
  812SOL    HW2 5457   1.388   4.752   4.426 -0.4999 -1.6468  0.4373
  813SOL     OW 5458   0.488   6.153   7.011  0.3042  0.3671 -0.4498
  813SOL    HW1 5459   0.551   6.221   6.988  0.7983 -0.1340 -0.5940
  813SOL    HW2 5460   0.498   6.087   6.942  0.9005 -0.5533  0.5132
  814SOL     OW 5461   1.309   4.230   3.007  0.0381  0.0057  0.6481
  814SOL    HW1 5462   1.260   4.256   2.929  0.6373 -1.1600 -0.1288
  814SOL    HW2 5463   1.335   4.140   2.990  1.3551  0.1967  1.5979
  815SOL     OW 5464   5.859   2.717   3.045 -0.1030  0.5142 -0.9681
  815SOL    HW1 5465   5.921   2.669   2.991 -0.8254 -1.3959 -0.1422
  815SOL    HW2 5466   5.909   2.743   3.123  0.4195  1.5730 -1.6416
  816SOL     OW 5467   8.610   6.959   5.605 -0.3498  0.1484 -0.2731
  816SOL    HW1 5468   8.519   6.982   5.623 -0.5393 -0.1088 -0.8745
  816SOL    HW2 5469   8.662   7.018   5.660 -0.8816  0.1907  0.1855
  817SOL     OW 5470   1.108   7.698   7.868 -0.1973  0.6605 -0.4272
  817SOL    HW1 5471   1.074   7.609   7.877 -1.0654  0.6462 -3.4105
  817SOL    HW2 5472   1.199   7.692   7.897 -0.8122 -0.7586  1.2762
  818SOL     OW 5473   5.185   1.692   8.560  0.0242  0.1107 -0.9337
  818SOL    HW1 5474   5.219   1.620   8.613 -0.1443 -0.6980 -1.9276
  818SOL    HW2 5475   5.195   1.769   8.616 -2.4420 -1.0757  1.2720
  819SOL     OW 5476   9.428   9.201   2.734  0.3868 -0.1571 -0.5928
  819SOL    HW1 5477   9.402   9.196   2.642 -0.6120 -2.3918 -0.2138
  819SOL    HW2 5478   9.507   9.147   2.740  0.0464 -0.5977 -0.0110
  820SOL     OW 5479   6.009   0.784   1.685 -0.5222  0.0872  0.2542
  820SOL    HW1 5480   5.919   0.786   1.716 -0.7913  0.5639 -0.5619
  820SOL    HW2 5481   6.039   0.875   1.691 -1.2019  0.5638 -2.6889
  821SOL     OW 5482   0.089   4.728   4.837 -0.4272  0.1888  0.3144
  821SOL    HW1 5483   0.112   4.815   4.805  0.5173 -0.1740  0.0020
  821SOL    HW2 5484   0.045   4.744   4.921 -1.0351  1.0126 -0.1549
  822SOL     OW 5485   1.560   4.616   7.544  0.2502  0.0792 -0.3500
  822SOL    HW1 5486   1.488   4.636   7.484 -0.0611 -1.7077 -0.6005
  822SOL    HW2 5487   1.579   4.524   7.529  1.8100  0.2244  0.5778
  823SOL     OW 5488   6.097   0.597   4.024  0.7746  0.0966 -0.1249
  823SOL    HW1 5489   6.154   0.577   3.950 -0.0266 -1.1511 -0.4264
  823SOL    HW2 5490   6.009   0.583   3.990  0.2648  2.2327  0.2706
  824SOL     OW 5491   9.365   3.303   4.655 -0.0897 -0.2726 -0.4003
  824SOL    HW1 5492   9.397   3.346   4.576 -0.2030  0.0660 -0.2637
  824SOL    HW2 5493   9.280   3.266   4.629 -0.0926 -0.2261 -0.4591
  825SOL     OW 5494   7.806   6.510   0.256  0.1613 -0.7765  0.7481
  825SOL    HW1 5495   7.778   6.420   0.237 -3.4689  1.0629 -3.3404
  825SOL    HW2 5496   7.737   6.545   0.312  1.5604 -0.4554  2.3133
  826SOL     OW 5497   7.632   4.789   5.909 -0.3043 -0.1996  0.3740
  826SOL    HW1 5498   7.716   4.798   5.955  0.6834 -0.9728 -1.2174
  826SOL    HW2 5499   7.575   4.744   5.971  0.4286  0.4410  1.5234
  827SOL     OW 5500   6.862   4.856   3.707  0.2435 -0.3285  0.1648
  827SOL    HW1 5501   6.885   4.770   3.673 -0.2611  0.4468 -2.2142
  827SOL    HW2 5502   6.926   4.915   3.669 -0.0408  0.4998  0.9538
  828SOL     OW 5503   8.249   3.003   1.313 -0.6019 -0.3088  0.3112
  828SOL    HW1 5504   8.243   2.925   1.258 -1.1307 -1.3916  1.8675
  828SOL    HW2 5505   8.329   2.990   1.364 -0.7696  0.0875  0.6779
  829SOL     OW 5506   8.840   4.394   3.365  0.0429 -0.7632  0.7111
  829SOL    HW1 5507   8.832   4.328   3.296  3.0315 -1.0765  0.5991
  829SOL    HW2 5508   8.803   4.474   3.326 -1.1171 -1.6878 -0.1164
  830SOL     OW 5509   1.299   3.183   1.148 -0.2224 -0.5098 -0.3732
  830SOL    HW1 5510   1.363   3.253   1.143 -0.0626 -0.4868  1.6202
  830SOL    HW2 5511   1.214   3.227   1.141 -0.1968  0.1446  2.8116
  831SOL     OW 5512   8.624   5.211   7.712  0.0251  0.2122 -0.5079
  831SOL    HW1 5513   8.648   5.151   7.641  0.7376 -0.7756  0.5528
  831SOL    HW2 5514   8.629   5.158   7.791 -1.7099  1.0413  0.1978
  832SOL     OW 5515   2.826   8.666   4.419  0.4531  0.1076  0.1039
  832SOL    HW1 5516   2.879   8.698   4.346 -0.3458 -2.0995 -1.5086
  832SOL    HW2 5517   2.873   8.695   4.497  2.9100  0.0007 -1.2722
  833SOL     OW 5518   7.364   9.066   2.094  0.5021  0.1251  0.3978
  833SOL    HW1 5519   7.426   9.135   2.069  1.8241 -0.9266  0.7033
  833SOL    HW2 5520   7.365   9.066   2.190  0.1942 -0.0521  0.4029
  834SOL     OW 5521   4.513   1.826   3.731 -0.0142 -0.3426  0.0572
  834SOL    HW1 5522   4.548   1.866   3.652 -1.2948 -0.6681 -0.6892
  834SOL    HW2 5523   4.574   1.756   3.753 -0.4020 -1.1704 -1.4563
  835SOL     OW 5524   3.939   0.078   0.594  0.1989 -0.1076  0.3879
  835SOL    HW1 5525   3.886   0.051   0.519  1.9683  0.7247 -1.1954
  835SOL    HW2 5526   3.890   0.150   0.634 -1.5499 -1.6113  1.0234
  836SOL     OW 5527   0.554   1.399   2.670 -0.0700 -0.1988  0.6184
  836SOL    HW1 5528   0.605   1.480   2.667 -2.1560  1.1348 -0.4180
  836SOL    HW2 5529   0.619   1.329   2.674  1.7814  1.4907  0.8116
  837SOL     OW 5530   1.354   4.978   5.131 -0.2217 -0.2198  0.2976
  837SOL    HW1 5531   1.382   4.901   5.081 -1.0245 -1.0650  1.1258
  837SOL    HW2 5532   1.428   5.039   5.125  0.0538 -0.6720 -1.1419
  838SOL     OW 5533   8.826   2.440   1.124  0.0363 -0.1423 -0.6542
  838SOL    HW1 5534   8.768   2.376   1.083  0.0041 -0.6935  0.2394
  838SOL    HW2 5535   8.774   2.476   1.196  0.6418 -0.3265 -0.1174
  839SOL     OW 5536   0.927   6.407   4.046 -0.2881  0.3050  0.2551
  839SOL    HW1 5537   1.018   6.414   4.018  0.0582  0.1327  1.3206
  839SOL    HW2 5538   0.898   6.497   4.057 -0.7315  0.4167 -1.5638
  840SOL     OW 5539   8.881   0.044   5.996 -0.3726  0.0023  0.3798
  840SOL    HW1 5540   8.869   0.061   5.902  0.1779 -0.0320  0.3013
  840SOL    HW2 5541   8.937  -0.033   5.999  1.2711  1.1843  0.7245
  841SOL     OW 5542   3.066   9.126   2.437 -0.0287 -0.1349 -0.0433
  841SOL    HW1 5543   3.117   9.114   2.517 -0.4904  0.6369  0.3708
  841SOL    HW2 5544   2.975   9.122   2.465 -0.1947  1.3373 -0.3231
  842SOL     OW 5545   2.244   0.323   6.225  0.5573 -0.2472 -0.1735
  842SOL    HW1 5546   2.183   0.253   6.201 -0.9296  0.6264  1.0726
  842SOL    HW2 5547   2.283   0.350   6.142 -0.3691 -1.1572 -0.9110
  843SOL     OW 5548   0.599   5.647   0.036 -0.0503  0.3139  0.4892
  843SOL    HW1 5549   0.653   5.699   0.096 -1.3857  2.7390 -0.3580
  843SOL    HW2 5550   0.644   5.563   0.031  1.9309  1.2179  2.2501
  844SOL     OW 5551   7.810   1.182   4.562 -0.1331  0.5317 -0.1003
  844SOL    HW1 5552   7.802   1.150   4.651 -1.8102  2.0785  0.3524
  844SOL    HW2 5553   7.781   1.109   4.507 -0.9637  0.2134  0.7474
  845SOL     OW 5554   0.663   2.142   6.215 -0.5173 -0.1177 -0.3010
  845SOL    HW1 5555   0.613   2.079   6.161 -1.2382  0.1294  0.0727
  845SOL    HW2 5556   0.698   2.204   6.151 -0.0185 -0.7493 -0.6490
  846SOL     OW 5557   6.346   1.050   8.204 -0.6045 -0.6172 -0.1134
  846SOL    HW1 5558   6.361   1.029   8.112  0.6963  0.3970 -0.1387
  846SOL    HW2 5559   6.252   1.068   8.209 -0.5572  0.0024 -1.3773
  847SOL     OW 5560   8.324   0.385   1.124  0.7106  0.4145 -0.9267
  847SOL    HW1 5561   8.363   0.420   1.044  1.6096  1.1050 -0.1966
  847SOL    HW2 5562   8.383   0.314   1.150  1.5320  1.5047  0.2182
  848SOL     OW 5563   2.063   2.405   2.029  0.0286  0.3201  0.4739
  848SOL    HW1 5564   2.073   2.500   2.039 -1.3441  0.3941  1.3800
  848SOL    HW2 5565   2.107   2.368   2.104  0.9844  0.2129 -0.1379
  849SOL     OW 5566   5.755   0.692   5.051 -0.0943 -0.1523  0.1901
  849SOL    HW1 5567   5.754   0.770   5.106 -0.7209 -0.3103  0.4112
  849SOL    HW2 5568   5.735   0.620   5.112  0.0552 -0.4272 -0.0854
  850SOL     OW 5569   1.118   7.880   4.089 -0.3045  0.1420  0.6062
  850SOL    HW1 5570   1.179   7.822   4.134 -1.0396  0.5053  2.1206
  850SOL    HW2 5571   1.173   7.953   4.059  0.3984 -0.6897 -0.1571
  851SOL     OW 5572   7.134   4.416   7.484  0.1546  0.0819  0.1137
  851SOL    HW1 5573   7.199   4.471   7.528 -0.4062  0.6485  0.2432
  851SOL    HW2 5574   7.185   4.361   7.424  0.9626 -0.9819  1.7464
  852SOL     OW 5575   6.549   0.453   7.261  0.4100 -0.2396 -0.1367
  852SOL    HW1 5576   6.524   0.540   7.290  1.6568 -0.4521  1.5986
  852SOL    HW2 5577   6.538   0.397   7.338  1.9868 -1.1573 -0.5567
  853SOL     OW 5578   3.328   8.872   1.160  0.1741 -0.3003  0.2044
  853SOL    HW1 5579   3.279   8.813   1.217 -0.0825  0.1086  0.4086
  853SOL    HW2 5580   3.268   8.893   1.089  0.2265 -0.1922  0.1918
  854SOL     OW 5581   8.736   2.290   0.011 -0.6482  0.2070  0.1812
  854SOL    HW1 5582   8.699   2.203   0.023  1.5635 -0.4720  2.6823
  854SOL    HW2 5583   8.810   2.276  -0.049  0.1755  0.2089  1.1833
  855SOL     OW 5584   0.507   6.343   8.010  0.1695 -0.1560  0.6582
  855SOL    HW1 5585   0.546   6.357   8.096 -2.0249  0.0839  1.6526
  855SOL    HW2 5586   0.470   6.428   7.986  1.5442  0.0257 -0.9632
  856SOL     OW 5587   6.547   5.761   0.366 -0.4513  0.1266 -0.1966
  856SOL    HW1 5588   6.462   5.724   0.342  0.0134 -1.7377  0.8693
  856SOL    HW2 5589   6.610   5.709   0.316  0.1718  0.1059  0.5959
  857SOL     OW 5590   0.655   1.839   8.517  0.0387  0.2403 -0.6345
  857SOL    HW1 5591   0.696   1.835   8.603 -2.0036  0.0689  0.3502
  857SOL    HW2 5592   0.680   1.757   8.475  1.1123  0.3642 -0.2659
  858SOL     OW 5593   3.517   4.480   3.845 -0.3253  0.1300  0.7595
  858SOL    HW1 5594   3.530   4.571   3.818 -2.1701  0.4917  1.0384
  858SOL    HW2 5595   3.570   4.429   3.783 -0.0192  1.3187  0.0204
  859SOL     OW 5596   7.892   8.881   8.693 -0.6539 -0.1374 -0.1504
  859SOL    HW1 5597   7.805   8.846   8.672 -0.9569  0.3315  0.3193
  859SOL    HW2 5598   7.943   8.804   8.717 -1.0043 -0.3907 -0.2098
  860SOL     OW 5599   3.931   2.911   3.536  0.1628 -0.2632  0.7399
  860SOL    HW1 5600   4.017   2.951   3.548 -1.1632  2.0570  2.8137
  860SOL    HW2 5601   3.893   2.957   3.461  0.0515 -0.0974  0.8979
  861SOL     OW 5602   2.903   8.740   8.692  0.3700  0.8963  0.5484
  861SOL    HW1 5603   2.963   8.766   8.622  0.2335  0.8660  0.4201
  861SOL    HW2 5604   2.857   8.821   8.715 -1.3851  0.4165 -1.1271
  862SOL     OW 5605   0.891   5.949   0.391 -0.1050 -0.4599 -0.0480
  862SOL    HW1 5606   0.857   6.014   0.452  0.3294  0.3339 -0.6513
  862SOL    HW2 5607   0.897   5.995   0.308  2.0772 -0.7062 -0.0416
  863SOL     OW 5608   5.883   1.604   2.671 -0.3175 -0.4569  0.1588
  863SOL    HW1 5609   5.902   1.649   2.589  1.0701  0.9676  1.2118
  863SOL    HW2 5610   5.825   1.664   2.718  1.5063  0.2617  1.5575
  864SOL     OW 5611   2.125   1.950   6.097  0.3492 -0.4163 -0.3369
  864SOL    HW1 5612   2.103   2.037   6.130  0.6523 -0.7791  0.8577
  864SOL    HW2 5613   2.119   1.958   6.002 -0.5897  0.6480 -0.2001
  865SOL     OW 5614   1.701   2.386   3.215 -0.8207  0.2586 -0.0324
  865SOL    HW1 5615   1.701   2.291   3.223  1.6711  0.4770  3.8078
  865SOL    HW2 5616   1.784   2.406   3.171 -0.7405  0.7108  0.3225
  866SOL     OW 5617   8.274   0.763   0.727 -0.1889  0.0289 -0.1921
  866SOL    HW1 5618   8.287   0.821   0.652 -3.1455 -0.6177 -1.2908
  866SOL    HW2 5619   8.344   0.786   0.788  1.0806  1.9506 -2.2987
  867SOL     OW 5620   0.089   4.872   4.349 -0.4450  0.0859 -0.2311
  867SOL    HW1 5621   0.000   4.855   4.380 -1.2372  0.2534 -2.3518
  867SOL    HW2 5622   0.117   4.790   4.309  0.9895 -0.4745  1.8291
  868SOL     OW 5623   0.660   4.136   6.286  0.0303  0.2181 -0.1414
  868SOL    HW1 5624   0.710   4.188   6.223  0.1656 -0.6092 -0.7205
  868SOL    HW2 5625   0.727   4.084   6.331 -0.2996 -0.8970 -0.9228
  869SOL     OW 5626   6.635   8.294   3.701 -0.0476  0.2988  0.1029
  869SOL    HW1 5627   6.719   8.327   3.734  0.1588 -1.3461  1.2899
  869SOL    HW2 5628   6.570   8.353   3.739  0.2902 -0.7520  2.4454
  870SOL     OW 5629   3.900   7.273   3.068  0.6340 -0.6097  0.3972
  870SOL    HW1 5630   3.970   7.279   3.133 -0.6040 -0.2179  1.7266
  870SOL    HW2 5631   3.821   7.255   3.119 -0.7558  1.9410 -0.7400
  871SOL     OW 5632   8.636   5.591   5.792 -0.5893  0.3427 -0.0252
  871SOL    HW1 5633   8.726   5.596   5.823 -0.4698 -1.5187 -0.0201
  871SOL    HW2 5634   8.640   5.622   5.701  0.0600  0.2302 -0.0366
  872SOL     OW 5635   0.562   2.562   0.184 -0.0012  0.5520 -0.7223
  872SOL    HW1 5636   0.538   2.481   0.229  2.2804 -1.3005 -2.7100
  872SOL    HW2 5637   0.610   2.613   0.249 -1.5584  0.3991  0.5716
  873SOL     OW 5638   3.755   2.048   5.265 -0.2349  0.1609 -0.0351
  873SOL    HW1 5639   3.761   2.142   5.285  0.1327  0.0189  0.5373
  873SOL    HW2 5640   3.710   2.010   5.341 -0.5140 -0.1036 -0.3326
  874SOL     OW 5641   0.442   0.237   0.049  0.3117  0.1802 -0.2030
  874SOL    HW1 5642   0.390   0.305   0.006 -1.7891 -0.7119  0.8086
  874SOL    HW2 5643   0.401   0.155   0.022 -1.0642 -0.4197  3.3540
  875SOL     OW 5644   1.266   0.156   3.346 -0.2500 -0.0030 -0.0918
  875SOL    HW1 5645   1.324   0.155   3.270  0.3697  0.5987  0.3599
  875SOL    HW2 5646   1.303   0.223   3.403 -0.6382 -0.5283  0.7925
  876SOL     OW 5647   0.497   8.919   2.679  0.2399 -0.3036 -0.4403
  876SOL    HW1 5648   0.506   8.993   2.740  2.4245 -2.0891  1.5066
  876SOL    HW2 5649   0.408   8.887   2.693  0.6605 -0.6098  1.7960
  877SOL     OW 5650   0.743   2.799   0.754  0.2006  0.2344 -0.0756
  877SOL    HW1 5651   0.794   2.863   0.704 -1.6278  2.8851  1.2942
  877SOL    HW2 5652   0.660   2.794   0.708  0.0026 -0.4411  0.3540
  878SOL     OW 5653   0.352   7.338   4.398 -0.4833  0.3927  0.1337
  878SOL    HW1 5654   0.362   7.244   4.413  0.4153  0.4409 -0.1355
  878SOL    HW2 5655   0.427   7.378   4.441  0.0893  0.8335 -1.2398
  879SOL     OW 5656   3.768   0.617   9.305  0.5395  0.0064 -0.0530
  879SOL    HW1 5657   3.761   0.712   9.316 -0.0795  0.1920 -1.8932
  879SOL    HW2 5658   3.858   0.602   9.276  1.6941 -0.3368  3.4382
  880SOL     OW 5659   9.092   3.285   8.632 -0.3192  0.0524  0.0009
  880SOL    HW1 5660   9.019   3.296   8.694 -0.9653 -1.3868 -0.4692
  880SOL    HW2 5661   9.088   3.192   8.607  1.1064  0.1790 -0.7487
  881SOL     OW 5662   8.697   7.198   2.699 -0.4673  0.1788  0.0108
  881SOL    HW1 5663   8.767   7.146   2.739 -1.2973 -1.8903 -1.1637
  881SOL    HW2 5664   8.625   7.192   2.762 -0.6493 -0.3259 -0.2418
  882SOL     OW 5665   2.276   6.662   8.913 -0.9464  0.2185 -0.2032
  882SOL    HW1 5666   2.247   6.644   9.003  0.0402  0.5904  0.2007
  882SOL    HW2 5667   2.296   6.755   8.913  0.6006 -0.0914 -0.3496
  883SOL     OW 5668   5.859   3.831   8.198  0.3751 -0.3543 -0.0227
  883SOL    HW1 5669   5.832   3.752   8.150  2.1725 -1.3006  0.4621
  883SOL    HW2 5670   5.849   3.902   8.134  1.2661 -1.3760 -1.3419
  884SOL     OW 5671   8.290   0.516   1.592  0.9043 -0.0629 -0.5323
  884SOL    HW1 5672   8.341   0.588   1.555  1.1667  0.3583  0.6462
  884SOL    HW2 5673   8.352   0.468   1.647  0.2647 -0.0792  0.1848
  885SOL     OW 5674   8.635   5.067   4.602 -0.4701 -0.5545 -0.4615
  885SOL    HW1 5675   8.663   5.059   4.693 -0.9293  0.1991 -0.2583
  885SOL    HW2 5676   8.712   5.040   4.551 -0.4917 -1.8405  0.1499
  886SOL     OW 5677   8.899   5.694   3.640  0.0045 -0.2131 -0.3155
  886SOL    HW1 5678   8.895   5.655   3.727 -1.4464 -0.6410 -0.5620
  886SOL    HW2 5679   8.848   5.635   3.585 -0.0839  0.6897 -1.2176
  887SOL     OW 5680   0.459   3.759   6.685 -0.3474 -0.1554 -0.5854
  887SOL    HW1 5681   0.417   3.732   6.766  1.0891 -1.4112 -0.2478
  887SOL    HW2 5682   0.549   3.779   6.710  0.4306 -1.6925 -2.0628
  888SOL     OW 5683   2.220   6.470   3.491  0.1394 -0.0480 -0.1500
  888SOL    HW1 5684   2.241   6.448   3.582  1.5289  0.7624 -0.2717
  888SOL    HW2 5685   2.304   6.492   3.451 -0.7446  2.0190 -0.9625
  889SOL     OW 5686   5.585   1.565   6.319  0.1157 -0.2911  0.3585
  889SOL    HW1 5687   5.491   1.548   6.316  0.0090  0.1800  0.8948
  889SOL    HW2 5688   5.593   1.660   6.310  0.6677 -0.5116 -1.7532
  890SOL     OW 5689   0.624   3.134   4.009  0.0741  0.1661  0.2073
  890SOL    HW1 5690   0.645   3.184   3.930 -0.3229  0.6216  0.3901
  890SOL    HW2 5691   0.694   3.155   4.070  0.6694 -0.5886 -0.1911
  891SOL     OW 5692   0.362   6.427   4.330  0.3643  0.4794  0.3961
  891SOL    HW1 5693   0.348   6.518   4.306  0.3997  0.5266  0.5522
  891SOL    HW2 5694   0.288   6.406   4.388 -0.7615 -0.1869 -1.2381
  892SOL     OW 5695   8.280   2.154   6.674  0.2392  0.0703  0.6142
  892SOL    HW1 5696   8.288   2.225   6.738  2.5612  0.5800 -0.1923
  892SOL    HW2 5697   8.252   2.078   6.725 -0.4959  1.1007  1.7731
  893SOL     OW 5698   2.831   3.762   6.748 -0.5028  0.0950 -0.3357
  893SOL    HW1 5699   2.885   3.684   6.760  2.2904  1.6526 -2.3671
  893SOL    HW2 5700   2.838   3.808   6.831  0.6215 -0.1271 -0.3003
  894SOL     OW 5701   1.653   3.730   8.227 -0.4121  0.0096 -0.4100
  894SOL    HW1 5702   1.613   3.811   8.260 -1.5662 -0.9129  0.4911
  894SOL    HW2 5703   1.661   3.745   8.133  0.1995  1.5219 -0.1358
  895SOL     OW 5704   0.060   3.003   2.603  0.2673 -0.0525 -0.3794
  895SOL    HW1 5705  -0.015   3.002   2.543  0.6582  1.8617 -0.9114
  895SOL    HW2 5706   0.048   3.082   2.656  1.6384 -0.0028 -0.1247
  896SOL     OW 5707   7.066   7.176   0.323 -0.0644  0.2121 -0.0109
  896SOL    HW1 5708   7.100   7.176   0.412  0.0755 -0.5895 -0.0573
  896SOL    HW2 5709   7.069   7.084   0.296 -1.8290  0.1834 -0.1844
  897SOL     OW 5710   0.410   4.761   2.276 -0.3905 -0.3148  0.2857
  897SOL    HW1 5711   0.363   4.761   2.359 -1.5241 -2.2841 -0.3460
  897SOL    HW2 5712   0.495   4.721   2.297 -0.9311 -1.4318  0.3572
  898SOL     OW 5713   9.115   9.154   2.293  0.2157  0.0415  0.1855
  898SOL    HW1 5714   9.079   9.111   2.216 -2.1848  1.4486  0.4443
  898SOL    HW2 5715   9.088   9.098   2.366  2.5523 -1.3325  0.0216
  899SOL     OW 5716   8.736   4.862   2.438  0.7966  0.5497 -0.0457
  899SOL    HW1 5717   8.748   4.909   2.520  2.4118  1.7979 -0.9813
  899SOL    HW2 5718   8.768   4.922   2.371 -0.4041 -0.5025 -1.5837
  900SOL     OW 5719   6.335   1.647   7.740  0.0389  0.1634 -0.1297
  900SOL    HW1 5720   6.353   1.720   7.799  0.0728 -0.1261  0.2202
  900SOL    HW2 5721   6.288   1.584   7.794 -1.3228  0.5546 -0.8104
  901SOL     OW 5722   5.168   2.002   3.250 -0.1791  0.6105  0.3118
  901SOL    HW1 5723   5.110   2.001   3.327  1.0431 -0.0887  1.2489
  901SOL    HW2 5724   5.111   2.026   3.177 -1.5410  0.4366  1.3000
  902SOL     OW 5725   3.349   8.637   3.846  0.2178  0.0757 -0.4399
  902SOL    HW1 5726   3.320   8.724   3.818  0.6803  0.8595  1.4823
  902SOL    HW2 5727   3.269   8.584   3.849 -0.3463  0.9760  0.3370
  903SOL     OW 5728   5.728   2.849   1.820  0.1903 -0.0246 -0.4041
  903SOL    HW1 5729   5.692   2.783   1.761  1.8720 -0.8188 -0.5627
  903SOL    HW2 5730   5.672   2.844   1.898 -0.6694 -0.5173 -1.0452
  904SOL     OW 5731   2.865   3.509   7.211  0.0340  0.3827  0.7245
  904SOL    HW1 5732   2.824   3.432   7.172  0.6021 -0.5892  2.0241
  904SOL    HW2 5733   2.874   3.488   7.303  0.1222  2.0502  1.1146
  905SOL     OW 5734   2.708   6.565   6.747  0.2835 -0.0117 -0.0594
  905SOL    HW1 5735   2.756   6.564   6.664 -0.2921 -0.4003 -0.3984
  905SOL    HW2 5736   2.716   6.476   6.780  1.2855  0.3787  0.7685
  906SOL     OW 5737   4.751   3.516   5.720 -0.4065 -0.1850 -0.4057
  906SOL    HW1 5738   4.776   3.489   5.631 -0.3626 -2.6969  0.3191
  906SOL    HW2 5739   4.658   3.492   5.726 -0.7077  1.0506 -0.1659
  907SOL     OW 5740   2.598   8.492   6.702 -0.2378  0.3648 -1.1377
  907SOL    HW1 5741   2.543   8.418   6.726  0.3822 -0.3679 -1.9233
  907SOL    HW2 5742   2.624   8.531   6.786  0.2207 -0.8944 -0.6821
  908SOL     OW 5743   5.791   4.187   3.713  0.1054  1.0332 -0.3476
  908SOL    HW1 5744   5.778   4.096   3.738  0.0148  0.7119 -1.5458
  908SOL    HW2 5745   5.751   4.238   3.785  0.2895  0.1448  0.3920
  909SOL     OW 5746   5.646   1.100   2.816  0.0967 -0.2899  0.0368
  909SOL    HW1 5747   5.701   1.163   2.770 -0.5051 -0.4511 -0.9196
  909SOL    HW2 5748   5.604   1.050   2.746  0.7857 -1.9377  0.7874
  910SOL     OW 5749   0.851   2.328   0.737 -0.4941 -0.0746  0.3832
  910SOL    HW1 5750   0.817   2.380   0.664 -0.5747  1.5441  1.5485
  910SOL    HW2 5751   0.861   2.391   0.809  1.8334 -1.1617  1.0590
  911SOL     OW 5752   2.697   4.135   2.563 -0.6916  0.2650 -0.4629
  911SOL    HW1 5753   2.630   4.155   2.628 -1.1343  0.9693 -1.1238
  911SOL    HW2 5754   2.760   4.080   2.609 -0.8383  1.0119  0.6467
  912SOL     OW 5755   6.823   2.276   1.319 -0.6971 -0.1806  0.6397
  912SOL    HW1 5756   6.844   2.206   1.381  1.8513 -0.5092 -0.5397
  912SOL    HW2 5757   6.902   2.330   1.316 -1.4232  0.8325 -0.9909
  913SOL     OW 5758   2.502   7.264   3.074 -0.0922  0.9615 -0.2323
  913SOL    HW1 5759   2.465   7.201   3.013 -1.3370  1.6433 -0.2059
  913SOL    HW2 5760   2.428   7.289   3.131  0.4798  2.0920  0.0413
  914SOL     OW 5761   9.146   8.472   9.216 -0.1732  0.7403 -0.3553
  914SOL    HW1 5762   9.102   8.394   9.249 -0.4801  0.7538 -0.7207
  914SOL    HW2 5763   9.121   8.541   9.278 -0.4347  0.6856 -0.3996
  915SOL     OW 5764   7.707   0.459   6.925 -0.2142  0.0132 -0.0272
  915SOL    HW1 5765   7.715   0.551   6.901 -1.5163  0.4908  1.3086
  915SOL    HW2 5766   7.779   0.416   6.879  1.5289  1.9721  0.7960
  916SOL     OW 5767   4.103   0.099   3.403 -0.5762  0.4381 -0.1616
  916SOL    HW1 5768   4.133   0.136   3.320 -0.2845 -0.7691 -0.6136
  916SOL    HW2 5769   4.172   0.121   3.466  0.4561 -0.8236 -0.8147
  917SOL     OW 5770   4.031   3.177   8.492  0.8958  0.6642  0.0680
  917SOL    HW1 5771   4.013   3.160   8.400  0.6674 -0.0632  0.2388
  917SOL    HW2 5772   3.949   3.155   8.537  0.9400  1.2190  0.4189
  918SOL     OW 5773   1.447   2.848   1.348 -0.1086  0.1827  0.2485
  918SOL    HW1 5774   1.416   2.805   1.269  1.9394  1.9265 -1.5744
  918SOL    HW2 5775   1.538   2.821   1.356 -0.0100  0.8270  1.4719
  919SOL     OW 5776   1.960   2.528   0.309 -1.2095 -0.4835  0.1160
  919SOL    HW1 5777   1.937   2.522   0.216 -1.6427 -1.7876  0.2958
  919SOL    HW2 5778   1.979   2.620   0.323  2.4987 -0.8087 -2.1363
  920SOL     OW 5779   6.436   5.117   5.588 -0.1832  0.2294  0.1178
  920SOL    HW1 5780   6.396   5.158   5.664  1.0359  2.2955 -0.3127
  920SOL    HW2 5781   6.528   5.143   5.592  0.2211 -0.9364 -1.1987
  921SOL     OW 5782   9.365   4.028   4.841  0.3692 -0.3560  0.4465
  921SOL    HW1 5783   9.453   4.005   4.871 -0.2918 -1.0466  1.9072
  921SOL    HW2 5784   9.318   3.945   4.836  0.0643 -0.1046 -1.2786
  922SOL     OW 5785   8.077   0.443   3.066  0.0042  0.2130 -0.2181
  922SOL    HW1 5786   8.018   0.518   3.075  0.6389  0.5267  1.5750
  922SOL    HW2 5787   8.020   0.369   3.045 -0.7084  1.0468 -1.2298
  923SOL     OW 5788   3.567   3.529   6.998 -0.0071 -0.3999  0.0848
  923SOL    HW1 5789   3.541   3.450   7.045  0.6094 -0.1025  0.9329
  923SOL    HW2 5790   3.582   3.594   7.066 -1.4651  0.7352 -0.6709
  924SOL     OW 5791   1.010   4.921   7.451 -0.3485 -0.2224  0.3350
  924SOL    HW1 5792   1.000   4.890   7.541 -0.8372  0.7925  0.6438
  924SOL    HW2 5793   0.938   4.879   7.404  0.2707 -1.2340  0.2827
  925SOL     OW 5794   3.957   1.517   6.742 -0.6162 -0.1633 -0.3474
  925SOL    HW1 5795   3.979   1.430   6.709 -2.4510 -0.2811 -1.3144
  925SOL    HW2 5796   4.013   1.577   6.692 -1.1291 -0.5919 -1.4384
  926SOL     OW 5797   8.209   6.978   4.379  0.3915  0.0338  0.3858
  926SOL    HW1 5798   8.269   6.929   4.323  1.4995  1.3432  0.4010
  926SOL    HW2 5799   8.198   6.922   4.457  1.0303 -0.5358  0.0756
  927SOL     OW 5800   6.099   7.798   1.838 -0.9609  0.5543 -0.2998
  927SOL    HW1 5801   6.047   7.790   1.758 -0.7843 -1.2515 -0.2543
  927SOL    HW2 5802   6.125   7.891   1.841  0.8448  0.2332 -3.4933
  928SOL     OW 5803   6.746   3.008   7.035 -0.6203  0.3206  0.5520
  928SOL    HW1 5804   6.674   3.071   7.033 -0.8819  0.0014 -0.7769
  928SOL    HW2 5805   6.712   2.932   6.987  0.8612  0.4532 -0.7500
  929SOL     OW 5806   7.494   4.875   1.247 -0.1708 -0.4781 -0.7465
  929SOL    HW1 5807   7.581   4.887   1.209 -0.3305 -1.0361 -1.2999
  929SOL    HW2 5808   7.443   4.950   1.214  0.7460  1.2020  1.5537
  930SOL     OW 5809   4.676   6.005   2.485 -0.1126  0.5029  0.2080
  930SOL    HW1 5810   4.713   5.917   2.477  1.0351  0.8861  1.1863
  930SOL    HW2 5811   4.691   6.045   2.400  1.2115  0.4370  0.3917
  931SOL     OW 5812   6.357   5.783   3.684 -0.2112 -0.2216  0.0111
  931SOL    HW1 5813   6.290   5.815   3.744  0.1636 -1.2064  0.9571
  931SOL    HW2 5814   6.312   5.778   3.599 -1.5185 -1.4437  0.7584
  932SOL     OW 5815   1.424   1.328   7.121 -0.9466 -0.4216  0.3017
  932SOL    HW1 5816   1.505   1.314   7.072 -0.6013 -1.9568  1.3023
  932SOL    HW2 5817   1.381   1.400   7.074  0.1334 -0.7771 -1.2878
  933SOL     OW 5818   0.710   5.252   1.863  0.2031  0.0134  0.5758
  933SOL    HW1 5819   0.712   5.346   1.845  0.7431  0.1124  1.1695
  933SOL    HW2 5820   0.781   5.237   1.924  0.1948 -0.8063  0.3939
  934SOL     OW 5821   2.565   2.887   6.206 -0.9843 -0.4671 -0.3199
  934SOL    HW1 5822   2.590   2.907   6.116  1.0336  2.0805  0.6979
  934SOL    HW2 5823   2.475   2.855   6.200 -1.0379  0.0559 -3.1895
  935SOL     OW 5824   0.773   8.214   3.122  0.3264 -0.0604  0.3762
  935SOL    HW1 5825   0.731   8.250   3.045  2.2144 -0.3745 -0.8177
  935SOL    HW2 5826   0.840   8.154   3.088  1.5827  0.2422  2.2274
  936SOL     OW 5827   9.366   3.848   5.668  0.0067  0.4655 -0.0161
  936SOL    HW1 5828   9.351   3.865   5.761 -0.4888  0.5235 -0.1048
  936SOL    HW2 5829   9.281   3.864   5.627  0.3590  0.9864 -0.5563
  937SOL     OW 5830   2.303   0.263   2.494  0.2758  0.1011 -0.2541
  937SOL    HW1 5831   2.332   0.201   2.428 -1.4773  0.1002 -1.0681
  937SOL    HW2 5832   2.259   0.332   2.444 -0.8530  0.2270  0.8806
  938SOL     OW 5833   3.169   3.493   2.730 -0.1226  0.0484 -0.3699
  938SOL    HW1 5834   3.258   3.475   2.700  0.0828  0.9787 -0.3354
  938SOL    HW2 5835   3.114   3.470   2.655  0.1048 -1.0145 -0.2129
  939SOL     OW 5836   2.883   7.512   3.765  0.4563  0.2090 -0.0123
  939SOL    HW1 5837   2.848   7.462   3.839  1.1967  0.2683  0.3782
  939SOL    HW2 5838   2.833   7.480   3.690  0.2298 -0.4083  0.3924
  940SOL     OW 5839   6.015   0.986   0.941  0.0037  0.2421 -0.2053
  940SOL    HW1 5840   5.978   1.027   1.019 -0.9901 -1.3291  0.1737
  940SOL    HW2 5841   6.047   0.901   0.971  0.0406 -0.1823 -1.4133
  941SOL     OW 5842   5.643   6.846   5.195 -0.0163  0.1902  0.1422
  941SOL    HW1 5843   5.682   6.791   5.263 -1.8208 -0.1976  0.8912
  941SOL    HW2 5844   5.712   6.910   5.174  0.9242 -0.3070  1.6089
  942SOL     OW 5845   4.578   1.257   4.773 -0.1314  0.3457  0.6527
  942SOL    HW1 5846   4.623   1.174   4.756 -0.3267  0.3617  0.0309
  942SOL    HW2 5847   4.543   1.247   4.861 -1.8486 -1.0213 -0.1437
  943SOL     OW 5848   6.594   8.169   5.092 -0.3983  0.4948  0.1671
  943SOL    HW1 5849   6.512   8.206   5.123 -0.0721  2.3989 -1.1528
  943SOL    HW2 5850   6.572   8.132   5.006  0.3538  2.0864 -0.7372
  944SOL     OW 5851   6.458   8.289   1.149 -0.5475 -0.7518 -0.3452
  944SOL    HW1 5852   6.480   8.379   1.123 -1.2079 -0.5169 -0.1111
  944SOL    HW2 5853   6.506   8.234   1.089 -0.0254 -0.2353 -0.4054
  945SOL     OW 5854   9.114   1.528   6.497 -0.8045  0.0666 -0.1663
  945SOL    HW1 5855   9.083   1.618   6.486  0.8820  0.6636 -0.2654
  945SOL    HW2 5856   9.181   1.534   6.565 -2.0532 -1.4626  1.2233
  946SOL     OW 5857   7.965   1.858   9.187  0.0675 -0.1641 -0.1900
  946SOL    HW1 5858   7.935   1.848   9.278 -0.2159  0.4153 -0.2159
  946SOL    HW2 5859   7.947   1.949   9.166  1.3139  0.0397 -0.4115
  947SOL     OW 5860   4.618   4.822   0.336  0.7296  0.3464  0.0565
  947SOL    HW1 5861   4.582   4.783   0.256  0.1909  0.0215  0.4503
  947SOL    HW2 5862   4.603   4.916   0.326 -0.1051  0.2260  0.1485
  948SOL     OW 5863   8.943   8.160   8.424  0.1280  0.3217 -0.8658
  948SOL    HW1 5864   9.030   8.199   8.408  1.4142 -1.1946  2.0570
  948SOL    HW2 5865   8.884   8.235   8.427  1.6648  1.5739 -0.9255
  949SOL     OW 5866   1.576   6.583   5.995 -0.1659 -0.0187  0.1338
  949SOL    HW1 5867   1.649   6.570   6.055  1.1351  2.2066 -0.8855
  949SOL    HW2 5868   1.617   6.605   5.912 -1.9851 -0.0116 -0.7829
  950SOL     OW 5869   1.397   3.930   6.988  0.4882  0.5114  0.1593
  950SOL    HW1 5870   1.367   3.959   7.074  2.4411 -0.2776  1.1310
  950SOL    HW2 5871   1.456   3.999   6.958  1.0692  0.0288  0.1789
  951SOL     OW 5872   0.883   8.818   0.186  0.1155 -0.2836 -0.5309
  951SOL    HW1 5873   0.815   8.863   0.135  0.7766 -0.4296 -1.5653
  951SOL    HW2 5874   0.851   8.728   0.195 -0.7625  0.1486  0.7155
  952SOL     OW 5875   8.233   7.409   7.321 -0.1835  0.3462  0.3397
  952SOL    HW1 5876   8.146   7.418   7.283  0.2307  1.5976 -0.3442
  952SOL    HW2 5877   8.252   7.496   7.358  1.6828  0.7433 -1.4823
  953SOL     OW 5878   3.041   0.590   3.632  0.1971 -0.2228  0.1304
  953SOL    HW1 5879   3.056   0.685   3.631  0.5332 -0.2470  1.8320
  953SOL    HW2 5880   2.955   0.579   3.593  1.2837  0.5438 -2.6637
  954SOL     OW 5881   3.206   8.748   2.529 -0.2404 -0.6756 -0.2578
  954SOL    HW1 5882   3.113   8.733   2.508 -0.9075 -0.4310  2.3506
  954SOL    HW2 5883   3.253   8.719   2.451 -2.5255 -0.7001 -1.6664
  955SOL     OW 5884   8.992   0.104   9.191 -0.0452  0.1843 -0.0389
  955SOL    HW1 5885   8.963   0.139   9.275  0.0409  0.8496 -0.2820
  955SOL    HW2 5886   8.976   0.175   9.129  2.5467  0.7599 -0.0976
  956SOL     OW 5887   5.580   5.246   3.391  0.4450  0.1121 -0.6431
  956SOL    HW1 5888   5.490   5.278   3.389  0.7680  0.9844 -1.4993
  956SOL    HW2 5889   5.611   5.268   3.479 -0.5512 -1.2734  0.0754
  957SOL     OW 5890   2.138   3.424   3.302  0.0025  0.1329  0.4890
  957SOL    HW1 5891   2.156   3.412   3.208 -1.2813 -1.2537  0.4148
  957SOL    HW2 5892   2.222   3.407   3.344  0.0080 -1.7469 -0.2261
  958SOL     OW 5893   1.293   7.352   2.323  0.3451  0.6968  0.3673
  958SOL    HW1 5894   1.330   7.295   2.255  2.0094  0.6974  1.2554
  958SOL    HW2 5895   1.202   7.366   2.295  0.9031  0.4177 -1.6787
  959SOL     OW 5896   8.004   7.611   7.508  0.7970 -0.3883 -0.6886
  959SOL    HW1 5897   8.099   7.622   7.508  0.8703 -0.7875 -2.9861
  959SOL    HW2 5898   7.969   7.698   7.493  0.8269 -0.4178 -0.9238
  960SOL     OW 5899   4.349   8.714   7.831  0.2733 -0.6462  0.2399
  960SOL    HW1 5900   4.385   8.702   7.919 -1.5778 -2.7475  0.7630
  960SOL    HW2 5901   4.398   8.652   7.777  1.7773  1.0202 -0.3582
  961SOL     OW 5902   3.415   2.014   1.579 -0.2602 -0.4321  0.5372
  961SOL    HW1 5903   3.418   2.042   1.671 -2.6838 -0.9701  0.8203
  961SOL    HW2 5904   3.466   1.933   1.577  0.0648 -0.2476  1.3610
  962SOL     OW 5905   2.748   0.114   3.440  0.1377 -0.1288  0.1529
  962SOL    HW1 5906   2.714   0.070   3.361  1.1996  0.3612 -0.5854
  962SOL    HW2 5907   2.744   0.047   3.508  2.0762 -1.5163 -1.0336
  963SOL     OW 5908   7.740   9.358   7.473 -0.6320  0.2720 -0.2862
  963SOL    HW1 5909   7.680   9.403   7.532 -0.7148  0.4645 -0.5146
  963SOL    HW2 5910   7.698   9.363   7.387 -1.0376 -0.9868 -0.1682
  964SOL     OW 5911   1.259   8.028   2.925  0.0721 -0.1129  0.0308
  964SOL    HW1 5912   1.254   8.054   2.833 -1.5523 -0.4502  0.0148
  964SOL    HW2 5913   1.283   7.936   2.923  0.9392  0.1117 -0.0299
  965SOL     OW 5914   5.476   7.488   1.420  0.2682 -0.1400  0.0102
  965SOL    HW1 5915   5.491   7.416   1.482 -0.9174 -0.1027  0.3561
  965SOL    HW2 5916   5.383   7.509   1.430  0.2967  0.5364 -1.0711
  966SOL     OW 5917   7.263   4.738   5.767 -0.6043 -0.1173 -0.7932
  966SOL    HW1 5918   7.177   4.779   5.761 -0.4090  0.5231  0.5781
  966SOL    HW2 5919   7.326   4.810   5.759 -0.2110 -0.5170 -1.3027
  967SOL     OW 5920   6.812   1.848   1.402  0.6573 -0.1609  0.0473
  967SOL    HW1 5921   6.811   1.773   1.342 -1.2932  0.0252 -0.2008
  967SOL    HW2 5922   6.741   1.829   1.463  1.5936  0.4385  1.3289
  968SOL     OW 5923   8.117   1.964   8.265  0.5694  0.1676  0.1092
  968SOL    HW1 5924   8.042   1.951   8.207  0.6140  0.0915  0.0680
  968SOL    HW2 5925   8.135   2.058   8.260 -1.6275  0.7622  2.7187
  969SOL     OW 5926   2.495   2.254   4.554 -0.3069 -0.2160 -0.5234
  969SOL    HW1 5927   2.449   2.276   4.473 -1.2346 -0.4976 -0.0838
  969SOL    HW2 5928   2.520   2.163   4.544  3.6548  0.9834 -2.4016
  970SOL     OW 5929   0.199   3.864   6.799  0.3627 -0.2048  0.2655
  970SOL    HW1 5930   0.216   3.812   6.877  0.4233  0.2253  0.5405
  970SOL    HW2 5931   0.159   3.944   6.831  0.9204  0.2221 -0.0927
  971SOL     OW 5932   1.090   8.874   5.484 -0.1875  0.1968 -0.5614
  971SOL    HW1 5933   1.081   8.780   5.500  0.4266  0.3051  0.5347
  971SOL    HW2 5934   1.005   8.910   5.508  0.1393  0.1234  0.7695
  972SOL     OW 5935   6.719   5.544   1.484  0.7268 -0.2204 -0.1265
  972SOL    HW1 5936   6.668   5.492   1.422  0.5701  0.9357 -0.9992
  972SOL    HW2 5937   6.805   5.551   1.443  0.5738  0.6937 -0.3063
  973SOL     OW 5938   7.659   9.097   1.717  0.3460  0.2407  0.2329
  973SOL    HW1 5939   7.628   9.187   1.717 -0.8695 -0.1534 -1.2537
  973SOL    HW2 5940   7.744   9.101   1.672  0.8304  0.7997  1.1887
  974SOL     OW 5941   0.594   5.111   3.742 -0.1358 -0.2491 -0.0945
  974SOL    HW1 5942   0.590   5.185   3.803 -0.1614  0.1288 -0.5448
  974SOL    HW2 5943   0.533   5.135   3.672 -0.3810 -0.8467 -0.0870
  975SOL     OW 5944   3.287   2.038   0.042 -0.3248  0.4384 -0.5052
  975SOL    HW1 5945   3.267   1.945   0.038 -4.4157  1.2638 -1.7498
  975SOL    HW2 5946   3.261   2.065   0.130  0.8215  0.4511 -0.1564
  976SOL     OW 5947   4.777   0.649   4.456 -0.1187  0.0248 -0.3496
  976SOL    HW1 5948   4.859   0.610   4.423 -0.6297 -0.4137 -1.1118
  976SOL    HW2 5949   4.728   0.672   4.378 -1.0349 -0.3683  0.0959
  977SOL     OW 5950   7.838   8.578   0.763 -0.5562  0.7363  0.1816
  977SOL    HW1 5951   7.891   8.612   0.690 -1.2283  0.1954 -0.5624
  977SOL    HW2 5952   7.894   8.514   0.806 -1.1032 -0.8771 -1.4653
  978SOL     OW 5953   6.147   2.326   6.992 -0.0445 -0.2067  0.6935
  978SOL    HW1 5954   6.167   2.233   6.998 -1.6043 -0.8524 -2.8047
  978SOL    HW2 5955   6.172   2.350   6.903  0.6615  2.8385  1.6498
  979SOL     OW 5956   0.233   2.134   9.385  0.6941 -0.4149 -0.0418
  979SOL    HW1 5957   0.205   2.224   9.402 -0.4663 -1.0512  1.5614
  979SOL    HW2 5958   0.301   2.117   9.449  0.0668 -1.0629  0.4650
  980SOL     OW 5959   3.784   7.330   9.046  0.1440 -0.2139 -0.3633
  980SOL    HW1 5960   3.743   7.349   8.961 -0.0640  0.5004 -0.1062
  980SOL    HW2 5961   3.756   7.401   9.103  0.1869 -0.7620  0.3451
  981SOL     OW 5962   2.455   4.639   3.585  0.2041 -0.0255 -0.1085
  981SOL    HW1 5963   2.522   4.617   3.520 -0.8654  0.8071 -1.5221
  981SOL    HW2 5964   2.392   4.567   3.580  0.9148 -0.7608  1.1528
  982SOL     OW 5965   6.512   6.822   8.947  0.3979 -0.3348 -0.8846
  982SOL    HW1 5966   6.568   6.808   9.024  1.4178  0.1449 -1.5254
  982SOL    HW2 5967   6.433   6.862   8.982  1.2152  0.6959 -0.1713
  983SOL     OW 5968   5.692   2.473   0.539 -0.4110 -0.2336  0.0111
  983SOL    HW1 5969   5.738   2.468   0.623 -0.9548  1.1808  0.4038
  983SOL    HW2 5970   5.666   2.382   0.521 -2.3830 -0.2387  2.5563
  984SOL     OW 5971   7.222   3.690   8.211  0.3043 -0.6702  0.4535
  984SOL    HW1 5972   7.261   3.770   8.244  0.8728 -1.6398  2.2033
  984SOL    HW2 5973   7.128   3.698   8.230 -0.1803  1.0007 -2.3935
  985SOL     OW 5974   1.811   2.848   9.109  0.1949 -0.8354  0.3305
  985SOL    HW1 5975   1.729   2.826   9.064  0.3635  0.8634 -0.8681
  985SOL    HW2 5976   1.785   2.902   9.183  0.0392 -2.4698  1.5057
  986SOL     OW 5977   3.323   7.885   6.676 -0.0271  0.1024 -0.1865
  986SOL    HW1 5978   3.240   7.847   6.649  0.5928 -1.6878  0.3826
  986SOL    HW2 5979   3.306   7.980   6.679 -1.9226 -0.2137 -0.4532
  987SOL     OW 5980   8.449   4.005   5.499 -0.3211 -0.4707 -0.5061
  987SOL    HW1 5981   8.436   4.015   5.405  1.7924 -2.8609 -1.1012
  987SOL    HW2 5982   8.513   4.073   5.522  0.5624 -1.0680 -1.1664
  988SOL     OW 5983   2.547   6.290   6.730 -0.5476  0.4158 -0.3659
  988SOL    HW1 5984   2.533   6.315   6.821 -1.8074  0.8843 -0.6793
  988SOL    HW2 5985   2.642   6.276   6.723 -0.6182 -0.8991  1.3171
  989SOL     OW 5986   4.146   8.798   4.186 -0.1168  0.0561 -0.1725
  989SOL    HW1 5987   4.183   8.783   4.273 -0.1724 -1.1951 -0.3635
  989SOL    HW2 5988   4.117   8.712   4.156 -0.6335  0.5684 -1.1932
  990SOL     OW 5989   2.414   2.095   6.906 -0.0864  0.4724  0.0589
  990SOL    HW1 5990   2.486   2.033   6.894  0.5324  1.5721 -2.2024
  990SOL    HW2 5991   2.442   2.152   6.978  0.6876  0.0494  0.0954
  991SOL     OW 5992   3.891   0.601   8.515 -0.8832  0.3806  0.2431
  991SOL    HW1 5993   3.966   0.661   8.523  0.7552 -1.0453 -2.9956
  991SOL    HW2 5994   3.855   0.620   8.428 -2.2073 -1.2620  0.4068
  992SOL     OW 5995   5.453   1.155   0.442  0.0689 -0.5470  0.2379
  992SOL    HW1 5996   5.484   1.230   0.494  1.6061 -0.3382 -0.9242
  992SOL    HW2 5997   5.522   1.143   0.376 -0.5686 -2.4817 -0.0833
  993SOL     OW 5998   0.068   2.127   4.145 -0.0759  0.3937 -0.0538
  993SOL    HW1 5999   0.152   2.168   4.167  0.1195 -0.1027  0.1244
  993SOL    HW2 6000   0.009   2.201   4.132  0.0453  0.7233  1.1816
  994SOL     OW 6001   0.754   1.556   1.972  0.7485  0.4756  0.4212
  994SOL    HW1 6002   0.741   1.462   1.977  0.0720  0.5600  0.2398
  994SOL    HW2 6003   0.707   1.584   1.893  0.0422  1.1105  1.0543
  995SOL     OW 6004   9.364   8.441   4.163 -1.2483  0.0687 -0.2861
  995SOL    HW1 6005   9.332   8.477   4.081  0.5440  1.9034 -0.2174
  995SOL    HW2 6006   9.398   8.516   4.211  0.3589 -1.3598  0.9055
  996SOL     OW 6007   3.461   6.546   6.170  0.7204 -0.1075 -0.2008
  996SOL    HW1 6008   3.418   6.497   6.240  0.4829 -1.1333 -1.0457
  996SOL    HW2 6009   3.554   6.520   6.176  0.6803 -0.2861 -0.3254
  997SOL     OW 6010   8.563   6.221   8.739  0.2976 -0.5854 -0.4531
  997SOL    HW1 6011   8.492   6.267   8.693  0.6309 -1.0286 -1.4335
  997SOL    HW2 6012   8.518   6.164   8.801 -0.1372  0.5645  0.2997
  998SOL     OW 6013   4.746   9.206   4.189  0.2717  0.1826 -0.6568
  998SOL    HW1 6014   4.800   9.267   4.239  0.7141 -0.4630 -0.3388
  998SOL    HW2 6015   4.772   9.119   4.221 -2.6177 -0.0858  1.2208
  999SOL     OW 6016   8.983   8.346   5.574  0.4782  0.1281 -0.1187
  999SOL    HW1 6017   9.052   8.393   5.620 -1.5875  2.1525  0.9936
  999SOL    HW2 6018   8.913   8.410   5.562 -0.9770 -1.6901 -1.7867
 1000SOL     OW 6019   2.639   4.289   5.470  0.0584 -0.3749  0.0067
 1000SOL    HW1 6020   2.655   4.372   5.424 -1.0081 -0.7868 -1.1359
 1000SOL    HW2 6021   2.585   4.238   5.410  1.6587 -2.3860  0.1991
 1001SOL     OW 6022   6.873   1.147   5.046 -0.3094  0.5932  0.2583
 1001SOL    HW1 6023   6.841   1.159   4.957  0.4335  0.9371  0.0308
 1001SOL    HW2 6024   6.825   1.071   5.079  0.5766 -0.5415 -1.0019
 1002SOL     OW 6025   0.175   4.634   3.951 -0.2129  0.3750 -0.2035
 1002SOL    HW1 6026   0.152   4.573   3.881  0.5536 -0.9407  0.6721
 1002SOL    HW2 6027   0.191   4.717   3.906 -2.3812  0.2416 -1.2942
 1003SOL     OW 6028   7.689   7.806   3.361  0.0414  0.2497 -0.0586
 1003SOL    HW1 6029   7.656   7.879   3.413  2.0190 -0.2196  1.9202
 1003SOL    HW2 6030   7.754   7.846   3.303  0.5699  0.1656  0.4825
 1004SOL     OW 6031   0.706   0.682   2.233  0.4685  0.3835  0.5412
 1004SOL    HW1 6032   0.717   0.588   2.248  0.8056  0.6446  2.0017
 1004SOL    HW2 6033   0.795   0.716   2.223  0.2878  0.2993 -1.7472
 1005SOL     OW 6034   3.833   2.573   6.067 -0.1884 -0.0471  0.3971
 1005SOL    HW1 6035   3.860   2.640   6.130 -3.4541  2.1908 -0.4149
 1005SOL    HW2 6036   3.767   2.522   6.113 -0.1982 -0.5053 -0.1171
 1006SOL     OW 6037   7.925   5.211   2.598 -0.1096 -0.5918 -0.0250
 1006SOL    HW1 6038   8.017   5.184   2.591 -0.2560 -0.4901 -2.5912
 1006SOL    HW2 6039   7.929   5.304   2.621  0.3999 -0.9518  1.4158
 1007SOL     OW 6040   7.820   1.110   3.329  0.2391 -0.1340 -0.0317
 1007SOL    HW1 6041   7.764   1.070   3.262  0.0560 -1.1783  0.7303
 1007SOL    HW2 6042   7.761   1.166   3.379  0.2419  0.1407 -0.3340
 1008SOL     OW 6043   1.038   0.749   0.514  0.0267  0.4637  0.0011
 1008SOL    HW1 6044   1.093   0.777   0.586 -0.7204  1.4124  0.2094
 1008SOL    HW2 6045   1.083   0.780   0.435 -0.0733  0.9985  0.1556
 1009SOL     OW 6046   5.444   3.877   1.529  0.3303 -0.2468  0.0714
 1009SOL    HW1 6047   5.478   3.922   1.607  0.1152 -2.4251  1.4559
 1009SOL    HW2 6048   5.509   3.810   1.510 -0.0123 -0.2307 -1.1881
 1010SOL     OW 6049   0.205   4.821   2.850 -0.1492 -0.0542 -0.0004
 1010SOL    HW1 6050   0.210   4.889   2.917 -2.1442 -0.1589  0.2869
 1010SOL    HW2 6051   0.294   4.785   2.846 -0.0485 -0.2714  2.8633
 1011SOL     OW 6052   3.729   3.320   6.289 -0.2253  0.2607  0.2523
 1011SOL    HW1 6053   3.809   3.304   6.339 -0.7601 -1.8663  0.4862
 1011SOL    HW2 6054   3.756   3.377   6.218  1.3817  0.0574  0.6835
 1012SOL     OW 6055   5.278   7.887   6.966 -1.0220  0.4608 -0.5173
 1012SOL    HW1 6056   5.367   7.901   6.997 -1.1563 -2.0514  1.1692
 1012SOL    HW2 6057   5.222   7.924   7.035 -1.2842 -1.4688  0.3450
 1013SOL     OW 6058   1.369   5.042   3.099  0.0879  0.3940  0.2114
 1013SOL    HW1 6059   1.344   5.052   3.007  0.6600  2.5520  0.2446
 1013SOL    HW2 6060   1.305   4.981   3.135  1.7558 -3.0324 -2.3349
 1014SOL     OW 6061   8.620   7.371   5.328 -0.1398  0.7365 -0.2691
 1014SOL    HW1 6062   8.698   7.426   5.336 -0.4699  1.1190  0.2858
 1014SOL    HW2 6063   8.584   7.367   5.416 -0.1140 -0.3758 -0.3077
 1015SOL     OW 6064   2.594   5.335   2.486  0.2539 -0.3368 -0.1589
 1015SOL    HW1 6065   2.551   5.400   2.430  1.6869 -0.4967 -1.4644
 1015SOL    HW2 6066   2.627   5.385   2.560  0.2259  0.2255 -0.5223
 1016SOL     OW 6067   8.140   8.286   2.420 -0.2159  0.1416  0.0393
 1016SOL    HW1 6068   8.098   8.311   2.502 -1.1209  0.9605 -0.6634
 1016SOL    HW2 6069   8.091   8.210   2.390  0.0694 -0.1143  0.2298
 1017SOL     OW 6070   0.240   2.766   4.529 -0.0347 -0.3098  0.7614
 1017SOL    HW1 6071   0.308   2.779   4.596 -0.2510  2.1365  0.5342
 1017SOL    HW2 6072   0.253   2.838   4.468 -0.7444 -1.7492 -1.1017
 1018SOL     OW 6073   2.452   6.508   7.794  0.3461  0.2468 -0.1280
 1018SOL    HW1 6074   2.451   6.497   7.889 -1.6496 -0.3571 -0.2028
 1018SOL    HW2 6075   2.394   6.439   7.761  1.4801  0.0798 -1.8274
 1019SOL     OW 6076   1.396   6.431   3.180  0.0082  0.1254  0.1951
 1019SOL    HW1 6077   1.364   6.465   3.263  0.0355  1.2042 -0.2280
 1019SOL    HW2 6078   1.447   6.354   3.204  1.7219  1.5781  1.3830
 1020SOL     OW 6079   3.797   1.720   4.919  0.4440  0.1537  0.3493
 1020SOL    HW1 6080   3.822   1.799   4.968  2.1332  0.1080 -0.3817
 1020SOL    HW2 6081   3.835   1.648   4.969  1.6020  0.0596 -0.6346
 1021SOL     OW 6082   9.024   8.851   9.182 -0.4229  0.5053 -0.1286
 1021SOL    HW1 6083   9.048   8.796   9.256  1.1406 -1.1399 -1.7792
 1021SOL    HW2 6084   9.088   8.922   9.183  0.3912 -0.1977 -0.5788
 1022SOL     OW 6085   1.772   3.208   8.623  0.0850 -0.5786 -0.3135
 1022SOL    HW1 6086   1.779   3.159   8.541 -0.1506 -1.6454  0.3013
 1022SOL    HW2 6087   1.702   3.272   8.607 -1.1078 -1.8929 -0.3880
 1023SOL     OW 6088   6.416   0.524   2.550 -0.4788 -0.4744 -0.0089
 1023SOL    HW1 6089   6.321   0.535   2.545 -0.5413 -1.5543 -1.5295
 1023SOL    HW2 6090   6.431   0.482   2.635 -1.1805  1.2820  1.0183
 1024SOL     OW 6091   8.031   5.870   4.355 -0.1913  0.3223  0.1668
 1024SOL    HW1 6092   8.007   5.956   4.390 -0.5165  0.0720  0.5637
 1024SOL    HW2 6093   8.052   5.817   4.432 -0.6133 -0.1401 -0.0303
 1025SOL     OW 6094   2.077   5.005   6.282  0.3115 -0.4574  0.0892
 1025SOL    HW1 6095   2.129   4.973   6.356 -0.3831  0.2205  0.8823
 1025SOL    HW2 6096   2.080   4.933   6.219  0.3366 -1.3385  1.0661
 1026SOL     OW 6097   7.722   2.494   1.771  0.3544  0.2028  0.3612
 1026SOL    HW1 6098   7.699   2.534   1.687  0.0994  0.8215  0.7179
 1026SOL    HW2 6099   7.654   2.525   1.831  0.0661 -0.8984  0.6111
 1027SOL     OW 6100   2.729   5.126   6.455 -0.5143  0.5335 -0.2348
 1027SOL    HW1 6101   2.824   5.116   6.444 -0.6109 -0.1492 -0.4689
 1027SOL    HW2 6102   2.691   5.060   6.397 -1.1849  2.6408 -2.2973
 1028SOL     OW 6103   2.320   4.989   8.237  0.1160 -0.2936 -0.1229
 1028SOL    HW1 6104   2.396   5.046   8.227  0.0333 -0.1613  0.0027
 1028SOL    HW2 6105   2.353   4.902   8.217 -0.0518 -0.0300 -1.5906
 1029SOL     OW 6106   1.407   2.303   2.151 -0.1622 -0.2052  0.0857
 1029SOL    HW1 6107   1.427   2.317   2.059 -1.2866 -0.4643 -0.2027
 1029SOL    HW2 6108   1.469   2.235   2.179 -0.2311 -0.5571 -0.6237
 1030SOL     OW 6109   3.778   1.489   3.056 -0.1916 -0.3488  0.3775
 1030SOL    HW1 6110   3.687   1.510   3.075 -0.0569  0.3634  0.2474
 1030SOL    HW2 6111   3.778   1.462   2.964  0.1916  2.6205 -0.5580
 1031SOL     OW 6112   3.691   5.213   6.504  0.5152 -0.2082 -0.3807
 1031SOL    HW1 6113   3.666   5.121   6.511  0.7013 -0.3846 -1.8233
 1031SOL    HW2 6114   3.769   5.221   6.558  0.6867 -0.9691 -0.5114
 1032SOL     OW 6115   0.532   9.027   8.891 -0.2137 -0.0231  0.0861
 1032SOL    HW1 6116   0.566   9.100   8.839 -0.6831  0.1841  0.0620
 1032SOL    HW2 6117   0.516   8.958   8.827  1.2590 -0.5414  0.2538
 1033SOL     OW 6118   0.169   5.721   2.643  0.5107  0.1850 -0.0688
 1033SOL    HW1 6119   0.136   5.745   2.730  2.2950  1.0887  0.3835
 1033SOL    HW2 6120   0.094   5.679   2.600 -1.0306  1.6121  1.1366
 1034SOL     OW 6121   8.958   3.670   1.613 -0.1504  0.2337  0.5713
 1034SOL    HW1 6122   9.012   3.591   1.618 -0.9308 -0.3697 -0.3079
 1034SOL    HW2 6123   8.907   3.670   1.693 -1.9212 -1.4749 -0.5250
 1035SOL     OW 6124   5.668   6.923   7.255 -0.0993 -0.1593 -0.3688
 1035SOL    HW1 6125   5.742   6.984   7.251 -2.0945  2.4754  1.1877
 1035SOL    HW2 6126   5.694   6.859   7.322  0.8909  0.5910 -0.0122
 1036SOL     OW 6127   1.433   7.272   3.858  0.6774  0.3410 -0.0487
 1036SOL    HW1 6128   1.387   7.254   3.776  0.5963 -1.0317  0.2781
 1036SOL    HW2 6129   1.467   7.361   3.848 -0.6777  0.7794 -0.9336
 1037SOL     OW 6130   5.406   0.597   0.627 -0.5631 -0.2956  0.1810
 1037SOL    HW1 6131   5.414   0.613   0.721 -1.0628 -0.9455  0.3425
 1037SOL    HW2 6132   5.462   0.663   0.586  0.1719 -0.4222  0.9644
 1038SOL     OW 6133   4.629   3.396   0.012 -0.2747 -0.1000 -0.1499
 1038SOL    HW1 6134   4.558   3.448  -0.025 -1.3997 -1.1287  0.5503
 1038SOL    HW2 6135   4.586   3.327   0.062  1.2113 -0.7728  0.2454
 1039SOL     OW 6136   4.455   3.651   2.029 -0.3917  0.6190 -0.2007
 1039SOL    HW1 6137   4.395   3.722   2.005  0.1774  1.4912  0.9700
 1039SOL    HW2 6138   4.513   3.642   1.954 -1.8307 -0.0881 -1.2649
 1040SOL     OW 6139   7.044   7.568   4.547 -0.1263  0.4110  0.2871
 1040SOL    HW1 6140   7.136   7.550   4.529 -0.1838  0.2499  0.1480
 1040SOL    HW2 6141   6.998   7.535   4.469 -0.4632 -1.1133  1.1086
 1041SOL     OW 6142   0.507   0.514   4.126 -0.1718  0.0169  0.3748
 1041SOL    HW1 6143   0.529   0.505   4.033 -0.0816 -0.5087  0.4413
 1041SOL    HW2 6144   0.581   0.561   4.164 -0.2326  0.2783  0.1689
 1042SOL     OW 6145   6.679   4.135   2.372 -0.3796  0.5212  1.0260
 1042SOL    HW1 6146   6.675   4.167   2.462  0.0501 -1.2503  1.7016
 1042SOL    HW2 6147   6.703   4.042   2.380 -3.3948 -0.4953 -0.7569
 1043SOL     OW 6148   7.704   5.032   4.750  0.3364  0.1463 -0.2703
 1043SOL    HW1 6149   7.665   4.978   4.819 -1.0974 -1.1295 -2.0387
 1043SOL    HW2 6150   7.659   5.116   4.757  1.7667  0.8045  1.7419
 1044SOL     OW 6151   5.400   2.384   2.269 -0.1980  0.1217  0.1044
 1044SOL    HW1 6152   5.353   2.338   2.338  0.5582  0.2950  0.7473
 1044SOL    HW2 6153   5.422   2.469   2.307  1.7975 -0.4581  0.3241
 1045SOL     OW 6154   6.983   3.469   5.055  0.1694 -0.5648 -0.2530
 1045SOL    HW1 6155   7.026   3.404   4.999  1.3350 -0.8740  0.9896
 1045SOL    HW2 6156   6.969   3.544   4.998  3.1794 -0.1167 -0.4804
 1046SOL     OW 6157   1.098   7.209   3.023 -0.6381 -0.0919 -0.1226
 1046SOL    HW1 6158   1.030   7.273   3.046  1.0862  1.9537 -0.5240
 1046SOL    HW2 6159   1.065   7.126   3.057 -2.1809  1.2958  1.9195
 1047SOL     OW 6160   6.059   2.389   8.587 -0.0177 -0.1920 -0.6441
 1047SOL    HW1 6161   6.149   2.364   8.604  0.5120  0.9800 -1.6469
 1047SOL    HW2 6162   6.027   2.323   8.525 -0.0993 -1.0521  0.3069
 1048SOL     OW 6163   2.027   4.425   5.522 -0.3181 -0.4516 -0.4167
 1048SOL    HW1 6164   1.977   4.490   5.472 -0.3282 -0.3910 -0.3271
 1048SOL    HW2 6165   2.030   4.460   5.611 -0.7957 -0.8442 -0.2476
 1049SOL     OW 6166   4.823   5.568   5.640 -0.8257  0.6559 -0.1601
 1049SOL    HW1 6167   4.886   5.541   5.574 -0.6977  1.7954 -0.5182
 1049SOL    HW2 6168   4.838   5.509   5.713  1.0388  1.2460 -0.0349
 1050SOL     OW 6169   8.441   9.250   3.145  0.2255 -0.3682 -0.0471
 1050SOL    HW1 6170   8.364   9.264   3.201 -0.2081 -1.8074 -0.2695
 1050SOL    HW2 6171   8.410   9.271   3.057  0.7423  1.3125  0.1668
 1051SOL     OW 6172   6.556   3.715   8.041  0.1695  0.2812 -0.4597
 1051SOL    HW1 6173   6.651   3.725   8.048  0.5135 -0.1721 -3.6169
 1051SOL    HW2 6174   6.526   3.706   8.131  3.4626 -2.5357  0.4595
 1052SOL     OW 6175   0.941   7.461   0.781  0.1008 -0.9462  0.1270
 1052SOL    HW1 6176   0.850   7.468   0.809  0.9055 -2.4976  3.4449
 1052SOL    HW2 6177   0.968   7.552   0.764 -1.3065 -0.1716  1.8311
 1053SOL     OW 6178   2.048   0.819   5.744  0.0317 -0.1038 -0.1588
 1053SOL    HW1 6179   2.046   0.837   5.650 -1.2346 -0.0537 -0.1360
 1053SOL    HW2 6180   1.971   0.866   5.779 -0.3790 -1.3691  0.6682
 1054SOL     OW 6181   0.029   0.582   4.063  0.5156 -0.3950 -0.3096
 1054SOL    HW1 6182   0.047   0.567   3.970 -1.9675 -0.4839 -0.8030
 1054SOL    HW2 6183  -0.054   0.538   4.079  0.1431  0.9403  1.5864
 1055SOL     OW 6184   6.808   8.210   2.250 -0.3837 -0.6607  0.2629
 1055SOL    HW1 6185   6.737   8.247   2.198  0.4256 -1.4644 -1.4545
 1055SOL    HW2 6186   6.888   8.237   2.204  0.3846 -0.5770  1.6264
 1056SOL     OW 6187   5.877   4.004   1.251  0.1235  0.1244 -0.0448
 1056SOL    HW1 6188   5.889   3.987   1.157 -1.2215  0.1635 -0.2411
 1056SOL    HW2 6189   5.817   3.934   1.279  2.9801 -1.8003  1.4874
 1057SOL     OW 6190   9.235   5.721   3.607 -0.0300  0.1886 -0.1936
 1057SOL    HW1 6191   9.219   5.627   3.615 -0.5555  0.0587 -2.4647
 1057SOL    HW2 6192   9.156   5.756   3.566 -0.2877  1.8123  1.5983
 1058SOL     OW 6193   0.502   1.978   6.052  0.5046 -0.3612  0.1390
 1058SOL    HW1 6194   0.513   1.885   6.073 -2.1221 -1.1300 -1.6094
 1058SOL    HW2 6195   0.418   2.001   6.091 -0.5858  0.2953 -2.4891
 1059SOL     OW 6196   2.352   4.641   8.475  0.4654 -0.3463 -0.1458
 1059SOL    HW1 6197   2.348   4.737   8.485  0.4955 -0.2599 -0.9366
 1059SOL    HW2 6198   2.363   4.609   8.565 -0.7873  0.3200  0.2746
 1060SOL     OW 6199   1.963   0.481   0.278 -0.7092  0.7339  0.1137
 1060SOL    HW1 6200   1.895   0.505   0.341 -0.4490 -0.9033  1.0635
 1060SOL    HW2 6201   1.945   0.388   0.259  2.7385 -0.4621  2.2871
 1061SOL     OW 6202   6.338   4.459   2.806 -0.4499 -0.5291 -0.2064
 1061SOL    HW1 6203   6.330   4.405   2.727 -0.9411 -2.1057  0.8891
 1061SOL    HW2 6204   6.248   4.476   2.832 -0.2878 -0.7072  0.4683
 1062SOL     OW 6205   5.265   2.237   7.907  0.1531 -0.1878 -0.4404
 1062SOL    HW1 6206   5.188   2.277   7.867 -0.1578  0.5261  0.8597
 1062SOL    HW2 6207   5.248   2.143   7.905  0.8292 -0.3198 -3.4151
 1063SOL     OW 6208   7.038   9.273   5.990 -0.5120 -0.1832  0.1841
 1063SOL    HW1 6209   7.102   9.309   6.052  0.7608 -1.4994 -0.3229
 1063SOL    HW2 6210   6.956   9.317   6.012  0.3271  0.7495  1.5684
 1064SOL     OW 6211   3.911   7.132   4.205  0.2569  0.4210 -0.4797
 1064SOL    HW1 6212   3.924   7.169   4.293 -1.8422 -0.6660  0.3145
 1064SOL    HW2 6213   3.902   7.038   4.220  0.5587  0.1561 -1.9437
 1065SOL     OW 6214   3.642   5.319   2.983  0.1861  0.0779 -0.3311
 1065SOL    HW1 6215   3.561   5.316   2.932 -0.8573  0.1417  1.2872
 1065SOL    HW2 6216   3.666   5.228   2.997 -0.1290  0.0465  0.0026
 1066SOL     OW 6217   1.878   3.307   4.928 -0.2865  0.0162 -0.0982
 1066SOL    HW1 6218   1.841   3.391   4.901 -2.3037 -0.5611  0.8138
 1066SOL    HW2 6219   1.816   3.241   4.895  0.4815 -1.0310  0.5134
 1067SOL     OW 6220   1.192   0.509   8.657  0.0394  0.3207 -0.1480
 1067SOL    HW1 6221   1.133   0.518   8.582 -1.9890 -1.3277  1.2002
 1067SOL    HW2 6222   1.238   0.426   8.641 -0.6999 -0.2418  0.6301
 1068SOL     OW 6223   5.566   4.005   3.387  0.1088  0.1183  0.5505
 1068SOL    HW1 6224   5.476   4.027   3.411 -0.3631 -0.7488 -0.3845
 1068SOL    HW2 6225   5.585   3.923   3.432 -0.0404 -0.3966 -0.3094
 1069SOL     OW 6226   2.098   9.088   5.590  0.3656 -0.1966  0.5942
 1069SOL    HW1 6227   2.102   9.018   5.526  0.2528  1.6789 -1.5114
 1069SOL    HW2 6228   2.004   9.102   5.605  0.3256  0.9926 -0.6854
 1070SOL     OW 6229   4.106   7.468   1.289  0.5370 -0.1243 -0.5808
 1070SOL    HW1 6230   4.150   7.552   1.274 -1.2311  0.8523 -0.4765
 1070SOL    HW2 6231   4.085   7.469   1.382 -3.2169  1.2331 -1.3690
 1071SOL     OW 6232   0.922   7.010   5.939 -0.0732  0.0407 -0.3388
 1071SOL    HW1 6233   0.850   7.073   5.950 -0.9049 -0.9600 -0.0016
 1071SOL    HW2 6234   0.992   7.045   5.994 -0.7815  0.2898  0.4278
 1072SOL     OW 6235   7.588   6.564   3.826 -0.1199 -0.2504  0.4915
 1072SOL    HW1 6236   7.559   6.609   3.747  1.5167  0.6926  0.3882
 1072SOL    HW2 6237   7.656   6.621   3.862  2.7985 -3.1299 -0.2165
 1073SOL     OW 6238   4.188   8.469   2.720  0.0682  0.2572 -0.0375
 1073SOL    HW1 6239   4.159   8.379   2.708  0.8734  0.0519 -0.4926
 1073SOL    HW2 6240   4.146   8.517   2.649 -0.4144  0.2509  0.2454
 1074SOL     OW 6241   8.610   3.879   1.998 -0.3222  0.0370 -0.3606
 1074SOL    HW1 6242   8.563   3.829   1.932  0.0676 -0.1918 -0.4648
 1074SOL    HW2 6243   8.542   3.903   2.062 -0.9501  1.4744 -1.5641
 1075SOL     OW 6244   1.751   3.562   3.273 -0.6519  0.0124  0.0729
 1075SOL    HW1 6245   1.706   3.576   3.357 -2.9894  0.0642 -1.1489
 1075SOL    HW2 6246   1.780   3.471   3.276  0.2166  0.3175  1.3610
 1076SOL     OW 6247   2.634   4.347   7.664  0.0606 -0.5904 -0.5296
 1076SOL    HW1 6248   2.556   4.371   7.714  0.7035 -0.1986  0.3110
 1076SOL    HW2 6249   2.600   4.306   7.585 -1.0152  0.6854 -0.7481
 1077SOL     OW 6250   7.847   0.388   8.457  0.0872 -0.2921  0.1095
 1077SOL    HW1 6251   7.895   0.305   8.465  0.3523 -0.1859 -0.4020
 1077SOL    HW2 6252   7.775   0.379   8.519  2.6980  0.9305  3.4462
 1078SOL     OW 6253   1.843   6.145   1.940 -0.5017 -0.0690 -0.5734
 1078SOL    HW1 6254   1.799   6.220   1.902  2.3993  1.0630 -1.8629
 1078SOL    HW2 6255   1.843   6.079   1.870 -1.4352 -0.6100 -0.0697
 1079SOL     OW 6256   1.976   0.899   8.623  0.6335 -0.3396 -0.1105
 1079SOL    HW1 6257   2.020   0.824   8.584  2.3088  1.0885 -1.0144
 1079SOL    HW2 6258   2.019   0.911   8.708  0.8267 -0.0006 -0.2541
 1080SOL     OW 6259   7.709   4.088   7.005 -0.0317 -1.1763  0.6108
 1080SOL    HW1 6260   7.777   4.152   6.984 -0.3243 -1.3372 -0.9156
 1080SOL    HW2 6261   7.662   4.127   7.079  2.0015 -1.2946  2.0058
 1081SOL     OW 6262   7.251   9.363   4.558  0.2793  0.2078  0.0625
 1081SOL    HW1 6263   7.311   9.420   4.511  0.1214  0.3288  0.0067
 1081SOL    HW2 6264   7.286   9.275   4.545  1.0517  0.3797  0.9327
 1082SOL     OW 6265   5.987   4.007   8.596  0.1346 -0.1205 -0.0189
 1082SOL    HW1 6266   6.004   4.063   8.520  0.8327 -0.1129  0.1387
 1082SOL    HW2 6267   5.916   3.949   8.568  1.5274 -1.2530 -1.2619
 1083SOL     OW 6268   1.092   7.277   5.234 -0.1531 -0.6018  0.4340
 1083SOL    HW1 6269   1.113   7.223   5.310  0.0184 -0.9735  0.1240
 1083SOL    HW2 6270   1.176   7.311   5.204 -0.3004  0.1446  0.8512
 1084SOL     OW 6271   0.592   3.967   4.031  0.1850 -0.2732  0.3626
 1084SOL    HW1 6272   0.546   4.045   4.062 -0.0640 -0.2884  0.0365
 1084SOL    HW2 6273   0.662   3.954   4.094 -0.7912 -0.7644  1.3642
 1085SOL     OW 6274   7.997   9.019   1.957  0.6659  0.4839  0.4222
 1085SOL    HW1 6275   8.055   8.948   1.983 -0.5968 -0.1381  1.6428
 1085SOL    HW2 6276   7.913   8.976   1.938  1.2177  1.0567 -3.7113
 1086SOL     OW 6277   2.627   6.628   8.080 -0.2181 -0.1362  0.4035
 1086SOL    HW1 6278   2.698   6.571   8.051  0.6145  2.2136 -2.3654
 1086SOL    HW2 6279   2.556   6.568   8.102  0.8382 -2.2944 -1.8655
 1087SOL     OW 6280   5.604   4.233   6.904  0.2734  0.0479 -0.0460
 1087SOL    HW1 6281   5.696   4.255   6.892  0.1069 -0.5010 -2.6580
 1087SOL    HW2 6282   5.602   4.137   6.900 -0.4294  0.0627 -0.1490
 1088SOL     OW 6283   5.232   0.845   4.750  0.3222  0.5171 -0.0569
 1088SOL    HW1 6284   5.204   0.754   4.739 -0.6284  0.4702  2.5154
 1088SOL    HW2 6285   5.152   0.896   4.741  0.7340  1.0530 -0.7365
 1089SOL     OW 6286   2.176   0.115   4.213 -0.2063 -0.0877 -0.0828
 1089SOL    HW1 6287   2.162   0.026   4.246 -1.1142  0.2285  0.4121
 1089SOL    HW2 6288   2.101   0.165   4.247  0.1261  0.7896 -0.6254
 1090SOL     OW 6289   7.362   8.614   7.217  0.0089 -0.0349 -0.1409
 1090SOL    HW1 6290   7.421   8.688   7.230  2.1854 -2.1959  3.4663
 1090SOL    HW2 6291   7.413   8.553   7.162 -0.7439  0.0598 -0.9468
 1091SOL     OW 6292   0.394   5.519   4.817 -0.5656  0.3376 -0.1174
 1091SOL    HW1 6293   0.344   5.440   4.840 -0.6209  0.6403  0.8458
 1091SOL    HW2 6294   0.479   5.487   4.789 -1.1959 -0.1691 -1.4759
 1092SOL     OW 6295   6.753   0.770   1.456 -0.3659  0.0459  0.0634
 1092SOL    HW1 6296   6.826   0.724   1.498  0.0752  1.2969  0.7152
 1092SOL    HW2 6297   6.745   0.851   1.506 -1.8230  0.1881 -0.3875
 1093SOL     OW 6298   0.366   6.742   6.637  0.0624 -0.5787  0.0014
 1093SOL    HW1 6299   0.359   6.691   6.557  0.2321 -0.7204  0.0784
 1093SOL    HW2 6300   0.321   6.824   6.617 -0.9924 -1.1128  0.1715
 1094SOL     OW 6301   8.829   5.898   3.255 -0.5876  0.3049 -0.0340
 1094SOL    HW1 6302   8.822   5.993   3.259  0.1604  0.3922 -0.7133
 1094SOL    HW2 6303   8.739   5.867   3.248 -0.8752  0.9231  0.9297
 1095SOL     OW 6304   3.984   2.663   5.215  0.0085 -0.2051 -0.5782
 1095SOL    HW1 6305   4.047   2.694   5.280  1.9489 -0.8503 -2.0869
 1095SOL    HW2 6306   3.984   2.568   5.225 -1.4701 -0.1526  0.0503
 1096SOL     OW 6307   0.927   3.265   2.115 -0.2063 -0.4240  0.2411
 1096SOL    HW1 6308   0.863   3.319   2.068  0.1962 -0.1441  0.0203
 1096SOL    HW2 6309   0.992   3.241   2.049  0.7228  0.5290  0.8122
 1097SOL     OW 6310   7.725   7.660   5.169  0.2798 -0.5473  0.3179
 1097SOL    HW1 6311   7.679   7.601   5.109  0.3119 -2.5550  2.2247
 1097SOL    HW2 6312   7.671   7.739   5.169 -0.7960 -1.2525 -0.8571
 1098SOL     OW 6313   6.633   0.105   1.907 -0.1704  0.5346  0.0704
 1098SOL    HW1 6314   6.690   0.181   1.892  0.5641 -0.0382 -0.1071
 1098SOL    HW2 6315   6.612   0.109   2.000  2.0110 -0.4935  0.6331
 1099SOL     OW 6316   7.204   5.847   5.575  0.5273  0.3292 -0.1935
 1099SOL    HW1 6317   7.138   5.909   5.609  0.7799  0.9052 -0.7500
 1099SOL    HW2 6318   7.196   5.853   5.480  2.0661  1.1385 -0.2805
 1100SOL     OW 6319   5.074   1.753   8.069 -0.2013  0.1613  0.2318
 1100SOL    HW1 6320   5.002   1.775   8.010  0.1666 -0.5508 -0.4957
 1100SOL    HW2 6321   5.046   1.672   8.111  0.6058 -0.6802 -0.8173
 1101SOL     OW 6322   9.110   5.192   7.479 -0.0901  0.2389 -0.1944
 1101SOL    HW1 6323   9.124   5.242   7.399  0.4247  0.2471 -0.0979
 1101SOL    HW2 6324   9.197   5.182   7.518 -0.0951 -1.2156 -0.5085
 1102SOL     OW 6325   3.133   2.994   6.297 -0.6685 -0.5587 -0.7267
 1102SOL    HW1 6326   3.213   3.024   6.253  0.2525 -2.2407 -0.2302
 1102SOL    HW2 6327   3.097   2.927   6.240  0.0161 -2.0748  0.5697
 1103SOL     OW 6328   8.730   2.395   0.819 -0.7368  0.3459 -0.1554
 1103SOL    HW1 6329   8.802   2.431   0.767  1.4598 -2.1075  1.0712
 1103SOL    HW2 6330   8.655   2.394   0.760  0.5874  1.6668 -1.8875
 1104SOL     OW 6331   6.604   9.085   1.436 -0.2455  0.3777 -0.3203
 1104SOL    HW1 6332   6.676   9.058   1.379 -0.2171  1.8024 -0.9946
 1104SOL    HW2 6333   6.635   9.065   1.524 -0.1551 -1.5473 -0.7809
 1105SOL     OW 6334   7.185   1.610   3.614  0.7252  0.1389 -0.0035
 1105SOL    HW1 6335   7.167   1.569   3.699  1.2082 -1.5348 -0.6856
 1105SOL    HW2 6336   7.268   1.570   3.585  0.4530  0.5214 -1.3545
 1106SOL     OW 6337   0.135   6.861   4.775  0.1356  0.1729 -0.4564
 1106SOL    HW1 6338   0.094   6.939   4.739  1.3921  0.9040 -0.3340
 1106SOL    HW2 6339   0.067   6.794   4.772 -1.1381  1.4399  0.0174
 1107SOL     OW 6340   4.036   3.417   0.121  0.4213 -0.4940 -0.5869
 1107SOL    HW1 6341   3.950   3.377   0.107 -1.0468  2.8695 -1.6585
 1107SOL    HW2 6342   4.054   3.405   0.214 -1.8199 -0.0859 -0.0815
 1108SOL     OW 6343   8.794   8.409   6.129  0.0454  0.4034 -0.1162
 1108SOL    HW1 6344   8.735   8.481   6.107  0.2657  1.2335  1.8523
 1108SOL    HW2 6345   8.739   8.345   6.175 -0.2992 -1.0418 -2.4782
 1109SOL     OW 6346   4.443   4.222   1.421  0.2213 -0.0777  0.0745
 1109SOL    HW1 6347   4.396   4.301   1.394 -0.2666 -0.3766  0.0330
 1109SOL    HW2 6348   4.377   4.152   1.415  0.7273 -0.5334 -0.1672
 1110SOL     OW 6349   8.846   9.011   6.493 -0.5450 -0.4404  0.3782
 1110SOL    HW1 6350   8.814   9.055   6.414  0.3002 -2.4431 -1.1144
 1110SOL    HW2 6351   8.832   9.075   6.563  1.3820  2.5276 -1.8223
 1111SOL     OW 6352   6.162   5.857   2.788  0.1864 -0.3266 -0.5488
 1111SOL    HW1 6353   6.243   5.860   2.839 -0.7258  1.0039  0.8843
 1111SOL    HW2 6354   6.180   5.910   2.710  0.4032  0.7520  0.2282
 1112SOL     OW 6355   3.994   1.209   6.929 -0.0181  0.5635 -0.1256
 1112SOL    HW1 6356   4.010   1.290   6.881  0.6348  0.7716  0.4389
 1112SOL    HW2 6357   3.996   1.141   6.862  0.2061  0.9284 -0.4912
 1113SOL     OW 6358   0.126   8.981   4.712 -0.2113 -0.3290 -0.6151
 1113SOL    HW1 6359   0.090   9.042   4.777 -1.1727 -0.9147 -0.5816
 1113SOL    HW2 6360   0.156   9.037   4.641  1.3137  0.3467  0.5501
 1114SOL     OW 6361   7.775   8.034   9.425 -0.0720  0.1731 -0.2340
 1114SOL    HW1 6362   7.719   8.083   9.486  0.4224  0.8281 -0.3027
 1114SOL    HW2 6363   7.861   8.032   9.468  0.4763  1.3194 -1.2627
 1115SOL     OW 6364   1.727   9.275   4.567 -0.4625 -0.2058 -0.3262
 1115SOL    HW1 6365   1.801   9.330   4.593  1.6437 -1.1482 -3.9445
 1115SOL    HW2 6366   1.760   9.186   4.572 -2.7915 -0.9866  2.2185
 1116SOL     OW 6367   7.631   4.001   3.708 -0.4418 -0.0214 -0.2509
 1116SOL    HW1 6368   7.539   3.976   3.717 -0.2526 -0.0110  2.0255
 1116SOL    HW2 6369   7.679   3.938   3.761  0.7784  0.5810 -0.6020
 1117SOL     OW 6370   3.637   1.202   6.556  0.1627 -0.4271  0.4319
 1117SOL    HW1 6371   3.619   1.288   6.593 -1.5573 -0.1211 -1.0301
 1117SOL    HW2 6372   3.577   1.143   6.603 -0.6753 -0.3457 -0.5146
 1118SOL     OW 6373   4.911   5.827   1.535 -0.6209  0.1657 -0.0583
 1118SOL    HW1 6374   4.896   5.904   1.481  2.9049  1.0251  0.0646
 1118SOL    HW2 6375   4.899   5.753   1.475 -1.0508  0.9292 -0.9285
 1119SOL     OW 6376   8.076   1.782   4.639  0.3746  0.1752 -0.0942
 1119SOL    HW1 6377   8.117   1.732   4.709 -1.5752 -0.1067  0.8975
 1119SOL    HW2 6378   8.056   1.717   4.571 -0.7225 -0.1383  0.5164
 1120SOL     OW 6379   0.952   2.687   1.680 -0.3628 -0.5680  0.1480
 1120SOL    HW1 6380   0.962   2.761   1.620  1.8580 -0.7223  0.2894
 1120SOL    HW2 6381   0.880   2.713   1.738 -1.3452  0.3487 -1.4373
 1121SOL     OW 6382   1.258   2.567   6.529  0.4689 -0.1436 -0.3333
 1121SOL    HW1 6383   1.243   2.476   6.556  0.3416 -0.8123 -2.5318
 1121SOL    HW2 6384   1.317   2.560   6.453 -0.6680  1.5055 -1.4125
 1122SOL     OW 6385   6.791   4.061   9.273  0.4847 -0.2958 -0.0706
 1122SOL    HW1 6386   6.861   4.106   9.225 -0.0226 -0.6703 -1.1502
 1122SOL    HW2 6387   6.820   4.066   9.365  2.2266 -0.9610 -0.5500
 1123SOL     OW 6388   8.905   5.578   1.903 -0.0680  0.0334 -0.2591
 1123SOL    HW1 6389   8.830   5.527   1.872 -0.2848 -0.7091  1.4236
 1123SOL    HW2 6390   8.867   5.662   1.931 -0.4169 -0.6288  1.3234
 1124SOL     OW 6391   5.981   9.046   2.861 -0.0065  0.3386  0.0135
 1124SOL    HW1 6392   5.888   9.062   2.843  0.0311 -0.9246 -1.3752
 1124SOL    HW2 6393   5.980   8.982   2.932 -0.1673  2.3318  1.8547
 1125SOL     OW 6394   2.321   1.826   5.530 -0.1599  0.3054  0.2492
 1125SOL    HW1 6395   2.228   1.839   5.546  0.2675  0.9635  2.2914
 1125SOL    HW2 6396   2.337   1.734   5.552 -0.5870 -0.1946 -1.4684
 1126SOL     OW 6397   7.614   2.871   9.216  0.3912 -0.1062 -0.4883
 1126SOL    HW1 6398   7.663   2.789   9.222 -0.0311 -0.3741 -0.7304
 1126SOL    HW2 6399   7.608   2.902   9.306  0.5365 -0.3445 -0.3963
 1127SOL     OW 6400   8.989   2.922   6.747  0.0247  0.1854  0.3707
 1127SOL    HW1 6401   9.011   2.832   6.772  0.0318  0.3461  0.9652
 1127SOL    HW2 6402   9.013   2.929   6.655 -0.0791 -0.4554  0.2964
 1128SOL     OW 6403   7.907   0.840   7.267 -0.4338  0.2522  0.5965
 1128SOL    HW1 6404   7.880   0.871   7.354  2.0859  4.6132 -0.0359
 1128SOL    HW2 6405   7.837   0.870   7.209 -0.4143  0.4562  0.6746
 1129SOL     OW 6406   0.282   1.066   9.341 -0.2739  0.0524 -0.0921
 1129SOL    HW1 6407   0.251   1.000   9.279  1.1010 -1.1659  0.4879
 1129SOL    HW2 6408   0.202   1.098   9.384 -0.8635 -2.0689  0.4255
 1130SOL     OW 6409   6.995   5.890   9.152 -0.1425 -0.7192  0.1304
 1130SOL    HW1 6410   7.054   5.849   9.088  0.3185  0.1417  0.0019
 1130SOL    HW2 6411   7.050   5.908   9.228  0.4978  2.8372 -1.1003
 1131SOL     OW 6412   7.623   0.627   0.221 -0.6189 -0.2897  0.0837
 1131SOL    HW1 6413   7.659   0.715   0.234 -1.7329  0.3109 -0.8012
 1131SOL    HW2 6414   7.626   0.613   0.126  2.1138 -2.3261  0.4044
 1132SOL     OW 6415   0.429   3.746   3.570 -0.1772 -0.5855  0.3370
 1132SOL    HW1 6416   0.402   3.754   3.478 -0.5380  0.8910  0.5579
 1132SOL    HW2 6417   0.512   3.794   3.574  0.0535 -1.0132  0.7013
 1133SOL     OW 6418   0.941   7.195   8.339 -0.6023  0.3810  0.2525
 1133SOL    HW1 6419   0.912   7.196   8.247 -2.4512 -0.0132  0.8111
 1133SOL    HW2 6420   1.017   7.253   8.340  1.7274 -2.4622 -2.2409
 1134SOL     OW 6421   5.317   0.581   1.233  0.3861  0.2835 -0.1226
 1134SOL    HW1 6422   5.319   0.675   1.249 -2.9776  0.3072  0.5314
 1134SOL    HW2 6423   5.251   0.569   1.164  1.1070 -1.5575 -0.5376
 1135SOL     OW 6424   8.718   5.890   7.000 -0.9639 -0.4232 -0.1190
 1135SOL    HW1 6425   8.805   5.930   7.002 -1.0261 -0.2519 -0.7702
 1135SOL    HW2 6426   8.657   5.964   6.996 -1.2027 -0.4963  1.7088
 1136SOL     OW 6427   8.837   8.804   2.066 -0.1064  0.2128 -0.2001
 1136SOL    HW1 6428   8.775   8.823   1.995  0.3150 -1.6702 -1.0956
 1136SOL    HW2 6429   8.785   8.816   2.146 -0.5409  2.5267 -0.7738
 1137SOL     OW 6430   1.764   5.921   9.154  0.2804  0.2179  0.3706
 1137SOL    HW1 6431   1.808   5.865   9.090 -0.1291 -0.5169  0.7235
 1137SOL    HW2 6432   1.813   6.003   9.152  0.1497  0.2653 -1.0183
 1138SOL     OW 6433   7.211   0.535   7.648  0.3398  0.2102 -0.1181
 1138SOL    HW1 6434   7.217   0.614   7.596  1.8584 -0.3880 -0.8563
 1138SOL    HW2 6435   7.254   0.557   7.731 -3.1435  1.5545  1.4289
 1139SOL     OW 6436   7.967   0.372   5.164  0.1035 -0.8333  0.1654
 1139SOL    HW1 6437   8.013   0.305   5.114 -0.1278 -1.1325  0.3510
 1139SOL    HW2 6438   7.952   0.443   5.102  0.8188 -0.7345  0.1060
 1140SOL     OW 6439   1.212   5.212   1.335  0.2162  0.2825  0.2366
 1140SOL    HW1 6440   1.280   5.144   1.330 -0.3605 -0.4999  2.4469
 1140SOL    HW2 6441   1.130   5.164   1.324 -0.2171  0.5333  2.2033
 1141SOL     OW 6442   8.548   6.226   1.672 -0.0174  0.2395 -0.0386
 1141SOL    HW1 6443   8.531   6.158   1.737 -0.9790  2.0658  1.6974
 1141SOL    HW2 6444   8.474   6.220   1.611 -0.2841 -0.0691  0.3106
 1142SOL     OW 6445   2.573   4.637   4.608 -0.3503 -0.0408  0.0735
 1142SOL    HW1 6446   2.555   4.704   4.674 -0.3944  0.4665 -0.4488
 1142SOL    HW2 6447   2.623   4.571   4.655 -1.4715 -0.2993  0.9293
 1143SOL     OW 6448   3.357   3.670   7.703  0.4048 -0.2772  0.0957
 1143SOL    HW1 6449   3.291   3.651   7.770 -1.6240  1.1077 -1.4589
 1143SOL    HW2 6450   3.434   3.695   7.752 -0.0074 -2.4953  1.9766
 1144SOL     OW 6451   0.310   9.066   9.036  0.4690 -0.2037  0.4287
 1144SOL    HW1 6452   0.271   9.082   8.950 -1.9607 -5.3247  0.3615
 1144SOL    HW2 6453   0.403   9.049   9.017 -0.2155 -2.2028 -1.3869
 1145SOL     OW 6454   7.693   2.889   4.470  0.0837 -0.4233 -0.4793
 1145SOL    HW1 6455   7.759   2.822   4.455 -2.0032 -2.3981 -1.2176
 1145SOL    HW2 6456   7.702   2.912   4.562  1.0655 -1.4663 -0.3065
 1146SOL     OW 6457   4.324   1.278   8.343  0.1757 -0.2484 -0.3686
 1146SOL    HW1 6458   4.355   1.358   8.387  0.2052 -0.6964  0.4262
 1146SOL    HW2 6459   4.360   1.285   8.254 -0.0713  0.7675 -0.3981
 1147SOL     OW 6460   0.405   6.006   3.934  0.0207  0.5549  0.1319
 1147SOL    HW1 6461   0.470   5.939   3.917  0.7947  1.8707 -2.2363
 1147SOL    HW2 6462   0.437   6.051   4.012 -0.0598 -1.2066  1.2218
 1148SOL     OW 6463   0.934   1.525   6.134  0.2062  0.0889  0.4576
 1148SOL    HW1 6464   0.869   1.537   6.065  0.7685 -1.4306 -0.3433
 1148SOL    HW2 6465   0.916   1.596   6.196 -2.8323 -0.8562  0.7210
 1149SOL     OW 6466   1.424   8.829   2.892 -0.7352 -0.7753  0.0500
 1149SOL    HW1 6467   1.421   8.912   2.845 -1.2401  0.0782  1.5497
 1149SOL    HW2 6468   1.495   8.841   2.955  1.3338 -2.6624 -1.8460
 1150SOL     OW 6469   2.748   1.088   0.344  0.0136 -0.4132 -0.5840
 1150SOL    HW1 6470   2.788   1.001   0.348  0.3369 -0.2656 -0.5779
 1150SOL    HW2 6471   2.678   1.079   0.280  0.5762 -0.4744 -1.2010
 1151SOL     OW 6472   8.041   7.413   9.319 -0.3161 -0.0048  0.4100
 1151SOL    HW1 6473   8.122   7.408   9.268 -0.0913 -0.4790  0.8170
 1151SOL    HW2 6474   8.016   7.322   9.335 -0.8156  0.1405  0.4675
 1152SOL     OW 6475   5.417   2.248   8.947  0.3733 -0.2999  0.3816
 1152SOL    HW1 6476   5.364   2.230   8.870  1.3143  1.1885 -0.6477
 1152SOL    HW2 6477   5.371   2.319   8.992  0.1978 -0.6862  0.8146
 1153SOL     OW 6478   5.850   3.628   4.981  0.3548 -0.1745 -1.3939
 1153SOL    HW1 6479   5.944   3.611   4.985  0.6308  1.3469 -1.0816
 1153SOL    HW2 6480   5.824   3.642   5.072 -0.3892 -1.6138 -1.3651
 1154SOL     OW 6481   4.720   2.932   6.765 -0.5216  0.7135  0.8640
 1154SOL    HW1 6482   4.761   3.017   6.782  1.3771  0.4602 -2.0068
 1154SOL    HW2 6483   4.648   2.952   6.704 -1.4887  0.5291  1.9403
 1155SOL     OW 6484   3.646   3.034   6.992 -0.1393 -0.4832  0.4099
 1155SOL    HW1 6485   3.687   3.023   6.905  0.0117  2.4041  0.0505
 1155SOL    HW2 6486   3.686   2.966   7.046  0.9896 -1.2914 -1.3871
 1156SOL     OW 6487   3.459   2.226   6.852 -0.5511  0.6127  0.0578
 1156SOL    HW1 6488   3.488   2.256   6.766  0.8448  2.2305  1.0465
 1156SOL    HW2 6489   3.395   2.158   6.834  0.0278  0.6455 -2.2536
 1157SOL     OW 6490   7.821   4.923   3.757 -0.3584  0.3951  0.4987
 1157SOL    HW1 6491   7.753   4.862   3.728  0.5438 -0.2120 -0.3589
 1157SOL    HW2 6492   7.774   5.002   3.781 -1.1988  0.6806 -1.9783
 1158SOL     OW 6493   0.131   2.253   6.989 -0.0137  0.6024  0.0628
 1158SOL    HW1 6494   0.102   2.291   6.906  1.3604  1.2772 -0.1251
 1158SOL    HW2 6495   0.170   2.327   7.037  0.5181 -0.0814  0.7012
 1159SOL     OW 6496   4.296   1.628   8.434  0.3963 -0.2087  0.4302
 1159SOL    HW1 6497   4.211   1.669   8.453 -0.6418 -2.4735  0.8698
 1159SOL    HW2 6498   4.331   1.604   8.520  0.7749 -0.6255  0.1649
 1160SOL     OW 6499   0.773   1.457   3.115 -0.1738  0.0596 -0.0490
 1160SOL    HW1 6500   0.749   1.468   3.207 -0.2098 -1.3474  0.1237
 1160SOL    HW2 6501   0.722   1.381   3.086  0.9762 -0.4413 -0.8033
 1161SOL     OW 6502   8.723   1.048   6.576  0.3989 -0.4350  0.6942
 1161SOL    HW1 6503   8.631   1.073   6.569  0.5928  0.1106  0.0243
 1161SOL    HW2 6504   8.722   0.970   6.631 -0.7026 -1.7940 -1.1678
 1162SOL     OW 6505   6.353   1.397   7.940 -0.7778  0.0058  0.2552
 1162SOL    HW1 6506   6.326   1.469   7.997  0.4273  0.0170  0.8467
 1162SOL    HW2 6507   6.418   1.349   7.992 -0.1034 -0.3351 -0.8823
 1163SOL     OW 6508   6.125   0.777   1.072 -0.0998 -0.2101  0.3829
 1163SOL    HW1 6509   6.216   0.802   1.089  0.1609 -0.0758 -1.1716
 1163SOL    HW2 6510   6.127   0.682   1.059  0.6294  0.3404 -4.4443
 1164SOL     OW 6511   9.020   9.085   4.332  0.3941  0.1555  0.1224
 1164SOL    HW1 6512   9.031   9.028   4.256 -0.4188  0.1406  0.0080
 1164SOL    HW2 6513   8.934   9.062   4.366  0.4111  0.7400  0.5589
 1165SOL     OW 6514   4.934   9.117   7.633 -0.6588 -0.4109  0.8927
 1165SOL    HW1 6515   5.025   9.117   7.604 -0.4799  0.5598  1.4562
 1165SOL    HW2 6516   4.889   9.173   7.570 -0.9241 -1.1315  0.4397
 1166SOL     OW 6517   7.270   5.161   3.380  0.0287 -0.3472 -0.1743
 1166SOL    HW1 6518   7.268   5.066   3.367 -2.5685 -0.4499  0.7388
 1166SOL    HW2 6519   7.201   5.195   3.323  0.8180  1.0069 -0.3598
 1167SOL     OW 6520   2.683   2.693   4.335  0.0322 -0.2941 -0.2794
 1167SOL    HW1 6521   2.698   2.770   4.280  0.0140 -1.5005 -1.9881
 1167SOL    HW2 6522   2.614   2.720   4.396  2.0523  2.0067  1.0994
 1168SOL     OW 6523   0.873   0.684   8.557 -0.1557 -1.0511  0.2933
 1168SOL    HW1 6524   0.796   0.634   8.582 -0.2500 -1.5027 -0.8848
 1168SOL    HW2 6525   0.931   0.621   8.514 -0.6732  0.0094 -2.0243
 1169SOL     OW 6526   7.653   6.226   0.992 -0.0471  0.0504 -0.3119
 1169SOL    HW1 6527   7.639   6.320   0.994  1.1767  0.2949 -2.0751
 1169SOL    HW2 6528   7.742   6.216   0.958 -1.1482 -1.8147 -2.7588
 1170SOL     OW 6529   2.030   1.368   1.600 -0.5921 -0.2436  0.0587
 1170SOL    HW1 6530   2.079   1.302   1.647  2.9104  1.6030 -0.8582
 1170SOL    HW2 6531   2.062   1.363   1.510 -3.0947  0.1089 -0.9024
 1171SOL     OW 6532   6.060   8.127   6.367  0.2901 -0.2281 -0.0265
 1171SOL    HW1 6533   6.021   8.039   6.362  0.5195 -0.2947 -0.7321
 1171SOL    HW2 6534   5.995   8.184   6.326 -1.4234  0.5013  3.4608
 1172SOL     OW 6535   1.440   4.118   1.371 -0.1128 -0.3255  0.3964
 1172SOL    HW1 6536   1.462   4.049   1.308  1.5822 -1.6928  2.4307
 1172SOL    HW2 6537   1.508   4.112   1.438 -2.7685  0.0380  3.2159
 1173SOL     OW 6538   6.656   3.811   5.856 -0.9364  0.2859 -0.6003
 1173SOL    HW1 6539   6.748   3.825   5.879 -0.7221  0.8551 -1.7525
 1173SOL    HW2 6540   6.625   3.745   5.918  0.0872  0.5268  0.1742
 1174SOL     OW 6541   8.456   6.180   8.238 -0.1768 -0.4165 -0.4924
 1174SOL    HW1 6542   8.501   6.137   8.311 -1.3413 -1.2091 -0.2409
 1174SOL    HW2 6543   8.433   6.109   8.178 -5.0464 -0.6953  1.4640
 1175SOL     OW 6544   7.169   0.124   3.742 -0.7227 -0.2532 -0.3677
 1175SOL    HW1 6545   7.164   0.071   3.662 -2.7546  0.7630 -0.9478
 1175SOL    HW2 6546   7.147   0.212   3.714  1.9760  0.8167  0.7192
 1176SOL     OW 6547   8.842   6.685   6.201  0.2978  0.4349 -0.1996
 1176SOL    HW1 6548   8.824   6.692   6.107 -0.1471  0.1247 -0.1406
 1176SOL    HW2 6549   8.865   6.593   6.214  0.3461  0.4743 -0.0062
 1177SOL     OW 6550   2.804   1.240   5.966 -0.2861 -0.0901 -0.0607
 1177SOL    HW1 6551   2.832   1.283   6.047  0.8052 -0.7488 -0.0782
 1177SOL    HW2 6552   2.729   1.186   5.993  1.7892 -2.5100  1.1410
 1178SOL     OW 6553   7.660   3.751   8.560  0.0013  0.9193  0.2407
 1178SOL    HW1 6554   7.680   3.835   8.518  0.5253 -0.1007 -1.6235
 1178SOL    HW2 6555   7.570   3.732   8.534  0.2451  0.4025 -0.2593
 1179SOL     OW 6556   1.765   3.959   5.903  0.8038  0.7774  0.0091
 1179SOL    HW1 6557   1.707   3.973   5.829  1.7408 -0.9090 -1.0691
 1179SOL    HW2 6558   1.841   4.015   5.885  0.2264  1.7769  0.6345
 1180SOL     OW 6559   7.748   6.357   4.329  0.0758 -0.5215  0.1352
 1180SOL    HW1 6560   7.813   6.415   4.289  0.2768 -0.8756 -0.0482
 1180SOL    HW2 6561   7.697   6.415   4.386  0.3605 -0.1874  0.0537
 1181SOL     OW 6562   0.031   5.133   7.036 -0.4574  0.2053  0.3398
 1181SOL    HW1 6563   0.059   5.042   7.023  2.0514  0.3680  3.7170
 1181SOL    HW2 6564   0.076   5.183   6.968  1.7604 -0.5635  1.1847
 1182SOL     OW 6565   7.001   0.052   7.642  0.0120  0.5672 -0.1273
 1182SOL    HW1 6566   7.037  -0.002   7.713 -2.5631 -0.1351  0.7187
 1182SOL    HW2 6567   6.979  -0.011   7.574  1.4671  1.1258 -1.1442
 1183SOL     OW 6568   3.340   3.673   7.428  0.4834  0.1212  0.2866
 1183SOL    HW1 6569   3.367   3.678   7.519 -2.0467  0.9008  1.0271
 1183SOL    HW2 6570   3.245   3.681   7.430  0.3338 -0.3621 -2.3826
 1184SOL     OW 6571   1.900   4.172   9.064  0.4144 -0.0477 -0.1861
 1184SOL    HW1 6572   1.984   4.205   9.095 -0.0872  0.7616  0.3228
 1184SOL    HW2 6573   1.904   4.184   8.969  2.2685 -3.2685 -0.5930
 1185SOL     OW 6574   1.214   2.829   6.542 -0.2841  0.0999  0.2562
 1185SOL    HW1 6575   1.218   2.734   6.534 -0.2444  0.0567  0.7591
 1185SOL    HW2 6576   1.148   2.856   6.478 -0.1068 -0.2397 -0.0716
 1186SOL     OW 6577   3.675   3.701   0.553  0.4096  0.4101  0.0921
 1186SOL    HW1 6578   3.678   3.654   0.470 -0.2468  0.9354 -0.2381
 1186SOL    HW2 6579   3.762   3.738   0.564  1.0721 -1.2501  0.5775
 1187SOL     OW 6580   4.571   7.679   2.845  0.5293 -0.0610  0.1339
 1187SOL    HW1 6581   4.625   7.638   2.777 -0.1275 -1.0422  0.1856
 1187SOL    HW2 6582   4.594   7.632   2.925 -0.8136 -0.8855  0.0497
 1188SOL     OW 6583   4.879   3.535   2.312 -0.6150  0.3219 -0.2857
 1188SOL    HW1 6584   4.879   3.576   2.398 -2.5326  1.5485 -0.8481
 1188SOL    HW2 6585   4.791   3.500   2.301  0.1999 -1.5920 -0.9454
 1189SOL     OW 6586   7.282   3.800   9.348  0.0766 -0.6981 -0.4735
 1189SOL    HW1 6587   7.189   3.790   9.368  0.2823 -0.5317  0.6089
 1189SOL    HW2 6588   7.304   3.722   9.297 -0.2107 -1.7601  0.9748
 1190SOL     OW 6589   5.188   2.017   7.549  0.5628  0.4074 -0.0031
 1190SOL    HW1 6590   5.270   2.058   7.576  0.6909  0.5494 -0.6101
 1190SOL    HW2 6591   5.182   1.938   7.604  1.2826  0.2045 -0.2144
 1191SOL     OW 6592   3.058   4.348   2.541  0.1115  0.3504  0.4295
 1191SOL    HW1 6593   3.039   4.312   2.454  0.2866 -1.0314  0.9388
 1191SOL    HW2 6594   3.006   4.428   2.546 -0.2933  0.1736 -0.7523
 1192SOL     OW 6595   8.973   3.492   3.629  0.1411 -0.1880 -0.0641
 1192SOL    HW1 6596   9.065   3.492   3.657 -0.3234 -1.5454  1.4657
 1192SOL    HW2 6597   8.958   3.404   3.594 -0.9846 -0.4542  1.0550
 1193SOL     OW 6598   3.445   3.270   5.779 -0.3130  0.6251  0.0691
 1193SOL    HW1 6599   3.517   3.328   5.803  0.0361 -0.0836  0.7751
 1193SOL    HW2 6600   3.488   3.187   5.756 -0.9958 -0.2478  1.8743
 1194SOL     OW 6601   7.662   1.684   9.156 -0.1513  0.1101  0.8057
 1194SOL    HW1 6602   7.673   1.717   9.245 -0.6338 -0.1803  0.9762
 1194SOL    HW2 6603   7.745   1.642   9.135  0.6036  1.7413  0.4561
 1195SOL     OW 6604   9.049   4.812   6.258  0.0712  0.4720  0.1391
 1195SOL    HW1 6605   9.038   4.879   6.325 -0.9059 -0.3582  0.8315
 1195SOL    HW2 6606   8.966   4.812   6.210  0.8841  1.2811 -1.2811
 1196SOL     OW 6607   2.983   8.461   2.018 -0.2186 -0.6006  0.3800
 1196SOL    HW1 6608   3.048   8.450   2.086  2.0495 -2.3140 -1.9707
 1196SOL    HW2 6609   3.025   8.519   1.954 -0.8862 -1.8442 -1.2363
 1197SOL     OW 6610   8.186   9.441   6.379  0.5757 -0.5966  0.2530
 1197SOL    HW1 6611   8.144   9.526   6.394  0.3388 -0.9855  1.9081
 1197SOL    HW2 6612   8.279   9.459   6.388  0.7797  0.1768 -2.9613
 1198SOL     OW 6613   9.144   1.283   5.471  0.0472 -0.6071  0.3887
 1198SOL    HW1 6614   9.156   1.370   5.431 -1.5709 -0.6890 -0.3155
 1198SOL    HW2 6615   9.148   1.300   5.565 -1.4446  0.4356  0.2825
 1199SOL     OW 6616   4.929   2.501   9.033  0.5532 -0.1894 -0.2039
 1199SOL    HW1 6617   4.874   2.548   8.970 -0.2202 -0.6139  0.1511
 1199SOL    HW2 6618   4.983   2.443   8.980  0.4783  0.0453 -0.5379
 1200SOL     OW 6619   5.478   5.690   7.052 -0.6232 -0.1706  0.0374
 1200SOL    HW1 6620   5.387   5.698   7.080 -1.3173 -0.1466 -2.0995
 1200SOL    HW2 6621   5.503   5.601   7.076 -1.0558 -0.0241  1.0442
 1201SOL     OW 6622   8.316   0.935   3.678 -0.6832 -0.3511 -0.0217
 1201SOL    HW1 6623   8.405   0.899   3.687 -0.8506 -0.5140  1.1094
 1201SOL    HW2 6624   8.299   0.977   3.763 -1.6121 -0.1454 -0.3043
 1202SOL     OW 6625   8.950   2.434   8.749  0.5788 -0.0232  0.0305
 1202SOL    HW1 6626   8.966   2.401   8.660 -0.7618 -0.7474  0.0387
 1202SOL    HW2 6627   8.965   2.358   8.805  0.0388  0.0659  0.2930
 1203SOL     OW 6628   4.142   2.788   1.365 -0.3907  0.2924 -0.0433
 1203SOL    HW1 6629   4.226   2.834   1.353  0.0764 -0.9657 -1.7954
 1203SOL    HW2 6630   4.076   2.853   1.341  0.0532  1.3129  1.3966
 1204SOL     OW 6631   6.455   3.264   0.113 -0.7065 -0.5533 -0.1317
 1204SOL    HW1 6632   6.551   3.263   0.112 -0.6405  0.5811  1.9511
 1204SOL    HW2 6633   6.433   3.357   0.102 -1.5424 -0.7013  0.2972
 1205SOL     OW 6634   8.916   0.731   0.381 -0.1908 -0.6553  0.2724
 1205SOL    HW1 6635   8.936   0.644   0.413  0.8004 -0.8237 -0.8071
 1205SOL    HW2 6636   8.980   0.788   0.423  0.2202 -0.6842 -0.3052
 1206SOL     OW 6637   5.575   2.339   2.528 -0.2160  0.3108  0.3564
 1206SOL    HW1 6638   5.666   2.358   2.549  0.5300 -2.6816  0.1074
 1206SOL    HW2 6639   5.578   2.294   2.444 -2.3019  3.4958 -1.5355
 1207SOL     OW 6640   2.124   2.071   4.138  0.2599  0.3196  0.1895
 1207SOL    HW1 6641   2.129   2.122   4.057  0.0482 -0.4541 -0.3160
 1207SOL    HW2 6642   2.213   2.072   4.173  0.9373 -1.4935 -1.3972
 1208SOL     OW 6643   8.078   4.122   6.209 -0.4610 -0.3084 -0.3100
 1208SOL    HW1 6644   8.077   4.178   6.132  2.0732  0.4031  0.1240
 1208SOL    HW2 6645   8.043   4.038   6.178 -0.3150  0.2356 -2.0119
 1209SOL     OW 6646   9.438   1.840   0.861  0.4389 -0.1616  0.6748
 1209SOL    HW1 6647   9.473   1.928   0.877 -0.5376 -0.0950  2.7121
 1209SOL    HW2 6648   9.378   1.826   0.934  1.0879 -2.7887  0.7309
 1210SOL     OW 6649   8.244   8.834   2.050 -0.0823 -0.2148  0.2517
 1210SOL    HW1 6650   8.255   8.772   1.979  0.6606 -1.1209  1.1505
 1210SOL    HW2 6651   8.331   8.871   2.064 -0.1619 -0.2578  0.8838
 1211SOL     OW 6652   8.046   7.181   2.198 -0.2933  0.2197  0.4075
 1211SOL    HW1 6653   7.969   7.128   2.218 -0.7101  0.4306 -0.6709
 1211SOL    HW2 6654   8.071   7.155   2.110  0.2840  0.8811  0.3753
 1212SOL     OW 6655   4.925   3.767   7.282 -0.1353  0.0658 -0.1441
 1212SOL    HW1 6656   4.851   3.725   7.237  0.6217 -0.7397 -0.6689
 1212SOL    HW2 6657   4.931   3.722   7.366 -1.6357  1.6633  0.8494
 1213SOL     OW 6658   2.804   4.045   1.311  0.1605 -0.3190 -0.2686
 1213SOL    HW1 6659   2.804   4.135   1.280  1.5874 -0.2106  0.0044
 1213SOL    HW2 6660   2.728   4.039   1.369 -0.9585  0.2183 -1.6441
 1214SOL     OW 6661   8.849   0.045   6.452 -1.0147 -0.9526 -0.1991
 1214SOL    HW1 6662   8.918   0.007   6.398 -1.8204 -2.6479 -0.0768
 1214SOL    HW2 6663   8.776   0.058   6.391 -0.3651  1.5210 -0.4879
 1215SOL     OW 6664   5.364   5.917   2.906 -0.6672 -0.0286 -0.8511
 1215SOL    HW1 6665   5.288   5.939   2.960 -0.5429 -0.0747 -0.6583
 1215SOL    HW2 6666   5.372   5.822   2.912  1.4602  0.2647  1.8940
 1216SOL     OW 6667   3.395   0.303   3.698 -0.0151 -0.0095 -0.5540
 1216SOL    HW1 6668   3.336   0.231   3.718 -0.2136  0.4893  0.7784
 1216SOL    HW2 6669   3.361   0.341   3.617 -0.7350 -0.5568 -0.5124
 1217SOL     OW 6670   1.956   6.395   5.837 -0.1273  0.8627  0.3963
 1217SOL    HW1 6671   2.012   6.340   5.892 -1.0402 -1.3567 -0.8716
 1217SOL    HW2 6672   2.006   6.407   5.756 -0.2599  1.2818  0.3744
 1218SOL     OW 6673   4.317   0.187   4.512 -0.1604 -0.5708  0.0219
 1218SOL    HW1 6674   4.411   0.175   4.515 -0.0178  0.3190 -0.5660
 1218SOL    HW2 6675   4.285   0.119   4.453  0.3899  0.5706 -1.6297
 1219SOL     OW 6676   4.436   0.522   4.257  0.7608 -0.1411 -0.6373
 1219SOL    HW1 6677   4.474   0.585   4.319 -0.8843  1.1747 -0.9051
 1219SOL    HW2 6678   4.479   0.542   4.174  0.1018  0.8016 -0.7661
 1220SOL     OW 6679   8.836   5.762   4.490 -0.1556  0.2570  0.0551
 1220SOL    HW1 6680   8.904   5.789   4.552 -0.7676  2.3123 -0.1195
 1220SOL    HW2 6681   8.879   5.764   4.405 -0.1230  0.4354  0.0756
 1221SOL     OW 6682   3.276   2.816   3.917 -0.3389  0.0323  0.1884
 1221SOL    HW1 6683   3.289   2.747   3.851 -0.1246  1.2502 -1.0816
 1221SOL    HW2 6684   3.181   2.825   3.924 -0.3691  0.9775 -1.1503
 1222SOL     OW 6685   2.121   8.774   3.178 -0.1004  0.1740  0.0815
 1222SOL    HW1 6686   2.192   8.839   3.169  0.5933 -0.6569 -0.5440
 1222SOL    HW2 6687   2.110   8.764   3.273  0.9056  0.0167  0.1929
 1223SOL     OW 6688   8.310   4.194   2.060  0.3726 -0.2495 -0.2028
 1223SOL    HW1 6689   8.389   4.245   2.076  0.5186 -0.9768  1.5470
 1223SOL    HW2 6690   8.255   4.211   2.137 -1.1003  0.0928 -1.3034
 1224SOL     OW 6691   8.986   2.173   9.315  0.2879 -0.1168  0.4208
 1224SOL    HW1 6692   9.004   2.208   9.402  1.3670  0.2438  0.0518
 1224SOL    HW2 6693   9.019   2.083   9.317  0.5822 -0.0132  0.2952
 1225SOL     OW 6694   7.081   7.948   4.895 -0.1102  0.6595  0.2378
 1225SOL    HW1 6695   7.002   7.968   4.946 -0.4537  3.2160 -1.1976
 1225SOL    HW2 6696   7.048   7.895   4.822 -0.1734  0.0004  0.7414
 1226SOL     OW 6697   7.932   5.180   1.339  0.7269 -0.1933 -0.0773
 1226SOL    HW1 6698   8.004   5.148   1.285  1.4060 -1.7034  1.6398
 1226SOL    HW2 6699   7.918   5.110   1.403 -0.5306  1.2104  1.2286
 1227SOL     OW 6700   0.614   3.493   2.458 -0.5654 -0.0617 -0.1737
 1227SOL    HW1 6701   0.654   3.576   2.430  0.8813 -0.8745 -0.5441
 1227SOL    HW2 6702   0.528   3.493   2.417 -0.4188  1.0853 -0.4986
 1228SOL     OW 6703   1.601   3.172   9.240 -0.0414 -0.1190 -0.5145
 1228SOL    HW1 6704   1.523   3.150   9.189  0.5986  1.4408 -2.2107
 1228SOL    HW2 6705   1.623   3.091   9.286 -0.6891 -1.5652 -2.6644
 1229SOL     OW 6706   3.724   1.692   6.582 -0.7396 -0.0718  0.4808
 1229SOL    HW1 6707   3.771   1.661   6.659 -0.8808  0.9177  0.9783
 1229SOL    HW2 6708   3.791   1.730   6.526 -0.6371 -0.7881  0.1161
 1230SOL     OW 6709   2.320   2.880   7.764  0.6578 -0.2832  0.1715
 1230SOL    HW1 6710   2.326   2.807   7.703  0.5440 -2.2923  2.4856
 1230SOL    HW2 6711   2.408   2.917   7.766  1.1612 -1.4485  0.2623
 1231SOL     OW 6712   1.700   6.383   4.092 -0.2072  0.6729 -0.1555
 1231SOL    HW1 6713   1.732   6.463   4.133 -0.0256  1.1764 -1.2707
 1231SOL    HW2 6714   1.618   6.364   4.138  0.2146  0.9694  0.7465
 1232SOL     OW 6715   4.036   7.032   6.269  0.1719  0.3815 -0.6042
 1232SOL    HW1 6716   4.026   6.939   6.290  1.1796 -0.2119 -2.6103
 1232SOL    HW2 6717   4.093   7.066   6.337 -2.0912  0.0854  1.4974
 1233SOL     OW 6718   9.065   6.893   1.033  0.2078 -0.0239  0.4041
 1233SOL    HW1 6719   9.023   6.936   1.108  2.3727  0.3729  1.4370
 1233SOL    HW2 6720   9.121   6.960   0.995  0.5449 -0.7744 -0.4335
 1234SOL     OW 6721   5.284   4.434   3.382  0.1772 -0.5075 -0.8050
 1234SOL    HW1 6722   5.373   4.428   3.348  0.8919  0.3812  0.8872
 1234SOL    HW2 6723   5.241   4.355   3.349  1.7890 -1.3402 -0.9848
 1235SOL     OW 6724   5.236   6.877   6.161  0.0854  0.3147  0.3643
 1235SOL    HW1 6725   5.172   6.919   6.219  0.3017 -0.0264  0.8617
 1235SOL    HW2 6726   5.321   6.901   6.199  0.2329  0.1650  0.1277
 1236SOL     OW 6727   7.255   8.459   3.397  0.4516 -0.1493 -0.1774
 1236SOL    HW1 6728   7.304   8.432   3.319  1.1164 -0.4086  0.3229
 1236SOL    HW2 6729   7.292   8.544   3.421  0.7051 -0.3685  0.2282
 1237SOL     OW 6730   9.389   5.261   3.458  0.1801 -0.1790 -0.2357
 1237SOL    HW1 6731   9.454   5.244   3.389  0.7721 -2.1040  0.7846
 1237SOL    HW2 6732   9.426   5.334   3.507  0.6124  0.0336 -0.8612
 1238SOL     OW 6733   8.963   1.775   2.610  0.0176 -0.0881  0.0385
 1238SOL    HW1 6734   8.897   1.770   2.679 -0.0197 -2.1434 -0.1095
 1238SOL    HW2 6735   9.009   1.858   2.627  0.1997 -0.6685  2.7103
 1239SOL     OW 6736   0.172   0.153   2.650  0.6310 -0.6731  0.2204
 1239SOL    HW1 6737   0.182   0.237   2.606  0.1992 -0.5122  0.4226
 1239SOL    HW2 6738   0.079   0.132   2.640  0.3224 -0.1920  1.8210
 1240SOL     OW 6739   6.526   4.960   7.876  0.0331  0.0152 -0.0556
 1240SOL    HW1 6740   6.600   4.916   7.835  1.2217  0.3707  1.6860
 1240SOL    HW2 6741   6.565   5.024   7.935 -1.6590  0.4173  0.6697
 1241SOL     OW 6742   1.350   5.082   8.677  0.3549 -0.3069  0.3579
 1241SOL    HW1 6743   1.409   5.101   8.604 -1.9763  1.2548 -1.2318
 1241SOL    HW2 6744   1.312   4.997   8.656 -1.7496  0.9893 -1.3364
 1242SOL     OW 6745   5.725   2.780   1.126 -0.2793 -0.5398  0.0569
 1242SOL    HW1 6746   5.688   2.866   1.104  1.5262  0.3334  0.3430
 1242SOL    HW2 6747   5.703   2.767   1.218 -0.3373 -0.2549  0.0846
 1243SOL     OW 6748   3.751   5.477   2.240  0.1677 -0.5759  0.2642
 1243SOL    HW1 6749   3.733   5.478   2.334  1.5331  0.6377  0.5192
 1243SOL    HW2 6750   3.664   5.475   2.200 -0.4409 -0.3057  1.5333
 1244SOL     OW 6751   1.670   3.168   3.432  0.0902 -0.1344  0.1244
 1244SOL    HW1 6752   1.583   3.138   3.407 -0.3069 -0.5460  1.9449
 1244SOL    HW2 6753   1.697   3.225   3.360 -2.1309  0.8664  0.0468
 1245SOL     OW 6754   1.066   7.467   3.121  0.8214 -0.0303  0.3260
 1245SOL    HW1 6755   1.086   7.556   3.093 -0.7390  0.2582  0.0739
 1245SOL    HW2 6756   1.138   7.443   3.179  0.9495  1.6299  0.8694
 1246SOL     OW 6757   3.579   0.068   7.388 -0.2085 -0.1252  0.1543
 1246SOL    HW1 6758   3.567   0.036   7.298  1.9447  1.1875 -0.6549
 1246SOL    HW2 6759   3.651   0.017   7.423  0.9241  1.3675  0.0706
 1247SOL     OW 6760   6.890   2.908   1.310 -0.1001  0.0537 -0.1354
 1247SOL    HW1 6761   6.915   2.910   1.218  0.1370 -3.6730 -0.2181
 1247SOL    HW2 6762   6.972   2.925   1.357  1.1314 -4.2120 -0.5588
 1248SOL     OW 6763   3.184   9.247   6.649  0.5530 -0.4014  0.1406
 1248SOL    HW1 6764   3.229   9.164   6.665 -0.2352 -0.5911  1.4527
 1248SOL    HW2 6765   3.150   9.272   6.735  1.4517  1.6787 -0.0900
 1249SOL     OW 6766   6.215   1.548   3.269 -0.1064 -0.3580 -0.3279
 1249SOL    HW1 6767   6.173   1.579   3.349  2.4022  0.5762  0.6637
 1249SOL    HW2 6768   6.212   1.623   3.209 -0.8210 -0.6560 -0.6848
 1250SOL     OW 6769   1.749   2.807   1.319  0.0303  0.2701  0.5480
 1250SOL    HW1 6770   1.806   2.868   1.365  0.2721  0.6056 -0.1887
 1250SOL    HW2 6771   1.808   2.748   1.273 -0.2108 -0.0777  0.6767
 1251SOL     OW 6772   9.299   1.259   4.412  0.0686 -0.0730 -0.3055
 1251SOL    HW1 6773   9.309   1.308   4.495  0.6956 -1.1473  0.2660
 1251SOL    HW2 6774   9.384   1.270   4.369  0.3961 -1.0876  0.0692
 1252SOL     OW 6775   8.348   4.283   0.110 -0.4572 -0.0230 -0.7105
 1252SOL    HW1 6776   8.370   4.263   0.019 -0.1595 -0.7227 -0.4875
 1252SOL    HW2 6777   8.307   4.203   0.143 -0.9831  0.3867 -0.3602
 1253SOL     OW 6778   7.608   0.725   6.241 -0.2781 -0.0527 -0.0378
 1253SOL    HW1 6779   7.653   0.810   6.235 -0.7002  0.0867 -1.2145
 1253SOL    HW2 6780   7.529   0.744   6.291 -0.9440  0.4841 -1.2810
 1254SOL     OW 6781   0.788   0.545   5.739 -0.1231  0.0088 -0.5663
 1254SOL    HW1 6782   0.807   0.477   5.803  0.0361 -0.3296 -0.9742
 1254SOL    HW2 6783   0.796   0.627   5.788  0.2831 -0.2350 -0.2256
 1255SOL     OW 6784   3.875   3.856   4.727  0.0425  0.6660  0.2278
 1255SOL    HW1 6785   3.925   3.778   4.704 -0.6366  0.2347  0.2048
 1255SOL    HW2 6786   3.865   3.903   4.645  0.0375  0.5378  0.1548
 1256SOL     OW 6787   4.479   0.784   6.180 -0.4786  0.9841 -0.1046
 1256SOL    HW1 6788   4.494   0.859   6.123  0.4356 -0.1620 -1.3949
 1256SOL    HW2 6789   4.384   0.772   6.179 -0.4810  1.0686 -1.2678
 1257SOL     OW 6790   0.516   1.423   3.395  0.0045  0.2418  0.7645
 1257SOL    HW1 6791   0.590   1.458   3.444  1.7523 -2.0989 -0.0588
 1257SOL    HW2 6792   0.522   1.464   3.309  0.7665 -0.4136  0.4939
 1258SOL     OW 6793   6.603   5.475   8.206 -0.4445 -0.2037 -0.0736
 1258SOL    HW1 6794   6.552   5.396   8.187 -0.7637  0.1653 -0.7697
 1258SOL    HW2 6795   6.556   5.545   8.161 -0.2623  0.4164  0.7043
 1259SOL     OW 6796   0.872   6.000   1.218  0.0204  0.4367 -0.1761
 1259SOL    HW1 6797   0.872   5.940   1.144  1.0085  0.6942 -0.3906
 1259SOL    HW2 6798   0.889   6.086   1.180  0.0120  0.6436  0.2807
 1260SOL     OW 6799   8.625   2.118   6.283  0.4913  0.0083  0.0780
 1260SOL    HW1 6800   8.646   2.044   6.226  1.0009  0.9931 -1.0361
 1260SOL    HW2 6801   8.593   2.078   6.364  0.6111 -1.4215 -0.5699
 1261SOL     OW 6802   2.832   1.579   6.378 -0.6356 -0.0168  0.6976
 1261SOL    HW1 6803   2.867   1.599   6.465  0.1669 -0.7968  0.5654
 1261SOL    HW2 6804   2.740   1.602   6.383 -1.0511 -1.9212  2.3938
 1262SOL     OW 6805   7.195   5.955   8.009  0.3995 -0.0248  0.9476
 1262SOL    HW1 6806   7.243   5.923   7.933  0.1312 -0.6223  1.0251
 1262SOL    HW2 6807   7.203   6.050   8.005  0.0353 -0.0351 -0.0523
 1263SOL     OW 6808   2.687   0.805   5.817 -0.2266  0.1169  0.2425
 1263SOL    HW1 6809   2.657   0.748   5.747  0.5500  0.8488 -0.7061
 1263SOL    HW2 6810   2.607   0.840   5.856 -0.7406 -2.2171  1.3658
 1264SOL     OW 6811   4.179   1.536   0.681  0.2596  0.5429  0.0570
 1264SOL    HW1 6812   4.245   1.544   0.612 -0.4145  0.6095 -0.5846
 1264SOL    HW2 6813   4.136   1.621   0.683 -0.5069  0.1698 -0.2443
 1265SOL     OW 6814   0.613   3.662   3.109  0.2575 -0.1298 -0.0357
 1265SOL    HW1 6815   0.551   3.592   3.087 -0.4317  0.4234  0.1178
 1265SOL    HW2 6816   0.627   3.708   3.027 -0.8573  0.7828  0.2733
 1266SOL     OW 6817   1.776   1.532   1.120 -0.2427 -0.1942  0.3325
 1266SOL    HW1 6818   1.725   1.532   1.201  0.3642  1.8006  0.7388
 1266SOL    HW2 6819   1.830   1.454   1.125 -0.9760 -0.6469  1.3515
 1267SOL     OW 6820   3.578   8.620   4.646  0.3464 -0.1068 -0.0078
 1267SOL    HW1 6821   3.560   8.625   4.740  0.8190  0.0507  0.0748
 1267SOL    HW2 6822   3.527   8.691   4.608  1.5613  0.9870  0.3480
 1268SOL     OW 6823   2.082   5.720   8.224 -0.3969 -0.4038  0.5281
 1268SOL    HW1 6824   2.067   5.811   8.201  0.8505 -0.0280  1.1945
 1268SOL    HW2 6825   2.009   5.698   8.282 -0.5850  0.2268  0.5317
 1269SOL     OW 6826   1.766   4.252   0.242 -0.4764  0.2313 -0.2493
 1269SOL    HW1 6827   1.780   4.159   0.224 -1.7670 -0.1811  0.8340
 1269SOL    HW2 6828   1.853   4.292   0.230  0.2213 -1.2018 -0.1003
 1270SOL     OW 6829   5.979   3.449   0.975  0.2276 -0.0825 -0.4139
 1270SOL    HW1 6830   5.945   3.393   1.044 -0.9854  1.1361 -0.0100
 1270SOL    HW2 6831   5.989   3.391   0.899 -3.6949 -0.3227 -0.8523
 1271SOL     OW 6832   3.638   5.421   7.709 -0.1169  0.4311  0.0900
 1271SOL    HW1 6833   3.575   5.484   7.675 -1.6871 -0.8107  0.6088
 1271SOL    HW2 6834   3.646   5.354   7.640 -0.6016 -0.2521  0.6911
 1272SOL     OW 6835   8.139   7.812   4.017 -0.3433  0.4862 -0.7069
 1272SOL    HW1 6836   8.061   7.863   3.994 -0.6462 -0.8594 -2.8488
 1272SOL    HW2 6837   8.107   7.722   4.026  0.9930 -0.1533 -2.0425
 1273SOL     OW 6838   6.594   2.722   6.090 -0.9386  0.0204  0.7210
 1273SOL    HW1 6839   6.601   2.763   6.004 -2.0972 -1.9025 -0.3294
 1273SOL    HW2 6840   6.580   2.795   6.151 -3.5206  1.1251 -1.1345
 1274SOL     OW 6841   1.365   0.739   2.466 -0.3955 -0.1058  0.4431
 1274SOL    HW1 6842   1.381   0.815   2.411 -1.0216 -0.8438 -0.7737
 1274SOL    HW2 6843   1.400   0.763   2.552  0.1110  1.2445 -0.1421
 1275SOL     OW 6844   4.114   9.411   1.693  0.5054 -0.3572 -0.6713
 1275SOL    HW1 6845   4.128   9.349   1.765 -1.1885 -0.5208 -0.4596
 1275SOL    HW2 6846   4.202   9.438   1.667  1.1754 -1.0796  0.7822
 1276SOL     OW 6847   7.960   4.850   2.147  0.2599 -0.0840 -0.2217
 1276SOL    HW1 6848   8.018   4.903   2.202 -0.4246  0.9457 -0.4746
 1276SOL    HW2 6849   8.019   4.796   2.095  0.9287 -0.6787  1.1308
 1277SOL     OW 6850   7.901   4.253   8.472  0.2456 -0.1352 -0.1665
 1277SOL    HW1 6851   7.983   4.218   8.436  0.6702  0.5918  0.0838
 1277SOL    HW2 6852   7.847   4.272   8.394  0.4614 -0.2626 -0.3460
 1278SOL     OW 6853   5.326   0.511   5.223 -0.0273  0.3794 -0.1172
 1278SOL    HW1 6854   5.402   0.522   5.280 -0.7522 -0.8382  1.1239
 1278SOL    HW2 6855   5.263   0.462   5.277 -2.0212  2.1106 -0.8131
 1279SOL     OW 6856   2.430   7.290   4.658 -0.0083 -0.0421  0.2451
 1279SOL    HW1 6857   2.522   7.316   4.662 -0.0166 -0.0018  0.1819
 1279SOL    HW2 6858   2.383   7.359   4.705 -0.1509  0.6437 -0.8880
 1280SOL     OW 6859   4.981   3.373   2.658 -0.0348  0.5550  0.0640
 1280SOL    HW1 6860   4.895   3.352   2.694  0.2785 -1.9213 -0.5180
 1280SOL    HW2 6861   5.038   3.381   2.734 -0.6616  1.6731  0.4248
 1281SOL     OW 6862   8.342   5.357   2.642 -0.0000 -0.6255  0.0470
 1281SOL    HW1 6863   8.304   5.296   2.705  0.2404 -0.0391  0.7754
 1281SOL    HW2 6864   8.431   5.372   2.675  0.0760 -0.1997 -0.3525
 1282SOL     OW 6865   1.384   3.556   8.722  0.2625 -0.1696 -0.1516
 1282SOL    HW1 6866   1.400   3.607   8.801 -0.8504 -0.3321  0.1858
 1282SOL    HW2 6867   1.360   3.621   8.656 -0.2206 -0.1716  0.0242
 1283SOL     OW 6868   3.067   5.548   6.354 -0.1207 -0.5882 -0.0735
 1283SOL    HW1 6869   3.023   5.564   6.438  1.0823  1.8985  0.1461
 1283SOL    HW2 6870   3.145   5.498   6.377 -0.3285 -0.8022  0.1686
 1284SOL     OW 6871   2.953   9.290   1.383 -0.0513 -0.0183  0.4948
 1284SOL    HW1 6872   2.929   9.199   1.402 -2.1734  0.0954 -1.5388
 1284SOL    HW2 6873   3.019   9.284   1.314  0.3753 -0.0062  0.8911
 1285SOL     OW 6874   1.212   4.221   1.469 -0.0968  0.1263 -0.2057
 1285SOL    HW1 6875   1.293   4.181   1.436 -0.5078  0.3739 -1.5554
 1285SOL    HW2 6876   1.152   4.148   1.482 -0.1883  0.0927 -0.7792
 1286SOL     OW 6877   8.625   2.845   1.835  0.5452  0.0316  0.3910
 1286SOL    HW1 6878   8.595   2.809   1.918 -0.5168  0.0192  0.0040
 1286SOL    HW2 6879   8.613   2.940   1.844  1.1933  0.1016  0.5517
 1287SOL     OW 6880   3.671   0.894   5.400  0.2811  0.2743  0.4731
 1287SOL    HW1 6881   3.602   0.838   5.436 -0.8081  0.1153 -1.7702
 1287SOL    HW2 6882   3.716   0.838   5.337  1.7537  0.7248  1.1147
 1288SOL     OW 6883   7.995   4.424   6.617  0.1808  0.3509  0.4096
 1288SOL    HW1 6884   8.066   4.444   6.556  0.0989 -1.1277 -0.1928
 1288SOL    HW2 6885   7.940   4.362   6.570 -0.2147 -0.3418  1.7696
 1289SOL     OW 6886   0.106   2.392   0.442  0.3558 -0.4032 -0.2518
 1289SOL    HW1 6887   0.117   2.467   0.383  0.0096  0.6594  1.0115
 1289SOL    HW2 6888   0.089   2.319   0.383  2.2540  0.1877 -1.5993
 1290SOL     OW 6889   1.382   5.766   8.095 -0.2275  0.2966  0.0059
 1290SOL    HW1 6890   1.405   5.821   8.020 -0.2425  2.2706  1.4232
 1290SOL    HW2 6891   1.454   5.703   8.102  0.1206  0.5459 -1.2162
 1291SOL     OW 6892   6.929   8.801   8.835 -0.2760 -0.0185 -0.2602
 1291SOL    HW1 6893   7.008   8.748   8.837  0.7438  1.4897  1.3850
 1291SOL    HW2 6894   6.929   8.846   8.920 -2.5449  0.5085 -0.5155
 1292SOL     OW 6895   1.554   7.884   7.389  0.2551 -0.5900  0.5057
 1292SOL    HW1 6896   1.623   7.942   7.422  1.2110 -2.5949  2.2135
 1292SOL    HW2 6897   1.601   7.807   7.357 -0.8615  0.2056 -3.2841
 1293SOL     OW 6898   3.162   0.784   2.583  0.3201 -0.2553  0.1420
 1293SOL    HW1 6899   3.100   0.795   2.655 -1.0645 -1.7510 -0.7952
 1293SOL    HW2 6900   3.226   0.720   2.615 -1.3150 -2.2971 -0.5739
 1294SOL     OW 6901   4.504   2.112   4.393  0.0341  0.6370 -0.1552
 1294SOL    HW1 6902   4.588   2.081   4.427  1.4803  2.7726 -1.5627
 1294SOL    HW2 6903   4.479   2.047   4.327  0.5068 -0.1049  0.3960
 1295SOL     OW 6904   7.012   2.925   2.797  0.1901  0.7017 -0.7199
 1295SOL    HW1 6905   7.088   2.866   2.796  1.5687  2.3146  2.1226
 1295SOL    HW2 6906   6.936   2.867   2.802  1.4285 -0.8897 -0.0459
 1296SOL     OW 6907   8.269   9.146   2.183  0.5086  0.2335 -0.2966
 1296SOL    HW1 6908   8.258   9.094   2.263 -1.3560  0.7126 -0.2223
 1296SOL    HW2 6909   8.296   9.082   2.117  1.0934 -0.3235  0.4646
 1297SOL     OW 6910   3.826   4.236   6.307  0.2617  0.3745  0.0522
 1297SOL    HW1 6911   3.789   4.175   6.243 -0.3734  0.4389  0.3576
 1297SOL    HW2 6912   3.755   4.253   6.369  1.2728 -0.7313  1.5571
 1298SOL     OW 6913   5.570   9.213   1.910 -0.4075  0.0100  0.0045
 1298SOL    HW1 6914   5.661   9.238   1.894 -0.4383  3.0417  3.6527
 1298SOL    HW2 6915   5.572   9.169   1.995 -2.4888  1.4007  0.8086
 1299SOL     OW 6916   3.076   3.381   8.108  0.2326 -0.0863  0.0119
 1299SOL    HW1 6917   3.108   3.470   8.119  1.4941 -0.5384  0.0391
 1299SOL    HW2 6918   3.153   3.330   8.084 -0.3810 -1.2675  0.4998
 1300SOL     OW 6919   2.191   8.771   7.346  0.1135  0.0340  0.3494
 1300SOL    HW1 6920   2.144   8.814   7.274 -0.6115 -2.6090 -0.7968
 1300SOL    HW2 6921   2.232   8.843   7.394  0.2242  1.8878 -2.4287
 1301SOL     OW 6922   8.681   5.609   5.255  0.0642  0.4677 -0.5661
 1301SOL    HW1 6923   8.720   5.536   5.207  0.4877 -0.9379  1.8091
 1301SOL    HW2 6924   8.756   5.657   5.291 -0.2536 -0.2996  1.2095
 1302SOL     OW 6925   1.062   8.903   4.641 -0.0278 -0.0140 -0.2330
 1302SOL    HW1 6926   1.060   8.998   4.656  1.2798 -0.1899  1.1315
 1302SOL    HW2 6927   0.980   8.871   4.680  0.3119  0.3523  0.8036
 1303SOL     OW 6928   8.551   0.504   3.707  0.3970 -0.3834  0.0361
 1303SOL    HW1 6929   8.619   0.458   3.756 -0.3673 -2.3922 -0.7375
 1303SOL    HW2 6930   8.554   0.465   3.619 -0.4653  0.8462 -0.5519
 1304SOL     OW 6931   0.343   4.155   5.962 -0.0831 -0.1497 -0.1574
 1304SOL    HW1 6932   0.316   4.224   6.023 -0.0419 -0.8166  0.6288
 1304SOL    HW2 6933   0.438   4.149   5.973 -0.1610 -0.7466  0.2295
 1305SOL     OW 6934   8.557   7.405   6.726 -0.4396  0.2907  0.3913
 1305SOL    HW1 6935   8.584   7.440   6.641 -1.0149  1.5142  0.7029
 1305SOL    HW2 6936   8.462   7.401   6.720 -0.4142 -0.6395  0.5941
 1306SOL     OW 6937   0.288   6.040   2.975  0.1619 -0.1430  0.4191
 1306SOL    HW1 6938   0.210   6.051   3.029 -0.3354 -2.6976  0.2830
 1306SOL    HW2 6939   0.276   5.954   2.933  1.7502  0.6602 -1.7346
 1307SOL     OW 6940   5.832   0.787   9.057 -0.0371 -0.0194  0.1455
 1307SOL    HW1 6941   5.746   0.792   9.099 -0.0691  0.1318  0.0618
 1307SOL    HW2 6942   5.853   0.878   9.034  0.3026 -0.0079  0.4811
 1308SOL     OW 6943   9.257   6.877   5.757  0.1000 -0.1590  0.0557
 1308SOL    HW1 6944   9.177   6.850   5.801 -0.9084  1.9541 -0.4273
 1308SOL    HW2 6945   9.228   6.931   5.683  1.8891 -0.9435 -1.2795
 1309SOL     OW 6946   0.479   6.748   6.207 -0.4352  0.6086  0.1004
 1309SOL    HW1 6947   0.514   6.790   6.286  1.3317 -1.1705  0.3191
 1309SOL    HW2 6948   0.449   6.820   6.152  2.0074  2.1528  0.6857
 1310SOL     OW 6949   0.024   6.105   8.039 -0.2860 -0.1063  0.2363
 1310SOL    HW1 6950  -0.027   6.037   8.082 -0.5540 -0.5859 -0.8269
 1310SOL    HW2 6951  -0.036   6.179   8.031 -0.8603 -0.7045 -1.1061
 1311SOL     OW 6952   7.592   0.412   4.585  0.2000 -0.0537 -0.2434
 1311SOL    HW1 6953   7.546   0.353   4.525  0.0305  0.6186 -0.7861
 1311SOL    HW2 6954   7.673   0.433   4.539 -0.0319  0.6412 -0.3456
 1312SOL     OW 6955   3.484   7.129   2.307  0.0272  0.1018  0.2924
 1312SOL    HW1 6956   3.510   7.037   2.314 -0.2124 -0.0245 -0.4490
 1312SOL    HW2 6957   3.400   7.134   2.352  0.4388  0.1376  1.0795
 1313SOL     OW 6958   1.941   2.206   5.272 -0.2791  0.0536 -0.1769
 1313SOL    HW1 6959   1.922   2.283   5.325  0.4326  0.2477 -0.1939
 1313SOL    HW2 6960   1.866   2.197   5.213 -0.1624  0.9704 -0.4616
 1314SOL     OW 6961   5.617   3.525   8.949 -0.6037  0.2113 -0.0966
 1314SOL    HW1 6962   5.533   3.570   8.961 -0.5388  0.1612  0.5102
 1314SOL    HW2 6963   5.595   3.451   8.892 -0.4640  1.7523 -2.2244
 1315SOL     OW 6964   3.608   4.959   3.511 -0.3061 -0.1980 -0.1819
 1315SOL    HW1 6965   3.559   5.038   3.489 -0.6560 -0.2056  0.5484
 1315SOL    HW2 6966   3.548   4.887   3.492  0.3865 -0.3607 -1.8668
 1316SOL     OW 6967   6.059   5.859   5.546  0.0930  0.3882 -0.0659
 1316SOL    HW1 6968   6.120   5.913   5.495  0.0375 -0.7641 -1.3685
 1316SOL    HW2 6969   6.115   5.802   5.599  0.1413  0.4248 -0.0768
 1317SOL     OW 6970   0.758   8.879   5.121 -0.1870 -0.0773  0.3604
 1317SOL    HW1 6971   0.841   8.894   5.076  0.1150 -0.2979  0.8497
 1317SOL    HW2 6972   0.693   8.879   5.050  0.2081  0.2218 -0.0085
 1318SOL     OW 6973   7.106   7.900   0.896 -0.1475  0.2239 -0.0133
 1318SOL    HW1 6974   7.177   7.867   0.951  2.5210  0.6697 -3.0210
 1318SOL    HW2 6975   7.090   7.989   0.927  0.4020  0.0222  0.8724
 1319SOL     OW 6976   7.504   2.639   1.584  0.3963 -0.0697 -0.2757
 1319SOL    HW1 6977   7.548   2.672   1.506 -0.0874 -1.0773 -0.9854
 1319SOL    HW2 6978   7.458   2.561   1.555 -3.0984  1.7424  0.0775
 1320SOL     OW 6979   1.870   0.272   6.400 -0.2160 -0.2636  0.2720
 1320SOL    HW1 6980   1.908   0.228   6.324 -0.9648 -0.4708  0.0180
 1320SOL    HW2 6981   1.943   0.323   6.437  0.2925 -0.6095 -0.2443
 1321SOL     OW 6982   3.556   2.209   3.108 -0.1151 -0.2071  0.0602
 1321SOL    HW1 6983   3.641   2.196   3.150 -0.1699  3.0495  1.3146
 1321SOL    HW2 6984   3.576   2.231   3.017  0.4520  1.1257  0.4934
 1322SOL     OW 6985   3.978   8.901   3.983  0.6032 -0.3391 -0.4221
 1322SOL    HW1 6986   4.044   8.862   4.040  1.0535  1.7483  0.5309
 1322SOL    HW2 6987   3.974   8.993   4.010 -1.5902 -0.0843 -1.5107
 1323SOL     OW 6988   0.635   9.349   5.235  0.3266 -0.1720  0.5253
 1323SOL    HW1 6989   0.715   9.359   5.183 -0.0024 -1.3991 -0.2322
 1323SOL    HW2 6990   0.624   9.254   5.244 -0.9708 -0.0066  0.7420
 1324SOL     OW 6991   8.440   8.863   3.825  0.6880  0.1798  0.2965
 1324SOL    HW1 6992   8.429   8.926   3.896 -2.0878  2.5076 -2.0817
 1324SOL    HW2 6993   8.458   8.916   3.747 -0.7994 -1.9561 -1.5913
 1325SOL     OW 6994   5.321   3.743   6.942 -0.2346  0.3203  0.0634
 1325SOL    HW1 6995   5.353   3.689   6.869 -0.8942 -0.2472  0.1924
 1325SOL    HW2 6996   5.237   3.704   6.966  0.9591 -0.8652  2.5544
 1326SOL     OW 6997   0.145   4.385   1.701  0.1540  0.1572 -0.4415
 1326SOL    HW1 6998   0.204   4.381   1.625 -2.6889  0.1957 -2.7640
 1326SOL    HW2 6999   0.096   4.303   1.697 -0.9373  0.7431  0.6123
 1327SOL     OW 7000   5.853   8.151   2.536 -0.7082 -0.4367 -0.1121
 1327SOL    HW1 7001   5.883   8.233   2.496 -1.8672 -0.2524 -0.6400
 1327SOL    HW2 7002   5.759   8.165   2.549 -0.3374 -0.4666  2.7380
 1328SOL     OW 7003   3.840   0.405   2.239  0.2795 -0.4824 -0.2837
 1328SOL    HW1 7004   3.853   0.490   2.198  0.1657 -0.3067  0.0404
 1328SOL    HW2 7005   3.846   0.342   2.167  0.8235 -0.2383 -0.4507
 1329SOL     OW 7006   1.468   3.984   0.655 -0.3443  0.0225  0.3510
 1329SOL    HW1 7007   1.413   3.926   0.603  0.0285  0.4489 -0.5422
 1329SOL    HW2 7008   1.538   4.011   0.595  2.1486 -2.2928  2.0560
 1330SOL     OW 7009   4.932   3.981   5.097 -0.6004 -0.4811 -0.3175
 1330SOL    HW1 7010   4.976   3.971   5.181 -0.2140  0.3925 -0.3990
 1330SOL    HW2 7011   4.896   4.070   5.100 -1.5152 -0.8339 -0.6486
 1331SOL     OW 7012   2.672   1.743   5.573 -0.3920  0.6171  0.4583
 1331SOL    HW1 7013   2.640   1.833   5.562 -0.3200  0.7495  1.2567
 1331SOL    HW2 7014   2.601   1.688   5.539 -0.1623  0.9952 -0.6243
 1332SOL     OW 7015   8.852   7.239   3.835  0.2393 -0.1381  0.5197
 1332SOL    HW1 7016   8.905   7.317   3.853 -0.9238  0.1857  2.7450
 1332SOL    HW2 7017   8.763   7.273   3.821 -0.3397 -1.0548  1.8228
 1333SOL     OW 7018   8.720   5.093   6.540  0.4067 -0.0556 -0.5784
 1333SOL    HW1 7019   8.761   5.092   6.626 -0.4881 -0.9655 -0.1549
 1333SOL    HW2 7020   8.659   5.166   6.543 -1.7251 -1.8246  0.5785
 1334SOL     OW 7021   3.040   1.421   1.301 -0.3121  0.3791 -0.5999
 1334SOL    HW1 7022   3.025   1.478   1.377  1.1546  0.2332 -0.1994
 1334SOL    HW2 7023   3.047   1.333   1.337 -0.9150  0.1403 -1.0491
 1335SOL     OW 7024   1.426   8.621   1.835  0.2489  0.4369  0.0822
 1335SOL    HW1 7025   1.406   8.591   1.923 -0.2614 -1.2202 -0.5713
 1335SOL    HW2 7026   1.371   8.698   1.822 -0.5022  0.0305  0.8145
 1336SOL     OW 7027   7.708   2.876   1.143 -0.0862 -0.2372 -0.4644
 1336SOL    HW1 7028   7.781   2.829   1.105  1.0329 -0.1965  1.5501
 1336SOL    HW2 7029   7.665   2.812   1.200  0.1439  0.5222  0.5938
 1337SOL     OW 7030   5.535   3.469   3.995 -0.4076 -0.6649  0.5644
 1337SOL    HW1 7031   5.490   3.435   3.917 -0.0490 -1.2325  0.6006
 1337SOL    HW2 7032   5.465   3.502   4.051 -0.5939  0.7770 -0.4886
 1338SOL     OW 7033   9.275   1.166   1.057 -0.6732 -0.9864  0.0596
 1338SOL    HW1 7034   9.344   1.216   1.101  1.0958 -0.9361 -2.6233
 1338SOL    HW2 7035   9.218   1.233   1.018 -1.0616 -1.0494  0.5119
 1339SOL     OW 7036   3.388   6.947   8.697  0.4830  0.5514 -0.6664
 1339SOL    HW1 7037   3.357   6.970   8.784  0.9107 -0.0524 -0.3427
 1339SOL    HW2 7038   3.462   7.006   8.681  1.9104 -0.8844  0.3764
 1340SOL     OW 7039   0.866   1.278   8.097 -0.1427 -0.4381 -0.7203
 1340SOL    HW1 7040   0.828   1.209   8.043 -2.1583 -0.2680  0.4333
 1340SOL    HW2 7041   0.847   1.251   8.187 -0.3656  1.2678 -0.2414
 1341SOL     OW 7042   6.741   0.897   0.126 -0.5090  0.5448  0.1250
 1341SOL    HW1 7043   6.676   0.961   0.097  0.7179  2.2084  0.9860
 1341SOL    HW2 7044   6.781   0.866   0.045 -1.7635  0.1499 -0.3604
 1342SOL     OW 7045   5.378   1.585   7.650 -0.6451 -0.0070 -0.4539
 1342SOL    HW1 7046   5.352   1.510   7.705  1.8134 -0.6769 -0.1547
 1342SOL    HW2 7047   5.388   1.548   7.563 -1.1791  0.3614 -0.6738
 1343SOL     OW 7048   5.030   4.639   5.020  0.3962 -0.2690  0.2616
 1343SOL    HW1 7049   5.014   4.602   5.107  2.1807 -0.4708  0.5161
 1343SOL    HW2 7050   5.118   4.675   5.024  0.8270 -1.0163 -1.7126
 1344SOL     OW 7051   1.253   3.570   9.425 -0.2878  0.1010  0.3618
 1344SOL    HW1 7052   1.300   3.625   9.488  1.0285  1.5903 -1.8513
 1344SOL    HW2 7053   1.321   3.539   9.365 -1.5615 -0.9731 -0.5518
 1345SOL     OW 7054   2.630   9.306   1.908 -0.2325  0.4924  0.1871
 1345SOL    HW1 7055   2.540   9.293   1.878 -0.0463 -0.8099  0.1539
 1345SOL    HW2 7056   2.684   9.266   1.840  0.3541  0.9788  0.3651
 1346SOL     OW 7057   5.332   8.737   4.359 -0.7937  0.2477  0.0439
 1346SOL    HW1 7058   5.338   8.663   4.419 -1.0320 -1.6739 -2.2452
 1346SOL    HW2 7059   5.338   8.814   4.416  2.9877 -1.4612  2.1407
 1347SOL     OW 7060   4.948   5.407   7.178 -0.3544  0.2719  0.1053
 1347SOL    HW1 7061   4.901   5.405   7.095 -1.3997  0.3127  0.6869
 1347SOL    HW2 7062   5.017   5.342   7.168 -1.2175 -0.5831 -0.3566
 1348SOL     OW 7063   3.400   7.374   3.390 -0.2169 -0.6738  0.0005
 1348SOL    HW1 7064   3.425   7.443   3.453 -0.6804  0.0118 -0.5569
 1348SOL    HW2 7065   3.429   7.293   3.432  2.2868  0.0080 -0.2841
 1349SOL     OW 7066   6.778   9.338   0.391  0.2160 -0.1847  0.0740
 1349SOL    HW1 7067   6.855   9.284   0.408 -0.9730 -1.0996  2.7605
 1349SOL    HW2 7068   6.715   9.311   0.457 -2.6110  0.2265 -2.3578
 1350SOL     OW 7069   4.794   0.018   2.771 -0.3618  0.4930 -0.1005
 1350SOL    HW1 7070   4.732   0.016   2.844 -0.3586 -1.5351 -0.1136
 1350SOL    HW2 7071   4.802  -0.074   2.744  2.5845  0.7146 -0.1461
 1351SOL     OW 7072   8.642   4.719   7.869  0.8170  0.4849 -0.2983
 1351SOL    HW1 7073   8.699   4.680   7.803  0.8845  0.5330 -0.2684
 1351SOL    HW2 7074   8.681   4.804   7.887 -0.4849  1.4445 -1.8849
 1352SOL     OW 7075   6.706   6.932   4.103  0.3684 -0.8780 -0.8085
 1352SOL    HW1 7076   6.799   6.918   4.085  0.9392  1.2928  0.2729
 1352SOL    HW2 7077   6.705   6.999   4.172 -1.9024 -3.7767  2.1275
 1353SOL     OW 7078   2.518   7.582   5.042  0.7901 -0.6719 -0.4967
 1353SOL    HW1 7079   2.610   7.560   5.053  0.6142 -1.3167 -0.2962
 1353SOL    HW2 7080   2.473   7.533   5.111  0.1038 -1.7513 -1.6959
 1354SOL     OW 7081   4.224   7.108   1.127  0.2604  0.3092  0.1837
 1354SOL    HW1 7082   4.316   7.118   1.152  0.8806 -2.9387 -0.4998
 1354SOL    HW2 7083   4.224   7.118   1.031 -0.2272  1.0659  0.2589
 1355SOL     OW 7084   2.713   0.463   7.098 -0.7792  0.4272  0.3078
 1355SOL    HW1 7085   2.683   0.455   7.189  0.0822  0.2796  0.5836
 1355SOL    HW2 7086   2.633   0.477   7.048 -1.4555 -1.1153  0.8951
 1356SOL     OW 7087   0.097   8.743   1.787  0.0751  0.2348 -0.9188
 1356SOL    HW1 7088   0.098   8.649   1.804  0.0598  0.0733 -1.7763
 1356SOL    HW2 7089   0.168   8.778   1.842 -0.6571 -0.1146  0.2579
 1357SOL     OW 7090   1.766   4.813   7.455 -0.3407  0.2963 -0.7178
 1357SOL    HW1 7091   1.838   4.770   7.407 -0.9417 -2.2025  0.5446
 1357SOL    HW2 7092   1.703   4.744   7.471 -0.5993  1.2596  2.8666
 1358SOL     OW 7093   2.087   7.098   4.088 -0.0352  0.1062  0.4488
 1358SOL    HW1 7094   2.088   7.009   4.123  0.5307  0.4460  1.3251
 1358SOL    HW2 7095   2.015   7.098   4.025 -1.7751 -0.2610  2.3485
 1359SOL     OW 7096   8.719   3.703   1.749  0.1888  0.0889  0.3845
 1359SOL    HW1 7097   8.633   3.746   1.748  0.3033  0.3063 -0.2226
 1359SOL    HW2 7098   8.700   3.610   1.741  0.0315  0.1703 -0.1647
 1360SOL     OW 7099   0.907   5.418   3.683 -0.4019  0.1957  0.0593
 1360SOL    HW1 7100   0.823   5.452   3.713 -1.3170 -2.0586  0.1968
 1360SOL    HW2 7101   0.955   5.396   3.763 -0.7003 -0.8311 -0.0294
 1361SOL     OW 7102   7.615   0.559   5.081  0.3858  0.0586 -0.5082
 1361SOL    HW1 7103   7.625   0.574   4.987  1.9577 -1.2499 -0.5766
 1361SOL    HW2 7104   7.562   0.479   5.087  0.6310 -0.0916 -0.3003
 1362SOL     OW 7105   9.142   4.402   2.836 -0.5669  0.4499 -0.0831
 1362SOL    HW1 7106   9.106   4.382   2.922 -0.9060  1.0647 -0.0754
 1362SOL    HW2 7107   9.187   4.322   2.809  0.2143  0.5198  1.0057
 1363SOL     OW 7108   0.263   4.479   7.627 -0.9569 -0.1075  0.6754
 1363SOL    HW1 7109   0.181   4.489   7.675 -0.1368  0.5612  1.9740
 1363SOL    HW2 7110   0.261   4.390   7.593 -2.9663  0.4295 -0.7405
 1364SOL     OW 7111   2.918   3.755   9.096 -0.6121  0.5959 -0.4994
 1364SOL    HW1 7112   2.835   3.799   9.116 -0.9223  0.9686 -2.5216
 1364SOL    HW2 7113   2.984   3.807   9.141 -1.4493  0.3951  0.9939
 1365SOL     OW 7114   7.669   2.801   8.819 -0.1510 -0.1501  0.2546
 1365SOL    HW1 7115   7.661   2.807   8.915 -0.5530 -3.2158  0.4686
 1365SOL    HW2 7116   7.605   2.864   8.786 -3.2907 -2.2072  2.0644
 1366SOL     OW 7117   3.112   6.318   4.159 -0.1306 -0.0149 -0.1283
 1366SOL    HW1 7118   3.166   6.397   4.160 -0.2634  0.0957 -1.4574
 1366SOL    HW2 7119   3.040   6.338   4.219 -0.9926  1.4652 -1.6167
 1367SOL     OW 7120   1.182   1.514   2.767  0.5299 -0.1253 -0.6282
 1367SOL    HW1 7121   1.114   1.498   2.833  1.3978 -0.6822  0.1315
 1367SOL    HW2 7122   1.155   1.462   2.692 -0.4018  0.4146 -0.6775
 1368SOL     OW 7123   6.816   8.884   1.370 -0.1482  0.0811  0.0502
 1368SOL    HW1 7124   6.906   8.874   1.339 -0.5810 -2.4424 -0.4596
 1368SOL    HW2 7125   6.825   8.907   1.462  1.0092 -0.9857  0.2147
 1369SOL     OW 7126   7.354   0.265   7.879 -0.1032  0.1621 -0.4548
 1369SOL    HW1 7127   7.405   0.340   7.848 -0.2587  0.2246 -0.5614
 1369SOL    HW2 7128   7.357   0.272   7.975 -0.1631  0.3390 -0.4641
 1370SOL     OW 7129   2.961   1.679   7.387  0.1805 -1.1132  0.0842
 1370SOL    HW1 7130   2.889   1.616   7.391 -1.5637  0.8211  0.3693
 1370SOL    HW2 7131   2.985   1.694   7.478 -0.8976  0.2316  0.1694
 1371SOL     OW 7132   2.711   5.828   8.809  0.6231  0.3727 -0.0664
 1371SOL    HW1 7133   2.722   5.733   8.817  0.2712  0.3411  0.0437
 1371SOL    HW2 7134   2.798   5.864   8.828  0.4694  0.1421  1.1399
 1372SOL     OW 7135   5.305   9.241   3.252  0.1390  0.3418  0.4943
 1372SOL    HW1 7136   5.227   9.279   3.211 -0.3530 -1.4514 -0.3069
 1372SOL    HW2 7137   5.370   9.236   3.182  1.6097  3.4220  1.5661
 1373SOL     OW 7138   5.715   6.697   4.974 -0.2658  0.4348  0.1712
 1373SOL    HW1 7139   5.684   6.749   5.049  0.3995 -1.2525  1.6588
 1373SOL    HW2 7140   5.664   6.616   4.979 -0.0206  0.1991 -1.0500
 1374SOL     OW 7141   2.692   9.275   3.553 -0.0777  0.3704 -0.6293
 1374SOL    HW1 7142   2.677   9.239   3.466 -1.1627 -0.7042 -0.0137
 1374SOL    HW2 7143   2.701   9.198   3.609 -1.7009  1.0505  0.6018
 1375SOL     OW 7144   2.800   8.915   8.248  0.0433 -0.5283  0.3872
 1375SOL    HW1 7145   2.797   8.946   8.158 -1.9451  1.6087  1.1284
 1375SOL    HW2 7146   2.892   8.924   8.275  0.0079  2.2836 -0.2925
 1376SOL     OW 7147   6.850   3.263   1.946  0.1933 -0.7286  0.0736
 1376SOL    HW1 7148   6.791   3.339   1.947  2.2719  0.9278  0.3835
 1376SOL    HW2 7149   6.791   3.187   1.948 -1.8973  0.8696  1.3633
 1377SOL     OW 7150   8.952   3.431   7.953  0.0805  0.2128  0.7549
 1377SOL    HW1 7151   8.916   3.476   8.029 -0.7324  0.4617  0.2261
 1377SOL    HW2 7152   9.039   3.402   7.981  0.4963  1.8317  1.2102
 1378SOL     OW 7153   4.596   1.736   7.035  0.1672 -0.2313 -0.3383
 1378SOL    HW1 7154   4.586   1.791   7.112 -1.3748  0.4124 -0.9740
 1378SOL    HW2 7155   4.668   1.677   7.056  0.6224  0.8104  1.0678
 1379SOL     OW 7156   4.829   5.751   7.515  0.4432 -0.0242  0.0423
 1379SOL    HW1 7157   4.869   5.834   7.540 -1.9818  0.7855  1.4621
 1379SOL    HW2 7158   4.897   5.705   7.466  2.1723  2.3530  0.1201
 1380SOL     OW 7159   1.495   0.211   7.332 -0.3857  0.7347 -0.1326
 1380SOL    HW1 7160   1.561   0.145   7.311 -0.7022  0.9697 -1.9457
 1380SOL    HW2 7161   1.527   0.290   7.289 -2.0860  0.7265 -1.4270
 1381SOL     OW 7162   3.028   1.950   5.821 -0.2574 -0.6305 -0.2505
 1381SOL    HW1 7163   3.046   1.857   5.813 -1.4855 -0.8102 -1.0546
 1381SOL    HW2 7164   3.030   1.967   5.915 -1.7588 -1.8198  0.0113
 1382SOL     OW 7165   8.321   3.626   0.040 -0.3098 -0.6159  0.3899
 1382SOL    HW1 7166   8.384   3.580   0.095 -0.9881 -0.1139  1.6009
 1382SOL    HW2 7167   8.331   3.586  -0.047 -0.0050 -2.1618  1.1239
 1383SOL     OW 7168   5.800   1.372   2.287  0.3786  0.3878 -0.0140
 1383SOL    HW1 7169   5.853   1.305   2.331  0.6536  1.4571  1.3054
 1383SOL    HW2 7170   5.710   1.348   2.309  0.5070  0.8352  1.0359
 1384SOL     OW 7171   5.555   1.183   1.643 -0.3167 -0.3354 -0.4135
 1384SOL    HW1 7172   5.537   1.257   1.702  3.9394  0.7792 -0.3006
 1384SOL    HW2 7173   5.526   1.213   1.557 -0.0720  0.8640 -0.0877
 1385SOL     OW 7174   9.291   1.339   6.957  0.8194  0.1486 -0.4355
 1385SOL    HW1 7175   9.295   1.263   6.899 -1.2301 -0.3024 -0.0308
 1385SOL    HW2 7176   9.382   1.356   6.982  1.2408 -2.6599  0.0819
 1386SOL     OW 7177   7.555   4.874   4.937  0.6336 -0.3334 -0.2713
 1386SOL    HW1 7178   7.469   4.859   4.976  0.9155 -1.3995 -0.0662
 1386SOL    HW2 7179   7.563   4.807   4.870  0.3634  1.1664 -1.8497
 1387SOL     OW 7180   0.734   7.105   5.480 -0.0218 -0.0936  0.0787
 1387SOL    HW1 7181   0.707   7.018   5.510  0.4006  0.1171  1.0788
 1387SOL    HW2 7182   0.779   7.144   5.555 -0.0663  0.9299 -0.4121
 1388SOL     OW 7183   2.760   1.683   3.522 -0.1380  0.3716  0.1021
 1388SOL    HW1 7184   2.836   1.693   3.579 -0.7188  0.2442  0.9057
 1388SOL    HW2 7185   2.740   1.772   3.494 -0.4802  0.5600  0.9286
 1389SOL     OW 7186   2.761   5.495   8.542 -0.3252  0.2510 -0.2980
 1389SOL    HW1 7187   2.699   5.551   8.588 -1.7958 -0.8551 -0.8789
 1389SOL    HW2 7188   2.843   5.544   8.541 -1.5951  2.4175 -0.8722
 1390SOL     OW 7189   7.283   8.589   3.965 -0.3901 -0.1051  0.9528
 1390SOL    HW1 7190   7.261   8.585   3.871  1.9019 -0.1308  0.3967
 1390SOL    HW2 7191   7.335   8.669   3.974  0.4965 -0.7878  1.9721
 1391SOL     OW 7192   7.401   5.329   8.171  0.1296 -0.1108 -0.0037
 1391SOL    HW1 7193   7.315   5.357   8.201  0.2142  0.3594 -0.1894
 1391SOL    HW2 7194   7.437   5.279   8.244  0.2600  0.8690  0.6126
 1392SOL     OW 7195   9.410   1.473   0.214  0.6211  0.3743  0.1755
 1392SOL    HW1 7196   9.413   1.564   0.184  1.9954 -0.0090 -0.8958
 1392SOL    HW2 7197   9.318   1.448   0.205  0.0013  1.9915  1.5783
 1393SOL     OW 7198   4.251   5.940   0.188  0.0459 -0.2654 -0.2714
 1393SOL    HW1 7199   4.239   5.923   0.094 -0.4104 -1.1164 -0.0668
 1393SOL    HW2 7200   4.260   6.035   0.194 -0.3602 -0.1637 -1.1344
 1394SOL     OW 7201   2.001   7.321   0.719  0.1252  0.1058  0.1871
 1394SOL    HW1 7202   2.065   7.331   0.790 -1.1402 -1.4451  1.5875
 1394SOL    HW2 7203   1.979   7.411   0.694  2.1104  0.6682  0.3459
 1395SOL     OW 7204   8.420   0.897   5.462 -0.0854 -0.1925  0.1734
 1395SOL    HW1 7205   8.501   0.941   5.434 -0.8537  1.4082  0.4031
 1395SOL    HW2 7206   8.446   0.846   5.539  0.9862 -0.7129 -0.5324
 1396SOL     OW 7207   8.037   5.579   5.431  0.0059  0.8635 -0.1654
 1396SOL    HW1 7208   8.090   5.542   5.360 -0.5689  0.8908 -0.6155
 1396SOL    HW2 7209   8.089   5.651   5.465 -0.3652  1.8067 -1.5623
 1397SOL     OW 7210   2.833   9.205   2.571 -0.1998 -0.1935  0.2396
 1397SOL    HW1 7211   2.781   9.237   2.497 -0.0287  0.8217  0.5561
 1397SOL    HW2 7212   2.774   9.145   2.617 -0.7225  0.1154 -0.0211
 1398SOL     OW 7213   5.018   1.361   0.792  0.5289 -0.2361  0.0790
 1398SOL    HW1 7214   4.987   1.451   0.805  2.1936  0.0546  2.3494
 1398SOL    HW2 7215   5.072   1.366   0.713 -1.8183  0.0612 -1.5965
 1399SOL     OW 7216   2.104   1.175   6.576  0.3406  0.0264  0.0304
 1399SOL    HW1 7217   2.183   1.134   6.541  1.3533  1.7128  0.2688
 1399SOL    HW2 7218   2.120   1.181   6.670 -0.4953 -0.4796  0.2159
 1400SOL     OW 7219   2.095   2.316   5.705  0.3915 -0.1039 -0.3605
 1400SOL    HW1 7220   2.087   2.240   5.648  0.2623 -0.6965  0.4379
 1400SOL    HW2 7221   2.183   2.351   5.688  0.5400 -0.5779 -0.5538
 1401SOL     OW 7222   8.476   6.410   7.532  0.2325  0.3423  0.0059
 1401SOL    HW1 7223   8.524   6.471   7.587  2.1065  1.0095 -2.3022
 1401SOL    HW2 7224   8.402   6.461   7.498  0.5368  0.6900 -0.1358
 1402SOL     OW 7225   9.054   0.031   7.709  0.2637  0.0542  0.2587
 1402SOL    HW1 7226   9.134   0.080   7.689 -0.0275  0.4793  0.1532
 1402SOL    HW2 7227   9.054   0.024   7.804  1.4374 -1.6334  0.1662
 1403SOL     OW 7228   5.477   0.042   5.257  0.3295  0.1755 -0.2763
 1403SOL    HW1 7229   5.475   0.106   5.329  0.7789  0.9716 -0.9642
 1403SOL    HW2 7230   5.450   0.092   5.180  1.9156 -0.1629 -1.0639
 1404SOL     OW 7231   0.595   6.566   1.182 -1.0012 -0.0705 -0.4095
 1404SOL    HW1 7232   0.619   6.481   1.217  0.1472 -0.4446 -2.0662
 1404SOL    HW2 7233   0.628   6.629   1.247  2.0864 -0.7057 -1.2764
 1405SOL     OW 7234   9.137   5.642   5.351  0.2291 -0.1523 -0.1518
 1405SOL    HW1 7235   9.173   5.624   5.438 -1.3441  2.1885  1.0415
 1405SOL    HW2 7236   9.052   5.599   5.351  0.6334 -0.9779 -0.9274
 1406SOL     OW 7237   3.561   4.517   0.891 -0.3793 -0.3438  0.0940
 1406SOL    HW1 7238   3.545   4.429   0.925  1.2764 -0.1987  1.2847
 1406SOL    HW2 7239   3.514   4.519   0.807  1.2491 -3.0723 -0.9618
 1407SOL     OW 7240   7.745   5.178   6.848 -0.2712  0.2557 -0.5138
 1407SOL    HW1 7241   7.794   5.256   6.821 -0.7182  0.5110 -0.5920
 1407SOL    HW2 7242   7.754   5.117   6.774  1.4245 -0.3964  0.2070
 1408SOL     OW 7243   0.735   5.071   8.152 -0.0729  0.6276  0.1089
 1408SOL    HW1 7244   0.655   5.100   8.196 -0.1432 -1.0364  1.1028
 1408SOL    HW2 7245   0.707   4.999   8.096  0.8083 -0.3202  0.8603
 1409SOL     OW 7246   6.709   3.061   4.407 -0.0105 -0.2968 -0.2883
 1409SOL    HW1 7247   6.733   2.981   4.454 -0.3616 -1.3254 -1.8039
 1409SOL    HW2 7248   6.753   3.053   4.322  0.0385  1.1766 -0.4189
 1410SOL     OW 7249   8.841   3.959   6.748 -0.2353 -0.3039  0.0251
 1410SOL    HW1 7250   8.764   4.010   6.773 -0.6398 -0.9742  0.1654
 1410SOL    HW2 7251   8.909   4.024   6.731 -0.7887  0.2840  0.0612
 1411SOL     OW 7252   4.461   7.933   1.211 -0.0754  0.6000 -0.1824
 1411SOL    HW1 7253   4.420   7.939   1.297 -1.7936 -2.4340 -0.7271
 1411SOL    HW2 7254   4.390   7.947   1.149  0.5076 -0.4721 -1.1168
 1412SOL     OW 7255   1.132   1.172   9.162  0.1518  0.5079 -0.4581
 1412SOL    HW1 7256   1.077   1.221   9.101 -0.8383  0.1972  0.1688
 1412SOL    HW2 7257   1.153   1.091   9.116 -1.6125 -0.2640  0.0867
 1413SOL     OW 7258   9.061   5.826   3.005 -0.0773  0.7782  0.4759
 1413SOL    HW1 7259   8.982   5.774   2.997 -1.5172  3.1009 -1.0934
 1413SOL    HW2 7260   9.057   5.862   3.094 -1.1922  1.4785  0.1512
 1414SOL     OW 7261   2.641   5.240   0.531 -0.8358  0.4685 -0.1436
 1414SOL    HW1 7262   2.706   5.194   0.584  0.8757  0.2243 -2.3768
 1414SOL    HW2 7263   2.589   5.171   0.490 -1.1105  0.6078 -0.0285
 1415SOL     OW 7264   5.695   8.007   2.906  0.1563 -0.0682  0.3397
 1415SOL    HW1 7265   5.642   7.932   2.880 -0.9352  0.5672  0.6921
 1415SOL    HW2 7266   5.636   8.082   2.898  1.6073  0.9288 -1.2207
 1416SOL     OW 7267   0.150   2.704   8.112 -0.1058  1.5142 -0.4112
 1416SOL    HW1 7268   0.164   2.611   8.094 -0.8481  1.2181  0.5133
 1416SOL    HW2 7269   0.186   2.749   8.035  0.0980  0.4573 -0.9423
 1417SOL     OW 7270   2.535   3.453   6.127 -0.1290 -0.2269  0.0879
 1417SOL    HW1 7271   2.529   3.393   6.200 -2.8217  0.3302  0.3627
 1417SOL    HW2 7272   2.558   3.537   6.166  1.3079 -0.5419 -0.0468
 1418SOL     OW 7273   7.498   0.214   4.114  0.2293 -0.3354 -0.0149
 1418SOL    HW1 7274   7.463   0.152   4.051 -3.1343  1.6829 -0.2503
 1418SOL    HW2 7275   7.514   0.293   4.063  1.7464 -0.0864  0.8264
 1419SOL     OW 7276   1.190   5.122   1.795 -0.3803 -0.1679 -0.0503
 1419SOL    HW1 7277   1.208   5.097   1.886 -1.1008 -0.0994  0.1180
 1419SOL    HW2 7278   1.252   5.071   1.743  0.2957  0.0860  0.5099
 1420SOL     OW 7279   9.249   1.076   3.353  0.0143 -0.1623 -0.2697
 1420SOL    HW1 7280   9.228   1.059   3.445  1.5681 -0.6501  0.0221
 1420SOL    HW2 7281   9.338   1.042   3.343  0.8434  2.2458 -1.2996
 1421SOL     OW 7282   4.287   5.099   4.846  0.2977 -0.5570  0.0343
 1421SOL    HW1 7283   4.231   5.044   4.790 -0.7781 -0.0662  0.6032
 1421SOL    HW2 7284   4.376   5.069   4.828 -0.2537 -2.3463  0.1818
 1422SOL     OW 7285   2.820   8.999   6.802 -0.3044  0.0613  0.0479
 1422SOL    HW1 7286   2.793   9.089   6.822 -1.5588 -0.1578 -0.5881
 1422SOL    HW2 7287   2.858   8.967   6.884  0.8560  1.4215  0.0550
 1423SOL     OW 7288   7.735   4.886   8.007  0.1188  0.8480 -0.1437
 1423SOL    HW1 7289   7.648   4.847   8.004  0.7463 -0.6005 -0.1521
 1423SOL    HW2 7290   7.787   4.834   7.945  1.5155  0.2769  1.4519
 1424SOL     OW 7291   5.311   2.433   5.582 -0.2169  0.0693 -0.2130
 1424SOL    HW1 7292   5.387   2.465   5.534 -1.1190  0.3276 -1.5000
 1424SOL    HW2 7293   5.316   2.338   5.577 -1.5762  0.0927 -2.9195
 1425SOL     OW 7294   5.531   8.650   1.923  0.1386 -0.0086  0.2220
 1425SOL    HW1 7295   5.487   8.692   1.848  2.1798  0.7704 -0.5765
 1425SOL    HW2 7296   5.490   8.564   1.929 -0.1296 -0.0543 -1.7591
 1426SOL     OW 7297   2.675   0.783   3.040 -0.3434 -0.2284  0.1397
 1426SOL    HW1 7298   2.631   0.760   3.122 -0.4785  2.7442  0.9926
 1426SOL    HW2 7299   2.625   0.858   3.007 -0.2119 -1.3247 -2.6227
 1427SOL     OW 7300   8.669   8.163   8.951  0.1380 -0.9395 -0.7818
 1427SOL    HW1 7301   8.602   8.119   9.002  0.3054 -0.7013 -0.3508
 1427SOL    HW2 7302   8.622   8.202   8.878 -0.0619 -1.5195 -0.9631
 1428SOL     OW 7303   3.612   4.193   5.135 -0.5434 -0.3655 -0.1186
 1428SOL    HW1 7304   3.572   4.121   5.086  0.2223 -1.3581  0.6897
 1428SOL    HW2 7305   3.688   4.218   5.083 -1.9615  1.2716 -1.4618
 1429SOL     OW 7306   7.117   6.172   1.070 -0.0678 -0.4957 -0.1580
 1429SOL    HW1 7307   7.062   6.179   1.148 -0.0062  0.9264 -0.2194
 1429SOL    HW2 7308   7.064   6.211   1.001  0.4475 -0.4489 -0.5226
 1430SOL     OW 7309   5.825   0.908   0.140 -0.5035  0.6872 -0.0191
 1430SOL    HW1 7310   5.880   0.830   0.147 -2.2734 -0.5616  0.2916
 1430SOL    HW2 7311   5.849   0.945   0.055  0.3068 -0.2227 -0.2058
 1431SOL     OW 7312   2.229   5.846   9.247  0.1603  0.0921 -0.6683
 1431SOL    HW1 7313   2.276   5.911   9.300 -0.6995 -1.4022  2.0179
 1431SOL    HW2 7314   2.292   5.774   9.236 -0.3703 -0.4969  0.1208
 1432SOL     OW 7315   2.382   3.366   4.824  0.4573 -0.2776 -0.4952
 1432SOL    HW1 7316   2.299   3.349   4.867  0.4083 -1.9856 -1.2237
 1432SOL    HW2 7317   2.421   3.280   4.812  1.2782  0.3052 -2.2480
 1433SOL     OW 7318   5.462   4.938   3.955 -0.0443 -0.1012 -0.3643
 1433SOL    HW1 7319   5.479   4.849   3.923 -0.8887 -0.5763  0.4834
 1433SOL    HW2 7320   5.502   4.940   4.042 -2.3907 -0.5394  0.7439
 1434SOL     OW 7321   5.435   8.556   5.678 -0.0176  0.3815  0.1876
 1434SOL    HW1 7322   5.410   8.540   5.769  0.5396 -0.9767  0.1159
 1434SOL    HW2 7323   5.367   8.513   5.626  2.1252 -2.9183 -0.0058
 1435SOL     OW 7324   5.704   0.893   4.278  0.5843  0.9687  0.3267
 1435SOL    HW1 7325   5.704   0.940   4.194  0.8004  2.5654  1.1986
 1435SOL    HW2 7326   5.634   0.828   4.269  1.6851  0.0023 -1.6808
 1436SOL     OW 7327   7.173   0.574   3.102  0.2372 -0.1675 -0.2556
 1436SOL    HW1 7328   7.079   0.568   3.115  0.4642  0.0134  1.6024
 1436SOL    HW2 7329   7.193   0.668   3.109  0.6422 -0.2661 -0.0777
 1437SOL     OW 7330   3.925   6.149   3.478 -0.6035 -0.3164  0.0171
 1437SOL    HW1 7331   3.990   6.174   3.544  0.1465 -1.3549 -0.3023
 1437SOL    HW2 7332   3.848   6.202   3.498  0.9279  2.2675 -0.6864
 1438SOL     OW 7333   4.909   2.670   3.766 -0.2556  0.4560 -0.9894
 1438SOL    HW1 7334   4.908   2.749   3.712 -2.6051  1.4146  0.3785
 1438SOL    HW2 7335   4.840   2.614   3.729 -0.6977  0.3783 -0.0695
 1439SOL     OW 7336   7.081   7.779   5.130  0.8449  0.1005 -0.5076
 1439SOL    HW1 7337   7.006   7.785   5.070  0.9635 -1.6211 -0.8611
 1439SOL    HW2 7338   7.142   7.719   5.086  0.6792 -1.6757  1.5961
 1440SOL     OW 7339   8.699   6.700   8.866 -0.0019 -0.4718 -0.3138
 1440SOL    HW1 7340   8.779   6.650   8.849 -0.2206 -2.1062  2.9886
 1440SOL    HW2 7341   8.637   6.669   8.799  1.7807  0.0485 -2.2363
 1441SOL     OW 7342   7.341   3.405   2.308  0.3855  0.2841  0.5344
 1441SOL    HW1 7343   7.290   3.470   2.259  0.4807  0.0801  0.1619
 1441SOL    HW2 7344   7.277   3.343   2.341  0.3231  0.4114  0.6536
 1442SOL     OW 7345   1.169   2.199   6.922 -0.4325 -0.1065 -0.1197
 1442SOL    HW1 7346   1.216   2.237   6.996 -0.5852  0.9707 -0.5704
 1442SOL    HW2 7347   1.230   2.206   6.849  0.9029 -3.8942  0.5131
 1443SOL     OW 7348   6.143   4.245   3.651  0.0414  0.1234 -0.5674
 1443SOL    HW1 7349   6.062   4.268   3.605  0.1645  1.4937 -0.1195
 1443SOL    HW2 7350   6.115   4.221   3.739 -0.0103 -0.7853 -0.8236
 1444SOL     OW 7351   7.686   8.188   1.863  0.0574 -0.4564  0.4752
 1444SOL    HW1 7352   7.696   8.118   1.928  0.8376  0.6306  1.5573
 1444SOL    HW2 7353   7.736   8.262   1.900 -2.8324  1.5200  0.6246
 1445SOL     OW 7354   3.348   8.938   8.931  0.2097  0.0782 -0.2359
 1445SOL    HW1 7355   3.262   8.900   8.949 -0.6416  1.3781 -1.5550
 1445SOL    HW2 7356   3.344   9.026   8.969  1.1769 -0.0535  0.2084
 1446SOL     OW 7357   7.025   1.004   1.689 -0.1951  0.2668  0.0269
 1446SOL    HW1 7358   6.979   0.956   1.758 -0.1186  0.2384  0.0581
 1446SOL    HW2 7359   7.118   0.996   1.711 -0.1594  0.1100 -0.1749
 1447SOL     OW 7360   4.068   5.667   0.113  0.2631  0.8075  0.2102
 1447SOL    HW1 7361   3.995   5.714   0.154 -1.1063  0.4155 -1.7624
 1447SOL    HW2 7362   4.027   5.605   0.053  2.1639 -0.8424  0.5745
 1448SOL     OW 7363   8.579   8.627   6.111  0.3822  0.3351 -0.7201
 1448SOL    HW1 7364   8.504   8.687   6.111  0.4467  0.5253  3.0519
 1448SOL    HW2 7365   8.647   8.674   6.159  1.3151 -1.6949  0.0005
 1449SOL     OW 7366   1.267   1.986   9.152  0.5337  0.7350 -0.3360
 1449SOL    HW1 7367   1.207   2.060   9.153  0.6453  0.8159  1.0207
 1449SOL    HW2 7368   1.210   1.909   9.158  0.5694  0.8372  1.9012
 1450SOL     OW 7369   5.427   3.026   4.534 -0.0799  0.2476  0.7246
 1450SOL    HW1 7370   5.520   3.029   4.557  0.0754 -0.7266  0.2643
 1450SOL    HW2 7371   5.385   2.989   4.612  0.0217 -0.0447  0.6416
 1451SOL     OW 7372   6.571   4.442   9.198 -0.2778 -0.0275 -0.5846
 1451SOL    HW1 7373   6.601   4.376   9.135 -0.5592 -1.5290  0.8332
 1451SOL    HW2 7374   6.648   4.465   9.249 -0.3940  0.0429 -0.4394
 1452SOL     OW 7375   6.287   2.920   0.905  0.0503  0.5256 -0.2168
 1452SOL    HW1 7376   6.285   3.015   0.890  0.6635  0.3839 -1.2608
 1452SOL    HW2 7377   6.196   2.896   0.920  0.0194  1.4411  1.1065
 1453SOL     OW 7378   4.504   1.630   0.206  0.2477  0.0365  0.1082
 1453SOL    HW1 7379   4.588   1.675   0.213  0.5116 -0.5822  0.9242
 1453SOL    HW2 7380   4.444   1.697   0.170  1.1711  0.3530 -0.8726
 1454SOL     OW 7381   1.506   6.521   1.871  0.4107  0.1826 -0.0455
 1454SOL    HW1 7382   1.601   6.526   1.858  0.5760  2.4375  1.8152
 1454SOL    HW2 7383   1.495   6.454   1.939  0.6524 -0.0502 -0.2329
 1455SOL     OW 7384   3.286   0.242   0.482  0.2565  0.3971 -0.3492
 1455SOL    HW1 7385   3.344   0.216   0.554  0.1886 -1.0864 -0.8034
 1455SOL    HW2 7386   3.199   0.243   0.521  0.3214  0.4122 -0.2031
 1456SOL     OW 7387   6.973   8.116   5.223 -0.3589  0.1953 -0.2666
 1456SOL    HW1 7388   7.012   8.159   5.299 -1.5919 -0.8587  0.9765
 1456SOL    HW2 7389   6.919   8.184   5.182  0.1867  0.7194 -0.1166
 1457SOL     OW 7390   4.849   0.852   1.364 -0.5181 -0.3019 -0.0233
 1457SOL    HW1 7391   4.793   0.852   1.287  0.8036 -0.9709 -1.0002
 1457SOL    HW2 7392   4.889   0.938   1.365  1.0166 -0.9869 -1.2449
 1458SOL     OW 7393   5.341   1.853   0.123  0.5210  0.0094  0.3778
 1458SOL    HW1 7394   5.413   1.796   0.148 -0.4294 -1.0245  0.7924
 1458SOL    HW2 7395   5.300   1.809   0.048 -0.2773  0.0789  0.7659
 1459SOL     OW 7396   7.179   3.294   1.787  0.2853 -0.7930  0.9406
 1459SOL    HW1 7397   7.230   3.241   1.848  1.8495 -1.9753 -1.2993
 1459SOL    HW2 7398   7.171   3.239   1.709  0.2016  1.4860 -0.7168
 1460SOL     OW 7399   2.247   4.620   6.201 -0.7187 -0.6544 -0.5262
 1460SOL    HW1 7400   2.253   4.692   6.138 -0.6237  1.0444  1.3721
 1460SOL    HW2 7401   2.322   4.632   6.259 -1.2466 -1.7213  0.4010
 1461SOL     OW 7402   5.517   5.144   2.754  0.0440  0.1107 -0.5160
 1461SOL    HW1 7403   5.485   5.206   2.819 -1.8959  1.3928 -2.5922
 1461SOL    HW2 7404   5.587   5.190   2.708  1.4684 -0.8210  0.6591
 1462SOL     OW 7405   1.451   8.764   3.850  0.4970  0.2051 -1.1496
 1462SOL    HW1 7406   1.524   8.777   3.911 -0.3010  1.1500 -0.3823
 1462SOL    HW2 7407   1.426   8.853   3.825  0.0531 -0.1441 -1.9401
 1463SOL     OW 7408   8.107   8.635   8.259  0.5845  0.4802 -0.1344
 1463SOL    HW1 7409   8.166   8.580   8.208 -3.0413 -2.9117 -0.8975
 1463SOL    HW2 7410   8.064   8.691   8.194  0.7685  0.8526  0.0607
 1464SOL     OW 7411   2.160   3.680   8.469 -0.0368  0.2441  0.1504
 1464SOL    HW1 7412   2.199   3.767   8.477  0.3057  0.2910 -1.7532
 1464SOL    HW2 7413   2.091   3.691   8.404  1.1538 -1.2802 -1.3896
 1465SOL     OW 7414   9.338   8.267   8.739  0.2343 -0.3065 -0.1378
 1465SOL    HW1 7415   9.369   8.220   8.816 -0.7136 -1.1648 -0.2760
 1465SOL    HW2 7416   9.418   8.292   8.693  0.7849 -0.3055  0.8104
 1466SOL     OW 7417   5.247   7.818   2.738 -0.7603  0.3045 -0.0818
 1466SOL    HW1 7418   5.260   7.800   2.645  1.0405 -0.3307  0.2925
 1466SOL    HW2 7419   5.245   7.914   2.743  1.7493  0.4151 -0.4525
 1467SOL     OW 7420   0.258   1.616   7.530  0.2402 -0.6520  0.9304
 1467SOL    HW1 7421   0.175   1.657   7.507 -0.1817 -1.8301  0.2958
 1467SOL    HW2 7422   0.279   1.649   7.618  1.3176  3.0675 -0.6428
 1468SOL     OW 7423   4.356   0.237   4.881 -0.4085 -0.2015 -1.0238
 1468SOL    HW1 7424   4.278   0.272   4.922 -1.1738 -2.1721 -0.7384
 1468SOL    HW2 7425   4.365   0.286   4.799 -1.7015  0.3018 -0.8655
 1469SOL     OW 7426   0.014   2.554   4.600  0.5917 -0.4237 -0.0649
 1469SOL    HW1 7427  -0.063   2.536   4.653  1.0250 -0.2568  0.6352
 1469SOL    HW2 7428   0.024   2.650   4.604  1.5271 -0.5491  0.8467
 1470SOL     OW 7429   8.737   2.162   8.452  0.3014  0.7794 -0.2121
 1470SOL    HW1 7430   8.669   2.103   8.484 -0.7885  0.6553 -2.6551
 1470SOL    HW2 7431   8.690   2.243   8.432  0.8637  0.7523 -1.7501
 1471SOL     OW 7432   3.731   9.191   8.375 -0.0560  0.0718  0.2343
 1471SOL    HW1 7433   3.674   9.115   8.390 -0.5733  0.8030  2.1210
 1471SOL    HW2 7434   3.817   9.162   8.405  0.0114 -0.1879 -0.2118
 1472SOL     OW 7435   8.734   7.481   8.177 -0.1687  0.5456  0.0349
 1472SOL    HW1 7436   8.813   7.535   8.165  0.0812  0.4332  1.0692
 1472SOL    HW2 7437   8.744   7.409   8.115  0.9873  0.0522  0.7767
 1473SOL     OW 7438   0.925   8.753   0.706  0.0009 -0.3104  0.2509
 1473SOL    HW1 7439   0.963   8.674   0.669 -2.1035 -1.0210 -0.4535
 1473SOL    HW2 7440   0.979   8.772   0.783  1.9485 -1.0744 -0.8843
 1474SOL     OW 7441   2.116   1.739   2.968 -0.2738  0.0158 -0.4824
 1474SOL    HW1 7442   2.100   1.762   2.877 -0.3951  0.2285 -0.4069
 1474SOL    HW2 7443   2.051   1.789   3.018 -1.8874 -2.0327 -0.4583
 1475SOL     OW 7444   2.912   2.958   4.954  0.1242  0.6354 -0.3945
 1475SOL    HW1 7445   2.929   2.866   4.977  0.3197  0.7963  0.1075
 1475SOL    HW2 7446   2.834   2.955   4.900 -0.3029  0.2404  0.2367
 1476SOL     OW 7447   3.451   8.122   2.814  0.1975 -0.2172  0.0990
 1476SOL    HW1 7448   3.427   8.146   2.903  0.3985 -1.8443  0.6090
 1476SOL    HW2 7449   3.515   8.052   2.824  0.8316  0.1276 -1.3248
 1477SOL     OW 7450   2.230   2.204   8.987 -0.1692  0.5261 -0.2899
 1477SOL    HW1 7451   2.163   2.158   8.936  0.5074  0.4630 -1.1401
 1477SOL    HW2 7452   2.284   2.246   8.921  1.4989 -0.6064  0.3360
 1478SOL     OW 7453   5.034   6.248   4.696  0.0877  0.2530 -0.1744
 1478SOL    HW1 7454   5.021   6.158   4.666 -1.1276  0.8316 -1.4780
 1478SOL    HW2 7455   4.947   6.276   4.724  0.5752  0.8339  0.7617
 1479SOL     OW 7456   8.737   3.126   4.366 -0.4399 -0.5899  0.0030
 1479SOL    HW1 7457   8.797   3.065   4.322 -1.1920 -0.2357 -1.5499
 1479SOL    HW2 7458   8.650   3.093   4.345 -0.8234 -0.1039  0.8055
 1480SOL     OW 7459   1.840   0.164   3.612 -0.0248 -0.3815 -0.5004
 1480SOL    HW1 7460   1.848   0.070   3.600 -0.2819 -0.0503 -3.6234
 1480SOL    HW2 7461   1.759   0.188   3.566  0.4470  1.4599 -0.4308
 1481SOL     OW 7462   9.323   3.651   4.917  0.4829  0.5495  0.4172
 1481SOL    HW1 7463   9.264   3.579   4.938  0.1958  0.7062  0.1362
 1481SOL    HW2 7464   9.289   3.688   4.836  0.7021  0.9232  0.4934
 1482SOL     OW 7465   2.498   0.166   6.707  0.4447 -0.2176 -0.3659
 1482SOL    HW1 7466   2.452   0.246   6.733  0.2553 -0.5514  0.3314
 1482SOL    HW2 7467   2.432   0.113   6.663  0.1801 -0.6347  0.5080
 1483SOL     OW 7468   8.924   2.326   4.204 -0.0532  0.2170 -0.3694
 1483SOL    HW1 7469   8.906   2.366   4.119  1.3642 -1.1357 -1.3325
 1483SOL    HW2 7470   8.911   2.397   4.267  0.1738  1.5760 -1.8244
 1484SOL     OW 7471   2.682   0.598   3.673  0.2914  0.2391  0.1081
 1484SOL    HW1 7472   2.704   0.507   3.693 -0.6246  0.1892  0.9357
 1484SOL    HW2 7473   2.739   0.622   3.600 -1.5117 -1.8825 -2.0492
 1485SOL     OW 7474   2.451   0.715   3.565 -0.0720  0.1971 -0.1705
 1485SOL    HW1 7475   2.479   0.627   3.540  0.3863 -0.1887  1.6191
 1485SOL    HW2 7476   2.529   0.755   3.604 -0.3918  1.2599 -0.5969
 1486SOL     OW 7477   0.025   7.795   6.787  0.0604  0.4235 -0.1590
 1486SOL    HW1 7478   0.106   7.847   6.780  0.2263  0.2130  0.1691
 1486SOL    HW2 7479   0.024   7.766   6.878 -0.4639  0.5467 -0.1246
 1487SOL     OW 7480   8.513   4.766   1.263  0.1075  0.0830  0.5513
 1487SOL    HW1 7481   8.453   4.841   1.270  1.1413  0.9091  0.7748
 1487SOL    HW2 7482   8.457   4.694   1.234 -1.0572  0.7502  1.0585
 1488SOL     OW 7483   3.998   1.747   7.958 -0.1580  0.3008  0.1729
 1488SOL    HW1 7484   3.973   1.675   8.016  1.9266 -0.6468 -0.0937
 1488SOL    HW2 7485   4.021   1.704   7.875 -0.6779  1.4381 -0.5710
 1489SOL     OW 7486   9.094   0.660   4.564  0.0114 -0.4481 -0.1646
 1489SOL    HW1 7487   9.185   0.689   4.554  0.8501 -3.3216 -1.3012
 1489SOL    HW2 7488   9.089   0.626   4.654  0.0957 -0.4175 -0.1478
 1490SOL     OW 7489   6.057   0.900   3.220  0.3829  0.0569  0.4274
 1490SOL    HW1 7490   6.013   0.862   3.144 -1.2321  0.1956  1.2811
 1490SOL    HW2 7491   5.999   0.971   3.249  1.1733  0.2582  1.5576
 1491SOL     OW 7492   2.370   2.443   9.308  0.2975 -0.1888  0.0587
 1491SOL    HW1 7493   2.287   2.491   9.305  0.0376 -0.6505 -0.2913
 1491SOL    HW2 7494   2.347   2.355   9.277  1.3448  0.2796 -2.1612
 1492SOL     OW 7495   7.268   7.208   6.322  0.6359 -0.0441 -0.0377
 1492SOL    HW1 7496   7.182   7.242   6.347  0.5162  1.0043 -1.8328
 1492SOL    HW2 7497   7.328   7.251   6.383  0.3685  2.6836 -1.6355
 1493SOL     OW 7498   8.508   1.275   4.772  0.1775  0.8189  0.4689
 1493SOL    HW1 7499   8.573   1.342   4.751 -0.1942  0.7969 -0.7594
 1493SOL    HW2 7500   8.521   1.207   4.706 -1.2683  0.9327  0.0612
 1494SOL     OW 7501   0.691   7.265   0.972 -0.4645 -0.0223  0.2510
 1494SOL    HW1 7502   0.690   7.360   0.965  1.2367 -0.0925 -1.2059
 1494SOL    HW2 7503   0.644   7.235   0.894 -1.0585 -0.3766  0.7441
 1495SOL     OW 7504   1.441   6.731   2.033  0.0345  0.4834 -0.2407
 1495SOL    HW1 7505   1.461   6.663   1.969 -1.3790  0.7379 -0.9796
 1495SOL    HW2 7506   1.471   6.696   2.117  2.6175  0.4542 -1.1405
 1496SOL     OW 7507   5.140   3.254   4.493  0.1218 -0.5128 -0.0952
 1496SOL    HW1 7508   5.216   3.230   4.439 -0.8210 -2.1886 -0.7101
 1496SOL    HW2 7509   5.165   3.227   4.582 -0.3793 -2.5981 -0.5581
 1497SOL     OW 7510   2.175   3.005   4.960 -0.2558  0.4407 -0.3646
 1497SOL    HW1 7511   2.126   3.003   5.043 -0.5166  0.4347 -0.5191
 1497SOL    HW2 7512   2.215   2.918   4.955 -0.0427  0.5233 -0.1269
 1498SOL     OW 7513   3.031   8.763   0.367 -0.1405  0.2157  0.0955
 1498SOL    HW1 7514   3.010   8.856   0.377  1.8000  0.6161  0.7379
 1498SOL    HW2 7515   3.036   8.730   0.456  3.1096  0.4584  0.0613
 1499SOL     OW 7516   8.332   6.175   3.631  0.1547  0.1220 -0.1142
 1499SOL    HW1 7517   8.253   6.212   3.592  0.7413 -0.8660 -2.3180
 1499SOL    HW2 7518   8.390   6.250   3.644  0.5491  0.3083 -2.6498
 1500SOL     OW 7519   8.828   0.949   2.520 -0.2461 -0.1968  0.1368
 1500SOL    HW1 7520   8.838   0.997   2.602 -1.2593 -1.0616  0.7809
 1500SOL    HW2 7521   8.747   0.899   2.531  0.3727 -1.4507 -0.8110
 1501SOL     OW 7522   4.500   0.419   3.630  0.4021 -0.1785 -0.5802
 1501SOL    HW1 7523   4.549   0.429   3.712 -2.0313 -1.6780  1.1396
 1501SOL    HW2 7524   4.453   0.501   3.620 -0.2079 -0.4191  0.1950
 1502SOL     OW 7525   9.377   0.231   5.637  0.8284 -0.4778  0.6386
 1502SOL    HW1 7526   9.354   0.159   5.578 -0.6187  0.4776 -0.0136
 1502SOL    HW2 7527   9.442   0.282   5.588  0.0006  0.0354  0.0541
 1503SOL     OW 7528   7.788   4.441   8.891 -0.2030  0.3584  0.7152
 1503SOL    HW1 7529   7.694   4.452   8.884 -0.0818  0.6222 -0.7061
 1503SOL    HW2 7530   7.825   4.505   8.829  0.9655  1.3780  2.4178
 1504SOL     OW 7531   0.268   4.737   1.819 -0.0769 -0.2579 -0.8724
 1504SOL    HW1 7532   0.262   4.812   1.760  0.3298  0.3354 -0.1633
 1504SOL    HW2 7533   0.361   4.712   1.817  0.0313  0.0589 -0.1320
 1505SOL     OW 7534   3.067   6.837   8.793 -0.0465  0.0787 -0.0747
 1505SOL    HW1 7535   2.994   6.832   8.732  0.1278  0.4083 -0.3100
 1505SOL    HW2 7536   3.065   6.927   8.826  0.0945  0.0131  0.1130
 1506SOL     OW 7537   7.914   1.669   3.821 -0.2775 -0.1586 -0.2248
 1506SOL    HW1 7538   8.008   1.671   3.843 -0.4557 -1.5872  0.7772
 1506SOL    HW2 7539   7.892   1.576   3.822 -2.0216  0.2473  0.8830
 1507SOL     OW 7540   1.529   2.752   1.025  0.0824  0.1548 -0.4716
 1507SOL    HW1 7541   1.622   2.748   1.001  0.3304 -0.9942  0.6688
 1507SOL    HW2 7542   1.502   2.840   1.000  1.1917  0.1178 -1.8649
 1508SOL     OW 7543   0.569   4.735   0.130  0.0373 -0.0137  0.1392
 1508SOL    HW1 7544   0.532   4.752   0.217 -0.4787 -2.4050  0.4113
 1508SOL    HW2 7545   0.536   4.649   0.106 -0.2234  0.8312 -2.6773
 1509SOL     OW 7546   7.676   0.174   9.423 -0.2446  0.5446  0.0922
 1509SOL    HW1 7547   7.747   0.203   9.480  1.9868 -1.5597 -1.5752
 1509SOL    HW2 7548   7.630   0.108   9.475 -0.4583  1.2519  0.8190
 1510SOL     OW 7549   6.297   2.787   0.071  0.1463  0.1220 -0.2631
 1510SOL    HW1 7550   6.319   2.869   0.116  1.6683 -0.1714 -0.4387
 1510SOL    HW2 7551   6.326   2.718   0.131  0.5851 -0.2797 -0.9294
 1511SOL     OW 7552   3.136   5.832   6.639  0.3002  0.0328  0.3059
 1511SOL    HW1 7553   3.183   5.897   6.691 -0.1456  0.4569  0.1817
 1511SOL    HW2 7554   3.066   5.882   6.595  1.6238 -0.0004 -1.9314
 1512SOL     OW 7555   8.916   3.611   2.006 -0.2435 -0.3279 -0.0541
 1512SOL    HW1 7556   8.881   3.696   2.032 -0.3880 -0.2271 -0.5632
 1512SOL    HW2 7557   8.842   3.551   2.015 -0.6118 -0.0804 -1.3094
 1513SOL     OW 7558   8.908   0.751   6.094  0.5105 -0.0215 -0.3333
 1513SOL    HW1 7559   8.960   0.819   6.051  1.0137 -0.1024  0.1511
 1513SOL    HW2 7560   8.863   0.797   6.165  0.4131 -0.0805 -0.3566
 1514SOL     OW 7561   5.465   4.216   7.320  0.7173 -1.0370  0.1747
 1514SOL    HW1 7562   5.402   4.212   7.248  1.1854  1.1240 -0.4135
 1514SOL    HW2 7563   5.460   4.307   7.351  1.9099 -1.4405  1.5931
 1515SOL     OW 7564   0.002   5.154   6.572 -0.2119 -0.0644 -0.0514
 1515SOL    HW1 7565   0.033   5.151   6.481  0.4267 -0.8363  0.1937
 1515SOL    HW2 7566  -0.090   5.181   6.564  0.2584  1.3526 -0.8264
 1516SOL     OW 7567   1.955   0.378   8.202  0.4172  0.0848 -0.0972
 1516SOL    HW1 7568   1.866   0.376   8.236  0.8007 -1.1656  0.8835
 1516SOL    HW2 7569   2.011   0.386   8.280  1.2149 -0.6291 -0.5765
 1517SOL     OW 7570   7.039   3.575   3.559  0.4864 -1.1267 -0.5903
 1517SOL    HW1 7571   7.098   3.500   3.564  0.8418 -0.7801  0.7256
 1517SOL    HW2 7572   6.965   3.551   3.614  0.7489 -0.3934  0.0899
 1518SOL     OW 7573   1.940   6.699   8.624 -0.5122 -0.3368  0.7037
 1518SOL    HW1 7574   2.031   6.674   8.610 -0.2665  0.7342  0.2907
 1518SOL    HW2 7575   1.937   6.728   8.716 -0.7462 -1.6448  1.1105
 1519SOL     OW 7576   0.413   8.250   2.684 -0.8397 -0.4636  0.1472
 1519SOL    HW1 7577   0.326   8.288   2.679 -0.1246  1.1468 -0.2343
 1519SOL    HW2 7578   0.462   8.293   2.613  0.1966 -1.5211  0.2075
 1520SOL     OW 7579   4.296   3.458   7.784 -0.0621 -0.3509 -0.5731
 1520SOL    HW1 7580   4.346   3.537   7.802  0.1861 -0.3670 -1.1585
 1520SOL    HW2 7581   4.305   3.446   7.689 -1.6619 -0.0368 -0.7712
 1521SOL     OW 7582   1.507   8.435   9.065 -0.5944  0.7824 -0.2143
 1521SOL    HW1 7583   1.415   8.443   9.091 -0.8362  1.1020 -1.1309
 1521SOL    HW2 7584   1.525   8.341   9.065 -1.3297  0.6376 -1.3994
 1522SOL     OW 7585   8.152   3.979   5.360  0.3576  0.1231 -0.4728
 1522SOL    HW1 7586   8.225   4.035   5.334  1.3583 -1.0856 -0.2764
 1522SOL    HW2 7587   8.191   3.893   5.374 -1.0539 -0.4634 -0.0808
 1523SOL     OW 7588   0.056   0.421   6.619  0.0108  0.0744  0.1851
 1523SOL    HW1 7589   0.131   0.389   6.568  2.8409  0.9028  3.6008
 1523SOL    HW2 7590   0.071   0.515   6.628 -1.7247  0.3308  0.5257
 1524SOL     OW 7591   6.881   7.302   4.425  0.3812 -0.6482 -0.4889
 1524SOL    HW1 7592   6.896   7.382   4.374  0.1293 -0.6547 -0.5741
 1524SOL    HW2 7593   6.832   7.245   4.366 -1.7503  0.1531  0.4782
 1525SOL     OW 7594   1.279   4.416   4.881 -0.3099 -0.4219 -0.1278
 1525SOL    HW1 7595   1.254   4.324   4.893 -2.4231  0.2090  0.4643
 1525SOL    HW2 7596   1.302   4.422   4.788  0.3165 -1.6365 -0.0715
 1526SOL     OW 7597   6.330   5.460   6.439 -0.0726  0.7722 -0.8314
 1526SOL    HW1 7598   6.397   5.403   6.400 -0.6317 -0.5671  0.1311
 1526SOL    HW2 7599   6.376   5.509   6.506 -0.1190 -0.4187  0.0820
 1527SOL     OW 7600   0.766   0.566   1.958 -0.2493 -0.3007  0.1797
 1527SOL    HW1 7601   0.727   0.605   2.036 -0.8999  1.8056 -1.1686
 1527SOL    HW2 7602   0.857   0.548   1.983 -0.2317  1.1132  1.1715
 1528SOL     OW 7603   9.071   3.783   8.964 -0.5167 -0.4441  0.0621
 1528SOL    HW1 7604   9.007   3.719   8.993 -0.1748 -0.6705  0.3182
 1528SOL    HW2 7605   9.028   3.868   8.978 -1.1460 -0.6297 -0.7096
 1529SOL     OW 7606   8.243   5.390   4.052  0.7763 -0.2237  0.6914
 1529SOL    HW1 7607   8.294   5.309   4.067  2.1111  0.7330  1.4614
 1529SOL    HW2 7608   8.175   5.388   4.119  1.2488 -0.3661  1.1712
 1530SOL     OW 7609   4.334   9.321   0.355  0.1235 -0.3667 -0.6021
 1530SOL    HW1 7610   4.424   9.329   0.387 -0.6236  0.6338  1.3149
 1530SOL    HW2 7611   4.318   9.226   0.352  0.8867 -0.5175  0.0563
 1531SOL     OW 7612   7.285   1.848   3.815  0.3015  0.0399  0.1993
 1531SOL    HW1 7613   7.323   1.917   3.760  0.7493 -0.2874  0.0954
 1531SOL    HW2 7614   7.246   1.786   3.753 -1.4920  0.9854  0.3370
 1532SOL     OW 7615   3.711   4.534   6.718  0.5652  0.4655 -0.2713
 1532SOL    HW1 7616   3.634   4.563   6.767  0.0002 -2.9527  1.0130
 1532SOL    HW2 7617   3.781   4.530   6.784  1.8297  3.3873 -1.3930
 1533SOL     OW 7618   4.568   6.749   6.564  0.4671 -0.1936 -0.3692
 1533SOL    HW1 7619   4.523   6.798   6.634  0.7248 -0.7764  0.2012
 1533SOL    HW2 7620   4.497   6.707   6.516  0.1499  1.6108 -1.5396
 1534SOL     OW 7621   5.218   6.286   6.095 -0.2750  0.0191 -0.4322
 1534SOL    HW1 7622   5.240   6.236   6.016  0.9258  1.0536 -0.7597
 1534SOL    HW2 7623   5.258   6.371   6.082 -4.4892  2.0604 -1.0913
 1535SOL     OW 7624   1.882   0.573   7.486 -0.2195 -0.2158  0.2683
 1535SOL    HW1 7625   1.897   0.657   7.441 -1.7997  1.6065  3.0064
 1535SOL    HW2 7626   1.797   0.543   7.453 -0.1372 -0.2317  0.0676
 1536SOL     OW 7627   8.514   1.718   6.114 -0.1763 -0.1354 -0.4905
 1536SOL    HW1 7628   8.595   1.770   6.113 -0.7095  0.7130  0.2635
 1536SOL    HW2 7629   8.448   1.777   6.149 -1.3577 -0.5168 -2.0444
 1537SOL     OW 7630   1.785   6.926   6.426  0.1369  0.6939  0.2193
 1537SOL    HW1 7631   1.845   6.902   6.497 -0.7666  1.4246  1.2514
 1537SOL    HW2 7632   1.813   7.014   6.400  0.9730  0.1127 -0.8927
 1538SOL     OW 7633   0.450   6.595   7.139  0.0996  0.1161  0.6129
 1538SOL    HW1 7634   0.472   6.508   7.105 -0.7855 -0.8141  2.3576
 1538SOL    HW2 7635   0.493   6.656   7.078  0.0232 -1.5099 -1.1314
 1539SOL     OW 7636   6.849   4.100   2.925  0.1619 -0.1057 -0.0835
 1539SOL    HW1 7637   6.935   4.111   2.966  1.4210 -2.6948 -1.8248
 1539SOL    HW2 7638   6.797   4.051   2.989  0.8492 -0.7628 -0.0214
 1540SOL     OW 7639   6.649   5.525   5.694 -0.0886 -0.1339  0.3322
 1540SOL    HW1 7640   6.573   5.543   5.749  0.3177 -1.3031  1.2996
 1540SOL    HW2 7641   6.612   5.507   5.607 -0.8484  0.1667  0.5890
 1541SOL     OW 7642   2.700   6.456   3.557  0.9641  0.1906 -0.0685
 1541SOL    HW1 7643   2.725   6.539   3.517 -2.0257  1.1105 -0.1493
 1541SOL    HW2 7644   2.703   6.393   3.485 -0.8090  1.1022 -0.9747
 1542SOL     OW 7645   4.729   8.598   8.077 -0.4142 -0.1139 -0.6600
 1542SOL    HW1 7646   4.734   8.503   8.070  0.5642 -0.2454  1.4871
 1542SOL    HW2 7647   4.812   8.629   8.038 -0.6333 -0.1387 -1.1531
 1543SOL     OW 7648   6.308   4.561   6.935  0.1229  0.6000  0.3394
 1543SOL    HW1 7649   6.316   4.643   6.887  0.8065  0.8684  0.8924
 1543SOL    HW2 7650   6.300   4.588   7.027 -0.1637  0.0675  0.4711
 1544SOL     OW 7651   5.397   1.364   3.103  0.0358 -0.4430 -0.3786
 1544SOL    HW1 7652   5.420   1.371   3.010 -1.3630  0.3825 -0.6809
 1544SOL    HW2 7653   5.318   1.309   3.104 -0.0917 -0.2519  0.3067
 1545SOL     OW 7654   0.373   4.986   8.687 -0.1354  0.2475 -0.2686
 1545SOL    HW1 7655   0.293   4.987   8.741 -1.0909  2.6646 -1.6511
 1545SOL    HW2 7656   0.389   5.079   8.666  3.4193 -0.1231  0.5072
 1546SOL     OW 7657   1.776   6.744   6.802  0.4105 -0.4275  0.0926
 1546SOL    HW1 7658   1.825   6.758   6.721  0.5793 -1.2030  0.0563
 1546SOL    HW2 7659   1.760   6.649   6.804 -1.1224 -0.1780  0.0814
 1547SOL     OW 7660   2.744   6.812   3.604 -0.1171 -0.2272 -0.6621
 1547SOL    HW1 7661   2.798   6.888   3.627 -0.0006 -0.7386  0.8189
 1547SOL    HW2 7662   2.801   6.757   3.550  0.4359 -0.1862 -0.1199
 1548SOL     OW 7663   8.321   6.112   1.501  0.1950  0.1885 -0.2170
 1548SOL    HW1 7664   8.398   6.056   1.492 -0.2844 -1.1095  3.1817
 1548SOL    HW2 7665   8.247   6.056   1.479  0.0204  0.7345 -1.0572
 1549SOL     OW 7666   4.536   2.836   2.298 -0.5285  0.1235 -0.2648
 1549SOL    HW1 7667   4.540   2.875   2.385  0.3699  0.9646 -0.6800
 1549SOL    HW2 7668   4.593   2.759   2.304 -1.9993 -0.9348  0.4422
 1550SOL     OW 7669   4.533   9.061   0.015  0.0146  0.3657  0.4347
 1550SOL    HW1 7670   4.465   9.129   0.012 -0.2796  0.0271 -1.0306
 1550SOL    HW2 7671   4.499   8.995   0.076 -0.4775  0.7085  0.5367
 1551SOL     OW 7672   8.285   8.944   0.733  0.0582  0.3556 -0.1430
 1551SOL    HW1 7673   8.272   8.873   0.670  1.6688 -0.6493  0.6157
 1551SOL    HW2 7674   8.378   8.940   0.755 -0.2778  1.2947  1.5908
 1552SOL     OW 7675   5.212   5.592   5.772  0.1956 -0.0280  0.2340
 1552SOL    HW1 7676   5.250   5.600   5.684 -0.2871 -0.3058  0.0014
 1552SOL    HW2 7677   5.162   5.673   5.784  1.5419  0.7289  0.8748
 1553SOL     OW 7678   7.794   4.217   6.615 -0.6577 -0.3754 -0.8229
 1553SOL    HW1 7679   7.700   4.220   6.599 -0.9977 -1.6381  0.7557
 1553SOL    HW2 7680   7.810   4.128   6.649  1.1363 -0.2765 -1.3307
 1554SOL     OW 7681   1.200   3.393   6.182  0.4518 -0.0400  0.1508
 1554SOL    HW1 7682   1.127   3.408   6.242  0.1742  2.8791 -0.8364
 1554SOL    HW2 7683   1.160   3.349   6.107 -0.7583  3.1946 -1.2078
 1555SOL     OW 7684   6.997   1.826   1.121 -0.3242  0.3579 -0.5140
 1555SOL    HW1 7685   6.998   1.920   1.133 -0.6753  0.3417 -0.3400
 1555SOL    HW2 7686   6.937   1.794   1.188  0.7010 -0.1021  0.2055
 1556SOL     OW 7687   1.646   6.731   0.492  0.4838 -0.2165  0.0112
 1556SOL    HW1 7688   1.585   6.804   0.499 -0.0298 -0.7253  0.8265
 1556SOL    HW2 7689   1.733   6.770   0.504  0.0915 -0.0172  2.4348
 1557SOL     OW 7690   8.421   2.059   5.149  0.4791 -0.6034 -0.4142
 1557SOL    HW1 7691   8.360   2.073   5.222  1.9335  0.5522  0.6108
 1557SOL    HW2 7692   8.410   2.135   5.093 -1.0625 -1.7715 -1.7538
 1558SOL     OW 7693   6.537   7.848   3.438 -0.0483  0.0879 -0.2981
 1558SOL    HW1 7694   6.489   7.871   3.358 -1.6517  1.1044  0.9080
 1558SOL    HW2 7695   6.498   7.765   3.466  1.2911 -0.8465 -1.1619
 1559SOL     OW 7696   0.493   5.871   0.899 -0.1467 -0.1128  0.6003
 1559SOL    HW1 7697   0.527   5.782   0.887  0.0198  0.1947 -1.4405
 1559SOL    HW2 7698   0.400   5.859   0.916 -0.1282 -0.6865  0.3073
 1560SOL     OW 7699   7.761   0.973   7.500  0.1936 -0.1721 -0.4577
 1560SOL    HW1 7700   7.715   0.896   7.535  0.9245 -0.4357 -0.0714
 1560SOL    HW2 7701   7.699   1.045   7.512 -0.9179 -0.8767 -1.7799
 1561SOL     OW 7702   3.389   3.837   6.589  0.2286  0.0863  0.0016
 1561SOL    HW1 7703   3.419   3.792   6.668  0.5958 -1.1482 -0.8360
 1561SOL    HW2 7704   3.466   3.882   6.557  0.5178 -0.8447 -0.6227
 1562SOL     OW 7705   1.354   4.283   0.269  0.0632  0.5524 -0.8474
 1562SOL    HW1 7706   1.294   4.339   0.220  0.3670  1.2859 -0.3984
 1562SOL    HW2 7707   1.438   4.331   0.267 -0.4752  1.7640  2.3587
 1563SOL     OW 7708   0.247   4.349   1.304 -0.1891  0.0077 -0.3704
 1563SOL    HW1 7709   0.317   4.294   1.270  1.7862  2.0850  0.1768
 1563SOL    HW2 7710   0.263   4.355   1.398 -1.6507 -0.2319 -0.0884
 1564SOL     OW 7711   7.378   7.649   3.092  0.0037 -0.3428 -0.5867
 1564SOL    HW1 7712   7.379   7.710   3.166 -0.8384 -1.5440  0.4311
 1564SOL    HW2 7713   7.434   7.576   3.121 -1.6076 -1.5575 -0.4813
 1565SOL     OW 7714   8.314   8.751   4.972 -0.0781  0.1795 -0.5164
 1565SOL    HW1 7715   8.331   8.690   5.043 -1.3845  0.0654 -0.2912
 1565SOL    HW2 7716   8.317   8.838   5.013  1.9906  0.2912 -0.8775
 1566SOL     OW 7717   0.522   4.094   7.765  0.2262 -0.2419  0.1218
 1566SOL    HW1 7718   0.453   4.029   7.749  1.4966 -2.1824  2.2519
 1566SOL    HW2 7719   0.603   4.047   7.750  1.1602  1.1199  0.8354
 1567SOL     OW 7720   4.420   3.216   9.232 -0.0749  0.5409  0.2977
 1567SOL    HW1 7721   4.376   3.266   9.300  0.0036 -0.0674  0.7971
 1567SOL    HW2 7722   4.483   3.161   9.279  0.3938  0.5448 -0.3125
 1568SOL     OW 7723   3.414   4.517   4.281 -0.1115  0.1512  0.3004
 1568SOL    HW1 7724   3.485   4.580   4.291 -0.6165  0.6048  1.1074
 1568SOL    HW2 7725   3.391   4.493   4.371 -1.7531  0.8897  0.1041
 1569SOL     OW 7726   3.143   8.456   3.537 -0.1165  0.3954 -0.0561
 1569SOL    HW1 7727   3.099   8.371   3.545  0.0271  0.3883  0.6683
 1569SOL    HW2 7728   3.232   8.434   3.509 -0.1491  0.3199 -0.0996
 1570SOL     OW 7729   1.109   3.390   9.207  0.3264 -0.2081 -0.1653
 1570SOL    HW1 7730   1.085   3.310   9.254  2.1491 -0.9657 -0.4679
 1570SOL    HW2 7731   1.165   3.438   9.268  1.0238 -0.2149 -0.7942
 1571SOL     OW 7732   7.952   9.343   6.160 -0.1428  0.0845 -0.4197
 1571SOL    HW1 7733   7.988   9.258   6.183  0.2343  0.9295  2.3300
 1571SOL    HW2 7734   8.010   9.377   6.092  1.3448 -0.6580  0.4785
 1572SOL     OW 7735   0.781   2.777   4.843  0.1957  0.4209 -0.3412
 1572SOL    HW1 7736   0.759   2.848   4.783  0.5893  0.7143 -0.1417
 1572SOL    HW2 7737   0.812   2.707   4.787 -1.2343  0.0042 -0.6240
 1573SOL     OW 7738   4.164   1.158   3.061  0.1114 -0.0318  0.1100
 1573SOL    HW1 7739   4.197   1.068   3.056  2.1114  0.7389 -1.4187
 1573SOL    HW2 7740   4.103   1.165   2.988  0.9844  0.2348 -0.6028
 1574SOL     OW 7741   6.181   8.712   4.653  0.0041 -0.4922  0.0173
 1574SOL    HW1 7742   6.174   8.617   4.643 -1.0045 -0.4089 -0.0711
 1574SOL    HW2 7743   6.201   8.744   4.565  1.0392 -0.6766  0.1733
 1575SOL     OW 7744   8.331   3.537   5.951 -0.4065  0.0310  0.0831
 1575SOL    HW1 7745   8.370   3.512   5.867  2.1343  0.6553  1.0342
 1575SOL    HW2 7746   8.392   3.504   6.017 -1.7059  0.6921  1.6687
 1576SOL     OW 7747   0.845   5.171   1.004 -0.0952 -1.0076  0.2049
 1576SOL    HW1 7748   0.838   5.259   0.969 -0.7400 -1.3634 -0.5551
 1576SOL    HW2 7749   0.821   5.113   0.932  0.0960 -1.7985  0.7607
 1577SOL     OW 7750   0.930   7.726   0.503  0.1567  0.3073 -0.3622
 1577SOL    HW1 7751   0.896   7.724   0.592  1.2815  2.1708  0.1362
 1577SOL    HW2 7752   0.874   7.665   0.454 -2.2761  1.4004  0.9810
 1578SOL     OW 7753   1.838   1.837   3.296  0.6688  0.1062  0.5185
 1578SOL    HW1 7754   1.878   1.895   3.362  1.1381 -0.1770  0.4867
 1578SOL    HW2 7755   1.833   1.752   3.339 -0.9992  0.3963  0.9413
 1579SOL     OW 7756   9.017   7.073   9.111 -0.8085  0.4843 -0.4369
 1579SOL    HW1 7757   9.095   7.122   9.081 -0.4540 -0.6348 -1.3680
 1579SOL    HW2 7758   8.947   7.138   9.108 -0.0811  1.2990 -0.3853
 1580SOL     OW 7759   4.895   8.990   0.211  0.2809 -0.1218  0.3045
 1580SOL    HW1 7760   4.806   9.023   0.225  0.0992 -0.9610  1.0902
 1580SOL    HW2 7761   4.950   9.045   0.267  0.3816  0.9683 -0.8249
 1581SOL     OW 7762   6.133   0.507   1.107  0.2019  0.3649 -0.3747
 1581SOL    HW1 7763   6.204   0.528   1.168 -0.0071 -2.0846  0.7743
 1581SOL    HW2 7764   6.176   0.462   1.034  0.2351  1.8227 -1.2698
 1582SOL     OW 7765   3.376   5.268   8.777 -0.7846  0.4239  0.2301
 1582SOL    HW1 7766   3.344   5.354   8.804  0.8273  1.1776 -0.1742
 1582SOL    HW2 7767   3.363   5.212   8.853 -0.6328  1.3620  0.9524
 1583SOL     OW 7768   1.727   1.515   0.667  0.3427 -0.4534 -0.3432
 1583SOL    HW1 7769   1.658   1.537   0.604  0.0267  0.4103  0.3032
 1583SOL    HW2 7770   1.805   1.556   0.631 -0.2670  1.8808  0.9200
 1584SOL     OW 7771   2.068   3.880   0.440  0.1153 -0.4187  0.1611
 1584SOL    HW1 7772   2.087   3.951   0.500 -0.2054  1.6832 -2.1267
 1584SOL    HW2 7773   2.036   3.809   0.495  0.5505  1.1675  2.5101
 1585SOL     OW 7774   6.742   1.422   3.426 -0.2750  0.3727 -0.0225
 1585SOL    HW1 7775   6.706   1.472   3.352  0.5855 -0.4150 -0.9912
 1585SOL    HW2 7776   6.834   1.448   3.428 -0.8513  2.3826  2.4372
 1586SOL     OW 7777   1.702   1.332   4.558 -0.3520 -0.1436 -0.2335
 1586SOL    HW1 7778   1.619   1.284   4.552 -0.4687  0.1433 -1.0305
 1586SOL    HW2 7779   1.726   1.348   4.467 -0.2301  1.1667  0.0315
 1587SOL     OW 7780   8.845   0.206   7.140 -0.3055 -0.3298 -0.1046
 1587SOL    HW1 7781   8.799   0.234   7.219 -0.1417 -1.7518  0.4941
 1587SOL    HW2 7782   8.937   0.224   7.158 -0.1787 -1.4449  0.3580
 1588SOL     OW 7783   2.190   6.614   9.152  0.0548  0.2747  0.1188
 1588SOL    HW1 7784   2.244   6.547   9.195 -1.2585 -0.1338  1.2126
 1588SOL    HW2 7785   2.186   6.686   9.215 -0.7678  0.2421  0.1160
 1589SOL     OW 7786   7.189   1.163   6.620 -0.2674  0.0732 -0.1034
 1589SOL    HW1 7787   7.249   1.099   6.659  0.7255  0.4012 -1.0670
 1589SOL    HW2 7788   7.233   1.190   6.539 -0.2530  2.6467  0.7285
 1590SOL     OW 7789   0.842   7.257   1.392 -0.2204 -0.2149 -0.1589
 1590SOL    HW1 7790   0.842   7.316   1.317  2.2446 -0.3032 -0.2676
 1590SOL    HW2 7791   0.850   7.314   1.468  0.5895 -0.3043 -0.1719
 1591SOL     OW 7792   2.652   4.089   3.132  0.4894 -0.4117 -0.3033
 1591SOL    HW1 7793   2.725   4.087   3.194  0.0588 -2.1338  0.1854
 1591SOL    HW2 7794   2.682   4.145   3.060  1.9417 -0.4107  0.2931
 1592SOL     OW 7795   5.994   3.400   7.389  0.3854 -0.0140  0.2963
 1592SOL    HW1 7796   5.960   3.415   7.477 -0.0632  1.0444 -0.0456
 1592SOL    HW2 7797   6.053   3.474   7.373  1.9313 -1.1973  0.4232
 1593SOL     OW 7798   2.290   9.259   2.119  0.2143 -0.1491 -0.4660
 1593SOL    HW1 7799   2.195   9.268   2.110  0.2974  0.8662 -0.4197
 1593SOL    HW2 7800   2.325   9.296   2.038  0.6516  1.6894  0.5182
 1594SOL     OW 7801   2.272   5.663   7.706  0.3233  0.2174  0.0261
 1594SOL    HW1 7802   2.202   5.706   7.755  2.2017  1.5986  1.5795
 1594SOL    HW2 7803   2.251   5.570   7.712 -2.2829  0.6809 -1.0063
 1595SOL     OW 7804   3.740   6.764   3.206 -0.4280  0.0308 -0.5774
 1595SOL    HW1 7805   3.734   6.699   3.136  0.7224 -0.6962  0.0011
 1595SOL    HW2 7806   3.667   6.824   3.189 -0.1185 -0.0985 -2.4465
 1596SOL     OW 7807   9.424   9.386   9.400  0.1652 -0.6244 -0.7302
 1596SOL    HW1 7808   9.487   9.315   9.388  0.5188 -0.3864 -0.2989
 1596SOL    HW2 7809   9.344   9.354   9.357 -0.0543 -1.7998  0.5285
 1597SOL     OW 7810   4.707   8.493   8.375 -0.0877  0.4054 -0.0392
 1597SOL    HW1 7811   4.728   8.543   8.454 -0.3418 -0.7413  0.7648
 1597SOL    HW2 7812   4.791   8.460   8.345  0.1722  1.8867 -0.9709
 1598SOL     OW 7813   2.071   3.426   2.705  0.0134  0.2121  0.9553
 1598SOL    HW1 7814   2.030   3.407   2.789 -1.9857  3.6457  0.8408
 1598SOL    HW2 7815   2.041   3.355   2.648  0.6009 -1.6027  2.8675
 1599SOL     OW 7816   3.298   0.020   7.051 -0.3165 -0.5489  0.1877
 1599SOL    HW1 7817   3.287   0.083   6.981  1.7082 -0.3458  0.0145
 1599SOL    HW2 7818   3.221   0.031   7.106  0.7396  3.2069  1.0528
 1600SOL     OW 7819   4.511   1.068   4.989 -0.2563  0.1522 -0.3908
 1600SOL    HW1 7820   4.590   1.042   4.943 -1.0147 -1.1423 -0.9719
 1600SOL    HW2 7821   4.467   0.986   5.010 -1.0486  0.8271  0.6472
 1601SOL     OW 7822   4.723   6.948   3.292  0.1645  0.3114  0.2878
 1601SOL    HW1 7823   4.737   6.997   3.373 -0.0812 -0.0313  0.5413
 1601SOL    HW2 7824   4.811   6.928   3.261  0.2612 -0.4739  1.0416
 1602SOL     OW 7825   4.133   4.796   0.332  0.2211 -0.0105  0.3416
 1602SOL    HW1 7826   4.050   4.836   0.306  0.1638 -0.3953 -0.0531
 1602SOL    HW2 7827   4.163   4.748   0.255  0.8885  0.2484  0.4291
 1603SOL     OW 7828   1.429   4.284   6.671  0.2407 -0.2979  0.2294
 1603SOL    HW1 7829   1.402   4.348   6.738  0.8603 -1.0014  1.1566
 1603SOL    HW2 7830   1.482   4.335   6.610 -0.5883  0.4196  0.0899
 1604SOL     OW 7831   7.820   1.306   2.031 -0.3236  0.0703 -0.2391
 1604SOL    HW1 7832   7.912   1.295   2.054 -0.2283 -0.2528 -0.7634
 1604SOL    HW2 7833   7.813   1.271   1.942 -1.3097 -1.5318  0.4425
 1605SOL     OW 7834   2.882   7.637   8.635 -0.0246  0.3573 -0.2247
 1605SOL    HW1 7835   2.815   7.619   8.569 -0.5225  2.2615 -0.2607
 1605SOL    HW2 7836   2.835   7.631   8.719  0.4752 -1.4516 -0.0476
 1606SOL     OW 7837   2.403   2.995   0.484  0.4762 -0.3965 -0.8143
 1606SOL    HW1 7838   2.405   2.951   0.569  1.4573 -0.6702 -0.9677
 1606SOL    HW2 7839   2.443   2.932   0.424 -0.0388 -0.1267 -1.4398
 1607SOL     OW 7840   5.091   4.004   7.057 -0.3987  0.2180  0.0269
 1607SOL    HW1 7841   5.033   4.013   7.132  1.2599  2.2391  1.1139
 1607SOL    HW2 7842   5.165   3.952   7.089  0.7553  1.8614  0.0984
 1608SOL     OW 7843   7.316   3.793   4.961  0.5931 -0.2834  0.6260
 1608SOL    HW1 7844   7.317   3.703   4.992  1.3927 -0.2740  0.6350
 1608SOL    HW2 7845   7.353   3.844   5.033 -0.3187  0.1177  0.8192
 1609SOL     OW 7846   6.646   4.989   9.071 -0.3406  0.3756  0.0765
 1609SOL    HW1 7847   6.552   4.991   9.084 -0.4054 -0.1494 -0.2777
 1609SOL    HW2 7848   6.673   4.902   9.103 -0.3912 -0.6211 -2.4481
 1610SOL     OW 7849   1.083   7.110   3.391  0.3216  0.3203  0.4405
 1610SOL    HW1 7850   1.027   7.113   3.314 -0.4812  1.3125  1.0486
 1610SOL    HW2 7851   1.131   7.194   3.389 -0.2073  0.6479  1.3828
 1611SOL     OW 7852   4.808   3.945   5.731  0.4414  0.2408 -0.0004
 1611SOL    HW1 7853   4.832   3.854   5.748 -1.4436 -0.2025  0.4038
 1611SOL    HW2 7854   4.809   3.953   5.635 -1.6117 -0.8739 -0.1590
 1612SOL     OW 7855   2.029   3.771   6.099  0.7290  0.3025 -0.0335
 1612SOL    HW1 7856   1.966   3.842   6.115  1.5690  1.2819 -1.0105
 1612SOL    HW2 7857   2.007   3.705   6.164 -0.6351  1.0866  0.3287
 1613SOL     OW 7858   4.195   4.936   6.000 -0.6308 -0.6618 -0.5741
 1613SOL    HW1 7859   4.213   4.860   6.056  0.0065 -0.7565 -0.9034
 1613SOL    HW2 7860   4.123   4.981   6.044  1.6950  0.8146  1.8800
 1614SOL     OW 7861   0.019   9.401   2.416 -0.7204 -0.2781  0.4552
 1614SOL    HW1 7862  -0.027   9.465   2.470  0.9518 -0.4417  2.1451
 1614SOL    HW2 7863  -0.012   9.316   2.448 -1.7347 -0.3493 -0.6908
 1615SOL     OW 7864   2.556   2.715   4.605 -0.1721  0.0183 -0.3765
 1615SOL    HW1 7865   2.474   2.728   4.559 -1.9022 -0.1424  2.4924
 1615SOL    HW2 7866   2.542   2.635   4.657  0.9829  1.1485  1.7670
 1616SOL     OW 7867   5.819   3.120   3.203 -0.0841  0.0063 -0.2300
 1616SOL    HW1 7868   5.891   3.089   3.148  0.4040  0.0190  0.3922
 1616SOL    HW2 7869   5.765   3.173   3.145 -0.2492 -0.9873 -1.0063
 1617SOL     OW 7870   7.509   1.525   2.942 -0.1157 -0.8371  0.3662
 1617SOL    HW1 7871   7.552   1.499   2.861 -1.7830  0.0765 -0.8423
 1617SOL    HW2 7872   7.415   1.519   2.923 -0.5263 -0.0046  2.0166
 1618SOL     OW 7873   9.433   8.566   7.986  0.4318  0.1121 -0.7974
 1618SOL    HW1 7874   9.357   8.527   7.944 -0.3185  1.3017 -0.5579
 1618SOL    HW2 7875   9.454   8.642   7.932  0.8421  0.3539 -0.3038
 1619SOL     OW 7876   5.720   5.557   4.875 -0.4707 -0.1366  0.3971
 1619SOL    HW1 7877   5.731   5.589   4.965 -0.0220 -2.7247  1.2992
 1619SOL    HW2 7878   5.806   5.568   4.835 -1.0995  2.6274 -0.2991
 1620SOL     OW 7879   7.726   8.339   5.420  0.2257  0.4255  0.0004
 1620SOL    HW1 7880   7.689   8.251   5.424 -2.2201  1.3481 -1.1432
 1620SOL    HW2 7881   7.692   8.383   5.498 -0.1890  0.9496 -0.4712
 1621SOL     OW 7882   2.583   6.197   7.964 -0.3571  0.2587 -0.3291
 1621SOL    HW1 7883   2.662   6.186   8.017 -1.6059 -0.7719  1.3819
 1621SOL    HW2 7884   2.614   6.234   7.881  1.8123  0.5752  0.5946
 1622SOL     OW 7885   0.517   9.334   8.233  0.0580 -0.2303  0.6609
 1622SOL    HW1 7886   0.576   9.398   8.273  1.3053 -0.7269 -0.3179
 1622SOL    HW2 7887   0.571   9.255   8.224 -0.8046 -0.7348 -0.1231
 1623SOL     OW 7888   0.670   0.777   1.483 -0.0247  0.6596  0.2059
 1623SOL    HW1 7889   0.672   0.715   1.410 -0.0743  0.3969  0.4256
 1623SOL    HW2 7890   0.577   0.794   1.497 -0.0420  0.3496  0.5045
 1624SOL     OW 7891   6.198   1.840   3.525 -0.1397 -0.2295 -0.6385
 1624SOL    HW1 7892   6.154   1.864   3.607 -0.5651 -1.1069 -0.6076
 1624SOL    HW2 7893   6.177   1.747   3.513  0.1883 -0.1826 -1.5753
 1625SOL     OW 7894   2.257   2.313   5.223  0.0629  0.2001  0.4078
 1625SOL    HW1 7895   2.230   2.291   5.134  1.3114 -1.2148  0.3499
 1625SOL    HW2 7896   2.175   2.332   5.269 -0.6684  0.0062 -0.7965
 1626SOL     OW 7897   4.651   0.856   8.903 -0.7938 -0.0777  0.5723
 1626SOL    HW1 7898   4.563   0.868   8.941 -1.4001 -0.1514 -0.7879
 1626SOL    HW2 7899   4.709   0.853   8.979 -2.0143 -0.4441  1.5125
 1627SOL     OW 7900   3.564   0.092   2.480  0.0827  0.1685 -0.1141
 1627SOL    HW1 7901   3.593   0.152   2.411  0.1968  0.1957 -0.0425
 1627SOL    HW2 7902   3.497   0.038   2.438 -0.4385  0.7340 -0.0143
 1628SOL     OW 7903   8.693   4.376   7.535  0.0275 -0.6114 -0.2669
 1628SOL    HW1 7904   8.648   4.341   7.458 -0.0414  0.0086 -0.5044
 1628SOL    HW2 7905   8.773   4.415   7.501 -0.2991  0.2199 -0.1030
 1629SOL     OW 7906   2.489   8.561   3.942 -0.1235  0.5796 -1.2278
 1629SOL    HW1 7907   2.506   8.560   4.036 -1.2418  0.8051 -1.0176
 1629SOL    HW2 7908   2.574   8.544   3.902  0.1728 -0.5270 -0.1542
 1630SOL     OW 7909   3.996   0.271   0.074  0.4389 -0.1233 -0.2183
 1630SOL    HW1 7910   4.061   0.203   0.091  0.6498 -0.1141 -0.9655
 1630SOL    HW2 7911   3.959   0.249  -0.011  0.0392  0.3236 -0.1647
 1631SOL     OW 7912   4.434   4.631   1.452  0.2486 -0.3275  0.5379
 1631SOL    HW1 7913   4.443   4.714   1.499 -0.9619  0.0692  0.1052
 1631SOL    HW2 7914   4.523   4.610   1.423  0.3361  1.7598 -0.8869
 1632SOL     OW 7915   8.321   7.440   1.233 -0.6331  0.5028  0.1660
 1632SOL    HW1 7916   8.296   7.368   1.175  0.1964  0.3438 -0.0009
 1632SOL    HW2 7917   8.276   7.516   1.196  0.3229  0.5132 -1.0319
 1633SOL     OW 7918   8.289   3.757   2.279 -0.3048  0.6673 -0.2437
 1633SOL    HW1 7919   8.315   3.847   2.259 -1.0186  0.7379 -0.8879
 1633SOL    HW2 7920   8.280   3.755   2.374 -0.2678  1.2727 -0.2258
 1634SOL     OW 7921   8.561   4.430   0.564 -0.2053 -0.5211  0.1325
 1634SOL    HW1 7922   8.576   4.428   0.659 -1.1976  0.8239  0.3392
 1634SOL    HW2 7923   8.644   4.460   0.527 -0.0601 -0.2979  0.6355
 1635SOL     OW 7924   2.703   1.455   2.047 -0.4803 -0.3039  0.7385
 1635SOL    HW1 7925   2.773   1.518   2.031 -0.0366 -0.9843 -0.0492
 1635SOL    HW2 7926   2.705   1.398   1.970  0.4481 -2.5053  2.3456
 1636SOL     OW 7927   5.086   3.009   8.567 -0.2603 -0.1676 -0.5755
 1636SOL    HW1 7928   5.163   2.971   8.525  0.3012  0.7954 -0.4444
 1636SOL    HW2 7929   5.043   3.059   8.498  0.4371  1.0772 -0.1308
 1637SOL     OW 7930   1.233   0.988   7.889 -0.0953 -0.3272  0.3086
 1637SOL    HW1 7931   1.192   1.037   7.818 -1.7965 -1.5625  0.4173
 1637SOL    HW2 7932   1.234   1.049   7.963  1.1272  0.7562 -0.5822
 1638SOL     OW 7933   5.885   4.093   1.598  0.6855  0.4274  0.3959
 1638SOL    HW1 7934   5.918   4.015   1.644  2.5591  0.9024 -0.1074
 1638SOL    HW2 7935   5.955   4.116   1.537 -0.1027  2.1704  0.1310
 1639SOL     OW 7936   1.955   1.648   5.259 -0.5063  0.3639 -0.6095
 1639SOL    HW1 7937   1.983   1.738   5.277 -0.2484  0.0328  0.6790
 1639SOL    HW2 7938   2.020   1.593   5.303 -0.6544 -0.4653 -1.3995
 1640SOL     OW 7939   1.943   6.576   6.995 -0.2227 -0.5214 -0.6545
 1640SOL    HW1 7940   1.894   6.657   6.983  1.4699  0.2161 -2.7929
 1640SOL    HW2 7941   1.993   6.590   7.076 -0.8148  0.1112 -0.3985
 1641SOL     OW 7942   1.500   6.659   9.222  0.1343 -0.4645 -0.3925
 1641SOL    HW1 7943   1.404   6.662   9.216  0.0458 -1.0795  0.6761
 1641SOL    HW2 7944   1.525   6.586   9.165  0.0198  0.1153 -1.1928
 1642SOL     OW 7945   4.209   5.227   0.277 -0.0587  0.5091 -0.8027
 1642SOL    HW1 7946   4.241   5.316   0.263  2.7044  0.0598  2.0425
 1642SOL    HW2 7947   4.279   5.170   0.244  1.6214 -0.5041  4.0967
 1643SOL     OW 7948   7.327   4.514   6.543 -0.6070  0.5163 -0.1766
 1643SOL    HW1 7949   7.245   4.541   6.585 -0.9391 -0.3653 -0.2539
 1643SOL    HW2 7950   7.301   4.450   6.477  0.0683  0.8125 -0.7326
 1644SOL     OW 7951   7.798   9.001   4.219 -0.1493 -0.0485 -0.3146
 1644SOL    HW1 7952   7.796   8.906   4.221 -0.1104 -0.0265  1.6331
 1644SOL    HW2 7953   7.889   9.022   4.196 -0.1311 -0.4809 -0.6400
 1645SOL     OW 7954   1.043   3.517   7.753  0.3214 -0.1604  0.4391
 1645SOL    HW1 7955   0.972   3.540   7.813  1.8252  1.9174  1.4671
 1645SOL    HW2 7956   1.016   3.433   7.715 -0.5897 -1.6567  4.1863
 1646SOL     OW 7957   7.238   8.749   4.961 -0.3554  0.5006 -0.0480
 1646SOL    HW1 7958   7.264   8.657   4.959  1.9084  1.0993  0.8993
 1646SOL    HW2 7959   7.167   8.752   5.026  1.2541 -0.1740  1.7907
 1647SOL     OW 7960   1.571   7.443   0.094 -0.0273  0.7047 -0.5559
 1647SOL    HW1 7961   1.484   7.430   0.131  0.3863  0.6809  0.4158
 1647SOL    HW2 7962   1.613   7.504   0.155  0.8093  0.3221 -0.7555
 1648SOL     OW 7963   2.452   7.261   9.267  0.0179 -0.4812  0.0891
 1648SOL    HW1 7964   2.364   7.294   9.247 -0.3779 -2.1719 -1.0538
 1648SOL    HW2 7965   2.485   7.321   9.333 -2.9741 -1.2034  2.3725
 1649SOL     OW 7966   5.503   2.930   4.786 -0.5339  0.2820  0.4910
 1649SOL    HW1 7967   5.435   2.877   4.827  0.5421 -0.3156  1.5356
 1649SOL    HW2 7968   5.571   2.938   4.853  1.8641 -1.8634 -1.5685
 1650SOL     OW 7969   1.284   3.807   2.779 -0.0365  0.2346 -0.1795
 1650SOL    HW1 7970   1.360   3.750   2.789  2.3563  3.3292  0.2660
 1650SOL    HW2 7971   1.280   3.826   2.685 -0.9093 -0.7616 -0.3457
 1651SOL     OW 7972   3.054   1.754   4.701  0.0480 -0.3204 -0.2311
 1651SOL    HW1 7973   3.043   1.841   4.662  1.4147 -0.1864 -0.3386
 1651SOL    HW2 7974   3.084   1.772   4.790  1.4805 -0.7007 -0.6375
 1652SOL     OW 7975   0.476   0.129   6.520  0.2360  0.0716 -0.3197
 1652SOL    HW1 7976   0.571   0.121   6.523  0.3308  1.0327 -0.7390
 1652SOL    HW2 7977   0.449   0.077   6.445  0.3228 -1.1366  0.4721
 1653SOL     OW 7978   3.088   1.945   8.718 -0.1851 -0.2367  0.2406
 1653SOL    HW1 7979   3.130   1.962   8.803  0.8995 -0.2118 -0.2947
 1653SOL    HW2 7980   3.148   1.886   8.673 -0.7231 -0.1917 -0.5432
 1654SOL     OW 7981   1.609   8.849   4.431  0.0888  0.0005  0.0883
 1654SOL    HW1 7982   1.665   8.919   4.464 -2.4133  1.4188  1.5615
 1654SOL    HW2 7983   1.553   8.827   4.505 -2.8239  0.2652 -1.9185
 1655SOL     OW 7984   8.699   5.880   8.990 -0.4576  0.0962  0.5976
 1655SOL    HW1 7985   8.670   5.948   9.051 -1.2435  0.0154  0.3253
 1655SOL    HW2 7986   8.793   5.873   9.004 -0.4306  0.9974  0.8773
 1656SOL     OW 7987   4.702   2.877   3.325 -0.3887  0.6162 -0.3134
 1656SOL    HW1 7988   4.659   2.805   3.371 -0.0693 -0.7190 -2.0830
 1656SOL    HW2 7989   4.653   2.955   3.352 -0.5526 -0.1927  1.8469
 1657SOL     OW 7990   4.308   6.862   2.517  0.1672 -0.1965 -0.7481
 1657SOL    HW1 7991   4.295   6.836   2.608 -1.9545 -0.5645 -1.1333
 1657SOL    HW2 7992   4.392   6.823   2.492 -0.5678 -2.4460  0.1955
 1658SOL     OW 7993   0.154   2.398   3.838 -0.1462 -0.4683 -0.6251
 1658SOL    HW1 7994   0.062   2.382   3.817 -0.1975 -0.3350 -0.5008
 1658SOL    HW2 7995   0.192   2.310   3.847 -0.1373 -0.5300 -1.2079
 1659SOL     OW 7996   9.380   0.283   1.232  0.0518  0.2997 -0.0168
 1659SOL    HW1 7997   9.428   0.281   1.150  0.0880  1.0269 -0.0089
 1659SOL    HW2 7998   9.407   0.364   1.275 -0.4062  0.2105  0.4497
 1660SOL     OW 7999   3.083   9.373   8.211  0.1790  0.3719 -0.1660
 1660SOL    HW1 8000   3.075   9.432   8.136 -2.7223 -0.1983 -0.3740
 1660SOL    HW2 8001   3.130   9.297   8.177 -1.5479 -0.0934 -1.5844
 1661SOL     OW 8002   0.582   5.048   6.585  0.1305 -0.0397 -0.5528
 1661SOL    HW1 8003   0.661   5.100   6.592  0.6128 -0.6961 -1.0878
 1661SOL    HW2 8004   0.608   4.960   6.614 -0.7518  0.0810  0.6714
 1662SOL     OW 8005   3.114   6.988   1.177 -0.0408  0.0700 -0.3127
 1662SOL    HW1 8006   3.180   7.013   1.242  0.6072 -1.8042 -0.2204
 1662SOL    HW2 8007   3.154   6.916   1.129 -1.2948  0.1535 -1.5121
 1663SOL     OW 8008   5.842   0.840   7.615 -0.2069  0.3271  0.0073
 1663SOL    HW1 8009   5.857   0.924   7.657 -1.8731 -0.0565  1.4583
 1663SOL    HW2 8010   5.797   0.861   7.533  0.8579  0.9306 -0.4297
 1664SOL     OW 8011   9.165   5.799   8.851  0.2796  0.4808  0.0764
 1664SOL    HW1 8012   9.198   5.882   8.814  1.5481  0.5469  1.3203
 1664SOL    HW2 8013   9.203   5.795   8.938 -0.9518 -0.7331  0.5770
 1665SOL     OW 8014   3.219   3.074   1.943 -0.3503  0.2805  0.2916
 1665SOL    HW1 8015   3.264   3.035   1.869 -0.2745  0.8598  0.0328
 1665SOL    HW2 8016   3.128   3.045   1.934 -0.3959  0.5716 -0.1740
 1666SOL     OW 8017   0.291   3.010   0.973  0.1596 -0.2128  0.1772
 1666SOL    HW1 8018   0.227   2.974   0.911 -0.8992  1.2955  0.3509
 1666SOL    HW2 8019   0.251   2.997   1.058  1.7563 -2.5696  0.6211
 1667SOL     OW 8020   0.670   7.118   8.169  0.4847  0.0750  0.2991
 1667SOL    HW1 8021   0.726   7.157   8.101  0.5944  0.8623  0.8271
 1667SOL    HW2 8022   0.629   7.194   8.211  1.0476 -0.3637  1.6502
 1668SOL     OW 8023   5.816   8.100   3.130  0.8433  0.0926 -0.7925
 1668SOL    HW1 8024   5.786   8.036   3.065  2.0303 -0.7809 -0.4976
 1668SOL    HW2 8025   5.893   8.140   3.090  0.8351  0.4504 -0.4488
 1669SOL     OW 8026   4.380   4.942   4.440  0.5142  0.3890 -0.0617
 1669SOL    HW1 8027   4.404   5.034   4.439  0.0969  0.5192  1.0810
 1669SOL    HW2 8028   4.357   4.924   4.531 -0.4467 -0.5733 -0.4808
 1670SOL     OW 8029   2.263   4.427   6.677 -0.3205 -0.2373  0.0686
 1670SOL    HW1 8030   2.247   4.437   6.771 -3.3013 -0.7666 -0.3330
 1670SOL    HW2 8031   2.301   4.510   6.650 -1.0390  0.5616  1.4550
 1671SOL     OW 8032   5.317   7.257   1.663  0.3514  0.3737 -0.7142
 1671SOL    HW1 8033   5.288   7.347   1.674  0.0258  0.4400 -1.9954
 1671SOL    HW2 8034   5.393   7.248   1.721 -1.3881  0.5905  1.6261
 1672SOL     OW 8035   2.986   1.844   1.385  0.2659  0.0412  0.0329
 1672SOL    HW1 8036   2.946   1.912   1.330 -0.1434  0.4413  0.8197
 1672SOL    HW2 8037   3.075   1.876   1.400  0.8075 -0.7307 -1.5171
 1673SOL     OW 8038   8.496   2.656   4.313 -0.9213 -0.9359 -0.0984
 1673SOL    HW1 8039   8.423   2.648   4.374 -0.2250  0.9293  1.0309
 1673SOL    HW2 8040   8.574   2.660   4.369 -0.0276 -1.9834 -1.2382
 1674SOL     OW 8041   2.802   4.079   6.137 -0.1144  0.1096 -0.3307
 1674SOL    HW1 8042   2.847   4.162   6.150 -0.0189  0.0817 -0.4812
 1674SOL    HW2 8043   2.739   4.074   6.209  0.9481 -0.4088  0.5891
 1675SOL     OW 8044   8.419   4.166   7.607 -0.2168  0.5623 -0.1306
 1675SOL    HW1 8045   8.471   4.087   7.623  1.7557  1.8543  0.0720
 1675SOL    HW2 8046   8.452   4.201   7.525 -1.9753  0.5012 -0.8841
 1676SOL     OW 8047   6.471   5.694   6.715  0.1711  0.3500  0.0010
 1676SOL    HW1 8048   6.480   5.716   6.808  1.8020  0.4059 -0.1597
 1676SOL    HW2 8049   6.559   5.670   6.687 -0.2496  0.6158 -1.6179
 1677SOL     OW 8050   5.164   8.550   1.190 -0.2157  0.2583 -0.2655
 1677SOL    HW1 8051   5.179   8.524   1.280 -0.1313  1.2285  0.0002
 1677SOL    HW2 8052   5.250   8.549   1.149 -0.2037  0.1923 -0.2377
 1678SOL     OW 8053   6.376   0.376   7.675  0.5359  0.5296 -0.0454
 1678SOL    HW1 8054   6.415   0.303   7.627 -0.1542 -0.7408  1.2877
 1678SOL    HW2 8055   6.289   0.387   7.635  0.7662  0.8463 -0.4641
 1679SOL     OW 8056   4.822   0.429   7.869 -0.3367  0.2581  0.2139
 1679SOL    HW1 8057   4.755   0.495   7.852  0.4663  1.2340  0.7528
 1679SOL    HW2 8058   4.858   0.408   7.782 -0.3608  0.7850  0.0753
 1680SOL     OW 8059   2.860   2.238   5.230  0.1525 -0.3057 -0.4510
 1680SOL    HW1 8060   2.826   2.152   5.204 -2.0615  0.1190  0.9293
 1680SOL    HW2 8061   2.895   2.224   5.318 -0.8055  0.3413  0.0400
 1681SOL     OW 8062   5.130   3.100   2.659  0.3088  0.2324  0.4833
 1681SOL    HW1 8063   5.065   3.167   2.680 -0.7143 -0.1972 -1.2610
 1681SOL    HW2 8064   5.168   3.128   2.576  0.2950 -1.0160  0.0432
 1682SOL     OW 8065   8.521   5.687   2.546  0.6453 -0.3989  0.1627
 1682SOL    HW1 8066   8.554   5.624   2.482 -0.5470 -0.9094  0.0403
 1682SOL    HW2 8067   8.577   5.676   2.622  2.0092  0.1327 -0.7381
 1683SOL     OW 8068   2.529   1.993   2.479  0.1220  0.4165  0.4639
 1683SOL    HW1 8069   2.618   2.002   2.445  0.5643 -0.8949  1.2603
 1683SOL    HW2 8070   2.475   2.042   2.416  1.1088 -0.7585 -1.3384
 1684SOL     OW 8071   5.032   0.460   4.133  0.4161 -0.2700  0.2917
 1684SOL    HW1 8072   5.031   0.365   4.131 -4.2799 -0.3516  0.4635
 1684SOL    HW2 8073   5.000   0.486   4.047 -0.3041  1.0956  0.9511
 1685SOL     OW 8074   1.061   8.069   1.740 -0.7088  0.2500 -0.0902
 1685SOL    HW1 8075   1.086   8.077   1.832 -1.6581  1.9467  0.0423
 1685SOL    HW2 8076   1.115   8.134   1.695  2.3257 -2.9261 -1.3204
 1686SOL     OW 8077   4.451   6.924   3.307 -0.1423  0.2764 -0.1631
 1686SOL    HW1 8078   4.424   7.016   3.300  0.0786  0.4532  1.0796
 1686SOL    HW2 8079   4.546   6.925   3.292 -0.1451  0.2490 -0.1785
 1687SOL     OW 8080   7.854   4.215   1.788 -0.1580  0.4714  0.2018
 1687SOL    HW1 8081   7.948   4.212   1.803 -0.1138  0.4955 -0.0589
 1687SOL    HW2 8082   7.841   4.162   1.709 -0.5040 -0.5154  0.9022
 1688SOL     OW 8083   3.566   5.162   0.654 -0.2284  0.2897 -0.1810
 1688SOL    HW1 8084   3.548   5.188   0.744 -1.6596  0.2445 -0.4499
 1688SOL    HW2 8085   3.481   5.133   0.619  0.1350  1.1264 -1.8099
 1689SOL     OW 8086   2.364   4.574   9.129  0.2459 -0.1260  0.4313
 1689SOL    HW1 8087   2.332   4.530   9.050  0.3203 -1.4343  1.1147
 1689SOL    HW2 8088   2.310   4.653   9.136 -0.6113 -0.6470 -0.2350
 1690SOL     OW 8089   2.514   2.512   4.004  0.1296 -0.0100 -0.1468
 1690SOL    HW1 8090   2.607   2.535   4.009  0.1336 -0.1894  0.7014
 1690SOL    HW2 8091   2.468   2.592   4.029  0.0709 -0.1405  0.1582
 1691SOL     OW 8092   3.347   4.895   7.393 -0.1885  0.1428  0.1591
 1691SOL    HW1 8093   3.321   4.910   7.302  0.4795  3.0381  0.4092
 1691SOL    HW2 8094   3.432   4.850   7.387 -1.1721 -1.6910 -0.6020
 1692SOL     OW 8095   8.242   2.547   5.635 -0.0105  1.2242 -0.1900
 1692SOL    HW1 8096   8.313   2.601   5.600 -1.3709  2.3302 -1.3230
 1692SOL    HW2 8097   8.274   2.458   5.629  1.0375  1.6645 -1.3029
 1693SOL     OW 8098   0.893   6.393   3.700  0.2011 -0.2104  0.3570
 1693SOL    HW1 8099   0.865   6.320   3.644  0.0032 -0.4240  0.7294
 1693SOL    HW2 8100   0.857   6.371   3.786  1.4260 -0.4387  0.8188
 1694SOL     OW 8101   8.071   3.886   8.861  0.3954  0.0369 -0.0321
 1694SOL    HW1 8102   7.999   3.937   8.824  0.1692 -0.4836 -0.3045
 1694SOL    HW2 8103   8.038   3.796   8.864  0.6065 -0.0123  0.9284
 1695SOL     OW 8104   8.201   4.437   4.612  0.2035 -0.2817 -0.2093
 1695SOL    HW1 8105   8.156   4.352   4.605 -0.0556 -0.0647 -1.1727
 1695SOL    HW2 8106   8.131   4.499   4.633  0.6723 -0.6018  2.5142
 1696SOL     OW 8107   8.394   2.049   0.946  0.6949  0.1161  0.1991
 1696SOL    HW1 8108   8.347   2.075   0.867  2.0062  0.8687 -0.3455
 1696SOL    HW2 8109   8.371   1.956   0.957 -0.3672  0.2903 -0.4378
 1697SOL     OW 8110   1.877   2.965   1.525 -0.5559 -0.4004 -0.0370
 1697SOL    HW1 8111   1.827   2.914   1.589 -0.0525 -0.7625  0.0716
 1697SOL    HW2 8112   1.957   2.990   1.571 -1.1635  1.1776  0.1605
 1698SOL     OW 8113   1.718   1.570   8.027  0.1001 -0.0380 -0.1064
 1698SOL    HW1 8114   1.680   1.514   7.959  0.6763 -0.0934 -0.3858
 1698SOL    HW2 8115   1.705   1.659   7.995  1.3760 -0.1009 -0.8313
 1699SOL     OW 8116   5.894   3.436   4.550  0.2169  0.1442  0.0438
 1699SOL    HW1 8117   5.951   3.433   4.627 -0.0557  0.6209  0.2639
 1699SOL    HW2 8118   5.816   3.387   4.576  0.1417  0.2710  0.0526
 1700SOL     OW 8119   3.055   4.192   4.151  0.1239  0.2021  0.2995
 1700SOL    HW1 8120   3.039   4.246   4.074  0.8244  0.3457  0.2549
 1700SOL    HW2 8121   3.147   4.207   4.174  0.3492 -0.9947  0.2533
 1701SOL     OW 8122   6.314   0.099   2.554 -0.1157 -0.6161  0.1668
 1701SOL    HW1 8123   6.235   0.136   2.513 -0.5946 -1.7900  0.0185
 1701SOL    HW2 8124   6.288   0.011   2.580  0.2984 -0.0479  2.6635
 1702SOL     OW 8125   8.776   2.910   7.400 -0.1716  0.5691 -0.5115
 1702SOL    HW1 8126   8.815   2.898   7.487  0.3697  0.4791 -0.7668
 1702SOL    HW2 8127   8.801   2.832   7.351 -1.0642  0.2902 -0.5335
 1703SOL     OW 8128   7.733   9.067   7.679 -0.3591 -0.0838  0.1514
 1703SOL    HW1 8129   7.677   9.119   7.735 -0.6183 -0.5585  0.3295
 1703SOL    HW2 8130   7.705   9.088   7.590 -1.7308 -1.3398  0.2688
 1704SOL     OW 8131   2.850   6.687   4.764 -0.3032 -0.0846  0.0663
 1704SOL    HW1 8132   2.932   6.733   4.782  1.5774 -2.8016 -1.1285
 1704SOL    HW2 8133   2.867   6.638   4.684 -3.5506  0.2828 -0.9136
 1705SOL     OW 8134   7.891   2.426   0.587  0.4445  0.0331 -0.2186
 1705SOL    HW1 8135   7.971   2.460   0.547 -0.1260  0.6114 -0.8763
 1705SOL    HW2 8136   7.910   2.425   0.681  0.9522  0.9193 -0.3017
 1706SOL     OW 8137   4.496   6.519   5.979 -0.6504  0.4728 -0.0375
 1706SOL    HW1 8138   4.506   6.613   5.995 -0.9864  0.9719 -2.5342
 1706SOL    HW2 8139   4.403   6.509   5.956 -0.4272 -0.3597 -0.5732
 1707SOL     OW 8140   5.647   3.028   3.968  0.2406 -0.2560  0.0654
 1707SOL    HW1 8141   5.659   3.111   3.922 -1.8697 -0.3875 -0.7987
 1707SOL    HW2 8142   5.576   3.044   4.030 -0.3004 -1.4517 -0.2213
 1708SOL     OW 8143   7.999   3.116   2.051 -0.4157  0.0980  0.5314
 1708SOL    HW1 8144   8.001   3.020   2.061 -1.3453 -0.1920 -1.7156
 1708SOL    HW2 8145   7.912   3.135   2.017  0.7069  1.4309 -1.7479
 1709SOL     OW 8146   5.771   3.653   5.245 -0.2827 -0.1317  0.0220
 1709SOL    HW1 8147   5.713   3.582   5.274 -2.2428  1.4420  0.0952
 1709SOL    HW2 8148   5.715   3.709   5.191  0.4863  2.7011  2.0081
 1710SOL     OW 8149   8.421   8.017   1.423  0.9055 -0.6044 -0.4659
 1710SOL    HW1 8150   8.513   7.990   1.420  0.8215 -0.8498 -0.8451
 1710SOL    HW2 8151   8.376   7.943   1.462  1.1744  0.3675  1.7989
 1711SOL     OW 8152   6.738   5.650   6.710  0.2925 -0.3242  0.1804
 1711SOL    HW1 8153   6.753   5.558   6.691 -1.4583 -1.1912  2.7912
 1711SOL    HW2 8154   6.741   5.657   6.805 -2.8175  1.6802  0.2330
 1712SOL     OW 8155   7.381   1.568   0.690 -0.2875  0.1649 -0.2560
 1712SOL    HW1 8156   7.325   1.544   0.763 -0.0435 -2.3085 -0.8268
 1712SOL    HW2 8157   7.323   1.564   0.613  0.3774 -1.2096 -0.6925
 1713SOL     OW 8158   8.314   9.348   8.789 -0.3268 -0.2569 -0.1346
 1713SOL    HW1 8159   8.332   9.268   8.838 -0.5902  0.5021  1.2233
 1713SOL    HW2 8160   8.400   9.390   8.779 -0.2414 -0.5192 -0.5487
 1714SOL     OW 8161   3.268   8.642   4.177  0.0154 -0.5433 -0.0627
 1714SOL    HW1 8162   3.328   8.680   4.241  1.1949 -0.5634 -1.1357
 1714SOL    HW2 8163   3.242   8.716   4.122  2.8322 -1.3055 -2.5711
 1715SOL     OW 8164   2.351   7.838   7.713 -0.2646  0.0495 -0.0227
 1715SOL    HW1 8165   2.403   7.850   7.634 -2.2272  0.9084 -1.2200
 1715SOL    HW2 8166   2.334   7.926   7.745 -1.5766 -0.1779 -0.0527
 1716SOL     OW 8167   2.143   8.846   2.398  0.6482  0.0483  0.5259
 1716SOL    HW1 8168   2.227   8.802   2.389  0.0197 -1.4986  1.9320
 1716SOL    HW2 8169   2.079   8.780   2.372 -0.0475  1.8808 -2.5996
 1717SOL     OW 8170   4.759   5.469   4.689  0.0375  0.2763 -0.2297
 1717SOL    HW1 8171   4.784   5.420   4.767 -0.5946 -0.4908 -0.4904
 1717SOL    HW2 8172   4.689   5.527   4.718  0.1881  0.3965 -0.1067
 1718SOL     OW 8173   1.001   2.207   5.327  0.1547 -0.4302 -0.1736
 1718SOL    HW1 8174   1.026   2.282   5.380  0.4438  0.2527 -1.2626
 1718SOL    HW2 8175   0.917   2.231   5.290  0.7764 -0.1563 -1.4341
 1719SOL     OW 8176   0.317   3.045   3.692  0.1792  0.2046 -0.1248
 1719SOL    HW1 8177   0.382   3.044   3.621  1.8729 -2.4762  1.4027
 1719SOL    HW2 8178   0.357   3.098   3.761  0.0210 -0.0653  0.1765
 1720SOL     OW 8179   2.829   1.600   6.794  0.1216  0.1630 -0.6029
 1720SOL    HW1 8180   2.895   1.603   6.864 -0.2201  0.2273 -0.2795
 1720SOL    HW2 8181   2.755   1.554   6.834 -0.0982  0.2573 -0.9055
 1721SOL     OW 8182   0.585   6.512   5.091  0.1719  0.2516 -0.0434
 1721SOL    HW1 8183   0.634   6.521   5.010 -0.4944  1.6348 -0.3080
 1721SOL    HW2 8184   0.640   6.552   5.158  1.3176 -2.0880  0.4409
 1722SOL     OW 8185   2.995   1.773   6.073  0.0567 -0.0773 -0.1955
 1722SOL    HW1 8186   2.910   1.731   6.060  0.0529 -0.8654  2.1774
 1722SOL    HW2 8187   2.996   1.798   6.165  3.1400 -1.8463  0.3390
 1723SOL     OW 8188   2.353   0.711   2.415 -0.0265  0.1207  0.4695
 1723SOL    HW1 8189   2.304   0.687   2.494  0.6339 -0.7830  0.6116
 1723SOL    HW2 8190   2.364   0.806   2.421 -1.5727  0.3123  0.5430
 1724SOL     OW 8191   8.451   5.217   4.946 -0.0514  0.4503 -0.2491
 1724SOL    HW1 8192   8.514   5.199   5.016 -1.9437 -1.4630  1.0344
 1724SOL    HW2 8193   8.367   5.227   4.992 -0.9741  1.2772 -2.0669
 1725SOL     OW 8194   7.656   9.151   8.591 -0.2769 -0.2140  0.2479
 1725SOL    HW1 8195   7.690   9.149   8.680 -1.9188  0.8939  0.9247
 1725SOL    HW2 8196   7.564   9.126   8.600 -1.1152  2.3298 -0.7775
 1726SOL     OW 8197   0.501   2.940   7.511 -0.0668 -0.0544  0.2140
 1726SOL    HW1 8198   0.435   2.878   7.543 -1.0905  1.1518  0.4440
 1726SOL    HW2 8199   0.533   2.984   7.590 -0.6114  0.9697 -0.1398
 1727SOL     OW 8200   2.888   1.700   2.326 -0.1069 -0.1340 -0.5839
 1727SOL    HW1 8201   2.849   1.728   2.409  0.3137 -0.5737 -0.2351
 1727SOL    HW2 8202   2.815   1.662   2.277 -0.3818  0.2410 -0.4659
 1728SOL     OW 8203   1.756   5.900   2.707  0.4228 -0.5108 -0.0875
 1728SOL    HW1 8204   1.738   5.990   2.732  0.7410 -0.4611 -0.0287
 1728SOL    HW2 8205   1.687   5.877   2.646  0.4299 -0.1755 -0.2224
 1729SOL     OW 8206   8.899   6.326   4.840 -0.0943  0.3959 -0.2391
 1729SOL    HW1 8207   8.847   6.337   4.919  0.5587 -0.8920  0.3965
 1729SOL    HW2 8208   8.871   6.396   4.782 -1.7669  0.3617  0.5060
 1730SOL     OW 8209   6.103   1.296   3.040 -0.0921 -0.1637  0.0465
 1730SOL    HW1 8210   6.144   1.376   3.008 -0.9787 -0.3411 -1.6380
 1730SOL    HW2 8211   6.171   1.250   3.088  0.3598  1.7022  1.2123
 1731SOL     OW 8212   7.565   6.873   3.841  0.5377 -0.0339 -0.4148
 1731SOL    HW1 8213   7.575   6.833   3.928  0.4109  2.7676  0.9509
 1731SOL    HW2 8214   7.471   6.870   3.824  0.5385 -0.3980 -0.3656
 1732SOL     OW 8215   7.544   2.074   0.509 -0.1594  0.5754  0.6526
 1732SOL    HW1 8216   7.475   2.129   0.472 -1.9042  0.6348  3.8000
 1732SOL    HW2 8217   7.498   2.011   0.564  2.2214 -0.1875  1.8712
 1733SOL     OW 8218   3.636   6.816   7.005 -0.1681 -0.1574  0.5557
 1733SOL    HW1 8219   3.651   6.816   7.100 -0.9023 -0.5088  0.6727
 1733SOL    HW2 8220   3.607   6.727   6.986 -0.3553  0.0130  0.0480
 1734SOL     OW 8221   1.521   5.227   1.882  0.0752  0.3090  0.1718
 1734SOL    HW1 8222   1.599   5.206   1.933  0.2327  1.3399  0.3542
 1734SOL    HW2 8223   1.449   5.190   1.934  0.3641  0.0412  0.3875
 1735SOL     OW 8224   3.707   8.009   6.171  0.1397 -0.4865 -0.1157
 1735SOL    HW1 8225   3.711   8.068   6.247  0.1177  0.6092 -0.9636
 1735SOL    HW2 8226   3.614   8.007   6.147  0.2258 -0.4129 -0.4527
 1736SOL     OW 8227   6.619   3.271   5.172  0.1743 -0.0027 -0.3899
 1736SOL    HW1 8228   6.618   3.284   5.077 -0.3017 -1.1225 -0.5404
 1736SOL    HW2 8229   6.604   3.177   5.184 -1.1116  0.3396  0.8416
 1737SOL     OW 8230   7.487   4.753   8.041  0.1675  0.9708  0.1417
 1737SOL    HW1 8231   7.504   4.664   8.009  1.0370  0.9150  0.7241
 1737SOL    HW2 8232   7.413   4.783   7.989 -0.2193 -0.1421  0.0283
 1738SOL     OW 8233   0.693   3.321   1.933 -0.1983 -0.6401  0.4590
 1738SOL    HW1 8234   0.658   3.394   1.881  0.1728  0.3396  1.5472
 1738SOL    HW2 8235   0.650   3.243   1.898 -0.9249  0.1577 -0.4424
 1739SOL     OW 8236   3.080   7.302   2.670 -0.4703 -0.3841  0.1067
 1739SOL    HW1 8237   3.049   7.225   2.623 -2.2089  0.3324  0.0402
 1739SOL    HW2 8238   3.130   7.267   2.744  0.7458 -1.5247 -1.2310
 1740SOL     OW 8239   4.361   0.658   6.420 -0.1697 -0.3036  0.0095
 1740SOL    HW1 8240   4.338   0.746   6.392 -1.0945 -0.8902 -1.1314
 1740SOL    HW2 8241   4.455   0.660   6.433 -0.0577  0.5951 -0.9147
 1741SOL     OW 8242   9.272   8.986   3.795 -0.4524 -0.4228 -0.1443
 1741SOL    HW1 8243   9.184   8.950   3.783 -0.3913 -0.3799 -0.7610
 1741SOL    HW2 8244   9.259   9.081   3.800 -0.2509 -0.2325 -2.4395
 1742SOL     OW 8245   6.167   7.736   3.979  0.3251  0.2719  0.0036
 1742SOL    HW1 8246   6.149   7.642   3.980  1.3072  0.0816  0.3284
 1742SOL    HW2 8247   6.085   7.776   4.008 -0.5127 -0.4108 -1.3583
 1743SOL     OW 8248   3.003   6.294   5.577  0.2138  0.1514 -0.2090
 1743SOL    HW1 8249   2.990   6.288   5.482 -0.3705  0.3200 -0.1411
 1743SOL    HW2 8250   2.960   6.376   5.602 -0.5013 -0.3927  0.3537
 1744SOL     OW 8251   9.409   0.479   1.424  0.2322 -0.0321 -0.3451
 1744SOL    HW1 8252   9.327   0.505   1.466  2.4521  2.3540  2.7337
 1744SOL    HW2 8253   9.437   0.557   1.377  0.9388 -0.7245 -1.0929
 1745SOL     OW 8254   3.019   0.949   1.416 -0.2716 -0.0424 -0.1771
 1745SOL    HW1 8255   3.069   0.867   1.416 -1.0827 -0.5592  0.6618
 1745SOL    HW2 8256   3.027   0.983   1.327  2.2958  0.3510  0.1871
 1746SOL     OW 8257   7.748   4.438   5.807 -0.6674 -0.3527  0.5971
 1746SOL    HW1 8258   7.729   4.419   5.899  0.2847  2.0043  1.3382
 1746SOL    HW2 8259   7.810   4.511   5.811 -1.4600  0.4981 -1.9411
 1747SOL     OW 8260   0.257   8.330   1.232 -0.5803  0.1064  0.3294
 1747SOL    HW1 8261   0.240   8.322   1.326  0.4722 -0.9832  0.4338
 1747SOL    HW2 8262   0.273   8.240   1.203 -1.0449  0.4183 -0.9268
 1748SOL     OW 8263   0.516   8.600   5.210  1.3047  0.0357  0.0202
 1748SOL    HW1 8264   0.544   8.655   5.283  1.0227  0.0574  0.1143
 1748SOL    HW2 8265   0.422   8.617   5.203  1.2953 -0.1185 -0.2185
 1749SOL     OW 8266   3.340   1.039   8.885 -0.0412 -0.4455  0.1984
 1749SOL    HW1 8267   3.324   1.000   8.800 -0.1800  0.1303 -0.0396
 1749SOL    HW2 8268   3.372   1.127   8.866  1.6596 -0.9358  0.6965
 1750SOL     OW 8269   5.519   1.906   8.994 -0.1867  0.3093 -0.4123
 1750SOL    HW1 8270   5.446   1.868   9.043 -0.6449 -0.0035 -1.3375
 1750SOL    HW2 8271   5.579   1.833   8.978 -0.0403  0.4095 -0.3316
 1751SOL     OW 8272   1.828   6.034   4.414  0.0158 -0.1968 -0.2648
 1751SOL    HW1 8273   1.864   6.062   4.330 -2.5388  1.1198 -0.9518
 1751SOL    HW2 8274   1.804   6.116   4.458 -1.4520 -1.0232  0.4842
 1752SOL     OW 8275   2.577   2.493   5.726  0.1398 -0.2438  0.2475
 1752SOL    HW1 8276   2.606   2.417   5.776  1.7200  1.1970  1.5988
 1752SOL    HW2 8277   2.573   2.564   5.790 -0.7451  0.9460 -1.0888
 1753SOL     OW 8278   3.097   2.100   6.163 -0.7432  0.2498  0.2483
 1753SOL    HW1 8279   3.085   2.115   6.257 -1.0130  1.9937 -0.0332
 1753SOL    HW2 8280   3.019   2.051   6.136 -0.4522 -0.6302  1.0200
 1754SOL     OW 8281   0.345   2.644   6.607  0.3618 -0.3606  0.0046
 1754SOL    HW1 8282   0.328   2.725   6.654  0.2936 -0.9625  1.0226
 1754SOL    HW2 8283   0.261   2.621   6.567  0.4711  0.2557 -0.5790
 1755SOL     OW 8284   7.709   2.864   4.104  0.0649  0.4574  0.4216
 1755SOL    HW1 8285   7.618   2.845   4.081 -0.3251  0.8833  1.5583
 1755SOL    HW2 8286   7.758   2.787   4.074 -0.3599  1.0948 -2.0302
 1756SOL     OW 8287   1.842   1.935   7.460  0.0053  0.4482 -0.8759
 1756SOL    HW1 8288   1.862   1.847   7.493 -1.3588  0.8942  1.2212
 1756SOL    HW2 8289   1.808   1.920   7.372  0.1868 -1.0940 -0.7061
 1757SOL     OW 8290   2.486   9.060   3.471  0.0244 -0.4030  0.6617
 1757SOL    HW1 8291   2.462   9.148   3.441  1.5279  0.0612  0.7805
 1757SOL    HW2 8292   2.460   9.002   3.399  0.0254  0.2656  0.1185
 1758SOL     OW 8293   9.234   2.607   0.285  0.1215 -0.1822  0.8154
 1758SOL    HW1 8294   9.198   2.567   0.206  2.2221  1.4330 -1.0426
 1758SOL    HW2 8295   9.205   2.698   0.281  0.9532  0.1210  1.4378
 1759SOL     OW 8296   8.381   6.393   8.633 -0.0149 -0.8443 -0.5184
 1759SOL    HW1 8297   8.345   6.463   8.687 -0.2317 -1.5194  0.2303
 1759SOL    HW2 8298   8.304   6.349   8.598  0.1276 -0.4397 -1.3321
 1760SOL     OW 8299   0.985   4.074   0.957  0.4544  0.4042  0.0229
 1760SOL    HW1 8300   0.996   4.151   1.013  1.1046  0.4011 -0.1003
 1760SOL    HW2 8301   1.059   4.018   0.978  1.6495  1.1533 -2.0508
 1761SOL     OW 8302   7.843   5.554   6.943 -0.3955 -0.0183  0.2777
 1761SOL    HW1 8303   7.859   5.521   7.031  2.6854 -0.3070 -0.3322
 1761SOL    HW2 8304   7.748   5.564   6.938 -0.5980  0.5740  3.8246
 1762SOL     OW 8305   5.186   9.317   1.344  0.4428 -0.3400  0.7929
 1762SOL    HW1 8306   5.095   9.289   1.356 -0.0269  0.3612 -0.9594
 1762SOL    HW2 8307   5.206   9.368   1.423 -0.4460 -1.1024  1.5187
 1763SOL     OW 8308   3.076   5.802   4.994 -0.1744 -0.3722 -0.2865
 1763SOL    HW1 8309   3.033   5.885   5.016 -0.5583 -0.3055 -1.2718
 1763SOL    HW2 8310   3.141   5.790   5.063 -2.1577 -0.7543  1.5774
 1764SOL     OW 8311   1.424   1.602   2.742 -0.2775  0.1777 -0.2987
 1764SOL    HW1 8312   1.473   1.527   2.711 -0.2265  0.4506 -0.8829
 1764SOL    HW2 8313   1.332   1.575   2.739 -0.1932 -0.2013  0.4353
 1765SOL     OW 8314   5.178   7.064   5.683  0.0011 -0.0595 -0.1481
 1765SOL    HW1 8315   5.117   7.043   5.754  0.2326 -1.3167 -0.3014
 1765SOL    HW2 8316   5.213   6.979   5.656  2.0190  0.6474  0.1080
 1766SOL     OW 8317   5.411   8.397   1.828 -0.1469  0.2551  0.1906
 1766SOL    HW1 8318   5.445   8.375   1.741  0.4831 -0.4256  0.5953
 1766SOL    HW2 8319   5.444   8.327   1.885  0.4093  1.3121  1.1955
 1767SOL     OW 8320   8.605   7.666   0.984  0.2336 -0.1240  0.1064
 1767SOL    HW1 8321   8.514   7.675   1.011  0.6239 -0.6474  1.6962
 1767SOL    HW2 8322   8.651   7.737   1.030  0.7946 -0.5234  0.1735
 1768SOL     OW 8323   9.210   9.269   3.790  0.0788 -0.2286 -0.3758
 1768SOL    HW1 8324   9.184   9.334   3.855 -2.8567  0.0644 -1.7444
 1768SOL    HW2 8325   9.148   9.280   3.718  2.6381 -1.1796 -2.8569
 1769SOL     OW 8326   4.957   6.511   6.079  0.4910  0.1893 -0.7281
 1769SOL    HW1 8327   5.035   6.458   6.095  0.2323 -0.9215 -2.8919
 1769SOL    HW2 8328   4.894   6.449   6.042 -0.9600  1.3451 -0.2188
 1770SOL     OW 8329   7.246   8.884   7.450 -0.1405  0.1279  0.2456
 1770SOL    HW1 8330   7.186   8.822   7.491 -0.8217  1.5681  1.4219
 1770SOL    HW2 8331   7.333   8.849   7.469 -0.5664 -1.9408 -1.4229
 1771SOL     OW 8332   4.214   2.369   3.672  0.2284  0.2855 -0.7437
 1771SOL    HW1 8333   4.147   2.437   3.682  0.8020  0.5427  1.5785
 1771SOL    HW2 8334   4.165   2.287   3.679 -0.3280  0.4202 -2.6198
 1772SOL     OW 8335   6.252   3.874   3.658  0.4058 -0.3277  0.1507
 1772SOL    HW1 8336   6.292   3.957   3.684  1.0527 -0.8988  0.9902
 1772SOL    HW2 8337   6.290   3.856   3.572  0.0863  0.3629 -0.1393
 1773SOL     OW 8338   4.242   0.269   2.902  0.2075  0.5014 -0.0764
 1773SOL    HW1 8339   4.244   0.360   2.874 -0.7363  0.7383  0.6335
 1773SOL    HW2 8340   4.207   0.221   2.827  0.2090  0.7874 -0.2593
 1774SOL     OW 8341   1.306   1.184   2.716  0.2676 -0.0282  0.1827
 1774SOL    HW1 8342   1.363   1.152   2.646  0.8586 -0.3819  0.8174
 1774SOL    HW2 8343   1.243   1.239   2.672  0.7314 -0.1253 -0.6157
 1775SOL     OW 8344   3.686   4.346   7.363  0.6829 -0.3925 -0.1621
 1775SOL    HW1 8345   3.721   4.383   7.282 -2.4130  3.7290  0.2562
 1775SOL    HW2 8346   3.755   4.360   7.427  2.1027 -1.2877 -1.4438
 1776SOL     OW 8347   2.998   5.564   4.273  0.0542  0.4636  0.0642
 1776SOL    HW1 8348   3.081   5.608   4.289 -0.1726  0.3721  1.5380
 1776SOL    HW2 8349   2.955   5.617   4.205  0.0247  2.2005  1.4091
 1777SOL     OW 8350   1.326   1.555   6.148  0.2823  0.3738  0.0980
 1777SOL    HW1 8351   1.406   1.602   6.169 -0.8567  2.1238  0.6454
 1777SOL    HW2 8352   1.271   1.566   6.226  0.6485 -3.4019  0.9692
 1778SOL     OW 8353   5.344   4.686   3.524  0.2139 -0.1030  0.0088
 1778SOL    HW1 8354   5.327   4.648   3.438  0.7465  1.1427 -0.6679
 1778SOL    HW2 8355   5.265   4.670   3.575 -1.9840  3.2211 -2.1835
 1779SOL     OW 8356   3.831   2.317   2.197  0.2870 -0.1772 -0.7056
 1779SOL    HW1 8357   3.916   2.340   2.159 -0.8599  0.5535 -2.8999
 1779SOL    HW2 8358   3.808   2.233   2.156 -0.3316 -0.0713 -0.5826
 1780SOL     OW 8359   1.724   1.548   3.557 -0.0041  0.2840 -0.3084
 1780SOL    HW1 8360   1.805   1.583   3.519  0.3414 -0.3145 -0.1199
 1780SOL    HW2 8361   1.725   1.578   3.648 -0.4867  1.1215 -0.5746
 1781SOL     OW 8362   0.231   0.925   7.642 -0.1237  0.1993  0.3644
 1781SOL    HW1 8363   0.151   0.886   7.607  0.3775 -0.3723 -0.1427
 1781SOL    HW2 8364   0.267   0.859   7.701 -0.6350  0.9169  1.4910
 1782SOL     OW 8365   9.184   7.747   8.190  0.1967  0.2787  0.2414
 1782SOL    HW1 8366   9.098   7.716   8.219 -0.3226  0.4213 -1.1031
 1782SOL    HW2 8367   9.203   7.821   8.247 -0.9658  0.7812  0.0112
 1783SOL     OW 8368   7.712   2.103   6.166 -0.2886 -0.2960  0.2114
 1783SOL    HW1 8369   7.711   2.082   6.073  0.0779  2.4882 -0.4901
 1783SOL    HW2 8370   7.731   2.020   6.210 -2.9649 -2.1443 -2.0022
 1784SOL     OW 8371   1.121   2.735   6.258  0.5227 -0.4145 -0.3183
 1784SOL    HW1 8372   1.064   2.664   6.287 -1.4863  1.0876 -0.4976
 1784SOL    HW2 8373   1.200   2.691   6.227  0.2117 -2.4252  1.6283
 1785SOL     OW 8374   1.547   5.866   1.471 -0.7121  0.1626 -0.1252
 1785SOL    HW1 8375   1.544   5.958   1.497 -0.9883  0.1768 -0.2092
 1785SOL    HW2 8376   1.482   5.858   1.401  0.0952  0.1466 -0.8870
 1786SOL     OW 8377   2.705   0.886   3.504 -0.3052 -0.0238  0.0080
 1786SOL    HW1 8378   2.790   0.905   3.545 -0.1674 -0.9002  0.1517
 1786SOL    HW2 8379   2.666   0.972   3.487  0.8546  0.3947 -0.5661
 1787SOL     OW 8380   8.333   5.558   1.255  0.5570  0.2440 -0.1703
 1787SOL    HW1 8381   8.284   5.513   1.324  1.6017 -0.5839  0.0491
 1787SOL    HW2 8382   8.390   5.619   1.302 -0.3303  1.2811 -0.4301
 1788SOL     OW 8383   8.037   3.000   0.580 -0.0180 -0.7017  1.2019
 1788SOL    HW1 8384   8.028   3.056   0.657 -0.1309 -0.2645  0.8745
 1788SOL    HW2 8385   8.108   2.940   0.602 -0.9940 -1.5038  2.1992
 1789SOL     OW 8386   7.918   1.655   6.795 -0.3150 -0.2723  0.3101
 1789SOL    HW1 8387   7.894   1.612   6.714 -0.6736  1.1270 -0.3486
 1789SOL    HW2 8388   7.846   1.636   6.855 -0.5376 -0.4537 -0.0154
 1790SOL     OW 8389   8.020   9.441   7.379 -0.1583 -0.6704  0.3541
 1790SOL    HW1 8390   7.938   9.397   7.356 -0.5434  0.4847 -0.4889
 1790SOL    HW2 8391   7.993   9.520   7.425  0.4804 -0.2423 -0.0021
 1791SOL     OW 8392   8.137   9.010   3.908 -0.1155  0.0717  0.5582
 1791SOL    HW1 8393   8.232   9.018   3.906 -0.1778  1.0542  1.3206
 1791SOL    HW2 8394   8.109   9.068   3.979 -1.3696  0.6143 -0.3671
 1792SOL     OW 8395   1.880   6.464   4.519 -0.3373 -0.3119  0.3644
 1792SOL    HW1 8396   1.790   6.443   4.546 -0.8344  0.4406 -0.6346
 1792SOL    HW2 8397   1.868   6.518   4.440  0.9326  1.6664  1.4800
 1793SOL     OW 8398   1.318   8.980   6.166  0.0652 -0.0947  0.3569
 1793SOL    HW1 8399   1.410   8.977   6.191  0.0667 -1.4516  0.2016
 1793SOL    HW2 8400   1.295   8.889   6.146 -1.5712  0.0746  1.3646
 1794SOL     OW 8401   5.260   2.416   9.067 -0.0475  0.6402  0.1882
 1794SOL    HW1 8402   5.243   2.414   9.161 -2.4242  0.9755 -0.2027
 1794SOL    HW2 8403   5.223   2.500   9.038  0.9505  0.6814 -0.9952
 1795SOL     OW 8404   3.855   9.139   7.827 -0.3679  0.2707 -0.2570
 1795SOL    HW1 8405   3.914   9.180   7.891 -0.6919  0.7121 -0.2353
 1795SOL    HW2 8406   3.768   9.150   7.865 -0.4687 -0.3652 -0.2980
 1796SOL     OW 8407   2.071   5.464   0.495 -0.4280  0.6231 -0.5138
 1796SOL    HW1 8408   2.087   5.542   0.442 -0.3746  1.0246  0.0895
 1796SOL    HW2 8409   2.151   5.452   0.546 -0.6425  0.4909 -0.2053
 1797SOL     OW 8410   5.040   1.581   1.450 -0.5307  0.7993  0.2169
 1797SOL    HW1 8411   5.055   1.675   1.439 -0.2220  0.6501 -0.6285
 1797SOL    HW2 8412   5.030   1.547   1.361  0.9623 -0.2336  0.4257
 1798SOL     OW 8413   1.900   4.760   2.459 -0.0232  0.1018 -0.1737
 1798SOL    HW1 8414   1.966   4.798   2.401 -0.2814 -1.6889 -1.6950
 1798SOL    HW2 8415   1.825   4.818   2.450  0.4548  0.6837 -0.4623
 1799SOL     OW 8416   2.930   3.106   3.380 -0.1485 -0.5995 -0.0801
 1799SOL    HW1 8417   2.972   3.188   3.405 -1.6342  0.6868 -1.6898
 1799SOL    HW2 8418   2.845   3.132   3.345 -0.9110 -2.8825 -0.0367
 1800SOL     OW 8419   8.692   9.431   7.084  0.6564 -0.6438  0.0315
 1800SOL    HW1 8420   8.754   9.502   7.102 -0.9437  0.6518  0.6318
 1800SOL    HW2 8421   8.668   9.399   7.171 -2.0499  1.1556  0.0215
 1801SOL     OW 8422   2.463   3.799   2.189 -0.5029 -0.5616  0.0445
 1801SOL    HW1 8423   2.375   3.782   2.221 -0.5543  0.3967  0.4329
 1801SOL    HW2 8424   2.519   3.789   2.267 -0.7559  2.8901  0.7399
 1802SOL     OW 8425   1.741   5.249   2.040 -0.1035 -0.4787  0.0988
 1802SOL    HW1 8426   1.770   5.159   2.056 -0.0665 -0.3225  0.9333
 1802SOL    HW2 8427   1.817   5.292   2.001 -0.6796 -1.2674 -1.9547
 1803SOL     OW 8428   1.827   1.364   7.418 -0.0935 -0.3601 -0.2758
 1803SOL    HW1 8429   1.781   1.386   7.337  1.9637 -2.7552 -2.1695
 1803SOL    HW2 8430   1.813   1.270   7.428  3.1767 -0.8948 -0.1913
 1804SOL     OW 8431   0.634   4.537   4.839  0.1497  0.1717 -0.1719
 1804SOL    HW1 8432   0.723   4.565   4.860 -0.6419  1.7656  1.1923
 1804SOL    HW2 8433   0.646   4.459   4.785  2.4064  1.2117 -1.2738
 1805SOL     OW 8434   2.219   0.881   3.526  0.1812  0.0225  0.1465
 1805SOL    HW1 8435   2.285   0.812   3.528 -2.3169 -2.5077 -0.9204
 1805SOL    HW2 8436   2.171   0.866   3.444 -1.5509  1.9126  0.7720
 1806SOL     OW 8437   8.171   1.744   1.007  0.1191 -0.3629 -0.2537
 1806SOL    HW1 8438   8.190   1.780   1.094  0.5239  0.7221 -0.7747
 1806SOL    HW2 8439   8.113   1.670   1.023  1.0155 -0.7966  1.0213
 1807SOL     OW 8440   6.064   1.945   5.857 -0.3885  0.0936 -0.0359
 1807SOL    HW1 8441   5.985   1.945   5.911 -2.1294  2.5370 -2.3796
 1807SOL    HW2 8442   6.044   1.883   5.786  0.8090 -1.1202  0.6738
 1808SOL     OW 8443   1.974   4.839   5.435 -0.0763 -0.4038  0.6203
 1808SOL    HW1 8444   1.925   4.760   5.455 -0.3971  0.0774  1.7703
 1808SOL    HW2 8445   1.909   4.897   5.394  0.6765 -1.5482 -2.3610
 1809SOL     OW 8446   5.410   1.339   2.819 -0.8562 -0.2212  0.1513
 1809SOL    HW1 8447   5.489   1.348   2.766 -2.0083  1.0887 -1.3920
 1809SOL    HW2 8448   5.395   1.244   2.823 -0.1016 -0.3980 -0.9020
 1810SOL     OW 8449   8.135   5.597   8.625 -0.2262 -0.6223 -0.3301
 1810SOL    HW1 8450   8.139   5.626   8.716 -1.1883  0.2676 -0.5743
 1810SOL    HW2 8451   8.221   5.618   8.590 -0.7463  1.4636 -0.3683
 1811SOL     OW 8452   4.119   5.950   5.743 -0.0098  0.7288  0.2358
 1811SOL    HW1 8453   4.083   5.947   5.655 -1.4987 -1.4092  0.9011
 1811SOL    HW2 8454   4.165   5.867   5.754  1.2457  1.5004  1.0587
 1812SOL     OW 8455   6.350   6.109   2.033  0.3559 -0.0923 -0.3145
 1812SOL    HW1 8456   6.279   6.169   2.012 -0.3487 -0.4178  1.0502
 1812SOL    HW2 8457   6.388   6.086   1.948 -1.6843 -0.5368 -1.1622
 1813SOL     OW 8458   1.169   9.025   9.410  0.6254  0.8893  0.0231
 1813SOL    HW1 8459   1.168   8.966   9.336 -1.0328  0.2814  0.5158
 1813SOL    HW2 8460   1.223   9.099   9.381 -0.1897  0.7660 -1.8492
 1814SOL     OW 8461   6.797   0.159   0.150  0.0543  0.7204  0.0375
 1814SOL    HW1 8462   6.715   0.114   0.129 -0.1569  0.5101  1.2964
 1814SOL    HW2 8463   6.834   0.109   0.223  1.4214  0.6737 -0.6681
 1815SOL     OW 8464   1.637   4.992   3.035  0.8315 -0.1435  0.0731
 1815SOL    HW1 8465   1.548   5.015   3.063  0.6581 -1.8236  1.0216
 1815SOL    HW2 8466   1.688   4.995   3.116  1.5733  0.5251 -0.4232
 1816SOL     OW 8467   7.218   7.596   4.988  0.0523  0.0483  0.2031
 1816SOL    HW1 8468   7.149   7.580   4.923  0.1945  0.4837 -0.0573
 1816SOL    HW2 8469   7.285   7.530   4.968  0.3256  0.5087 -0.4270
 1817SOL     OW 8470   8.369   3.065   2.872 -0.4279  0.1220  0.1714
 1817SOL    HW1 8471   8.322   3.001   2.926 -0.5137 -0.8043 -0.9756
 1817SOL    HW2 8472   8.460   3.058   2.902 -0.9281  1.6741  2.1533
 1818SOL     OW 8473   3.182   6.870   0.278  0.0513  0.0041 -0.3773
 1818SOL    HW1 8474   3.221   6.847   0.362  1.5187  0.2855 -0.9772
 1818SOL    HW2 8475   3.254   6.905   0.226 -0.8859  0.0349 -1.6911
 1819SOL     OW 8476   0.103   4.573   1.172 -0.3843 -0.5904  0.2209
 1819SOL    HW1 8477   0.145   4.505   1.226  0.2229  0.5854  1.2583
 1819SOL    HW2 8478   0.133   4.656   1.210 -1.2259  0.2670 -0.9454
 1820SOL     OW 8479   2.938   5.118   7.480  0.0813 -0.2857  0.2378
 1820SOL    HW1 8480   2.847   5.125   7.450  0.1483 -0.8261 -0.0889
 1820SOL    HW2 8481   2.982   5.194   7.441 -0.3410  0.2600  0.8116
 1821SOL     OW 8482   8.593   3.183   0.879  0.0806 -0.4115 -0.1682
 1821SOL    HW1 8483   8.658   3.157   0.814  1.0937  0.6325  0.4221
 1821SOL    HW2 8484   8.626   3.265   0.915 -0.3085 -1.1157  1.8706
 1822SOL     OW 8485   0.226   1.641   9.271  0.5720 -0.7208 -0.3153
 1822SOL    HW1 8486   0.138   1.618   9.301 -0.0452  0.0803 -1.4784
 1822SOL    HW2 8487   0.224   1.736   9.260  1.6399 -0.6753 -0.1618
 1823SOL     OW 8488   8.901   0.445   0.998 -0.2422  0.3505 -0.3985
 1823SOL    HW1 8489   8.945   0.486   1.072 -2.1301  0.4775  0.6702
 1823SOL    HW2 8490   8.815   0.419   1.031 -1.1553  0.4759 -2.5414
 1824SOL     OW 8491   1.764   8.371   4.065  0.3146  0.2628  0.4744
 1824SOL    HW1 8492   1.835   8.317   4.100  0.3956  0.6152  0.8619
 1824SOL    HW2 8493   1.758   8.444   4.126 -1.1162 -0.3274  1.0537
 1825SOL     OW 8494   5.304   0.387   3.452 -0.4249  0.5923 -0.4242
 1825SOL    HW1 8495   5.268   0.457   3.506  0.6865  1.5509 -0.9166
 1825SOL    HW2 8496   5.361   0.432   3.389 -1.0765 -0.5808 -1.8718
 1826SOL     OW 8497   3.180   6.984   3.201  1.0572  0.4150 -0.1580
 1826SOL    HW1 8498   3.207   7.030   3.280 -0.6381 -1.6794  1.7053
 1826SOL    HW2 8499   3.240   6.910   3.194  1.0343  0.4428 -0.6889
 1827SOL     OW 8500   2.430   3.268   8.148 -0.0785  0.2540 -0.6353
 1827SOL    HW1 8501   2.488   3.324   8.199 -0.4552  0.8276 -0.8301
 1827SOL    HW2 8502   2.480   3.188   8.135  0.2234  0.2947  0.1942
 1828SOL     OW 8503   3.936   5.006   1.774  0.2055  0.1580 -0.3236
 1828SOL    HW1 8504   3.922   4.913   1.791 -0.0286 -0.1591 -2.1216
 1828SOL    HW2 8505   3.965   5.042   1.857 -0.9454 -1.2776  0.7168
 1829SOL     OW 8506   6.320   1.417   3.650  0.0933 -0.0398 -0.1040
 1829SOL    HW1 8507   6.337   1.333   3.607  0.2208  0.4959 -1.1193
 1829SOL    HW2 8508   6.404   1.463   3.647 -0.1786  0.4476 -0.2847
 1830SOL     OW 8509   4.435   5.086   2.232 -0.8998 -0.0154  0.0341
 1830SOL    HW1 8510   4.507   5.147   2.248  0.7231 -0.8752 -3.4158
 1830SOL    HW2 8511   4.362   5.141   2.203 -1.3507  0.7751  2.6070
 1831SOL     OW 8512   7.440   3.406   3.497 -0.4621  0.4668  0.0804
 1831SOL    HW1 8513   7.405   3.495   3.490 -0.2583  0.6689  1.5224
 1831SOL    HW2 8514   7.416   3.365   3.414 -1.0577  1.6886 -0.3711
 1832SOL     OW 8515   0.177   2.378   0.042 -0.1457 -0.2241  0.5335
 1832SOL    HW1 8516   0.108   2.386  -0.024  0.6922  0.5616 -0.2553
 1832SOL    HW2 8517   0.205   2.468   0.059  2.2076 -0.6787 -0.7833
 1833SOL     OW 8518   6.973   0.162   8.072  0.1103 -0.2078  0.6651
 1833SOL    HW1 8519   6.886   0.139   8.040  0.9857 -2.0023 -0.5091
 1833SOL    HW2 8520   7.015   0.204   7.997  0.1303  1.0443  1.3626
 1834SOL     OW 8521   1.495   5.071   5.447  0.0687  0.1852 -0.9921
 1834SOL    HW1 8522   1.401   5.053   5.452 -0.1652  1.5908 -0.0927
 1834SOL    HW2 8523   1.536   4.985   5.452 -1.0790 -0.2711  1.4065
 1835SOL     OW 8524   6.222   1.995   1.308 -0.1521  0.5430 -0.4159
 1835SOL    HW1 8525   6.158   2.049   1.263  0.5950 -0.3597 -2.6394
 1835SOL    HW2 8526   6.178   1.910   1.319 -0.1946  0.6449  0.2492
 1836SOL     OW 8527   7.590   4.504   3.343  0.1510  0.1805  0.1164
 1836SOL    HW1 8528   7.508   4.552   3.351  1.4189  2.2927  0.8250
 1836SOL    HW2 8529   7.653   4.569   3.312  2.0283 -0.8630  1.6410
 1837SOL     OW 8530   8.928   5.599   3.065 -0.0468 -0.6332  0.0335
 1837SOL    HW1 8531   8.864   5.648   3.116  0.3909  0.0481 -0.0704
 1837SOL    HW2 8532   8.954   5.527   3.123  0.0569 -0.1641  0.5717
 1838SOL     OW 8533   5.582   9.035   1.201  0.1442  0.2424  0.5426
 1838SOL    HW1 8534   5.573   9.128   1.221 -0.3133  1.0282 -2.8967
 1838SOL    HW2 8535   5.505   8.994   1.239 -0.5778  1.5813  0.5577
 1839SOL     OW 8536   4.169   9.154   3.571 -0.5723 -0.2869 -0.1468
 1839SOL    HW1 8537   4.236   9.116   3.628  0.3637  0.4447 -0.7455
 1839SOL    HW2 8538   4.086   9.127   3.610  0.0736 -1.4841  0.4151
 1840SOL     OW 8539   3.454   4.939   9.111 -0.2163  0.5114  0.5192
 1840SOL    HW1 8540   3.537   4.926   9.156 -0.1706 -0.4990  0.1375
 1840SOL    HW2 8541   3.400   4.863   9.135 -0.9794  1.0750  0.6372
 1841SOL     OW 8542   8.811   6.257   5.297 -0.1154 -0.4698  0.0794
 1841SOL    HW1 8543   8.783   6.311   5.371 -0.8389  2.2665 -2.1388
 1841SOL    HW2 8544   8.765   6.293   5.221  0.4320 -3.3695 -1.7091
 1842SOL     OW 8545   0.474   5.397   6.166  0.2882 -0.2202 -0.4669
 1842SOL    HW1 8546   0.449   5.316   6.121 -1.0514  0.9198 -1.8572
 1842SOL    HW2 8547   0.394   5.449   6.167  0.8248  0.5811  1.5373
 1843SOL     OW 8548   8.165   5.301   5.877 -0.0039  0.4862 -0.1315
 1843SOL    HW1 8549   8.156   5.206   5.872 -0.9331  0.6288 -1.4247
 1843SOL    HW2 8550   8.197   5.327   5.790 -1.9353  1.5732 -0.5537
 1844SOL     OW 8551   3.069   3.927   3.853  0.7221 -0.0283 -0.3241
 1844SOL    HW1 8552   3.149   3.975   3.875  0.0013 -0.0126  2.4425
 1844SOL    HW2 8553   3.010   3.993   3.819  1.6552  0.0638 -1.8068
 1845SOL     OW 8554   4.094   5.745   1.949  0.0941  0.0560 -0.2532
 1845SOL    HW1 8555   4.087   5.817   1.886  0.3511  0.5989  0.3364
 1845SOL    HW2 8556   4.089   5.787   2.035 -1.5202 -0.8159  0.0899
 1846SOL     OW 8557   8.037   9.410   4.442 -0.8244  0.2620  0.2957
 1846SOL    HW1 8558   8.067   9.342   4.381 -1.4485  0.3793 -0.1513
 1846SOL    HW2 8559   8.097   9.483   4.426  0.7013 -0.6368  1.7357
 1847SOL     OW 8560   6.909   6.245   1.704  0.3685 -0.2216  0.2301
 1847SOL    HW1 8561   6.966   6.315   1.672 -1.4800  0.3448 -1.9260
 1847SOL    HW2 8562   6.874   6.204   1.625 -3.1666  0.2361  1.4521
 1848SOL     OW 8563   2.538   4.899   3.530  0.2137  0.3388  0.4303
 1848SOL    HW1 8564   2.503   4.828   3.584  0.7450  0.3316  0.7622
 1848SOL    HW2 8565   2.630   4.907   3.555 -0.1078  1.8907  1.2141
 1849SOL     OW 8566   4.531   0.336   8.936  0.4012  0.1569 -0.2768
 1849SOL    HW1 8567   4.584   0.257   8.948 -1.3432 -0.7502  1.8979
 1849SOL    HW2 8568   4.468   0.312   8.869  1.3345  0.5065 -1.2950
 1850SOL     OW 8569   7.280   1.069   6.940  0.6900 -0.4156  0.0153
 1850SOL    HW1 8570   7.263   1.156   6.905  1.0257  0.6947  2.5076
 1850SOL    HW2 8571   7.193   1.034   6.960  0.5453 -0.7541 -1.1331
 1851SOL     OW 8572   9.219   8.406   0.552  0.1276 -0.5383  0.1933
 1851SOL    HW1 8573   9.296   8.402   0.495  0.9635 -1.1108  1.3291
 1851SOL    HW2 8574   9.232   8.485   0.605 -0.0682 -0.6270  0.3772
 1852SOL     OW 8575   3.164   0.704   1.347  0.2150 -0.0714 -0.4689
 1852SOL    HW1 8576   3.217   0.669   1.275  0.3697 -2.5501  0.7884
 1852SOL    HW2 8577   3.216   0.686   1.425 -1.0734  0.3419  0.4899
 1853SOL     OW 8578   8.691   4.536   6.157 -0.1648  0.8051  0.0500
 1853SOL    HW1 8579   8.712   4.443   6.168 -0.5961  0.8757  1.6158
 1853SOL    HW2 8580   8.670   4.545   6.065  0.7918 -0.4711 -0.3075
 1854SOL     OW 8581   7.026   4.583   9.096  0.7830 -0.2656  0.2339
 1854SOL    HW1 8582   6.948   4.543   9.058  0.9903 -0.4541  0.0075
 1854SOL    HW2 8583   7.070   4.625   9.022  0.2367  0.9201  0.5806
 1855SOL     OW 8584   1.836   7.222   4.370  0.1333 -0.7585 -0.3815
 1855SOL    HW1 8585   1.804   7.153   4.312  1.5597 -1.3547 -0.4792
 1855SOL    HW2 8586   1.870   7.290   4.311  2.0771 -1.6018 -0.2743
 1856SOL     OW 8587   8.932   7.533   8.510  0.0964 -0.7604 -0.1647
 1856SOL    HW1 8588   8.991   7.473   8.556 -1.6970 -0.1444  3.0589
 1856SOL    HW2 8589   8.955   7.619   8.544 -0.4365 -0.1386 -1.3772
 1857SOL     OW 8590   3.014   3.542   1.169  0.1790 -0.2887 -0.9245
 1857SOL    HW1 8591   3.077   3.470   1.180 -1.2167 -1.1939  1.6642
 1857SOL    HW2 8592   3.060   3.619   1.203 -0.0810 -0.9755  1.0989
 1858SOL     OW 8593   0.315   4.948   3.974 -0.1018 -0.1973  0.2616
 1858SOL    HW1 8594   0.249   4.947   4.043 -0.9339  1.0777 -0.4831
 1858SOL    HW2 8595   0.325   5.041   3.952 -0.0164 -0.5935 -1.4564
 1859SOL     OW 8596   4.513   4.241   9.095 -0.4898 -0.2786 -0.0978
 1859SOL    HW1 8597   4.544   4.303   9.028 -0.5602 -0.8699 -0.6826
 1859SOL    HW2 8598   4.555   4.271   9.176 -0.2551  0.3349 -0.4401
 1860SOL     OW 8599   3.640   7.948   5.327 -0.3110  0.0632 -0.4974
 1860SOL    HW1 8600   3.559   7.973   5.373  0.3060 -0.0256  0.6583
 1860SOL    HW2 8601   3.698   7.917   5.396  0.3280 -0.9266 -1.4610
 1861SOL     OW 8602   0.531   6.095   6.304 -0.0956 -0.1727  0.2359
 1861SOL    HW1 8603   0.605   6.120   6.360  1.0946  0.6564 -1.6660
 1861SOL    HW2 8604   0.517   6.171   6.248 -1.5867 -0.8175 -0.2876
 1862SOL     OW 8605   7.130   2.825   7.402 -0.1322 -0.7606  0.6215
 1862SOL    HW1 8606   7.117   2.910   7.443 -0.3652  0.2127 -1.4255
 1862SOL    HW2 8607   7.075   2.827   7.324  1.0598 -2.1761 -0.2908
 1863SOL     OW 8608   7.388   7.020   1.949 -0.3346 -0.1109 -0.0756
 1863SOL    HW1 8609   7.467   7.071   1.970 -0.9940  0.0451  2.2080
 1863SOL    HW2 8610   7.405   6.985   1.862  1.0483  2.2796 -0.8404
 1864SOL     OW 8611   5.249   3.458   0.459 -0.1892 -0.0416 -0.0779
 1864SOL    HW1 8612   5.311   3.387   0.446  0.5527 -0.0338  3.0032
 1864SOL    HW2 8613   5.166   3.413   0.481  0.3489 -0.0324  2.1566
 1865SOL     OW 8614   0.955   0.442   2.251 -0.2459  0.1288 -0.2235
 1865SOL    HW1 8615   0.926   0.494   2.326 -0.9270  0.6345 -0.8251
 1865SOL    HW2 8616   0.930   0.353   2.273 -3.9556  0.7762 -1.4748
 1866SOL     OW 8617   1.843   6.644   5.014 -0.4052  0.2077  0.0778
 1866SOL    HW1 8618   1.879   6.566   5.056  2.5376  1.9560  0.9878
 1866SOL    HW2 8619   1.905   6.665   4.944 -2.7000  0.1264 -2.0624
 1867SOL     OW 8620   0.035   9.350   6.135  0.3729  0.3089 -0.0494
 1867SOL    HW1 8621   0.110   9.295   6.160 -0.4939 -0.2042  1.5086
 1867SOL    HW2 8622  -0.017   9.295   6.076 -0.1680 -0.3250  1.0102
 1868SOL     OW 8623   8.295   0.059   1.300  0.0848 -0.1943 -0.2025
 1868SOL    HW1 8624   8.374   0.092   1.343  1.0090 -2.9151  0.2301
 1868SOL    HW2 8625   8.223   0.101   1.347  1.1895  0.3610  1.0400
 1869SOL     OW 8626   6.749   1.358   6.688  0.1992  0.1990 -0.5586
 1869SOL    HW1 8627   6.727   1.320   6.773 -2.9037  0.7429 -1.0603
 1869SOL    HW2 8628   6.793   1.288   6.641 -1.0062 -1.1699  0.3121
 1870SOL     OW 8629   1.817   6.660   3.500 -0.2611  0.1157 -0.3782
 1870SOL    HW1 8630   1.808   6.602   3.575  0.7159 -0.4690 -0.7006
 1870SOL    HW2 8631   1.727   6.676   3.471 -0.6031 -0.2133  0.4863
 1871SOL     OW 8632   2.939   7.685   4.002  0.1047  0.2668  0.3993
 1871SOL    HW1 8633   2.912   7.640   3.921 -0.5616 -0.3570  0.9578
 1871SOL    HW2 8634   2.904   7.631   4.072  1.8432  0.0932  1.1417
 1872SOL     OW 8635   8.297   0.995   8.750 -0.1033 -0.2439  0.6619
 1872SOL    HW1 8636   8.294   1.091   8.749 -1.3405 -0.2684  0.0819
 1872SOL    HW2 8637   8.357   0.973   8.820 -1.2803  0.9441  2.0701
 1873SOL     OW 8638   2.539   5.105   8.426  0.0845  0.5326  0.4155
 1873SOL    HW1 8639   2.624   5.110   8.382 -0.0198 -1.6692 -0.1097
 1873SOL    HW2 8640   2.519   5.195   8.449  0.7230  1.6373 -3.0230
 1874SOL     OW 8641   4.242   4.550   7.439  0.4881 -0.0248 -0.5911
 1874SOL    HW1 8642   4.214   4.599   7.516  3.0552  0.5550  0.0235
 1874SOL    HW2 8643   4.187   4.471   7.440 -0.9530  0.9487  0.6323
 1875SOL     OW 8644   2.424   0.417   6.761 -0.1838  0.3648  0.0211
 1875SOL    HW1 8645   2.335   0.439   6.731  0.0373  2.3936  0.7549
 1875SOL    HW2 8646   2.478   0.489   6.728  0.9714 -0.2000  0.6667
 1876SOL     OW 8647   5.822   8.740   1.225  0.0587 -0.1849  0.7165
 1876SOL    HW1 8648   5.873   8.658   1.225 -0.0356 -0.2441  0.7315
 1876SOL    HW2 8649   5.734   8.712   1.250  0.0134 -0.0857  0.6657
 1877SOL     OW 8650   9.262   4.756   4.949 -0.3744  0.0655  0.5226
 1877SOL    HW1 8651   9.337   4.752   5.009  1.2500 -0.5175 -1.4716
 1877SOL    HW2 8652   9.268   4.676   4.898 -1.5303  0.6950 -0.6417
 1878SOL     OW 8653   3.599   4.949   7.920  0.7155  0.1862 -0.4303
 1878SOL    HW1 8654   3.581   5.043   7.915  0.5318  0.2663  1.3966
 1878SOL    HW2 8655   3.538   4.909   7.858  0.0350  1.1899 -0.4189
 1879SOL     OW 8656   3.792   1.178   3.207  0.3596  0.3695 -0.1704
 1879SOL    HW1 8657   3.736   1.255   3.198 -0.6048  0.0130  2.3992
 1879SOL    HW2 8658   3.734   1.109   3.238  1.1516 -1.5151 -2.6956
 1880SOL     OW 8659   5.706   7.132   6.128 -0.5381 -0.2814 -0.0308
 1880SOL    HW1 8660   5.775   7.128   6.194 -2.5182 -3.9039  1.9037
 1880SOL    HW2 8661   5.684   7.225   6.123  1.6715  0.4236  2.2332
 1881SOL     OW 8662   3.083   0.484   4.621  0.0751 -0.4932 -0.3010
 1881SOL    HW1 8663   3.084   0.579   4.637  0.8910 -0.5269 -0.1401
 1881SOL    HW2 8664   3.027   0.474   4.544 -0.4226  0.0756 -0.0144
 1882SOL     OW 8665   0.026   5.593   3.279 -0.0702  0.1258 -0.0182
 1882SOL    HW1 8666   0.070   5.581   3.195 -0.2113  0.0862 -0.0868
 1882SOL    HW2 8667  -0.057   5.547   3.269 -0.2489  0.4383  0.0092
 1883SOL     OW 8668   1.197   2.988   8.166  0.3894 -0.4560 -0.0859
 1883SOL    HW1 8669   1.131   2.921   8.183 -0.4581  0.3286 -0.2413
 1883SOL    HW2 8670   1.276   2.939   8.144 -0.0145 -1.4115  0.5517
 1884SOL     OW 8671   5.921   2.889   9.083  0.0621  0.8574 -0.0065
 1884SOL    HW1 8672   5.982   2.847   9.143 -0.3998 -0.0714 -0.1899
 1884SOL    HW2 8673   5.867   2.818   9.049 -1.3508  1.7048  0.4167
 1885SOL     OW 8674   5.134   3.827   4.984  0.4000 -0.4914 -0.0294
 1885SOL    HW1 8675   5.076   3.895   5.019 -1.0678 -1.6984 -0.0956
 1885SOL    HW2 8676   5.154   3.856   4.895  1.0272  0.6230  0.4572
 1886SOL     OW 8677   6.218   7.902   3.757  0.2170 -0.1194  0.3945
 1886SOL    HW1 8678   6.235   7.878   3.848  0.6627  0.3821  0.4540
 1886SOL    HW2 8679   6.227   7.998   3.756 -0.5687 -0.0483 -0.0152
 1887SOL     OW 8680   4.698   9.402   8.163 -0.3156  1.2392  0.3752
 1887SOL    HW1 8681   4.603   9.400   8.152 -0.3045 -1.1415  0.4472
 1887SOL    HW2 8682   4.712   9.381   8.255  0.3201 -0.0312  0.0025
 1888SOL     OW 8683   2.060   5.314   8.661 -0.0392  0.3175  0.3243
 1888SOL    HW1 8684   1.973   5.342   8.634 -0.1701  0.5454  0.9730
 1888SOL    HW2 8685   2.117   5.389   8.643  0.1369 -0.0596 -0.6949
 1889SOL     OW 8686   1.155   3.584   6.702  0.0777  0.9553 -0.5051
 1889SOL    HW1 8687   1.098   3.649   6.660 -1.2448  0.6389  0.7797
 1889SOL    HW2 8688   1.244   3.611   6.678 -0.6333 -0.1359 -4.8923
 1890SOL     OW 8689   5.987   3.448   2.127  0.1432  0.0381  0.2315
 1890SOL    HW1 8690   5.953   3.509   2.193 -2.2600  0.1468 -1.0569
 1890SOL    HW2 8691   5.953   3.362   2.154  0.9524 -0.2690  0.3067
 1891SOL     OW 8692   1.152   2.993   0.758  0.2622 -0.1732  0.7498
 1891SOL    HW1 8693   1.151   3.085   0.785  1.9048 -0.2905  1.2580
 1891SOL    HW2 8694   1.107   2.947   0.829 -0.3786  0.2016  0.5961
 1892SOL     OW 8695   6.450   2.115   7.569 -0.4175  0.2030 -0.3323
 1892SOL    HW1 8696   6.534   2.147   7.536 -0.6095 -0.3185 -1.3312
 1892SOL    HW2 8697   6.396   2.104   7.491 -1.0711 -0.4733  0.2151
 1893SOL     OW 8698   3.165   6.570   5.794  0.6013  0.2483 -0.0223
 1893SOL    HW1 8699   3.228   6.622   5.843  0.6011  0.6941 -0.4894
 1893SOL    HW2 8700   3.178   6.596   5.703  1.9868 -2.0076 -0.5225
 1894SOL     OW 8701   0.892   7.973   7.638 -0.6022  0.1256 -0.1986
 1894SOL    HW1 8702   0.897   7.891   7.589 -1.2663 -0.7919  1.2401
 1894SOL    HW2 8703   0.897   8.041   7.571  0.5784 -1.0687 -1.3608
 1895SOL     OW 8704   6.695   3.354   1.165 -0.6872 -0.3650 -0.3078
 1895SOL    HW1 8705   6.748   3.434   1.163  0.7959 -1.3626 -1.7409
 1895SOL    HW2 8706   6.604   3.385   1.160 -0.4635  1.5050  4.2735
 1896SOL     OW 8707   4.120   3.670   0.160  0.1004 -0.0346 -0.4596
 1896SOL    HW1 8708   4.087   3.580   0.165 -0.7416  0.3813  2.4981
 1896SOL    HW2 8709   4.043   3.725   0.175  0.5407  1.2308 -2.6332
 1897SOL     OW 8710   2.491   5.821   7.591 -0.2688  0.6635 -0.4434
 1897SOL    HW1 8711   2.514   5.793   7.502  2.7194 -1.8951  1.0498
 1897SOL    HW2 8712   2.419   5.762   7.616 -1.6584  1.9090 -1.3917
 1898SOL     OW 8713   2.343   8.062   9.324 -0.3790  0.2382 -0.4585
 1898SOL    HW1 8714   2.358   8.133   9.387  0.6055 -0.8493  0.5527
 1898SOL    HW2 8715   2.421   8.061   9.269  0.0976 -0.7517  0.2182
 1899SOL     OW 8716   8.277   7.589   4.184  0.5092 -0.4255 -0.3378
 1899SOL    HW1 8717   8.187   7.623   4.190  0.1300 -1.7184  2.1506
 1899SOL    HW2 8718   8.332   7.663   4.207 -0.1877 -0.7221  2.5416
 1900SOL     OW 8719   6.262   3.217   1.348 -0.0668 -0.0866  0.2708
 1900SOL    HW1 8720   6.270   3.312   1.342  1.1254 -0.0933  1.4882
 1900SOL    HW2 8721   6.229   3.190   1.263 -1.4125  1.5188  0.2676
 1901SOL     OW 8722   2.592   7.469   5.305 -0.2210  0.0324  0.3667
 1901SOL    HW1 8723   2.621   7.491   5.394 -1.3512  0.7910  0.5638
 1901SOL    HW2 8724   2.498   7.490   5.305  0.0269  1.2720 -1.3911
 1902SOL     OW 8725   9.313   2.543   8.825  0.2273  0.6811 -0.0338
 1902SOL    HW1 8726   9.247   2.609   8.804 -0.0440  0.7384  0.9665
 1902SOL    HW2 8727   9.387   2.564   8.768 -1.2908 -0.5062 -2.5077
 1903SOL     OW 8728   1.009   0.248   4.862 -0.6738 -0.0962 -0.0964
 1903SOL    HW1 8729   0.952   0.190   4.914 -1.5211  0.9312  0.1482
 1903SOL    HW2 8730   1.013   0.328   4.913 -1.6598  0.9980 -1.6969
 1904SOL     OW 8731   0.448   6.482   4.742  0.0560  0.1844  0.1971
 1904SOL    HW1 8732   0.375   6.420   4.737  0.3011 -0.1064  0.2379
 1904SOL    HW2 8733   0.411   6.565   4.711 -1.0865  0.7291  2.8164
 1905SOL     OW 8734   0.308   1.498   4.914  0.0409 -0.4987 -0.2777
 1905SOL    HW1 8735   0.235   1.544   4.873 -0.0412  0.5822  1.0496
 1905SOL    HW2 8736   0.383   1.557   4.901  0.6412 -1.4989 -1.4361
 1906SOL     OW 8737   0.489   7.689   8.032  0.7629 -0.1890 -0.5184
 1906SOL    HW1 8738   0.469   7.596   8.022  0.9993 -0.1633 -1.2537
 1906SOL    HW2 8739   0.534   7.713   7.951  1.8184  0.2701  0.2049
 1907SOL     OW 8740   2.332   5.816   5.732 -0.4945 -0.3233 -0.3414
 1907SOL    HW1 8741   2.264   5.748   5.729 -2.4910  1.6229 -0.6054
 1907SOL    HW2 8742   2.299   5.885   5.675  2.6113 -0.0802 -1.9149
 1908SOL     OW 8743   1.959   4.120   5.783 -0.3157 -0.2857  0.3944
 1908SOL    HW1 8744   2.012   4.140   5.860 -0.5317  0.4988  0.3435
 1908SOL    HW2 8745   2.017   4.069   5.726 -0.0298 -0.5197  0.8918
 1909SOL     OW 8746   2.123   3.917   7.576 -0.6738 -0.0718  0.1103
 1909SOL    HW1 8747   2.032   3.888   7.566 -0.8225  0.3980  0.0770
 1909SOL    HW2 8748   2.133   3.933   7.670 -0.2401 -1.3638  0.2928
 1910SOL     OW 8749   5.954   3.310   2.896 -0.3091 -0.1329 -0.2663
 1910SOL    HW1 8750   5.973   3.216   2.901  0.3555  0.0506  0.8544
 1910SOL    HW2 8751   5.869   3.315   2.852  0.7009 -1.1409 -2.4418
 1911SOL     OW 8752   6.299   4.272   3.352  0.1823 -0.4440  0.2329
 1911SOL    HW1 8753   6.348   4.272   3.434  1.0064  0.1246 -0.2597
 1911SOL    HW2 8754   6.221   4.325   3.371  1.5812  1.7812 -0.0687
 1912SOL     OW 8755   1.256   7.329   7.948 -0.6343 -0.2085 -0.3747
 1912SOL    HW1 8756   1.330   7.345   7.889 -1.9357  2.5182 -1.3809
 1912SOL    HW2 8757   1.295   7.297   8.029  1.4790 -0.7062 -1.5719
 1913SOL     OW 8758   4.035   6.389   8.956  0.1363  0.0743 -0.1996
 1913SOL    HW1 8759   4.038   6.481   8.930 -0.9691  0.0318 -0.4984
 1913SOL    HW2 8760   4.068   6.341   8.880  1.0846  0.2504  0.1006
 1914SOL     OW 8761   8.594   2.998   7.963  0.2432 -0.0387  0.4212
 1914SOL    HW1 8762   8.629   3.086   7.947 -0.6381  0.3773  0.7360
 1914SOL    HW2 8763   8.506   3.000   7.926  0.1569 -0.7425  0.5845
 1915SOL     OW 8764   5.675   3.568   7.768  0.2317 -0.2363  0.1432
 1915SOL    HW1 8765   5.655   3.578   7.675 -1.1841 -0.8752  0.3594
 1915SOL    HW2 8766   5.619   3.496   7.797  0.2906  0.2859  1.5976
 1916SOL     OW 8767   5.248   0.368   3.035 -0.1678  0.3141 -0.4374
 1916SOL    HW1 8768   5.231   0.428   2.962  0.7459 -0.8268 -1.5915
 1916SOL    HW2 8769   5.332   0.396   3.071 -0.0118  0.0700 -0.6163
 1917SOL     OW 8770   4.468   6.207   4.133 -0.3395  0.2388 -0.1981
 1917SOL    HW1 8771   4.438   6.297   4.145 -0.2894  0.1784  0.3664
 1917SOL    HW2 8772   4.503   6.205   4.044 -0.5122  0.7289 -0.2759
 1918SOL     OW 8773   0.628   2.451   4.510  0.5915  0.6074 -0.2237
 1918SOL    HW1 8774   0.626   2.378   4.448 -0.1313  1.9240 -1.8168
 1918SOL    HW2 8775   0.536   2.471   4.526  0.7486  2.6096 -1.6119
 1919SOL     OW 8776   2.278   8.976   7.534  0.0775 -0.2555 -0.7336
 1919SOL    HW1 8777   2.343   8.971   7.604 -0.5387  1.0600 -0.0441
 1919SOL    HW2 8778   2.315   9.039   7.472  0.0380 -0.4508 -0.9541
 1920SOL     OW 8779   6.144   5.902   3.827  0.6025  0.3244  0.1193
 1920SOL    HW1 8780   6.095   5.985   3.830 -1.2012 -0.6156 -1.9091
 1920SOL    HW2 8781   6.076   5.835   3.825  2.0470 -1.1499  0.2299
 1921SOL     OW 8782   0.491   6.518   6.821 -0.3754  0.2318  0.0948
 1921SOL    HW1 8783   0.478   6.450   6.756  1.7077 -0.1985  0.0969
 1921SOL    HW2 8784   0.496   6.599   6.771 -0.7542  0.1417 -0.0905
 1922SOL     OW 8785   5.959   5.671   7.057 -0.3838  0.8838  0.1365
 1922SOL    HW1 8786   5.894   5.689   6.989  0.7658 -0.4817 -1.3543
 1922SOL    HW2 8787   6.026   5.738   7.045 -0.6346  1.2125  0.5425
 1923SOL     OW 8788   0.898   8.581   2.276 -0.3499  0.3636 -0.0716
 1923SOL    HW1 8789   0.948   8.605   2.198  1.0936 -1.1075  0.3807
 1923SOL    HW2 8790   0.887   8.663   2.324  1.6004  0.7025 -0.1918
 1924SOL     OW 8791   1.300   0.365   7.751 -0.2701  0.2672 -0.2064
 1924SOL    HW1 8792   1.283   0.283   7.705  2.1102 -0.7895  0.7093
 1924SOL    HW2 8793   1.383   0.396   7.715  1.7901 -0.7054  3.4082
 1925SOL     OW 8794   1.059   3.287   3.772 -0.4239  0.2790 -0.2225
 1925SOL    HW1 8795   1.031   3.376   3.750 -0.5493  0.4903  0.7792
 1925SOL    HW2 8796   1.028   3.234   3.698 -1.0156  0.9481 -0.4629
 1926SOL     OW 8797   5.183   9.059   8.813 -0.0020  0.1856 -0.0538
 1926SOL    HW1 8798   5.244   8.985   8.814 -1.5162 -1.1047  1.8134
 1926SOL    HW2 8799   5.205   9.107   8.734  1.8312 -1.5954 -0.6831
 1927SOL     OW 8800   1.281   7.550   1.847  0.4894  0.2162 -0.0019
 1927SOL    HW1 8801   1.277   7.622   1.909  1.7224  1.0996 -0.9158
 1927SOL    HW2 8802   1.236   7.478   1.891  0.7079  1.0347  1.6135
 1928SOL     OW 8803   6.497   3.218   2.793 -0.1027 -0.4992 -0.8340
 1928SOL    HW1 8804   6.434   3.288   2.811 -1.6946 -2.0668 -0.1968
 1928SOL    HW2 8805   6.578   3.248   2.835 -0.4285  1.5062 -1.6087
 1929SOL     OW 8806   6.532   2.467   2.293  0.2820 -0.0900  0.1799
 1929SOL    HW1 8807   6.607   2.472   2.352  0.4502  3.0727 -0.2268
 1929SOL    HW2 8808   6.460   2.508   2.343 -0.4047 -0.3640 -0.5772
 1930SOL     OW 8809   7.337   9.349   6.429  0.1453  0.1686  0.0157
 1930SOL    HW1 8810   7.301   9.322   6.514 -1.9483 -0.4449 -1.0180
 1930SOL    HW2 8811   7.387   9.274   6.398 -1.0427 -0.4962 -0.3324
 1931SOL     OW 8812   6.309   3.594   6.445 -0.0807 -0.4715  0.0941
 1931SOL    HW1 8813   6.221   3.633   6.444 -0.4800 -1.1671  3.0719
 1931SOL    HW2 8814   6.294   3.502   6.463  1.1697 -1.0076 -1.5074
 1932SOL     OW 8815   0.219   3.931   5.908 -0.3487  0.2732 -0.2017
 1932SOL    HW1 8816   0.273   4.007   5.928 -0.7358  1.3322 -2.8831
 1932SOL    HW2 8817   0.142   3.968   5.863 -0.3892 -1.7206 -1.8120
 1933SOL     OW 8818   2.075   8.925   0.034  0.1685 -0.1498  0.2325
 1933SOL    HW1 8819   2.106   8.968   0.114 -0.8801  0.2292  0.4342
 1933SOL    HW2 8820   2.143   8.860   0.015  0.3750 -0.3224  1.4924
 1934SOL     OW 8821   3.280   3.323   0.475  0.1406 -0.2220 -0.4696
 1934SOL    HW1 8822   3.235   3.305   0.392  0.3981  3.5409 -1.5349
 1934SOL    HW2 8823   3.213   3.366   0.529  1.1999  1.4494 -0.4574
 1935SOL     OW 8824   1.122   1.093   5.527 -0.0380 -0.4995 -0.4882
 1935SOL    HW1 8825   1.111   1.057   5.615  1.0896 -0.4203 -0.3139
 1935SOL    HW2 8826   1.216   1.095   5.513 -0.2304 -1.0538 -1.9330
 1936SOL     OW 8827   6.970   1.142   5.304  0.4434 -0.4904  0.0185
 1936SOL    HW1 8828   6.953   1.196   5.227 -1.4108  0.1914  0.8748
 1936SOL    HW2 8829   7.008   1.061   5.269  0.6439  0.2537 -1.5052
 1937SOL     OW 8830   0.860   5.899   4.748  0.4908  0.7616 -0.1105
 1937SOL    HW1 8831   0.903   5.854   4.675 -0.6902  0.1129 -0.4142
 1937SOL    HW2 8832   0.928   5.906   4.815  0.9804 -0.5677 -0.4514
 1938SOL     OW 8833   0.424   3.684   4.295  0.2525 -0.2915 -0.0372
 1938SOL    HW1 8834   0.358   3.621   4.322 -0.5993  0.2720 -0.8010
 1938SOL    HW2 8835   0.381   3.738   4.229  2.2399 -1.5189 -2.4080
 1939SOL     OW 8836   5.463   1.289   4.900 -0.6193  0.0371  0.0537
 1939SOL    HW1 8837   5.525   1.249   4.840  0.4333  1.1288  0.4024
 1939SOL    HW2 8838   5.388   1.313   4.846  0.5412  1.5002 -0.9392
 1940SOL     OW 8839   5.954   2.203   1.431  0.0191  0.1601 -0.1462
 1940SOL    HW1 8840   5.940   2.243   1.517  0.8317 -2.7487  1.3986
 1940SOL    HW2 8841   5.993   2.273   1.378 -0.1004  1.8716  1.9518
 1941SOL     OW 8842   7.572   8.336   6.149  0.2029 -0.6240  0.0851
 1941SOL    HW1 8843   7.633   8.386   6.205 -0.4531  2.2996 -1.7118
 1941SOL    HW2 8844   7.617   8.329   6.065 -0.1996 -2.1523 -0.0178
 1942SOL     OW 8845   6.848   2.625   5.815  0.0033 -0.5250 -0.6240
 1942SOL    HW1 8846   6.919   2.644   5.754  1.4092 -1.2356  0.7426
 1942SOL    HW2 8847   6.771   2.667   5.777  0.9442 -0.5493 -2.6249
 1943SOL     OW 8848   0.094   8.548   2.128 -0.0235  0.0964  0.4687
 1943SOL    HW1 8849   0.117   8.641   2.129  0.0612  0.0922 -0.5336
 1943SOL    HW2 8850   0.178   8.502   2.130  0.0643  0.0720 -2.3081
 1944SOL     OW 8851   6.076   0.239   5.092  0.3391  0.1540 -0.2572
 1944SOL    HW1 8852   6.139   0.206   5.156 -1.5464 -1.2295  0.9428
 1944SOL    HW2 8853   5.993   0.198   5.116 -0.6066  0.2512 -3.0963
 1945SOL     OW 8854   1.899   5.231   6.981 -0.7729 -0.1903  0.0069
 1945SOL    HW1 8855   1.820   5.180   6.999 -0.0726 -1.8167 -1.4251
 1945SOL    HW2 8856   1.936   5.191   6.902  0.8796  1.2595  0.0304
 1946SOL     OW 8857   1.960   6.535   0.311 -0.2740 -0.4264  0.4488
 1946SOL    HW1 8858   1.992   6.570   0.228  0.3311 -1.0221  0.4253
 1946SOL    HW2 8859   1.956   6.440   0.296 -1.9648 -0.3783  0.4759
 1947SOL     OW 8860   3.424   8.377   8.788  0.5766 -0.1769 -0.8368
 1947SOL    HW1 8861   3.464   8.429   8.857 -2.6810  1.0435  0.2363
 1947SOL    HW2 8862   3.350   8.430   8.758  0.3295 -1.8763 -3.4284
 1948SOL     OW 8863   5.151   1.898   8.297  0.3475 -0.7889  0.2806
 1948SOL    HW1 8864   5.077   1.878   8.355  1.1218 -1.0947  1.1745
 1948SOL    HW2 8865   5.138   1.841   8.222  0.2313 -1.5792  0.8984
 1949SOL     OW 8866   5.758   0.538   6.890  0.9088  0.1959 -0.2546
 1949SOL    HW1 8867   5.795   0.606   6.834  1.3062  0.6429  0.5458
 1949SOL    HW2 8868   5.817   0.534   6.965  1.0286 -1.2117 -0.4084
 1950SOL     OW 8869   3.751   2.711   8.383 -0.3647 -0.3204  0.0850
 1950SOL    HW1 8870   3.777   2.731   8.472  0.4739 -0.8011 -0.0499
 1950SOL    HW2 8871   3.833   2.692   8.337 -0.7910 -0.1103 -0.7733
 1951SOL     OW 8872   4.709   8.704   0.802  0.2698 -0.0492 -0.2452
 1951SOL    HW1 8873   4.747   8.735   0.884  2.6039 -0.5555 -1.0896
 1951SOL    HW2 8874   4.707   8.609   0.811  0.1067 -0.0793 -0.5866
 1952SOL     OW 8875   3.826   4.675   0.475 -0.2084  0.8493  0.0007
 1952SOL    HW1 8876   3.882   4.670   0.552  0.1291  3.1896 -0.0695
 1952SOL    HW2 8877   3.837   4.764   0.442 -1.5355  0.3644 -1.8590
 1953SOL     OW 8878   7.047   3.866   8.844 -0.0625  0.4014  0.4895
 1953SOL    HW1 8879   6.979   3.932   8.854  0.5433  0.9506  1.1012
 1953SOL    HW2 8880   7.033   3.805   8.917  1.2358  1.5607  1.7292
 1954SOL     OW 8881   7.119   2.715   1.477  0.0330 -0.5604  0.2002
 1954SOL    HW1 8882   7.039   2.728   1.528 -0.2149 -0.0590 -0.3151
 1954SOL    HW2 8883   7.189   2.736   1.538 -0.3236  1.8703 -0.1894
 1955SOL     OW 8884   9.423   8.412   6.247  0.2142 -0.1362  0.3389
 1955SOL    HW1 8885   9.392   8.351   6.314 -0.6797 -0.2689 -0.1911
 1955SOL    HW2 8886   9.350   8.473   6.233 -0.3677 -1.3103 -1.9411
 1956SOL     OW 8887   0.230   8.544   0.446 -0.1429 -0.1713 -0.3664
 1956SOL    HW1 8888   0.293   8.517   0.513 -1.7995  2.3533  2.3328
 1956SOL    HW2 8889   0.263   8.629   0.416  0.1654 -0.9372 -2.2459
 1957SOL     OW 8890   5.345   5.342   5.041  0.2256 -0.7018 -0.1662
 1957SOL    HW1 8891   5.380   5.353   4.953  0.1736  0.3470 -0.0542
 1957SOL    HW2 8892   5.343   5.247   5.054  0.0550 -0.8681 -1.3594
 1958SOL     OW 8893   1.235   1.232   4.192 -0.1141  0.8255 -0.0258
 1958SOL    HW1 8894   1.181   1.154   4.196  1.1124  0.0617  2.2763
 1958SOL    HW2 8895   1.193   1.287   4.125 -0.9822 -1.7575 -1.6580
 1959SOL     OW 8896   6.768   4.939   3.159 -0.4671 -0.2697  0.6513
 1959SOL    HW1 8897   6.730   5.010   3.211 -1.7892 -1.0936  0.8405
 1959SOL    HW2 8898   6.703   4.922   3.091  0.8052  0.1208 -0.6777
 1960SOL     OW 8899   1.039   7.378   4.600 -0.2311 -0.0237  0.4138
 1960SOL    HW1 8900   1.076   7.463   4.624  0.0178  0.6532 -2.2243
 1960SOL    HW2 8901   0.972   7.362   4.666 -0.4476  2.3430  0.8271
 1961SOL     OW 8902   9.278   4.243   8.881 -0.2901 -1.0267  0.1620
 1961SOL    HW1 8903   9.258   4.182   8.811 -2.1662 -1.0089  0.6616
 1961SOL    HW2 8904   9.248   4.199   8.961 -0.9730  0.1992  0.5997
 1962SOL     OW 8905   2.337   1.548   8.201 -0.6409 -0.2450  0.4087
 1962SOL    HW1 8906   2.320   1.640   8.219  1.4982 -0.1113  1.9607
 1962SOL    HW2 8907   2.273   1.501   8.254 -1.7332  0.3368 -0.3836
 1963SOL     OW 8908   9.179   5.138   3.863 -0.1240  0.1577 -0.2784
 1963SOL    HW1 8909   9.187   5.078   3.789 -1.0696 -0.6072  0.2295
 1963SOL    HW2 8910   9.089   5.169   3.860  0.1712  1.0340 -0.1415
 1964SOL     OW 8911   7.782   8.218   7.579 -0.3521  0.3626  0.0033
 1964SOL    HW1 8912   7.874   8.234   7.600 -0.7779  2.0169  0.6545
 1964SOL    HW2 8913   7.785   8.158   7.504  1.2404  0.4823 -0.0566
 1965SOL     OW 8914   9.282   3.488   3.097  0.2394 -0.5790  0.0648
 1965SOL    HW1 8915   9.335   3.541   3.155 -0.0228 -0.0908 -0.1418
 1965SOL    HW2 8916   9.334   3.408   3.083  1.7856  0.6801 -1.6529
 1966SOL     OW 8917   4.865   3.671   3.069  1.2547  0.4237 -0.1534
 1966SOL    HW1 8918   4.875   3.711   3.156 -0.9299  0.1937  0.2309
 1966SOL    HW2 8919   4.794   3.720   3.028  0.4295 -1.2391 -0.7455
 1967SOL     OW 8920   6.215   6.078   5.388 -0.1204 -0.5501  0.0680
 1967SOL    HW1 8921   6.271   6.062   5.312 -0.4115  0.8730 -0.4568
 1967SOL    HW2 8922   6.263   6.142   5.440 -0.8595  0.0046  0.0634
 1968SOL     OW 8923   0.311   7.358   6.358  0.3744  0.0837 -0.5812
 1968SOL    HW1 8924   0.223   7.343   6.393  0.5045  0.6575  0.0001
 1968SOL    HW2 8925   0.296   7.403   6.275  0.1066 -0.0347 -0.5971
 1969SOL     OW 8926   3.402   1.758   4.633  0.1306 -0.5653  0.1826
 1969SOL    HW1 8927   3.358   1.751   4.718 -1.5605  0.4693 -0.5839
 1969SOL    HW2 8928   3.417   1.852   4.621  3.3300 -0.9301  0.7719
 1970SOL     OW 8929   0.621   3.626   1.098  0.6611 -0.3041  0.4482
 1970SOL    HW1 8930   0.526   3.619   1.088  0.6817  0.4850 -0.3073
 1970SOL    HW2 8931   0.639   3.719   1.104  1.5217 -0.3598 -0.8571
 1971SOL     OW 8932   2.161   2.576   2.946 -0.9193  0.0025  0.2528
 1971SOL    HW1 8933   2.172   2.483   2.927  2.2727  0.7715 -1.9362
 1971SOL    HW2 8934   2.156   2.581   3.042  3.0637 -2.0853  0.6582
 1972SOL     OW 8935   4.983   4.557   7.517  0.1637  0.1407 -0.3577
 1972SOL    HW1 8936   4.947   4.635   7.558  1.7534  0.0667  1.2195
 1972SOL    HW2 8937   4.907   4.500   7.503 -0.9034  1.6408 -0.8651
 1973SOL     OW 8938   7.581   8.454   8.267  0.5502  0.6092 -0.4889
 1973SOL    HW1 8939   7.556   8.542   8.239  0.8750  0.4086 -1.4242
 1973SOL    HW2 8940   7.611   8.465   8.357  0.1287  1.3717 -0.4371
 1974SOL     OW 8941   5.243   1.484   5.137  0.5980 -0.3305  0.5720
 1974SOL    HW1 8942   5.215   1.496   5.046 -0.1336 -1.2695  0.6685
 1974SOL    HW2 8943   5.285   1.567   5.160  0.3341  0.0988 -0.4600
 1975SOL     OW 8944   4.601   5.892   4.292  0.4900 -0.2303  0.6680
 1975SOL    HW1 8945   4.648   5.955   4.237 -0.2247 -0.0089  0.3016
 1975SOL    HW2 8946   4.619   5.807   4.251 -0.0542 -0.0637  0.0786
 1976SOL     OW 8947   1.507   8.466   5.399 -0.4091 -0.5761 -0.0617
 1976SOL    HW1 8948   1.543   8.499   5.317  0.1273 -1.3557 -0.1481
 1976SOL    HW2 8949   1.450   8.394   5.372 -1.2625  0.0227  0.1487
 1977SOL     OW 8950   4.384   1.319   4.188 -0.3336 -0.4735 -0.4276
 1977SOL    HW1 8951   4.432   1.339   4.268 -1.4365 -0.0884  0.1491
 1977SOL    HW2 8952   4.410   1.230   4.166 -0.2530 -0.6907  0.5234
 1978SOL     OW 8953   6.902   2.323   2.869 -0.3486  0.6792  0.4451
 1978SOL    HW1 8954   6.941   2.295   2.786 -0.4321 -1.3878  1.0865
 1978SOL    HW2 8955   6.812   2.347   2.847 -0.0549  1.1793 -0.2363
 1979SOL     OW 8956   7.596   5.206   3.887  0.1457 -0.9905 -0.0029
 1979SOL    HW1 8957   7.534   5.255   3.833 -0.3717 -0.7892  0.7614
 1979SOL    HW2 8958   7.548   5.127   3.913  0.4165 -1.1225  0.0982
 1980SOL     OW 8959   5.441   2.587   2.506  0.6171 -0.3406 -0.1494
 1980SOL    HW1 8960   5.444   2.628   2.592 -1.2501 -2.6722  1.0645
 1980SOL    HW2 8961   5.493   2.507   2.515  0.2452 -0.6993 -1.1239
 1981SOL     OW 8962   8.382   3.749   6.882  0.1416  0.3711 -0.2005
 1981SOL    HW1 8963   8.460   3.733   6.937  1.0365 -0.3661 -1.6422
 1981SOL    HW2 8964   8.348   3.661   6.864 -0.6451  0.6592 -0.1415
 1982SOL     OW 8965   1.401   9.215   0.557  0.0615 -0.5640  1.0592
 1982SOL    HW1 8966   1.321   9.163   0.564 -1.4091  1.4093 -0.4019
 1982SOL    HW2 8967   1.387   9.289   0.615  0.1979  0.5477 -0.2958
 1983SOL     OW 8968   3.144   1.913   0.982 -0.5309 -0.0333  0.4057
 1983SOL    HW1 8969   3.211   1.846   0.968 -0.3910  0.1206  0.3391
 1983SOL    HW2 8970   3.193   1.995   0.986 -0.5703 -0.0661  1.7407
 1984SOL     OW 8971   5.598   3.936   2.739 -0.1354  0.5006  0.1225
 1984SOL    HW1 8972   5.663   4.006   2.732  0.4303 -0.2573 -2.7963
 1984SOL    HW2 8973   5.650   3.857   2.757 -0.6094  0.4771  1.4720
 1985SOL     OW 8974   3.551   1.255   4.143 -0.3208 -0.3701  0.5626
 1985SOL    HW1 8975   3.564   1.258   4.238  0.1335  0.1775  0.4882
 1985SOL    HW2 8976   3.640   1.246   4.108 -0.1670  2.6853  0.0583
 1986SOL     OW 8977   1.252   2.021   3.434 -0.0059  0.0736 -0.6265
 1986SOL    HW1 8978   1.201   2.101   3.448 -1.0303 -0.8927  1.3051
 1986SOL    HW2 8979   1.264   1.984   3.521  1.4712 -1.2739 -1.3795
 1987SOL     OW 8980   5.260   2.049   9.078 -0.0801  0.0732 -0.0438
 1987SOL    HW1 8981   5.169   2.078   9.075  0.0570  0.4518 -0.6111
 1987SOL    HW2 8982   5.309   2.117   9.032  0.2262 -1.1196 -1.5423
 1988SOL     OW 8983   6.931   3.872   3.487 -0.2712  0.5265 -0.5645
 1988SOL    HW1 8984   6.971   3.816   3.421 -1.4563 -0.2985 -0.5920
 1988SOL    HW2 8985   6.914   3.954   3.440  1.3459  0.8982 -0.5533
 1989SOL     OW 8986   8.702   1.858   8.177 -0.5089 -0.2758  0.2194
 1989SOL    HW1 8987   8.608   1.843   8.175 -0.3816 -1.0837  0.0426
 1989SOL    HW2 8988   8.736   1.810   8.101 -0.1914  1.7804 -0.9809
 1990SOL     OW 8989   3.468   5.879   1.753 -0.4513 -0.0656  0.0483
 1990SOL    HW1 8990   3.471   5.964   1.796 -0.1096 -0.1079  0.1035
 1990SOL    HW2 8991   3.556   5.843   1.763 -0.0035  0.4684 -1.7608
 1991SOL     OW 8992   1.672   6.640   6.351 -0.5512 -0.7299  0.1053
 1991SOL    HW1 8993   1.699   6.717   6.400 -0.9290  0.7189 -1.8905
 1991SOL    HW2 8994   1.753   6.593   6.334 -0.3130 -0.7544  1.3122
 1992SOL     OW 8995   3.193   2.122   2.348 -0.2646 -0.1064 -1.2667
 1992SOL    HW1 8996   3.142   2.045   2.371 -0.3453  0.4730  0.6467
 1992SOL    HW2 8997   3.128   2.188   2.324 -0.2691 -0.2193 -1.5648
 1993SOL     OW 8998   1.773   2.382   1.065 -0.1580 -0.2000  0.9127
 1993SOL    HW1 8999   1.796   2.404   0.975  0.2114 -0.7324  0.8805
 1993SOL    HW2 9000   1.692   2.332   1.058  0.7234 -1.6414  0.7529
 1994SOL     OW 9001   7.968   0.679   3.139  0.0819 -0.3111  0.5919
 1994SOL    HW1 9002   8.039   0.716   3.192 -0.5879  0.6271  0.8539
 1994SOL    HW2 9003   7.888   0.712   3.180 -0.4883 -0.7670 -0.1343
 1995SOL     OW 9004   1.693   5.459   3.291 -0.1438  0.0426  0.3030
 1995SOL    HW1 9005   1.720   5.549   3.307  0.2815  0.0788 -0.6118
 1995SOL    HW2 9006   1.768   5.405   3.315  0.0585  0.0172 -0.3819
 1996SOL     OW 9007   7.438   2.952   2.846 -0.3403  0.5502  0.4868
 1996SOL    HW1 9008   7.428   3.002   2.764 -2.4397 -0.2161  0.2388
 1996SOL    HW2 9009   7.367   2.888   2.843  1.4017 -1.4786  1.5059
 1997SOL     OW 9010   0.979   6.405   1.599 -0.2612  0.3705 -0.2767
 1997SOL    HW1 9011   1.031   6.446   1.668  0.0037  2.1391 -1.4880
 1997SOL    HW2 9012   1.044   6.363   1.543 -0.3698  0.0644 -0.1715
 1998SOL     OW 9013   5.986   4.587   4.130  0.0652 -0.3541 -0.3694
 1998SOL    HW1 9014   6.041   4.614   4.203  0.2734  0.1320 -0.7082
 1998SOL    HW2 9015   6.047   4.566   4.059 -0.1579 -0.3227 -0.5734
 1999SOL     OW 9016   1.078   1.978   0.832  0.0141 -0.1248 -0.4725
 1999SOL    HW1 9017   1.090   2.065   0.794  1.4323 -0.6132 -1.1759
 1999SOL    HW2 9018   1.148   1.925   0.794  0.1402 -1.1778  1.1752
 2000SOL     OW 9019   7.439   7.477   4.834  0.3503  0.4687  0.2478
 2000SOL    HW1 9020   7.503   7.459   4.903  0.4621  0.5388  0.1622
 2000SOL    HW2 9021   7.431   7.393   4.788 -0.2319  0.2368  0.7670
 2001SOL     OW 9022   2.520   4.258   2.738 -0.0451  0.3567  0.4368
 2001SOL    HW1 9023   2.515   4.348   2.770  0.1044  0.4243  0.2744
 2001SOL    HW2 9024   2.456   4.254   2.667 -0.7316  0.0679  1.0658
 2002SOL     OW 9025   0.326   6.536   1.082  0.2793  0.7475  0.0144
 2002SOL    HW1 9026   0.413   6.570   1.102 -0.1281  1.6069  0.3647
 2002SOL    HW2 9027   0.268   6.611   1.093 -0.5437  0.1151  0.0649
 2003SOL     OW 9028   0.343   2.748   7.642 -0.0008 -0.3656 -0.1565
 2003SOL    HW1 9029   0.321   2.667   7.595  0.6159 -0.0435 -1.0053
 2003SOL    HW2 9030   0.361   2.719   7.731 -1.5007 -0.9431 -0.0106
 2004SOL     OW 9031   4.759   2.118   3.588 -0.2481  0.1129  0.1943
 2004SOL    HW1 9032   4.824   2.082   3.648  0.5467 -0.0979 -0.7845
 2004SOL    HW2 9033   4.746   2.209   3.618 -0.2216 -0.1340  0.9706
 2005SOL     OW 9034   7.574   2.518   6.767  0.7285  0.2355 -0.3325
 2005SOL    HW1 9035   7.638   2.523   6.839 -0.2142 -0.3764  0.5645
 2005SOL    HW2 9036   7.509   2.585   6.788  0.4664  0.0709 -0.6222
 2006SOL     OW 9037   3.284   6.452   1.828  0.0392  0.4317  0.1931
 2006SOL    HW1 9038   3.305   6.450   1.734 -0.7104  0.6583  0.0194
 2006SOL    HW2 9039   3.240   6.536   1.840  2.2762  1.4797  1.2067
 2007SOL     OW 9040   2.792   3.912   2.717 -0.0412 -0.1342  0.4699
 2007SOL    HW1 9041   2.818   3.989   2.767 -1.2342  1.0671 -0.7270
 2007SOL    HW2 9042   2.838   3.839   2.759  2.4089  1.4390  0.5972
 2008SOL     OW 9043   2.547   9.336   0.196  0.1914 -0.1132 -0.1528
 2008SOL    HW1 9044   2.625   9.313   0.247 -0.7993 -1.8961  0.6308
 2008SOL    HW2 9045   2.528   9.257   0.146 -2.6162 -0.6432  1.6526
 2009SOL     OW 9046   6.024   2.911   0.977 -0.0553 -0.6713 -0.1450
 2009SOL    HW1 9047   5.993   2.845   1.039 -0.0437  1.0745  1.7741
 2009SOL    HW2 9048   5.973   2.895   0.897 -2.4963 -0.8677  1.4091
 2010SOL     OW 9049   2.160   3.651   4.603  0.0261  0.3315 -0.5403
 2010SOL    HW1 9050   2.131   3.560   4.591  0.0689  0.0176  1.6559
 2010SOL    HW2 9051   2.096   3.689   4.663  0.5054  1.5097 -0.7605
 2011SOL     OW 9052   3.635   3.003   1.643 -0.8560 -0.1052 -0.1415
 2011SOL    HW1 9053   3.668   2.921   1.679 -2.8444 -0.5665  0.7130
 2011SOL    HW2 9054   3.639   3.065   1.716 -3.0238 -0.5128  0.3697
 2012SOL     OW 9055   6.685   4.749   9.188 -0.0456 -0.1681  0.3730
 2012SOL    HW1 9056   6.714   4.670   9.234 -2.3253 -1.3915 -0.2288
 2012SOL    HW2 9057   6.649   4.805   9.257 -2.2843 -1.4640  0.3065
 2013SOL     OW 9058   6.596   2.058   6.287  0.0781  0.2359  0.0562
 2013SOL    HW1 9059   6.556   2.123   6.230  0.9053 -0.7699 -1.7105
 2013SOL    HW2 9060   6.654   2.008   6.230 -0.0744 -1.6604  1.4981
 2014SOL     OW 9061   4.608   5.570   1.514 -0.1998  0.1800  0.0218
 2014SOL    HW1 9062   4.561   5.642   1.471 -1.8456 -0.3138  0.9717
 2014SOL    HW2 9063   4.603   5.497   1.453 -0.3973  0.2190 -0.0072
 2015SOL     OW 9064   4.618   4.468   3.742  0.4785  0.2331 -0.3986
 2015SOL    HW1 9065   4.679   4.504   3.807 -0.4122  0.8706  0.1000
 2015SOL    HW2 9066   4.610   4.537   3.676 -0.5745  0.6159  0.1210
 2016SOL     OW 9067   2.861   6.883   9.085  0.1601 -0.3754  0.6134
 2016SOL    HW1 9068   2.950   6.854   9.067  0.4293  0.0603  1.2391
 2016SOL    HW2 9069   2.813   6.864   9.004  0.3028 -2.6695  1.0074
 2017SOL     OW 9070   5.530   8.126   7.036 -0.3113 -0.0738  0.5756
 2017SOL    HW1 9071   5.552   8.211   6.999 -2.8815  0.6940  0.6887
 2017SOL    HW2 9072   5.507   8.145   7.127  0.7736 -1.1684  1.0937
 2018SOL     OW 9073   9.094   5.984   4.973 -0.1280  0.2559 -0.4132
 2018SOL    HW1 9074   9.065   6.052   5.033 -0.2918 -1.9840  2.1310
 2018SOL    HW2 9075   9.017   5.966   4.919 -0.7412  0.5963  0.3406
 2019SOL     OW 9076   3.172   3.995   1.193  0.1143 -0.6444 -0.2610
 2019SOL    HW1 9077   3.124   3.947   1.125  0.8733  0.6410 -1.7234
 2019SOL    HW2 9078   3.141   4.085   1.186 -1.5511 -0.9338  2.7086
 2020SOL     OW 9079   0.081   6.030   9.340  0.0757 -0.2829 -0.0550
 2020SOL    HW1 9080   0.036   5.961   9.292 -0.2229  1.0235 -1.6896
 2020SOL    HW2 9081   0.173   6.021   9.315 -0.0954  0.4644 -0.9798
 2021SOL     OW 9082   0.144   3.994   1.366  0.6629 -0.0873 -0.3768
 2021SOL    HW1 9083   0.079   3.998   1.295  1.0737 -1.8748 -0.8788
 2021SOL    HW2 9084   0.227   4.014   1.322  0.6333  0.9285  0.0214
 2022SOL     OW 9085   4.870   0.796   8.430 -0.4683 -0.1373 -0.0353
 2022SOL    HW1 9086   4.897   0.759   8.346  1.3821  1.7054 -0.2991
 2022SOL    HW2 9087   4.793   0.849   8.409 -0.7781 -0.6914 -0.3265
 2023SOL     OW 9088   1.102   8.430   3.252  0.1216  0.2532  0.3818
 2023SOL    HW1 9089   1.174   8.393   3.303  1.6143  2.3335 -0.1231
 2023SOL    HW2 9090   1.130   8.422   3.161 -0.7945  0.0677  0.1120
 2024SOL     OW 9091   2.356   8.978   8.402  0.2178  0.9111  0.5289
 2024SOL    HW1 9092   2.318   8.944   8.484 -1.3938 -0.9657 -0.9590
 2024SOL    HW2 9093   2.450   8.963   8.411 -0.2017 -1.5752  1.0210
 2025SOL     OW 9094   3.065   1.002   0.784 -0.3087 -0.3071 -0.5893
 2025SOL    HW1 9095   3.114   0.945   0.843 -0.9072  1.0268  1.2105
 2025SOL    HW2 9096   3.087   0.970   0.696  1.7974 -1.3252  0.2872
 2026SOL     OW 9097   5.761   3.344   6.095 -0.3878  0.8563  0.0199
 2026SOL    HW1 9098   5.699   3.287   6.049  0.6657  0.2774 -0.7048
 2026SOL    HW2 9099   5.761   3.311   6.185 -0.0356 -0.0930 -0.3185
 2027SOL     OW 9100   2.040   7.201   5.232 -0.4596  0.2564 -0.6174
 2027SOL    HW1 9101   2.041   7.284   5.184  0.6655 -0.0525 -1.1591
 2027SOL    HW2 9102   2.054   7.134   5.165  0.2158 -0.2500  0.0128
 2028SOL     OW 9103   3.436   4.929   1.085  0.2892  0.3839 -0.1652
 2028SOL    HW1 9104   3.410   4.872   1.013 -1.1246  1.8511 -0.8486
 2028SOL    HW2 9105   3.400   4.887   1.163 -1.1626  0.5764 -0.7144
 2029SOL     OW 9106   0.160   5.835   7.215  0.2292  0.6980  0.4364
 2029SOL    HW1 9107   0.227   5.902   7.198  0.1522  0.7434  0.3105
 2029SOL    HW2 9108   0.077   5.879   7.196  0.2715  0.0577 -1.3270
 2030SOL     OW 9109   6.229   5.110   7.464  0.5251  0.0861 -0.5092
 2030SOL    HW1 9110   6.181   5.150   7.536  0.3263 -0.6994 -0.2121
 2030SOL    HW2 9111   6.163   5.064   7.413  0.3789  2.0475 -2.1638
 2031SOL     OW 9112   3.660   7.895   1.995 -0.2620 -0.3784 -0.1934
 2031SOL    HW1 9113   3.636   7.905   2.087 -0.6420 -2.5623 -0.0300
 2031SOL    HW2 9114   3.603   7.957   1.949 -0.1156  0.6875  1.0167
 2032SOL     OW 9115   1.601   7.170   2.212 -0.5838 -0.4843 -0.0441
 2032SOL    HW1 9116   1.508   7.190   2.206 -0.2889  1.4906  1.5866
 2032SOL    HW2 9117   1.612   7.093   2.156 -2.8441  0.3482 -1.7307
 2033SOL     OW 9118   1.682   7.224   0.439 -0.2088 -0.3539 -0.2376
 2033SOL    HW1 9119   1.591   7.201   0.419 -0.3117  1.2897 -1.8066
 2033SOL    HW2 9120   1.734   7.171   0.378 -0.2690  0.6891 -1.2219
 2034SOL     OW 9121   7.915   9.233   8.197  0.2443 -0.3329 -0.0624
 2034SOL    HW1 9122   7.876   9.146   8.194 -0.8397  0.1313  0.0769
 2034SOL    HW2 9123   7.960   9.242   8.113 -1.6637 -0.1408 -1.1046
 2035SOL     OW 9124   0.080   7.443   0.966  0.1161 -0.2480  0.0014
 2035SOL    HW1 9125   0.139   7.512   0.935 -1.0670  0.2152 -1.2396
 2035SOL    HW2 9126   0.101   7.367   0.913 -1.9906  0.5784 -2.1501
 2036SOL     OW 9127   7.695   3.163   2.524  0.4570  0.1480  0.3320
 2036SOL    HW1 9128   7.788   3.144   2.509  0.5086  0.0940  0.7115
 2036SOL    HW2 9129   7.691   3.258   2.534 -0.1094  0.6184 -3.7230
 2037SOL     OW 9130   6.641   8.301   4.199  0.6544  0.6351  0.0382
 2037SOL    HW1 9131   6.568   8.242   4.221 -0.9574  2.5881  0.1061
 2037SOL    HW2 9132   6.713   8.242   4.176 -1.9611 -1.4129 -3.4567
 2038SOL     OW 9133   2.141   5.322   2.442 -0.3716  0.0813 -0.1112
 2038SOL    HW1 9134   2.120   5.298   2.352 -1.4763  0.5994  0.0054
 2038SOL    HW2 9135   2.091   5.402   2.458 -0.4698 -0.2157  1.0896
 2039SOL     OW 9136   7.764   7.307   5.947 -0.1945  0.4178 -0.7040
 2039SOL    HW1 9137   7.717   7.254   6.012 -0.8195  0.4837 -1.0946
 2039SOL    HW2 9138   7.813   7.244   5.895 -0.2534  0.2984 -0.6159
 2040SOL     OW 9139   1.910   9.164   9.174  0.1159  0.3874  0.4460
 2040SOL    HW1 9140   1.833   9.123   9.214  1.1192  0.5171  2.5940
 2040SOL    HW2 9141   1.942   9.224   9.241  1.7050  0.8314 -0.6892
 2041SOL     OW 9142   1.228   4.837   3.189 -0.2813 -0.0074 -0.1325
 2041SOL    HW1 9143   1.280   4.788   3.252  0.0299  0.3123 -0.1397
 2041SOL    HW2 9144   1.147   4.859   3.236  0.1890  0.7201  0.3399
 2042SOL     OW 9145   1.294   3.032   6.735  0.0220  0.2049  0.6673
 2042SOL    HW1 9146   1.256   3.110   6.695  0.2164 -1.2310 -2.3900
 2042SOL    HW2 9147   1.226   2.965   6.727  0.6725 -0.5458  1.3104
 2043SOL     OW 9148   3.620   0.567   1.937 -0.0513  0.5265  0.3093
 2043SOL    HW1 9149   3.595   0.489   1.887  0.7205 -0.9705  2.1855
 2043SOL    HW2 9150   3.546   0.627   1.927 -0.2350 -0.0185 -1.9845
 2044SOL     OW 9151   3.343   9.019   9.439  0.4908 -0.1593 -0.4763
 2044SOL    HW1 9152   3.313   8.938   9.480 -1.2748  0.7995  0.1793
 2044SOL    HW2 9153   3.433   9.000   9.413 -0.3771 -2.8608 -1.7675
 2045SOL     OW 9154   4.105   5.729   6.039 -0.3428  0.2251 -0.1229
 2045SOL    HW1 9155   4.157   5.649   6.028  1.2697  1.1375  0.7432
 2045SOL    HW2 9156   4.050   5.733   5.961 -1.2009 -2.2782  0.2994
 2046SOL     OW 9157   3.487   4.668   8.080 -0.8651  0.8740  0.1107
 2046SOL    HW1 9158   3.512   4.735   8.016  2.5979  0.0844  0.5301
 2046SOL    HW2 9159   3.485   4.587   8.029  0.9980  0.3879  0.7773
 2047SOL     OW 9160   6.426   0.830   3.953  0.2918 -0.2532 -0.2713
 2047SOL    HW1 9161   6.512   0.819   3.993 -0.2041 -1.4593  0.5243
 2047SOL    HW2 9162   6.365   0.826   4.027 -0.5702 -1.5412 -1.0206
 2048SOL     OW 9163   6.031   9.160   5.969  0.3782  0.6305  0.4984
 2048SOL    HW1 9164   6.026   9.233   6.030 -1.5990  0.3587  0.6913
 2048SOL    HW2 9165   5.987   9.087   6.013 -1.5564  0.5790 -1.4266
 2049SOL     OW 9166   3.030   3.957   1.438  0.5947 -0.1028  0.8585
 2049SOL    HW1 9167   3.103   3.967   1.377  0.3464  0.7917  0.6987
 2049SOL    HW2 9168   2.962   4.014   1.404 -0.1967 -0.9526  0.9953
 2050SOL     OW 9169   2.561   0.651   1.653 -0.1276 -0.0839  0.1154
 2050SOL    HW1 9170   2.529   0.582   1.711  1.7690 -2.1412 -1.1612
 2050SOL    HW2 9171   2.647   0.674   1.689 -0.6047  1.4048  0.3375
 2051SOL     OW 9172   8.072   8.374   2.998  0.0129  0.6581 -0.1490
 2051SOL    HW1 9173   8.025   8.452   3.027  2.2037  2.3744 -1.0593
 2051SOL    HW2 9174   8.115   8.341   3.076 -2.0223 -0.4740  0.5265
 2052SOL     OW 9175   0.216   1.861   8.649 -0.3515 -0.5760  0.1004
 2052SOL    HW1 9176   0.130   1.828   8.624 -0.2309 -0.7643 -0.0743
 2052SOL    HW2 9177   0.198   1.940   8.699 -0.6212 -0.5575 -0.0246
 2053SOL     OW 9178   5.335   0.958   6.407  0.4519 -0.1235 -0.2571
 2053SOL    HW1 9179   5.306   0.880   6.359  0.9717 -0.6207  0.2341
 2053SOL    HW2 9180   5.257   0.990   6.451  0.4830 -1.0071  0.4368
 2054SOL     OW 9181   6.871   9.320   5.261 -0.2968  0.1032 -0.0454
 2054SOL    HW1 9182   6.851   9.229   5.280 -1.2829 -0.0072 -1.5579
 2054SOL    HW2 9183   6.884   9.361   5.347  2.9805 -2.0533  0.5944
 2055SOL     OW 9184   1.081   1.696   4.507 -0.5603 -0.3133 -0.3462
 2055SOL    HW1 9185   1.066   1.609   4.471 -0.0956 -1.4827  2.1690
 2055SOL    HW2 9186   1.171   1.693   4.540 -0.3785  1.2875 -0.6574
 2056SOL     OW 9187   3.675   8.732   8.877 -0.5988 -0.4440 -0.0090
 2056SOL    HW1 9188   3.763   8.695   8.865 -0.6098 -0.3478 -0.3856
 2056SOL    HW2 9189   3.619   8.656   8.893 -1.0246 -0.8391 -3.0597
 2057SOL     OW 9190   7.009   1.815   4.034  0.1602  1.0127 -0.4365
 2057SOL    HW1 9191   7.068   1.842   3.964  1.6053 -0.6169  0.1165
 2057SOL    HW2 9192   6.925   1.855   4.012  0.9804  1.7511 -2.2824
 2058SOL     OW 9193   1.051   8.170   0.879  0.0445 -0.7867 -0.1414
 2058SOL    HW1 9194   1.057   8.188   0.785 -0.2887 -2.7731 -0.5671
 2058SOL    HW2 9195   0.959   8.182   0.900  0.0370 -0.7946 -0.1694
 2059SOL     OW 9196   1.889   3.087   6.039 -0.0933 -0.4529  0.2611
 2059SOL    HW1 9197   1.929   3.108   6.124  0.1009  1.0483 -0.1759
 2059SOL    HW2 9198   1.840   3.006   6.055  0.4352 -0.5201  1.6509
 2060SOL     OW 9199   4.565   6.953   3.592 -0.2386  0.3921  0.2227
 2060SOL    HW1 9200   4.508   6.936   3.517  0.0939  0.3303 -0.0168
 2060SOL    HW2 9201   4.506   6.949   3.668 -0.4627 -0.1845  0.0257
 2061SOL     OW 9202   7.409   8.804   5.662  0.1548 -0.3020 -0.2837
 2061SOL    HW1 9203   7.437   8.735   5.721  0.3124  0.1134  0.1281
 2061SOL    HW2 9204   7.485   8.821   5.606  0.7869  0.9157  0.9228
 2062SOL     OW 9205   0.159   3.248   9.408  0.0339 -0.2405  0.0487
 2062SOL    HW1 9206   0.226   3.286   9.465 -1.7338  2.7950  0.2431
 2062SOL    HW2 9207   0.183   3.276   9.320  0.5147 -1.5021 -0.2383
 2063SOL     OW 9208   2.280   4.204   1.272  0.6208 -0.1583 -0.1048
 2063SOL    HW1 9209   2.250   4.214   1.362  2.1734 -0.6427  0.4967
 2063SOL    HW2 9210   2.256   4.114   1.248  0.0883  0.0151 -0.2151
 2064SOL     OW 9211   7.162   1.751   1.358  0.0356 -0.0597  0.2271
 2064SOL    HW1 9212   7.115   1.745   1.275  0.0631 -2.4577  0.3446
 2064SOL    HW2 9213   7.103   1.798   1.416 -0.6668  0.2039 -0.6828
 2065SOL     OW 9214   4.692   7.886   4.936 -0.2360 -0.1388  0.3156
 2065SOL    HW1 9215   4.603   7.855   4.953 -0.1239  0.5174  2.2035
 2065SOL    HW2 9216   4.699   7.967   4.987  1.7745 -0.7194  0.9733
 2066SOL     OW 9217   7.871   4.282   4.335 -0.1122  0.3703 -0.4304
 2066SOL    HW1 9218   7.942   4.346   4.323  0.1241  0.3635  0.8299
 2066SOL    HW2 9219   7.797   4.334   4.367 -0.3215  0.1968 -0.6284
 2067SOL     OW 9220   7.813   3.103   8.881  0.0937 -0.0663  0.3865
 2067SOL    HW1 9221   7.825   3.090   8.975  1.6546 -0.9344  0.0780
 2067SOL    HW2 9222   7.736   3.050   8.860  1.7135 -2.5821  0.5953
 2068SOL     OW 9223   5.188   1.364   4.457 -0.5375  0.3228 -0.4745
 2068SOL    HW1 9224   5.199   1.459   4.456 -0.6899  0.3559  0.3149
 2068SOL    HW2 9225   5.229   1.334   4.376  0.8918  0.9092  0.0195
 2069SOL     OW 9226   1.097   5.348   1.904 -0.0422 -0.1426 -0.2596
 2069SOL    HW1 9227   1.136   5.372   1.988  0.9107  0.5196 -0.8949
 2069SOL    HW2 9228   1.149   5.274   1.873  0.8371  0.8480 -1.1856
 2070SOL     OW 9229   7.976   3.159   9.345  0.7169 -0.0083  0.5750
 2070SOL    HW1 9230   7.913   3.145   9.416  0.3938 -0.3971  0.2138
 2070SOL    HW2 9231   8.057   3.184   9.390 -0.2548  2.6200  0.9474
 2071SOL     OW 9232   0.151   2.679   3.384  0.0961  0.3896  0.2681
 2071SOL    HW1 9233   0.064   2.711   3.406 -0.6791 -2.1146  1.0533
 2071SOL    HW2 9234   0.193   2.665   3.469  0.0983 -1.4247 -0.0224
 2072SOL     OW 9235   7.083   4.476   1.216  0.9709  0.3729  0.0618
 2072SOL    HW1 9236   6.997   4.483   1.176  1.4863  0.6590 -1.0384
 2072SOL    HW2 9237   7.101   4.382   1.220 -0.4393  0.1700  2.6444
 2073SOL     OW 9238   1.638   0.470   5.494  0.6727 -0.0532  0.0935
 2073SOL    HW1 9239   1.598   0.384   5.476  0.9667 -0.3760  0.9447
 2073SOL    HW2 9240   1.569   0.533   5.475 -0.8366 -0.6802  3.1028
 2074SOL     OW 9241   0.823   1.204   3.431  0.3754  0.0885 -0.5474
 2074SOL    HW1 9242   0.851   1.193   3.522 -0.8036  0.7942 -0.0975
 2074SOL    HW2 9243   0.842   1.295   3.410  0.2248  0.0486 -0.8682
 2075SOL     OW 9244   6.336   1.142   2.568 -0.2095  0.1182 -0.5034
 2075SOL    HW1 9245   6.248   1.173   2.545  0.2403  1.1022 -0.9299
 2075SOL    HW2 9246   6.329   1.047   2.566 -0.9171  0.1805 -1.9772
 2076SOL     OW 9247   9.077   7.830   6.067 -0.2533 -0.3146 -0.4389
 2076SOL    HW1 9248   9.025   7.780   6.131 -3.9885  2.8176 -0.8223
 2076SOL    HW2 9249   9.123   7.895   6.120  1.4929 -1.5948 -0.3542
 2077SOL     OW 9250   7.384   2.769   0.095  0.0487  0.1250 -0.0071
 2077SOL    HW1 9251   7.347   2.684   0.071  0.6149  0.0269 -0.5335
 2077SOL    HW2 9252   7.333   2.797   0.171 -0.2423 -0.6139  0.0683
 2078SOL     OW 9253   1.278   2.834   7.395  0.4291 -0.0430  0.2619
 2078SOL    HW1 9254   1.346   2.869   7.338  0.4145  2.6956  1.8563
 2078SOL    HW2 9255   1.203   2.891   7.380  0.0110 -0.1107  2.0361
 2079SOL     OW 9256   4.486   3.484   5.662 -0.3327  0.2488 -0.4203
 2079SOL    HW1 9257   4.425   3.424   5.705  0.6379 -0.2250  0.2951
 2079SOL    HW2 9258   4.462   3.479   5.569 -1.5431  0.2544 -0.1134
 2080SOL     OW 9259   3.959   4.052   3.936  0.2100  0.2281  0.7348
 2080SOL    HW1 9260   4.034   4.092   3.979  0.4578  1.1352 -0.4897
 2080SOL    HW2 9261   3.998   3.997   3.867 -0.2541  1.0060 -0.1550
 2081SOL     OW 9262   8.599   7.472   3.502  0.0053 -0.6098  0.2436
 2081SOL    HW1 9263   8.619   7.381   3.525 -0.9149 -1.2075 -1.2257
 2081SOL    HW2 9264   8.628   7.523   3.578  2.3468 -1.9292  0.2969
 2082SOL     OW 9265   2.068   5.681   5.695 -0.0136 -0.3721 -0.4576
 2082SOL    HW1 9266   2.044   5.728   5.775  2.3283  2.1566 -1.1831
 2082SOL    HW2 9267   1.990   5.630   5.673 -1.8901  1.5245  1.5491
 2083SOL     OW 9268   6.000   8.082   5.746 -0.5415  0.0502  0.1319
 2083SOL    HW1 9269   6.054   8.003   5.753 -0.1780  0.3405  0.6358
 2083SOL    HW2 9270   5.924   8.055   5.695  1.0952  0.1628 -2.4705
 2084SOL     OW 9271   2.277   7.951   6.157  0.0416 -0.2043 -0.1417
 2084SOL    HW1 9272   2.372   7.941   6.151 -0.0950 -1.2058 -0.6695
 2084SOL    HW2 9273   2.245   7.865   6.184 -0.5182  0.7343  2.3579
 2085SOL     OW 9274   0.506   2.040   7.156  0.1561 -0.0202  0.1310
 2085SOL    HW1 9275   0.510   1.993   7.072  0.1189  0.6014 -0.2183
 2085SOL    HW2 9276   0.491   2.131   7.132  0.2345  0.1740  0.8155
 2086SOL     OW 9277   1.808   4.822   9.170  0.0649  0.0082 -0.3338
 2086SOL    HW1 9278   1.889   4.774   9.150  0.0617 -0.0007 -0.3254
 2086SOL    HW2 9279   1.773   4.846   9.084 -1.0635 -1.8796 -0.4200
 2087SOL     OW 9280   3.699   7.188   3.243 -0.6863 -0.6335 -0.3943
 2087SOL    HW1 9281   3.611   7.157   3.221 -0.8830 -0.0969 -0.3559
 2087SOL    HW2 9282   3.688   7.236   3.325 -0.3748 -0.4768 -0.4450
 2088SOL     OW 9283   2.166   0.585   5.512 -0.1596  0.1339  0.0055
 2088SOL    HW1 9284   2.093   0.645   5.496  1.4179  1.7619 -1.3686
 2088SOL    HW2 9285   2.230   0.637   5.560  1.0594 -0.5777 -0.8168
 2089SOL     OW 9286   5.336   2.383   2.728 -0.3869  0.0727 -0.7431
 2089SOL    HW1 9287   5.413   2.440   2.720  0.0461 -0.5866 -1.3125
 2089SOL    HW2 9288   5.339   2.351   2.818 -0.7117  1.0623 -0.3757
 2090SOL     OW 9289   3.465   0.028   2.060  0.5875 -0.6566  0.9388
 2090SOL    HW1 9290   3.480   0.025   1.965 -0.8258 -1.2765  0.7203
 2090SOL    HW2 9291   3.497   0.115   2.086 -1.9145  0.8152 -0.6602
 2091SOL     OW 9292   1.466   1.925   4.535 -0.4171 -0.2315 -0.6547
 2091SOL    HW1 9293   1.519   1.856   4.495 -0.2142  0.7701 -2.1665
 2091SOL    HW2 9294   1.461   1.993   4.468 -2.1763  0.4256  0.1202
 2092SOL     OW 9295   3.033   0.921   5.363  0.3402 -0.0981  0.3789
 2092SOL    HW1 9296   3.037   0.874   5.280  0.1810  0.3029  0.1387
 2092SOL    HW2 9297   2.965   0.987   5.349 -1.2053 -1.3933  1.5325
 2093SOL     OW 9298   3.599   8.001   5.821  0.1754  0.3779 -0.4571
 2093SOL    HW1 9299   3.622   8.081   5.869  0.6436 -0.9869  1.6501
 2093SOL    HW2 9300   3.505   7.992   5.835 -0.0345  1.0428 -1.4432
 2094SOL     OW 9301   1.154   6.921   6.360 -0.1583  0.2676  0.2282
 2094SOL    HW1 9302   1.156   6.953   6.270 -0.9762  1.0647  0.4857
 2094SOL    HW2 9303   1.064   6.936   6.388  0.5852  1.8153  1.8404
 2095SOL     OW 9304   7.245   0.132   5.180 -0.2196 -0.4030 -0.2811
 2095SOL    HW1 9305   7.225   0.184   5.257 -0.1066  1.2921 -1.3679
 2095SOL    HW2 9306   7.181   0.061   5.182 -0.2395 -0.3464  1.3377
 2096SOL     OW 9307   0.253   1.217   4.796  0.1966  0.4739  0.1631
 2096SOL    HW1 9308   0.167   1.238   4.834 -0.1180 -1.3274  0.4761
 2096SOL    HW2 9309   0.295   1.302   4.785 -2.3031  1.5402 -1.6421
 2097SOL     OW 9310   5.434   8.489   1.111  0.2394  0.0001 -0.2989
 2097SOL    HW1 9311   5.477   8.501   1.027 -1.9793  0.6344 -1.3974
 2097SOL    HW2 9312   5.392   8.404   1.105  0.6199 -0.2463  0.4305
 2098SOL     OW 9313   8.195   1.649   6.851 -0.1488  0.9048 -0.9511
 2098SOL    HW1 9314   8.113   1.632   6.805  1.3968 -3.0263 -2.4631
 2098SOL    HW2 9315   8.179   1.618   6.940 -0.4069  0.5420 -1.1234
 2099SOL     OW 9316   9.381   7.200   2.289  0.1571  0.0116  0.3469
 2099SOL    HW1 9317   9.458   7.200   2.346  0.6608  2.8851 -0.2231
 2099SOL    HW2 9318   9.415   7.224   2.203 -1.2703  0.5935 -0.0743
 2100SOL     OW 9319   9.108   2.391   8.972  0.2951 -0.0776  0.6031
 2100SOL    HW1 9320   9.045   2.463   8.977 -0.3164 -0.6280  0.8204
 2100SOL    HW2 9321   9.180   2.426   8.919 -0.3464  0.4382  0.0635
 2101SOL     OW 9322   5.995   8.871   2.233  0.2726 -0.8311  0.1047
 2101SOL    HW1 9323   5.937   8.914   2.170  1.4556  0.3176 -0.2335
 2101SOL    HW2 9324   6.069   8.931   2.241  0.9585 -1.8211  1.2520
 2102SOL     OW 9325   3.681   0.971   6.327 -0.6012 -0.3401 -0.4304
 2102SOL    HW1 9326   3.700   0.982   6.420  3.1105 -2.3353 -0.8494
 2102SOL    HW2 9327   3.643   0.884   6.320 -1.7346  0.1673 -0.6913
 2103SOL     OW 9328   6.099   2.543   6.017 -0.1531  0.0984 -0.0381
 2103SOL    HW1 9329   6.153   2.560   6.094 -1.1077 -0.5477  0.7922
 2103SOL    HW2 9330   6.022   2.498   6.051 -0.8257  0.2516 -1.3110
 2104SOL     OW 9331   8.808   3.598   8.497 -0.5683  0.0195  0.4157
 2104SOL    HW1 9332   8.773   3.545   8.569  1.2731  0.8637  1.9586
 2104SOL    HW2 9333   8.794   3.688   8.525 -0.6588  0.3621 -0.7119
 2105SOL     OW 9334   3.149   6.588   8.342 -0.1363  0.1865  0.1921
 2105SOL    HW1 9335   3.211   6.632   8.399 -1.6616  1.9505  0.5582
 2105SOL    HW2 9336   3.075   6.567   8.398  0.6168 -3.0374  0.0418
 2106SOL     OW 9337   8.262   6.228   2.059 -0.2992  0.5136 -0.2366
 2106SOL    HW1 9338   8.180   6.222   2.010 -0.9460 -0.8859  0.9566
 2106SOL    HW2 9339   8.322   6.169   2.013 -0.3203  0.6395 -0.4266
 2107SOL     OW 9340   2.779   0.689   3.920  0.3540  0.3870 -0.2946
 2107SOL    HW1 9341   2.720   0.622   3.955 -0.2873 -0.0624 -2.1456
 2107SOL    HW2 9342   2.769   0.682   3.825  2.9836  0.7000 -0.6283
 2108SOL     OW 9343   3.194   1.929   4.194  0.0455  0.2544  0.1699
 2108SOL    HW1 9344   3.182   2.007   4.248  0.0022 -0.1172  0.6975
 2108SOL    HW2 9345   3.200   1.857   4.256 -2.2212 -0.4592 -0.3955
 2109SOL     OW 9346   0.927   4.312   4.083 -0.5142 -0.3770 -0.9183
 2109SOL    HW1 9347   0.851   4.320   4.141 -0.0281  1.2557 -0.4881
 2109SOL    HW2 9348   0.944   4.217   4.079 -1.4594 -0.6132  0.4029
 2110SOL     OW 9349   2.361   6.017   1.621 -0.4755 -0.4849  0.0465
 2110SOL    HW1 9350   2.333   5.926   1.612 -2.6315  0.0124  1.5554
 2110SOL    HW2 9351   2.409   6.035   1.540  0.2484 -3.0346 -0.1450
 2111SOL     OW 9352   3.763   4.832   9.200  0.0930 -0.4176  0.1196
 2111SOL    HW1 9353   3.807   4.873   9.274 -1.5113  1.7301 -0.0683
 2111SOL    HW2 9354   3.777   4.892   9.127 -1.1068 -0.8930 -0.5241
 2112SOL     OW 9355   2.240   1.201   3.426 -0.1942 -0.6372  0.8366
 2112SOL    HW1 9356   2.281   1.214   3.341 -1.8229  1.3122  0.3212
 2112SOL    HW2 9357   2.236   1.106   3.437 -0.8251 -0.9306 -1.6707
 2113SOL     OW 9358   0.426   1.026   0.735 -0.5402  0.9541  0.5519
 2113SOL    HW1 9359   0.380   1.101   0.773  0.4602  1.7810  0.1718
 2113SOL    HW2 9360   0.370   0.997   0.663 -0.3985  2.0300  0.0066
 2114SOL     OW 9361   6.398   9.332   3.703  0.6742 -0.2959  0.0805
 2114SOL    HW1 9362   6.351   9.359   3.782  1.9682  3.0097 -0.1734
 2114SOL    HW2 9363   6.383   9.238   3.696 -2.6425  0.0117  2.1150
 2115SOL     OW 9364   3.584   6.923   3.091 -0.1973 -0.1250  0.4490
 2115SOL    HW1 9365   3.571   6.992   3.025 -1.1279  1.3988  2.1751
 2115SOL    HW2 9366   3.521   6.855   3.068 -1.6053  1.0855  0.6439
 2116SOL     OW 9367   7.014   0.418   7.226  0.1355 -0.6810  0.5314
 2116SOL    HW1 9368   6.933   0.387   7.185  0.4451  0.5311 -1.0495
 2116SOL    HW2 9369   6.985   0.486   7.287 -0.1732 -1.3031  1.0814
 2117SOL     OW 9370   2.734   8.862   0.313  0.2237 -0.3269 -0.0605
 2117SOL    HW1 9371   2.706   8.775   0.283  1.7872 -1.1348  0.7580
 2117SOL    HW2 9372   2.753   8.850   0.406  1.4304  0.6415 -0.1644
 2118SOL     OW 9373   4.495   1.762   5.574 -0.2087 -0.0214  0.5423
 2118SOL    HW1 9374   4.555   1.688   5.589  0.1917 -0.0305 -0.9662
 2118SOL    HW2 9375   4.408   1.722   5.574 -0.0087 -0.4749 -0.0524
 2119SOL     OW 9376   6.633   2.923   8.660  0.1755 -0.1531  0.2799
 2119SOL    HW1 9377   6.712   2.879   8.691  0.0774 -0.0572  0.6706
 2119SOL    HW2 9378   6.567   2.904   8.727  0.2683  1.0069  0.7166
 2120SOL     OW 9379   4.854   4.075   9.295 -0.2667 -0.6401 -0.0692
 2120SOL    HW1 9380   4.844   4.162   9.335 -1.1615 -0.6915 -0.1723
 2120SOL    HW2 9381   4.816   4.015   9.359  1.4663 -1.0968  0.5565
 2121SOL     OW 9382   6.052   4.939   1.564  0.1380  0.1334  0.2110
 2121SOL    HW1 9383   6.033   5.002   1.494  2.5693  2.7033  1.7903
 2121SOL    HW2 9384   5.970   4.931   1.612 -0.9089  0.0786 -1.5355
 2122SOL     OW 9385   6.252   6.400   2.084 -0.0646 -0.1339 -0.4414
 2122SOL    HW1 9386   6.209   6.416   2.000  2.2471  1.0919 -1.4238
 2122SOL    HW2 9387   6.265   6.487   2.121 -0.7204 -0.6541  1.0307
 2123SOL     OW 9388   2.016   2.648   6.590 -0.2408  0.5184 -0.0212
 2123SOL    HW1 9389   1.994   2.684   6.676 -2.1784 -0.0553 -0.2473
 2123SOL    HW2 9390   2.112   2.652   6.586 -0.0689 -0.2510  2.5073
 2124SOL     OW 9391   4.251   3.814   2.356  0.0405  0.1243  0.2459
 2124SOL    HW1 9392   4.294   3.880   2.302 -2.7798 -0.0358 -2.3490
 2124SOL    HW2 9393   4.310   3.738   2.352  1.5840  1.2980  0.3308
 2125SOL     OW 9394   3.982   1.599   2.658  0.5251  0.0382 -0.2101
 2125SOL    HW1 9395   3.989   1.617   2.564 -0.1961 -0.7347 -0.4203
 2125SOL    HW2 9396   3.969   1.684   2.698  0.2045  0.3103 -0.8843
 2126SOL     OW 9397   3.607   3.532   1.321  0.0582 -0.0040  0.2018
 2126SOL    HW1 9398   3.628   3.480   1.243 -1.8380 -2.1378  1.0615
 2126SOL    HW2 9399   3.530   3.489   1.358 -1.1858  3.1153  1.3100
 2127SOL     OW 9400   8.790   6.211   8.231  0.7132 -0.1180  0.2198
 2127SOL    HW1 9401   8.712   6.155   8.227 -0.0121  0.7626  1.6255
 2127SOL    HW2 9402   8.828   6.192   8.317  2.4008 -0.9936 -0.7104
 2128SOL     OW 9403   1.275   6.721   0.366 -0.0419  0.3790 -0.0082
 2128SOL    HW1 9404   1.337   6.649   0.377 -0.5590 -0.0947 -0.1618
 2128SOL    HW2 9405   1.308   6.770   0.290 -2.9093 -3.1226 -3.7568
 2129SOL     OW 9406   5.633   1.174   9.428  0.0321 -0.1852 -0.2924
 2129SOL    HW1 9407   5.708   1.133   9.385  0.9798 -0.6139  1.7229
 2129SOL    HW2 9408   5.664   1.261   9.452 -0.5281  0.0939 -0.5773
 2130SOL     OW 9409   6.447   8.942   4.246  0.6017 -0.2344  0.2356
 2130SOL    HW1 9410   6.398   8.953   4.328 -1.0904  0.8195 -0.8835
 2130SOL    HW2 9411   6.455   9.031   4.212  0.6134 -0.7515 -1.1193
 2131SOL     OW 9412   2.332   5.840   8.767  0.5546  0.4711 -0.2799
 2131SOL    HW1 9413   2.389   5.895   8.820  0.0844  0.2261  0.4910
 2131SOL    HW2 9414   2.267   5.807   8.829 -0.6390  1.0405 -1.2052
 2132SOL     OW 9415   4.009   3.258   6.094  0.7125 -0.7149  0.4465
 2132SOL    HW1 9416   4.031   3.322   6.026  0.9660 -0.1421  1.0564
 2132SOL    HW2 9417   3.967   3.186   6.047 -0.0257  0.1211 -0.1979
 2133SOL     OW 9418   5.144   3.310   5.568 -0.3406  0.1948 -0.3350
 2133SOL    HW1 9419   5.172   3.398   5.595 -0.0591 -0.5931  1.9980
 2133SOL    HW2 9420   5.087   3.280   5.638 -1.2837 -1.1038 -1.6298
 2134SOL     OW 9421   5.219   1.335   7.704  0.0041 -0.3551  0.3028
 2134SOL    HW1 9422   5.296   1.283   7.682  0.8433  0.7964  0.4683
 2134SOL    HW2 9423   5.166   1.278   7.758  0.0685 -1.6583 -0.9756
 2135SOL     OW 9424   2.467   4.322   2.228 -0.3912 -0.2134  0.2282
 2135SOL    HW1 9425   2.540   4.320   2.290 -0.7610 -0.4582  0.6527
 2135SOL    HW2 9426   2.394   4.359   2.277 -0.6056 -0.1259 -0.1490
 2136SOL     OW 9427   3.404   7.111   5.215 -0.1931  0.3403  0.8101
 2136SOL    HW1 9428   3.403   7.110   5.311 -1.6982  0.8028  0.8147
 2136SOL    HW2 9429   3.384   7.201   5.192 -1.8580 -0.1868  0.0722
 2137SOL     OW 9430   2.296   3.470   7.198 -0.0660 -0.0872 -0.4040
 2137SOL    HW1 9431   2.358   3.530   7.238 -0.6198 -0.7856  1.5381
 2137SOL    HW2 9432   2.262   3.417   7.270 -3.8539  1.0743 -1.2110
 2138SOL     OW 9433   0.293   8.605   4.072 -0.3154 -0.2233 -0.3898
 2138SOL    HW1 9434   0.303   8.516   4.105 -0.6384 -0.1790 -0.1700
 2138SOL    HW2 9435   0.205   8.631   4.099 -1.0756 -0.6570 -2.3976
 2139SOL     OW 9436   5.019   0.715   1.148 -0.4817 -0.3003 -0.1773
 2139SOL    HW1 9437   4.953   0.763   1.099  1.2473  1.6256 -0.7037
 2139SOL    HW2 9438   5.029   0.633   1.100 -0.0450  0.8436 -2.1160
 2140SOL     OW 9439   6.075   1.282   6.808 -0.6533 -0.2553  0.0740
 2140SOL    HW1 9440   6.022   1.346   6.856 -0.3720  0.4494 -0.5339
 2140SOL    HW2 9441   6.158   1.279   6.856  0.1526  1.5154 -1.1575
 2141SOL     OW 9442   0.298   7.391   5.368  0.1127 -0.0777  0.0845
 2141SOL    HW1 9443   0.385   7.382   5.329 -0.1579 -0.5330 -0.4351
 2141SOL    HW2 9444   0.250   7.314   5.337 -1.1487  1.2764 -1.4181
 2142SOL     OW 9445   3.297   1.740   6.054  0.2553  0.3793 -0.4093
 2142SOL    HW1 9446   3.210   1.760   6.019 -0.2815 -1.1893 -0.0015
 2142SOL    HW2 9447   3.294   1.769   6.145  0.6257  1.5896 -0.7719
 2143SOL     OW 9448   8.514   7.284   3.792  0.1225  0.0726 -0.0002
 2143SOL    HW1 9449   8.451   7.348   3.826  0.5846 -0.1316  1.2700
 2143SOL    HW2 9450   8.487   7.201   3.831  0.0200 -0.3686 -0.9934
 2144SOL     OW 9451   1.877   7.528   8.923  0.1433 -0.0056  0.0375
 2144SOL    HW1 9452   1.880   7.605   8.979 -0.0937 -0.4186  0.6302
 2144SOL    HW2 9453   1.787   7.494   8.933 -0.5427  1.0607 -2.1592
 2145SOL     OW 9454   3.032   1.550   9.313  0.0968 -0.0192  0.4248
 2145SOL    HW1 9455   3.009   1.468   9.356  0.0785 -1.3696 -2.0602
 2145SOL    HW2 9456   3.098   1.526   9.248  0.2988  1.9773 -0.1474
 2146SOL     OW 9457   0.098   7.523   0.057  0.4275  0.2316  0.4175
 2146SOL    HW1 9458   0.133   7.436   0.075  2.3396  0.9635  0.4647
 2146SOL    HW2 9459   0.064   7.554   0.141 -1.4019 -0.9403  0.1256
 2147SOL     OW 9460   1.209   0.951   6.025 -0.4478  0.2376 -0.1038
 2147SOL    HW1 9461   1.274   0.955   6.095 -0.2505  1.2771 -0.3381
 2147SOL    HW2 9462   1.130   0.990   6.063 -0.1676  1.3538 -0.6271
 2148SOL     OW 9463   4.191   6.782   2.738  0.0574  0.2978 -0.2856
 2148SOL    HW1 9464   4.137   6.841   2.791 -1.8313  0.6412 -2.4705
 2148SOL    HW2 9465   4.259   6.750   2.797 -2.3524  0.1336  2.4887
 2149SOL     OW 9466   8.547   0.898   7.725  0.1874  0.5069  0.0179
 2149SOL    HW1 9467   8.537   0.915   7.631 -0.0846 -0.7389 -0.1866
 2149SOL    HW2 9468   8.638   0.872   7.736 -0.1567 -0.8165 -0.1489
 2150SOL     OW 9469   2.598   8.643   9.026 -0.3462  0.9240  0.4116
 2150SOL    HW1 9470   2.593   8.627   8.932 -0.7378  0.9480  0.4297
 2150SOL    HW2 9471   2.644   8.726   9.034 -2.6151  2.2276  0.1540
 2151SOL     OW 9472   6.989   2.949   1.928 -0.1216  0.1438 -0.0770
 2151SOL    HW1 9473   6.912   3.006   1.927 -0.5103 -0.3481  0.9733
 2151SOL    HW2 9474   6.975   2.892   2.004  0.3395 -1.2307 -0.9993
 2152SOL     OW 9475   3.395   6.328   6.314 -0.4213  0.5044  0.3884
 2152SOL    HW1 9476   3.401   6.310   6.408  0.4090 -1.9595 -0.0948
 2152SOL    HW2 9477   3.332   6.265   6.281 -1.4258  1.9947 -0.5743
 2153SOL     OW 9478   7.791   6.764   0.708 -0.2108 -0.2564 -0.0301
 2153SOL    HW1 9479   7.786   6.670   0.694 -0.5931 -0.2424  0.0128
 2153SOL    HW2 9480   7.702   6.790   0.732  0.0286  0.0134  0.5999
 2154SOL     OW 9481   7.460   5.659   9.160 -0.5856  0.5581  0.4137
 2154SOL    HW1 9482   7.510   5.699   9.088 -1.6419  1.8096  0.3697
 2154SOL    HW2 9483   7.488   5.707   9.238  2.9152 -2.8185  1.4288
 2155SOL     OW 9484   2.353   3.101   7.531  0.4549 -0.1958  0.2119
 2155SOL    HW1 9485   2.361   3.038   7.460  0.2977  4.7387 -4.5686
 2155SOL    HW2 9486   2.443   3.128   7.550  0.3907 -0.4815  0.9628
 2156SOL     OW 9487   2.236   3.848   3.439  0.2525  0.3915 -0.8235
 2156SOL    HW1 9488   2.329   3.854   3.464  0.3216 -0.8519 -0.7537
 2156SOL    HW2 9489   2.191   3.906   3.501  0.6310 -1.3316  1.1071
 2157SOL     OW 9490   5.489   4.067   8.631  0.8243  0.8927  0.0822
 2157SOL    HW1 9491   5.465   3.976   8.644  0.4665  1.0600  0.5798
 2157SOL    HW2 9492   5.508   4.100   8.718  3.3760  0.6326 -0.3414
 2158SOL     OW 9493   8.273   0.660   2.039  0.4226  0.0832 -0.7693
 2158SOL    HW1 9494   8.365   0.675   2.062  0.5933  1.1413 -2.0543
 2158SOL    HW2 9495   8.270   0.568   2.012  0.5194 -0.7419  1.9279
 2159SOL     OW 9496   6.011   3.774   3.027 -0.7424 -0.2134 -0.4614
 2159SOL    HW1 9497   6.076   3.761   2.958  0.2451 -0.5234  0.5124
 2159SOL    HW2 9498   5.993   3.687   3.061  0.8321  0.1845  1.5124
 2160SOL     OW 9499   4.541   4.841   2.221 -0.0436  0.0182  0.7276
 2160SOL    HW1 9500   4.488   4.920   2.212  0.6813  0.5677  1.2289
 2160SOL    HW2 9501   4.589   4.834   2.139  0.1220  0.2636  0.8051
 2161SOL     OW 9502   8.111   1.902   1.493 -0.0610 -0.1068  0.0989
 2161SOL    HW1 9503   8.108   1.996   1.514  1.0021 -0.1144  0.2984
 2161SOL    HW2 9504   8.019   1.877   1.483 -0.2728  1.3831 -1.9057
 2162SOL     OW 9505   7.925   2.258   8.795 -0.2920  0.3373 -0.1694
 2162SOL    HW1 9506   7.845   2.260   8.744 -1.2335 -4.2546  0.9170
 2162SOL    HW2 9507   7.916   2.331   8.857 -4.2278 -0.8739  0.8006
 2163SOL     OW 9508   8.684   3.830   0.740 -0.5130 -0.2690 -0.6810
 2163SOL    HW1 9509   8.643   3.743   0.739 -1.2775  0.0959 -1.4115
 2163SOL    HW2 9510   8.773   3.815   0.706 -0.2582 -0.9481  0.2607
 2164SOL     OW 9511   4.085   8.186   5.814 -0.6936 -0.0960  0.3705
 2164SOL    HW1 9512   4.013   8.165   5.874  0.7112  0.7969  2.4221
 2164SOL    HW2 9513   4.164   8.161   5.862  0.3524 -1.5438 -2.0700
 2165SOL     OW 9514   2.231   1.558   6.434  0.4799 -0.4155 -0.2540
 2165SOL    HW1 9515   2.142   1.556   6.470  0.3799  0.8401 -0.4289
 2165SOL    HW2 9516   2.231   1.632   6.374  1.9550  0.2331  0.5386
 2166SOL     OW 9517   8.028   0.851   2.527 -0.4250  0.1430  0.0378
 2166SOL    HW1 9518   7.971   0.889   2.460 -0.7911  0.4192  0.5000
 2166SOL    HW2 9519   8.094   0.802   2.478 -0.5265  0.5728 -0.5340
 2167SOL     OW 9520   8.541   1.784   3.867  0.6117  0.4319 -0.7257
 2167SOL    HW1 9521   8.635   1.766   3.860  0.2981 -1.6568 -0.0387
 2167SOL    HW2 9522   8.500   1.702   3.838 -1.0018  1.4507 -1.3492
 2168SOL     OW 9523   5.116   1.018   6.579 -0.9480  0.2609 -0.4364
 2168SOL    HW1 9524   5.092   0.930   6.552 -1.6242  0.0041  0.9396
 2168SOL    HW2 9525   5.089   1.023   6.671 -1.5877  2.1311 -0.6951
 2169SOL     OW 9526   6.327   7.655   0.024  0.6474 -0.2717 -0.1802
 2169SOL    HW1 9527   6.407   7.625   0.068 -0.1654 -0.4702  1.1813
 2169SOL    HW2 9528   6.321   7.748   0.047  0.6329 -0.1862 -0.5222
 2170SOL     OW 9529   5.635   1.417   0.452 -0.0773 -0.3170  0.0929
 2170SOL    HW1 9530   5.553   1.442   0.494  0.1490  0.4414  0.0865
 2170SOL    HW2 9531   5.703   1.450   0.510  0.2327 -1.8724  0.6395
 2171SOL     OW 9532   0.963   5.816   1.009  0.1438  0.6878  0.8779
 2171SOL    HW1 9533   0.887   5.761   1.026  0.0381  0.3657 -0.5587
 2171SOL    HW2 9534   1.038   5.763   1.035 -0.0705  0.6399  1.3978
 2172SOL     OW 9535   5.248   0.946   7.828  0.1829 -0.0506 -0.4596
 2172SOL    HW1 9536   5.234   1.041   7.825 -0.7859 -0.1926 -0.7112
 2172SOL    HW2 9537   5.187   0.912   7.762 -0.2787 -0.9400  0.4301
 2173SOL     OW 9538   6.914   4.776   4.874  0.1042  0.1186 -0.0408
 2173SOL    HW1 9539   6.929   4.705   4.937  1.0025  0.0718 -0.2968
 2173SOL    HW2 9540   6.829   4.811   4.898 -1.1978 -2.2098 -1.0350
 2174SOL     OW 9541   4.173   6.966   1.897 -0.3975 -0.3714  0.2662
 2174SOL    HW1 9542   4.214   6.882   1.873 -1.2131 -0.7246  0.0959
 2174SOL    HW2 9543   4.104   6.942   1.959  0.7811  0.4042  1.9055
 2175SOL     OW 9544   3.257   0.807   6.301 -0.1859  0.4187 -0.1680
 2175SOL    HW1 9545   3.222   0.832   6.215 -0.6417  1.6128  0.3549
 2175SOL    HW2 9546   3.345   0.773   6.282 -0.4736  0.2183 -1.1560
 2176SOL     OW 9547   6.468   3.590   6.698  0.3841  0.2963  0.6269
 2176SOL    HW1 9548   6.485   3.499   6.676 -0.6357  0.5716 -1.4936
 2176SOL    HW2 9549   6.414   3.622   6.625  1.9067  2.9589  0.6044
 2177SOL     OW 9550   5.917   8.274   6.201 -0.9472 -0.3072  0.1877
 2177SOL    HW1 9551   5.952   8.287   6.113 -0.5453  0.4374  0.4528
 2177SOL    HW2 9552   5.824   8.293   6.193 -1.0208 -0.8229 -0.2009
 2178SOL     OW 9553   1.434   2.909   7.791 -0.5632  0.2264 -0.3875
 2178SOL    HW1 9554   1.504   2.844   7.799 -0.6898  0.0508 -0.6905
 2178SOL    HW2 9555   1.417   2.937   7.881  1.2844  1.7370 -0.4740
 2179SOL     OW 9556   7.426   6.849   6.563 -0.0272  0.0261  0.2093
 2179SOL    HW1 9557   7.473   6.785   6.617  0.2694  0.2221  0.1866
 2179SOL    HW2 9558   7.356   6.798   6.521 -1.0204  0.1249  1.7353
 2180SOL     OW 9559   2.014   6.159   0.854  0.0948  0.0281  0.0633
 2180SOL    HW1 9560   2.055   6.245   0.854  3.5568 -1.5345  0.5281
 2180SOL    HW2 9561   1.973   6.152   0.767  1.8332  1.2115 -0.8808
 2181SOL     OW 9562   5.605   2.585   6.094  0.1951  0.4519 -0.0794
 2181SOL    HW1 9563   5.581   2.520   6.028 -2.3307  0.1629  1.0507
 2181SOL    HW2 9564   5.581   2.669   6.054 -2.3013  0.2089  0.7850
 2182SOL     OW 9565   8.753   4.211   6.498  0.2942 -0.4962 -0.4579
 2182SOL    HW1 9566   8.705   4.160   6.563  0.2435  0.3965  0.2142
 2182SOL    HW2 9567   8.685   4.256   6.447  0.3924  0.8808  0.5860
 2183SOL     OW 9568   5.679   8.320   6.657  0.0776  0.4371 -0.2133
 2183SOL    HW1 9569   5.649   8.337   6.568 -1.0081  0.2051  0.1086
 2183SOL    HW2 9570   5.687   8.225   6.662 -0.7996  0.3898  0.2449
 2184SOL     OW 9571   2.333   0.392   3.807 -0.4232 -0.3101  0.0781
 2184SOL    HW1 9572   2.276   0.323   3.842  1.7511 -1.7462  0.8759
 2184SOL    HW2 9573   2.364   0.439   3.885 -1.1583  1.0155 -0.4074
 2185SOL     OW 9574   2.347   6.931   8.848  0.3184  0.2329 -0.4050
 2185SOL    HW1 9575   2.371   6.910   8.758 -1.2816 -0.7722 -0.6284
 2185SOL    HW2 9576   2.329   7.025   8.846 -3.4180 -0.4178 -2.0768
 2186SOL     OW 9577   6.972   8.271   7.240  0.4215  0.2474 -0.2895
 2186SOL    HW1 9578   7.021   8.346   7.206  0.5169  0.2482 -0.1512
 2186SOL    HW2 9579   6.888   8.307   7.268  0.0675  0.1187 -1.1980
 2187SOL     OW 9580   6.965   9.241   2.365 -0.1412  0.3524 -0.1677
 2187SOL    HW1 9581   7.060   9.252   2.369  0.0593 -1.2996 -0.2522
 2187SOL    HW2 9582   6.939   9.284   2.283  0.4177  1.5601  0.2835
 2188SOL     OW 9583   1.347   2.902   7.140 -1.2381 -0.1663  0.6635
 2188SOL    HW1 9584   1.280   2.834   7.130 -0.6631 -0.7626  0.8593
 2188SOL    HW2 9585   1.390   2.906   7.055 -0.4107 -0.9630  1.0335
 2189SOL     OW 9586   0.784   0.627   3.947  0.8425 -0.1454 -0.1443
 2189SOL    HW1 9587   0.758   0.554   3.891 -0.9145 -1.7098  2.5874
 2189SOL    HW2 9588   0.715   0.693   3.935  0.2081 -0.6794  0.4884
 2190SOL     OW 9589   6.085   1.742   5.153 -0.0482 -0.1784 -0.6978
 2190SOL    HW1 9590   6.074   1.665   5.097 -1.1503  1.0703 -2.2508
 2190SOL    HW2 9591   6.130   1.805   5.098  0.3878  0.4843  0.4007
 2191SOL     OW 9592   1.137   5.591   3.753 -0.0937  0.3121  0.3999
 2191SOL    HW1 9593   1.062   5.546   3.793 -0.4751  2.1304  1.7993
 2191SOL    HW2 9594   1.097   5.652   3.691  0.1863  1.3045  1.1695
 2192SOL     OW 9595   7.115   6.272   6.205  0.7363 -0.4856 -0.1263
 2192SOL    HW1 9596   7.163   6.193   6.180  0.5066 -0.1839 -1.6229
 2192SOL    HW2 9597   7.085   6.255   6.294  3.8633 -0.5452  0.9845
 2193SOL     OW 9598   0.529   7.667   9.346 -0.4696  0.4395 -0.7353
 2193SOL    HW1 9599   0.542   7.616   9.266 -1.2077 -0.6540 -0.1707
 2193SOL    HW2 9600   0.617   7.677   9.383 -0.0776  1.2358 -1.8337
 2194SOL     OW 9601   7.861   7.356   0.704  0.0077  0.0490 -0.2661
 2194SOL    HW1 9602   7.950   7.346   0.737 -0.4653 -0.5948  0.8163
 2194SOL    HW2 9603   7.865   7.434   0.649  1.3007 -0.1337 -0.4416
 2195SOL     OW 9604   1.526   5.463   3.860 -0.6612  0.3636  0.5103
 2195SOL    HW1 9605   1.509   5.453   3.767  0.1077  2.3190  0.1382
 2195SOL    HW2 9606   1.457   5.411   3.903 -0.5721 -1.1490 -1.1269
 2196SOL     OW 9607   2.892   4.593   9.211 -0.0797  0.2240 -0.0299
 2196SOL    HW1 9608   2.798   4.574   9.205 -0.3063  1.4486 -0.5605
 2196SOL    HW2 9609   2.896   4.680   9.251  0.9074 -0.6589  1.8329
 2197SOL     OW 9610   5.032   3.307   8.078  0.0997  0.0839  0.0159
 2197SOL    HW1 9611   5.039   3.325   7.984 -0.2803 -1.3090 -0.3019
 2197SOL    HW2 9612   5.083   3.227   8.091 -1.5847 -0.9264  0.6016
 2198SOL     OW 9613   9.368   6.554   1.183 -0.1793  0.2677 -0.1387
 2198SOL    HW1 9614   9.354   6.598   1.266  0.1506  0.9094 -0.4246
 2198SOL    HW2 9615   9.281   6.554   1.141 -0.0337  1.2775 -0.4500
 2199SOL     OW 9616   6.055   2.120   7.384  0.1770 -0.6108  0.4774
 2199SOL    HW1 9617   6.101   2.163   7.457  0.2990 -0.4051  0.2824
 2199SOL    HW2 9618   5.983   2.072   7.426 -1.4893  1.8090  0.4937
 2200SOL     OW 9619   8.200   8.673   5.465  0.3938  0.3125  0.5629
 2200SOL    HW1 9620   8.136   8.602   5.472 -0.4358  0.9329 -0.5733
 2200SOL    HW2 9621   8.272   8.647   5.522  0.3705 -1.7285 -0.3108
 2201SOL     OW 9622   7.095   3.427   6.086  0.1964 -0.4253  0.2813
 2201SOL    HW1 9623   7.020   3.370   6.102 -2.2124  1.7357 -2.7258
 2201SOL    HW2 9624   7.067   3.513   6.117  1.0238  0.6155 -1.7517
 2202SOL     OW 9625   9.061   3.880   6.183  0.2798 -1.0737  0.2761
 2202SOL    HW1 9626   8.988   3.901   6.124  0.0070 -1.5864  0.4353
 2202SOL    HW2 9627   9.132   3.936   6.152 -0.0056 -0.9828 -0.2398
 2203SOL     OW 9628   3.610   7.200   9.376 -0.3474 -0.7146  0.0278
 2203SOL    HW1 9629   3.617   7.108   9.353 -1.6436 -0.5501 -1.1000
 2203SOL    HW2 9630   3.569   7.241   9.300 -0.1781  0.7121  0.6828
 2204SOL     OW 9631   3.048   5.256   3.304  0.6662  0.0953 -0.0676
 2204SOL    HW1 9632   3.082   5.299   3.382  1.2565 -0.2686 -0.1212
 2204SOL    HW2 9633   2.953   5.257   3.315  0.7076  0.7616  0.2721
 2205SOL     OW 9634   2.562   1.080   7.649  0.0102  0.1745 -0.0666
 2205SOL    HW1 9635   2.650   1.069   7.614 -0.5309  0.2684 -1.4701
 2205SOL    HW2 9636   2.574   1.132   7.729  1.3841 -1.0915  0.5869
 2206SOL     OW 9637   3.503   5.106   4.427  0.2037  0.1517 -0.0747
 2206SOL    HW1 9638   3.585   5.057   4.437  1.9205  2.8896 -0.1151
 2206SOL    HW2 9639   3.460   5.100   4.513  0.7514 -0.7681  0.1398
 2207SOL     OW 9640   4.632   6.372   3.860 -0.2059 -0.2833 -0.1007
 2207SOL    HW1 9641   4.598   6.456   3.827 -2.1711 -0.5943  1.0417
 2207SOL    HW2 9642   4.720   6.393   3.892 -0.4748  1.2427 -0.3101
 2208SOL     OW 9643   6.011   0.953   4.297 -0.2859  0.5602  0.3643
 2208SOL    HW1 9644   6.026   0.867   4.334 -1.8361  0.8897  1.8174
 2208SOL    HW2 9645   5.943   0.940   4.231 -0.5793  0.6803  0.6421
 2209SOL     OW 9646   5.538   5.067   8.932  0.5278 -0.0021  0.1883
 2209SOL    HW1 9647   5.576   5.153   8.953 -0.2404  0.4113 -0.1100
 2209SOL    HW2 9648   5.582   5.006   8.992  4.1305 -0.0856 -2.3801
 2210SOL     OW 9649   5.315   7.096   3.011  0.1224 -0.4150 -0.0763
 2210SOL    HW1 9650   5.369   7.023   2.980 -0.7729 -0.1844 -2.2230
 2210SOL    HW2 9651   5.314   7.158   2.938 -1.0634  0.7001  0.8621
 2211SOL     OW 9652   1.151   4.623   0.395  0.0359  0.3099  0.0843
 2211SOL    HW1 9653   1.071   4.571   0.386 -0.8514  1.4961  0.8658
 2211SOL    HW2 9654   1.189   4.595   0.479  0.3508 -0.1303 -0.2042
 2212SOL     OW 9655   7.038   4.745   1.611 -0.1781 -0.2428 -0.5422
 2212SOL    HW1 9656   6.943   4.734   1.620 -0.2879  0.4672 -0.8018
 2212SOL    HW2 9657   7.067   4.669   1.562 -0.4850 -0.9432  0.3579
 2213SOL     OW 9658   3.323   7.650   8.080 -0.1580 -0.0903 -0.2168
 2213SOL    HW1 9659   3.306   7.585   8.148 -0.0881 -0.1326 -0.2400
 2213SOL    HW2 9660   3.368   7.721   8.125  1.6200 -0.9656 -0.6049
 2214SOL     OW 9661   3.411   7.419   5.437  0.3929  0.0805  0.0217
 2214SOL    HW1 9662   3.414   7.472   5.357 -0.9242 -0.9686 -0.7524
 2214SOL    HW2 9663   3.503   7.409   5.463  0.6618  2.9737  0.3640
 2215SOL     OW 9664   7.918   5.259   7.179  0.1176  0.6126 -0.6293
 2215SOL    HW1 9665   7.972   5.293   7.108  2.3520 -1.6766 -0.0986
 2215SOL    HW2 9666   7.979   5.243   7.250 -1.4378 -0.9138  0.4136
 2216SOL     OW 9667   4.055   4.707   5.497  0.2685  0.2428  0.1007
 2216SOL    HW1 9668   3.985   4.724   5.560  0.5874  3.8399 -0.4416
 2216SOL    HW2 9669   4.012   4.662   5.425 -0.8376 -0.4809  1.1963
 2217SOL     OW 9670   8.325   8.196   1.004 -0.3977  0.1192  0.4016
 2217SOL    HW1 9671   8.259   8.200   1.073  0.6710 -1.5419  1.5610
 2217SOL    HW2 9672   8.397   8.250   1.036 -0.7582  1.0884 -0.3963
 2218SOL     OW 9673   2.446   3.518   4.222 -0.3853 -0.2231 -0.3477
 2218SOL    HW1 9674   2.492   3.516   4.306 -0.3081 -2.1813 -0.4030
 2218SOL    HW2 9675   2.359   3.550   4.243 -0.2790 -0.4274  0.4316
 2219SOL     OW 9676   1.932   0.808   2.078  0.1445 -0.3864  0.4475
 2219SOL    HW1 9677   2.019   0.841   2.056  1.4906 -2.6762  2.1048
 2219SOL    HW2 9678   1.923   0.823   2.172 -0.5464 -1.7022  0.6046
 2220SOL     OW 9679   2.258   2.072   0.688 -0.2025  0.7967 -0.0540
 2220SOL    HW1 9680   2.226   2.021   0.763  1.4936  0.2680  0.3231
 2220SOL    HW2 9681   2.267   2.161   0.722 -1.0025  0.8927 -0.0868
 2221SOL     OW 9682   5.406   9.158   6.077  0.0220 -0.2164 -0.4025
 2221SOL    HW1 9683   5.397   9.245   6.116  1.6121 -0.2082 -0.0241
 2221SOL    HW2 9684   5.338   9.155   6.010 -1.0375  0.7435  0.6101
 2222SOL     OW 9685   5.630   5.150   0.314  0.3421 -0.2324 -0.2395
 2222SOL    HW1 9686   5.609   5.154   0.407  0.6139  0.1591 -0.1962
 2222SOL    HW2 9687   5.551   5.181   0.270  0.0866 -0.7599 -0.1530
 2223SOL     OW 9688   9.200   3.484   0.438  0.0973  0.5978  0.5705
 2223SOL    HW1 9689   9.283   3.530   0.454 -1.4270  3.6724 -0.0347
 2223SOL    HW2 9690   9.176   3.508   0.349 -1.8741  0.4172  1.0258
 2224SOL     OW 9691   0.694   4.882   7.694 -0.3718  0.5113  0.1966
 2224SOL    HW1 9692   0.621   4.847   7.745 -0.5641  0.6885  0.0446
 2224SOL    HW2 9693   0.669   4.973   7.677  0.4176  0.9250  1.1519
 2225SOL     OW 9694   8.505   2.037   4.115 -0.4805  0.4921  0.0285
 2225SOL    HW1 9695   8.473   2.101   4.178 -0.3520 -0.0288  0.6303
 2225SOL    HW2 9696   8.518   2.087   4.034 -0.8989  1.1076  0.3380
 2226SOL     OW 9697   1.066   0.782   5.019 -0.4779  0.7557 -0.0399
 2226SOL    HW1 9698   1.010   0.817   5.087  1.0857  2.9763  0.1423
 2226SOL    HW2 9699   1.052   0.839   4.944 -0.4712 -0.2947 -0.8539
 2227SOL     OW 9700   3.304   9.113   8.486  0.3613 -0.2581 -0.0918
 2227SOL    HW1 9701   3.320   9.127   8.393  1.3052 -1.0219 -0.0505
 2227SOL    HW2 9702   3.386   9.076   8.520  0.2315  0.5534  1.1544
 2228SOL     OW 9703   4.482   3.621   3.013  0.0874  0.0015 -0.4603
 2228SOL    HW1 9704   4.394   3.660   3.017  0.5390  1.1570 -1.5402
 2228SOL    HW2 9705   4.468   3.528   3.032 -1.2760  0.3181  0.1203
 2229SOL     OW 9706   2.890   3.404   4.973  0.5240  0.6185 -0.1537
 2229SOL    HW1 9707   2.920   3.444   4.891 -0.2125  0.7649 -0.3575
 2229SOL    HW2 9708   2.800   3.436   4.983  0.3630  0.0103  0.3363
 2230SOL     OW 9709   2.847   7.160   3.818 -0.2982  0.4828  0.1023
 2230SOL    HW1 9710   2.827   7.087   3.877 -0.2277  0.5820  0.2483
 2230SOL    HW2 9711   2.826   7.238   3.868  1.8724  0.6433  0.8313
 2231SOL     OW 9712   4.618   3.352   1.603 -0.0493 -0.0041  0.3115
 2231SOL    HW1 9713   4.670   3.290   1.654  1.2017  0.1834 -0.7046
 2231SOL    HW2 9714   4.614   3.430   1.657 -0.6035 -0.5522  1.0713
 2232SOL     OW 9715   2.595   7.083   8.729  0.0993 -0.2737 -0.7734
 2232SOL    HW1 9716   2.677   7.043   8.755  0.1544  0.7170  0.5828
 2232SOL    HW2 9717   2.616   7.131   8.649  0.9413  0.3247 -0.1968
 2233SOL     OW 9718   9.114   5.121   3.187 -0.3588 -0.5041 -0.2641
 2233SOL    HW1 9719   9.140   5.081   3.270 -0.6888  1.2303  0.7022
 2233SOL    HW2 9720   9.117   5.050   3.124  2.3998 -1.3018  0.7136
 2234SOL     OW 9721   7.933   1.606   5.151 -0.3191 -0.0305  0.4590
 2234SOL    HW1 9722   7.914   1.542   5.219 -2.3738 -0.4089 -0.4291
 2234SOL    HW2 9723   7.905   1.564   5.070  1.1100  0.8260 -0.5147
 2235SOL     OW 9724   7.709   7.341   8.863 -0.4261  0.6537 -0.0537
 2235SOL    HW1 9725   7.614   7.338   8.867 -0.4031 -0.9624 -0.6158
 2235SOL    HW2 9726   7.737   7.251   8.881  1.0232  1.2989  1.0025
 2236SOL     OW 9727   4.287   7.669   2.823  0.1342  0.0185  0.2744
 2236SOL    HW1 9728   4.255   7.596   2.771  0.1340  0.2562 -0.0545
 2236SOL    HW2 9729   4.379   7.679   2.798 -0.8866  2.7211 -2.6521
 2237SOL     OW 9730   7.529   1.642   5.182  0.0798  0.4537  0.1120
 2237SOL    HW1 9731   7.587   1.717   5.167  1.5037 -0.4818  0.8251
 2237SOL    HW2 9732   7.564   1.573   5.126 -0.4988 -0.0532  0.3706
 2238SOL     OW 9733   3.263   1.733   2.531 -0.5332  0.4871 -0.5239
 2238SOL    HW1 9734   3.339   1.716   2.475 -0.2801 -0.3872  0.0779
 2238SOL    HW2 9735   3.200   1.666   2.506  0.3819 -1.2669  1.7006
 2239SOL     OW 9736   7.691   5.265   7.332  0.1678  0.2225  0.4853
 2239SOL    HW1 9737   7.772   5.277   7.282  0.0393 -2.0368 -0.3646
 2239SOL    HW2 9738   7.632   5.219   7.270 -0.7163 -0.7756  2.0346
 2240SOL     OW 9739   3.984   5.000   6.162  0.0557  0.5504 -0.5560
 2240SOL    HW1 9740   3.939   5.076   6.200  0.6174  0.6580 -0.0908
 2240SOL    HW2 9741   3.915   4.934   6.151 -0.4202  1.0964 -0.8814
 2241SOL     OW 9742   1.681   3.688   5.071 -0.7972  0.4002 -0.4204
 2241SOL    HW1 9743   1.708   3.602   5.104 -0.8093 -0.1183 -1.7458
 2241SOL    HW2 9744   1.762   3.740   5.072 -0.9402  0.6054  1.0819
 2242SOL     OW 9745   2.629   1.700   9.228 -0.3598  0.1369  0.2501
 2242SOL    HW1 9746   2.640   1.633   9.160 -1.7332  0.2845 -0.1405
 2242SOL    HW2 9747   2.551   1.748   9.201  0.3021  1.5434  0.8299
 2243SOL     OW 9748   5.441   9.277   7.971 -0.0141  0.1275  0.1634
 2243SOL    HW1 9749   5.517   9.231   7.936 -1.2627 -0.4092 -1.9912
 2243SOL    HW2 9750   5.448   9.366   7.936 -0.3051  0.1146  0.0687
 2244SOL     OW 9751   0.363   4.942   0.693 -0.3877  0.3446 -0.3087
 2244SOL    HW1 9752   0.420   4.984   0.757  2.3211 -0.0376 -2.3738
 2244SOL    HW2 9753   0.351   4.852   0.725 -0.8564  0.7708  0.7402
 2245SOL     OW 9754   8.855   5.802   5.287  0.1090  0.1498 -0.9105
 2245SOL    HW1 9755   8.945   5.822   5.312  0.3827 -1.1464 -0.8270
 2245SOL    HW2 9756   8.806   5.881   5.309  0.7258 -0.1535  1.7754
 2246SOL     OW 9757   8.295   2.158   0.703 -0.6972 -0.4408 -0.0533
 2246SOL    HW1 9758   8.257   2.202   0.779  0.8661  1.6788 -0.4442
 2246SOL    HW2 9759   8.220   2.135   0.648 -1.7032 -0.3330  1.2529
 2247SOL     OW 9760   8.633   3.860   6.411  0.4065  0.0756 -0.8544
 2247SOL    HW1 9761   8.634   3.911   6.492 -0.3206  0.4632 -1.0801
 2247SOL    HW2 9762   8.551   3.812   6.414  1.7041 -2.1690 -0.0042
 2248SOL     OW 9763   7.187   1.193   5.459 -0.1671  0.3672 -0.6559
 2248SOL    HW1 9764   7.154   1.179   5.548  0.6511 -1.8189 -0.6750
 2248SOL    HW2 9765   7.108   1.204   5.406 -0.7159 -0.1391  0.0428
 2249SOL     OW 9766   2.577   1.066   7.070  0.0374  0.1982 -0.1128
 2249SOL    HW1 9767   2.514   1.082   7.140  0.1403  1.0183 -0.2053
 2249SOL    HW2 9768   2.584   0.971   7.066 -0.1886  0.1396  0.7934
 2250SOL     OW 9769   7.598   8.889   0.522 -0.1684  0.5592 -0.3557
 2250SOL    HW1 9770   7.546   8.866   0.599  0.7435  0.2681  0.1832
 2250SOL    HW2 9771   7.556   8.843   0.449  0.1368 -0.7724  0.2996
 2251SOL     OW 9772   0.189   7.874   7.601  0.2712 -0.2857  0.2369
 2251SOL    HW1 9773   0.148   7.819   7.667 -0.5201 -0.8983 -0.7642
 2251SOL    HW2 9774   0.251   7.928   7.650  1.0590 -2.0603  1.2266
 2252SOL     OW 9775   7.447   9.035   8.923  0.2502  0.0367  0.0635
 2252SOL    HW1 9776   7.409   8.998   8.844 -1.5928  1.6977  0.1026
 2252SOL    HW2 9777   7.459   8.961   8.982 -0.3955 -0.9105 -0.9850
 2253SOL     OW 9778   2.715   7.251   4.773 -0.5937 -0.0322 -0.4305
 2253SOL    HW1 9779   2.771   7.185   4.815 -1.9461 -2.1340 -1.8395
 2253SOL    HW2 9780   2.777   7.318   4.743  0.5624  0.6630  3.2866
 2254SOL     OW 9781   0.017   9.098   6.469 -0.3176  0.3281 -0.0837
 2254SOL    HW1 9782  -0.067   9.131   6.500 -1.5791 -1.2256 -1.7276
 2254SOL    HW2 9783   0.035   9.022   6.525 -1.5978 -1.2512 -1.7630
 2255SOL     OW 9784   1.895   9.338   4.086 -0.0170  0.7895 -0.0520
 2255SOL    HW1 9785   1.988   9.316   4.099 -0.0124  0.8162 -0.0390
 2255SOL    HW2 9786   1.850   9.254   4.083 -0.0083  0.7811  0.0586
 2256SOL     OW 9787   6.933   2.985   0.354  0.3930  0.2221 -0.6368
 2256SOL    HW1 9788   6.933   2.935   0.273 -1.0686  0.2318 -0.6568
 2256SOL    HW2 9789   6.875   3.059   0.336 -0.5639 -0.2015  0.6804
 2257SOL     OW 9790   3.607   0.056   1.788  0.2696  0.0630  0.1416
 2257SOL    HW1 9791   3.591  -0.037   1.773  0.3695  0.1265 -0.3812
 2257SOL    HW2 9792   3.665   0.082   1.717  0.6735  0.4042  0.5948
 2258SOL     OW 9793   9.413   7.628   0.270  0.3334  0.3701  0.4888
 2258SOL    HW1 9794   9.334   7.656   0.225  0.2725  0.0537  0.4005
 2258SOL    HW2 9795   9.384   7.559   0.329  0.2418  1.4531  1.7368
 2259SOL     OW 9796   2.691   6.628   3.148  0.0551  0.3229  0.8729
 2259SOL    HW1 9797   2.735   6.631   3.062 -1.5991  0.6358  0.0141
 2259SOL    HW2 9798   2.711   6.542   3.183  1.1837  0.3879  0.4056
 2260SOL     OW 9799   4.260   4.910   6.995  0.1392  0.0610  0.3846
 2260SOL    HW1 9800   4.320   4.980   7.023  1.4322  0.2261 -2.5465
 2260SOL    HW2 9801   4.288   4.833   7.044  2.0253  0.4409 -0.0395
 2261SOL     OW 9802   2.758   0.902   2.433  0.1408 -0.4930  0.4415
 2261SOL    HW1 9803   2.792   0.984   2.469  0.2856  0.6524 -2.1960
 2261SOL    HW2 9804   2.832   0.864   2.387 -0.2540 -1.5430  0.6706
 2262SOL     OW 9805   2.640   5.418   1.802  0.3503  0.1172  0.1877
 2262SOL    HW1 9806   2.598   5.381   1.880 -1.4145 -1.4563 -1.4626
 2262SOL    HW2 9807   2.687   5.344   1.763  1.4284  0.9529 -0.1297
 2263SOL     OW 9808   5.002   7.087   3.753 -0.1503 -0.1669 -0.5415
 2263SOL    HW1 9809   4.992   7.178   3.728  1.3142 -0.1232 -0.9766
 2263SOL    HW2 9810   4.940   7.040   3.697 -1.6620  0.6520  0.4057
 2264SOL     OW 9811   6.727   5.233   3.780  0.6076  0.2982 -0.2889
 2264SOL    HW1 9812   6.762   5.239   3.691 -1.0321  0.1015 -0.9471
 2264SOL    HW2 9813   6.678   5.315   3.792 -0.7655 -0.5249 -0.2511
 2265SOL     OW 9814   7.309   6.986   0.058 -0.6220  0.3299 -0.3535
 2265SOL    HW1 9815   7.300   6.984  -0.037  1.0787  0.8186 -0.5415
 2265SOL    HW2 9816   7.247   7.053   0.086  0.9168  2.2400 -1.3966
 2266SOL     OW 9817   5.823   1.172   0.841  0.3475  0.9850 -0.0880
 2266SOL    HW1 9818   5.887   1.109   0.874  0.1005  1.1592  0.7325
 2266SOL    HW2 9819   5.875   1.237   0.794  0.7514  1.0056  0.3879
 2267SOL     OW 9820   6.382   0.692   7.162 -0.0938  0.1252 -0.1743
 2267SOL    HW1 9821   6.434   0.720   7.237 -1.2793  1.5981  0.1034
 2267SOL    HW2 9822   6.311   0.640   7.200 -0.0911 -0.0212 -0.3685
 2268SOL     OW 9823   5.487   3.677   2.363  0.3666 -0.0887  0.1007
 2268SOL    HW1 9824   5.464   3.728   2.285  0.1068 -0.2325  0.0805
 2268SOL    HW2 9825   5.464   3.734   2.436  1.7813  0.5432  0.0645
 2269SOL     OW 9826   0.048   1.772   1.494 -0.3421 -0.0424 -0.1139
 2269SOL    HW1 9827   0.011   1.691   1.530  0.7373 -0.6922 -0.4333
 2269SOL    HW2 9828   0.050   1.757   1.399  0.4974  0.0765 -0.1211
 2270SOL     OW 9829   5.407   0.347   1.764 -0.0219 -0.1355  0.3070
 2270SOL    HW1 9830   5.367   0.413   1.821  0.6983  0.5726  0.0048
 2270SOL    HW2 9831   5.443   0.282   1.824  2.4670  1.6064  0.7514
 2271SOL     OW 9832   0.597   0.150   2.257  0.0754 -0.0051 -0.4862
 2271SOL    HW1 9833   0.668   0.134   2.193 -1.4945 -0.0870 -2.2475
 2271SOL    HW2 9834   0.565   0.062   2.279 -0.1618  0.0862 -0.4696
 2272SOL     OW 9835   8.742   1.952   1.811  0.2009  0.0964  0.2565
 2272SOL    HW1 9836   8.796   1.980   1.885  2.4138 -0.5094 -1.0723
 2272SOL    HW2 9837   8.656   1.936   1.849  1.5094 -1.0481  2.8743
 2273SOL     OW 9838   1.515   1.079   8.127  0.5546 -0.4029 -0.3522
 2273SOL    HW1 9839   1.465   1.019   8.181  1.7887 -0.6225  0.5751
 2273SOL    HW2 9840   1.541   1.027   8.051 -1.0093 -0.1493 -1.0773
 2274SOL     OW 9841   4.742   0.690   3.603  0.3517 -0.2093  0.7978
 2274SOL    HW1 9842   4.692   0.742   3.540  0.8223  1.7596  2.0035
 2274SOL    HW2 9843   4.814   0.653   3.551 -1.9782 -2.6037 -0.8131
 2275SOL     OW 9844   3.932   1.535   1.245  0.1574 -0.2164 -0.1435
 2275SOL    HW1 9845   4.018   1.512   1.280  1.0525  1.6002 -1.0959
 2275SOL    HW2 9846   3.944   1.622   1.205 -1.9918 -0.1429 -0.7059
 2276SOL     OW 9847   7.274   9.166   0.358  0.3545 -0.4335 -0.2578
 2276SOL    HW1 9848   7.320   9.235   0.310  1.3835  0.4207  1.8816
 2276SOL    HW2 9849   7.297   9.086   0.312  1.8858  0.2843 -0.7864
 2277SOL     OW 9850   6.977   3.217   0.153 -0.2351 -0.2489 -0.0245
 2277SOL    HW1 9851   7.058   3.228   0.203 -0.5843  1.5003  0.1893
 2277SOL    HW2 9852   7.000   3.249   0.065 -0.4755 -0.4622 -0.1641
 2278SOL     OW 9853   7.546   7.813   0.770  0.1067  0.0047  0.3444
 2278SOL    HW1 9854   7.525   7.814   0.864  0.6602 -2.9476  0.5658
 2278SOL    HW2 9855   7.601   7.890   0.757 -0.5791  0.8654  2.2850
 2279SOL     OW 9856   1.725   7.220   0.152  0.1424  0.3825 -0.0299
 2279SOL    HW1 9857   1.687   7.296   0.108  0.6500  1.8030  1.8825
 2279SOL    HW2 9858   1.661   7.150   0.139 -0.3462  1.1236 -1.8043
 2280SOL     OW 9859   2.143   9.342   4.367  0.2495  0.9498  0.1480
 2280SOL    HW1 9860   2.123   9.430   4.398  0.7877  1.2084 -0.2177
 2280SOL    HW2 9861   2.118   9.284   4.439 -0.2845  1.3874  0.3127
 2281SOL     OW 9862   8.220   7.190   0.129 -0.0302 -0.2685 -0.2340
 2281SOL    HW1 9863   8.182   7.154   0.209 -0.4813  2.0527  0.6292
 2281SOL    HW2 9864   8.149   7.187   0.065  0.1488 -1.5434 -0.3897
 2282SOL     OW 9865   7.917   3.137   3.046  0.9239  0.1033  0.1426
 2282SOL    HW1 9866   7.973   3.170   2.975 -0.0274 -0.5488 -0.9286
 2282SOL    HW2 9867   7.866   3.068   3.005 -1.8989  1.8252  0.6485
 2283SOL     OW 9868   0.520   5.322   7.819  0.2865 -0.0388  0.4180
 2283SOL    HW1 9869   0.478   5.406   7.804 -0.0151 -0.1460  0.6519
 2283SOL    HW2 9870   0.457   5.273   7.872  0.9127 -0.0226  1.1829
 2284SOL     OW 9871   3.614   0.146   2.749  0.1786  0.4002  0.2743
 2284SOL    HW1 9872   3.654   0.059   2.757  1.1499  0.5925 -2.1312
 2284SOL    HW2 9873   3.593   0.154   2.656 -1.5060  2.0609  0.7766
 2285SOL     OW 9874   6.299   5.378   5.286 -0.0406  0.6459 -0.4092
 2285SOL    HW1 9875   6.299   5.291   5.247 -1.5568  0.9127 -1.0296
 2285SOL    HW2 9876   6.217   5.418   5.258  1.6856  3.1786 -2.1672
 2286SOL     OW 9877   4.160   8.713   2.187 -0.6861  0.2800 -0.1130
 2286SOL    HW1 9878   4.131   8.723   2.096  0.6308 -0.0501 -0.5742
 2286SOL    HW2 9879   4.119   8.631   2.216 -0.1655 -0.2173 -0.7811
 2287SOL     OW 9880   8.196   6.741   6.695 -0.3283 -0.3536 -0.2277
 2287SOL    HW1 9881   8.211   6.669   6.756  0.1764  1.1476  1.4524
 2287SOL    HW2 9882   8.283   6.758   6.657 -0.0093  0.7052  0.9231
 2288SOL     OW 9883   2.825   2.326   8.386 -0.3955  0.3283 -0.4589
 2288SOL    HW1 9884   2.826   2.342   8.480  0.1591  1.5621 -0.6649
 2288SOL    HW2 9885   2.916   2.340   8.358 -0.5306 -0.1474 -1.1548
 2289SOL     OW 9886   0.611   8.131   7.226  0.0053 -0.4285  0.2794
 2289SOL    HW1 9887   0.617   8.197   7.294  1.1560  0.2405 -0.4383
 2289SOL    HW2 9888   0.643   8.051   7.267  1.8289  0.2345  0.2323
 2290SOL     OW 9889   8.297   3.741   5.379  0.6994  0.0109 -0.2400
 2290SOL    HW1 9890   8.382   3.780   5.361  0.5033 -0.0497 -1.3430
 2290SOL    HW2 9891   8.315   3.648   5.390  0.7749  0.0054 -0.4181
 2291SOL     OW 9892   4.794   8.829   8.278 -0.4345  0.3118 -0.4445
 2291SOL    HW1 9893   4.784   8.799   8.369 -1.4187  0.1272 -0.6045
 2291SOL    HW2 9894   4.765   8.755   8.225  1.4324 -0.0679 -0.9443
 2292SOL     OW 9895   2.209   0.445   2.321 -0.0802 -0.4668 -0.8295
 2292SOL    HW1 9896   2.253   0.530   2.331  0.9737 -0.8149 -2.2128
 2292SOL    HW2 9897   2.116   0.467   2.316  0.1929  0.6401 -1.3669
 2293SOL     OW 9898   1.480   8.729   4.631  0.5716  0.5252 -0.0884
 2293SOL    HW1 9899   1.437   8.784   4.696  1.5816  1.7599 -0.4471
 2293SOL    HW2 9900   1.531   8.666   4.683  1.6977  1.7617  0.3300
 2294SOL     OW 9901   8.599   0.289   7.639 -0.9817  0.4289  0.5408
 2294SOL    HW1 9902   8.683   0.243   7.635 -0.3957  1.5883 -2.0788
 2294SOL    HW2 9903   8.623   0.382   7.635 -2.4179  0.7354 -1.9259
 2295SOL     OW 9904   1.400   2.427   3.584 -0.3695  0.2646 -0.0318
 2295SOL    HW1 9905   1.485   2.451   3.545 -0.6958  1.0671 -0.2606
 2295SOL    HW2 9906   1.387   2.491   3.654 -0.1306 -0.7295  0.9152
 2296SOL     OW 9907   7.013   7.500   4.841 -0.1841  0.1464  0.2704
 2296SOL    HW1 9908   7.037   7.497   4.749 -1.3060 -1.8677  0.0142
 2296SOL    HW2 9909   6.918   7.511   4.841 -0.0225  1.7117  1.2147
 2297SOL     OW 9910   6.010   7.278   8.791  0.2363 -0.0209 -0.8818
 2297SOL    HW1 9911   5.982   7.369   8.801  0.0957 -0.1128 -0.3993
 2297SOL    HW2 9912   6.079   7.280   8.726  1.4763  0.6774  0.4313
 2298SOL     OW 9913   0.016   0.015   1.282  0.1667  0.2836  0.1142
 2298SOL    HW1 9914  -0.010   0.107   1.284  0.6491  0.3797  2.3262
 2298SOL    HW2 9915   0.111   0.017   1.279  0.1955 -0.1619  0.8668
 2299SOL     OW 9916   2.694   5.739   0.063  0.4460  0.5131 -0.4670
 2299SOL    HW1 9917   2.748   5.739   0.143 -1.3651  0.3691  0.7951
 2299SOL    HW2 9918   2.757   5.746  -0.008  2.0390  2.6679  1.0516
 2300SOL     OW 9919   4.531   5.042   9.202 -0.3026 -0.3635 -0.2324
 2300SOL    HW1 9920   4.592   5.071   9.135  0.2741 -1.5745 -0.2436
 2300SOL    HW2 9921   4.489   4.964   9.166 -1.1669 -0.0906  0.1599
 2301SOL     OW 9922   1.722   4.321   9.201  0.5550 -0.1713 -0.6020
 2301SOL    HW1 9923   1.716   4.290   9.291  0.3548 -0.8638 -0.8498
 2301SOL    HW2 9924   1.793   4.270   9.162  0.4327 -0.0977 -0.9255
 2302SOL     OW 9925   8.257   7.648   8.800 -0.2995  0.3554  0.1664
 2302SOL    HW1 9926   8.287   7.562   8.773 -1.0753  0.5698 -1.4472
 2302SOL    HW2 9927   8.190   7.672   8.735  0.8981  2.7724 -0.2386
 2303SOL     OW 9928   0.038   3.295   0.832  0.2373  0.1842  0.1373
 2303SOL    HW1 9929   0.030   3.252   0.917  0.5076 -1.1390 -0.4824
 2303SOL    HW2 9930   0.117   3.348   0.838  1.2712 -1.3305  0.1245
 2304SOL     OW 9931   1.960   1.677   9.136  0.1445 -0.2263 -0.5643
 2304SOL    HW1 9932   1.941   1.663   9.229  0.6039 -1.0752 -0.5925
 2304SOL    HW2 9933   2.056   1.671   9.131  0.1655  0.4328 -0.9955
 2305SOL     OW 9934   9.345   4.632   2.145 -0.5628  0.5758  0.3588
 2305SOL    HW1 9935   9.362   4.656   2.236 -0.5085  0.0596  0.4859
 2305SOL    HW2 9936   9.259   4.590   2.146  1.0284 -2.8224  0.7935
 2306SOL     OW 9937   8.656   1.924   5.105  0.1134 -0.7894 -0.3426
 2306SOL    HW1 9938   8.617   1.837   5.100 -1.3274 -0.2153  0.5614
 2306SOL    HW2 9939   8.582   1.983   5.123  0.9637  0.7060 -1.6248
 2307SOL     OW 9940   4.669   0.733   4.190 -0.0905  0.0473  0.3908
 2307SOL    HW1 9941   4.750   0.783   4.190 -0.8633  1.3287  0.1191
 2307SOL    HW2 9942   4.615   0.775   4.123 -0.3016 -1.9308 -0.7182
 2308SOL     OW 9943   5.464   4.372   3.119  0.6247 -0.1561 -0.2269
 2308SOL    HW1 9944   5.403   4.300   3.132  1.5223 -0.2943  4.1239
 2308SOL    HW2 9945   5.410   4.443   3.083 -1.3842 -1.3407  0.3655
 2309SOL     OW 9946   8.020   5.590   3.807 -0.3583 -0.8203  0.0237
 2309SOL    HW1 9947   7.979   5.666   3.849 -1.1773 -2.0716  1.5479
 2309SOL    HW2 9948   8.012   5.608   3.714 -0.9866  0.7413  0.3558
 2310SOL     OW 9949   1.115   6.787   3.048  0.0344 -0.3757  0.4160
 2310SOL    HW1 9950   1.187   6.730   3.023 -0.7380 -0.6162 -1.3356
 2310SOL    HW2 9951   1.144   6.829   3.129  1.8731 -0.9291  0.0569
 2311SOL     OW 9952   3.289   9.407   1.470 -0.0052 -0.1957  0.2886
 2311SOL    HW1 9953   3.307   9.362   1.388  1.4735 -0.5616  0.8022
 2311SOL    HW2 9954   3.308   9.342   1.538 -0.4673  0.3518  0.9514
 2312SOL     OW 9955   8.268   8.360   7.333 -0.2521 -0.2242  0.3544
 2312SOL    HW1 9956   8.285   8.447   7.369  0.0394  0.0638 -0.4564
 2312SOL    HW2 9957   8.343   8.307   7.360 -0.3511 -0.1813  0.7129
 2313SOL     OW 9958   6.686   8.125   5.965  0.7852  0.5820 -0.2129
 2313SOL    HW1 9959   6.649   8.047   6.007 -3.0013  1.3338 -1.9210
 2313SOL    HW2 9960   6.758   8.091   5.911  0.1680 -1.5062  0.2364
 2314SOL     OW 9961   8.346   4.814   6.896  0.1371 -0.1388 -0.3621
 2314SOL    HW1 9962   8.327   4.842   6.806  2.8051 -1.5689 -1.4434
 2314SOL    HW2 9963   8.277   4.751   6.917 -0.9056  0.7265 -1.1485
 2315SOL     OW 9964   7.370   2.672   8.896 -0.1397  0.4863 -0.2950
 2315SOL    HW1 9965   7.377   2.744   8.833 -0.7806 -0.2499 -1.2253
 2315SOL    HW2 9966   7.362   2.715   8.981 -0.6940  1.5168 -0.8642
 2316SOL     OW 9967   2.527   4.237   5.846 -0.1433  0.3059  0.3058
 2316SOL    HW1 9968   2.621   4.255   5.846  0.1204 -1.0123 -0.1156
 2316SOL    HW2 9969   2.489   4.309   5.898  1.1537  0.5233  0.9848
 2317SOL     OW 9970   7.796   2.626   2.102  0.4141  0.2807  0.2350
 2317SOL    HW1 9971   7.861   2.695   2.117 -0.3851  0.8909  0.9025
 2317SOL    HW2 9972   7.727   2.668   2.051  0.5727 -0.3958 -0.5560
 2318SOL     OW 9973   2.504   7.746   7.921  0.1802  0.7888 -0.0856
 2318SOL    HW1 9974   2.491   7.820   7.981  2.1212  2.8232 -2.0837
 2318SOL    HW2 9975   2.434   7.754   7.857 -0.8729 -0.3788  0.9031
 2319SOL     OW 9976   7.150   5.758   2.123 -0.5161 -0.2854  0.7264
 2319SOL    HW1 9977   7.216   5.795   2.182  0.1511  1.8304 -1.2411
 2319SOL    HW2 9978   7.081   5.824   2.120  0.1734  0.4107 -1.9667
 2320SOL     OW 9979   3.544   4.708   1.504 -0.7112 -0.2687  0.0739
 2320SOL    HW1 9980   3.506   4.668   1.582 -2.1405  1.0689  0.0787
 2320SOL    HW2 9981   3.631   4.668   1.497 -0.7513 -0.7730  2.0662
 2321SOL     OW 9982   7.280   5.362   4.771  0.5355 -0.3222  0.5180
 2321SOL    HW1 9983   7.315   5.444   4.806  0.9460  0.0168 -0.6440
 2321SOL    HW2 9984   7.197   5.386   4.731  0.1651 -0.6637  1.0835
 2322SOL     OW 9985   0.202   9.275   6.400  0.2013 -0.1487  0.1159
 2322SOL    HW1 9986   0.258   9.296   6.475 -0.2743 -0.8147  0.6668
 2322SOL    HW2 9987   0.161   9.192   6.424  0.0490 -0.3667 -0.8904
 2323SOL     OW 9988   6.348   8.591   0.292 -0.5376 -0.5051  0.6350
 2323SOL    HW1 9989   6.254   8.609   0.293 -0.1231  1.8578 -1.0474
 2323SOL    HW2 9990   6.353   8.495   0.283 -2.7785 -0.5930 -0.0801
 2324SOL     OW 9991   6.628   1.654   8.148 -0.1933 -0.1603 -0.0449
 2324SOL    HW1 9992   6.598   1.687   8.063  1.9488 -1.4645 -1.3536
 2324SOL    HW2 9993   6.619   1.729   8.207 -1.2059  0.9234 -1.5354
 2325SOL     OW 9994   9.123   3.878   0.151  0.3039 -0.1897  0.3584
 2325SOL    HW1 9995   9.048   3.878   0.092  0.1245  0.9136  0.5752
 2325SOL    HW2 9996   9.158   3.967   0.146  2.7949 -1.1876 -1.2418
 2326SOL     OW 9997   0.633   6.141   0.917  0.2565  0.4213  0.2995
 2326SOL    HW1 9998   0.599   6.197   0.986 -1.9331  0.2489 -0.6090
 2326SOL    HW2 9999   0.595   6.055   0.933 -1.2261  0.6545 -1.7637
 2327SOL     OW10000   0.211   8.958   5.594  0.8184  0.4499 -0.6047
 2327SOL    HW110001   0.152   8.882   5.602  0.8651  0.4647 -0.0880
 2327SOL    HW210002   0.166   9.028   5.641  0.6425  0.8273 -1.3267
 2328SOL     OW10003   6.866   3.100   8.703  0.4262  0.2279 -0.6575
 2328SOL    HW110004   6.772   3.093   8.718  0.4968 -0.8473 -0.6357
 2328SOL    HW210005   6.875   3.172   8.641 -0.2173  1.7829  1.0131
 2329SOL     OW10006   7.244   6.780   2.945 -0.1238 -0.1292  0.6094
 2329SOL    HW110007   7.206   6.759   2.859  1.6131 -0.6112 -0.0619
 2329SOL    HW210008   7.171   6.815   2.995 -1.4302 -0.9158 -0.6929
 2330SOL     OW10009   9.129   7.746   0.952  0.4264 -0.7395  0.1030
 2330SOL    HW110010   9.074   7.806   1.003  1.1287 -0.1506  0.1665
 2330SOL    HW210011   9.114   7.772   0.861 -2.1103 -2.8610 -0.1474
 2331SOL     OW10012   5.388   2.608   7.656 -0.3617  0.1941  0.0580
 2331SOL    HW110013   5.385   2.514   7.674  3.6313  0.3110  1.8294
 2331SOL    HW210014   5.467   2.620   7.602  0.1077  2.7079  1.2263
 2332SOL     OW10015   4.189   0.127   0.241  0.8790  0.0714 -0.3456
 2332SOL    HW110016   4.226   0.040   0.255  2.5227  0.7638 -0.1829
 2332SOL    HW210017   4.265   0.180   0.215 -0.1864  1.3396 -0.8958
 2333SOL     OW10018   7.038   4.825   9.259  0.0632 -0.1909 -0.8612
 2333SOL    HW110019   6.973   4.765   9.222 -0.8642  0.4222 -0.2383
 2333SOL    HW210020   7.121   4.796   9.222 -0.7870  0.1237 -3.0683
 2334SOL     OW10021   3.544   4.965   6.472 -0.0493  0.0380  0.0313
 2334SOL    HW110022   3.584   4.879   6.480  1.1618  0.7485  1.7991
 2334SOL    HW210023   3.517   4.988   6.561  2.0995  2.6521  0.0699
 2335SOL     OW10024   8.142   3.987   3.974  0.0831  0.3579  0.2599
 2335SOL    HW110025   8.220   3.961   4.024 -0.4776  1.2520  1.6339
 2335SOL    HW210026   8.131   4.080   3.995 -1.2148  0.2938 -0.1262
 2336SOL     OW10027   2.038   0.363   7.309 -0.1149  0.0383 -0.1212
 2336SOL    HW110028   1.978   0.351   7.382 -0.2971 -0.9030 -0.4275
 2336SOL    HW210029   2.017   0.450   7.275  2.0152  1.7855  2.8211
 2337SOL     OW10030   4.532   2.061   1.398  0.3585 -0.1157 -0.2757
 2337SOL    HW110031   4.620   2.027   1.410 -0.3344 -2.3029 -1.1898
 2337SOL    HW210032   4.501   2.079   1.487  0.5314 -2.4373  0.2782
 2338SOL     OW10033   6.325   4.729   9.344  0.4111  0.2534 -0.1157
 2338SOL    HW110034   6.344   4.639   9.367 -0.5015  0.1961  0.4372
 2338SOL    HW210035   6.340   4.734   9.249  0.8890 -0.3644 -0.0678
 2339SOL     OW10036   7.046   0.944   2.060 -0.4756  0.3841 -0.0167
 2339SOL    HW110037   7.027   1.035   2.080  0.9011  1.4143 -3.0242
 2339SOL    HW210038   6.968   0.912   2.015 -1.0810 -0.0364  1.3144
 2340SOL     OW10039   7.222   0.582   8.970  0.6959 -0.0734  0.1669
 2340SOL    HW110040   7.251   0.567   8.880 -0.1167 -0.2682 -0.0647
 2340SOL    HW210041   7.159   0.512   8.987  0.7500  0.0399  0.8481
 2341SOL     OW10042   4.980   6.214   5.230  0.1955  0.0471  0.0315
 2341SOL    HW110043   5.028   6.147   5.181 -0.9311  0.0579 -1.1062
 2341SOL    HW210044   5.018   6.297   5.201 -0.8634  0.0826 -1.2635
 2342SOL     OW10045   1.837   0.636   5.127 -0.2930 -0.0030 -0.0774
 2342SOL    HW110046   1.875   0.676   5.048 -0.6888 -0.7914 -0.6710
 2342SOL    HW210047   1.757   0.594   5.096 -1.0695  0.6954  0.9638
 2343SOL     OW10048   2.993   0.136   6.907  0.0309  0.0313  0.0249
 2343SOL    HW110049   2.904   0.160   6.882  0.0012 -0.9139 -0.8209
 2343SOL    HW210050   2.989   0.041   6.921  0.0861  0.4791  3.5081
 2344SOL     OW10051   6.259   4.768   2.605 -0.2667  0.4877 -0.3147
 2344SOL    HW110052   6.232   4.795   2.693  0.4301 -0.7825  0.3037
 2344SOL    HW210053   6.300   4.846   2.567  0.3637  0.7459  0.8738
 2345SOL     OW10054   4.523   1.967   4.161 -0.5971  0.3601  0.3762
 2345SOL    HW110055   4.454   1.922   4.112 -0.1006 -1.3637  1.2117
 2345SOL    HW210056   4.518   2.058   4.131 -1.0425 -0.4083 -2.0038
 2346SOL     OW10057   3.626   5.098   4.176  0.2200  0.2135 -0.7814
 2346SOL    HW110058   3.611   5.015   4.132 -1.1259  1.1942 -2.2174
 2346SOL    HW210059   3.571   5.093   4.255  2.2852 -1.3563  0.6042
 2347SOL     OW10060   7.374   4.199   8.407  0.4896 -0.3406 -0.0877
 2347SOL    HW110061   7.421   4.282   8.400 -1.2522  0.5509 -1.6291
 2347SOL    HW210062   7.294   4.221   8.456  0.1632 -1.1568 -0.2500
 2348SOL     OW10063   7.112   2.128   6.499  0.0411 -0.0449 -0.0977
 2348SOL    HW110064   7.042   2.063   6.492 -0.9627  0.8847  0.9485
 2348SOL    HW210065   7.109   2.174   6.415  0.6317 -1.2162 -0.7672
 2349SOL     OW10066   4.823   3.860   6.351 -0.0818  0.2913 -0.2112
 2349SOL    HW110067   4.770   3.911   6.290  0.2394  1.0568  0.1433
 2349SOL    HW210068   4.762   3.834   6.421 -0.1135  0.6996 -0.0863
 2350SOL     OW10069   8.451   0.128   4.708  0.5809 -0.2990 -0.2086
 2350SOL    HW110070   8.361   0.123   4.674  0.0952 -0.4936  1.0785
 2350SOL    HW210071   8.488   0.041   4.692  0.7214 -0.0494 -1.2369
 2351SOL     OW10072   2.020   6.361   6.855  0.2234 -0.0796  0.2317
 2351SOL    HW110073   2.013   6.429   6.923 -2.1189  1.5664 -1.5600
 2351SOL    HW210074   2.097   6.385   6.805  1.1424 -0.4917  1.4155
 2352SOL     OW10075   4.437   8.328   4.150 -0.1211 -0.5437  0.1103
 2352SOL    HW110076   4.484   8.253   4.112  0.8989  0.0192  0.2295
 2352SOL    HW210077   4.434   8.392   4.080  1.8530  0.5355  0.9500
 2353SOL     OW10078   3.907   9.284   2.624  0.4692 -0.5713  0.3622
 2353SOL    HW110079   3.985   9.340   2.625 -0.0940  0.2291  0.7796
 2353SOL    HW210080   3.921   9.223   2.696  0.7112 -0.4149  0.4500
 2354SOL     OW10081   1.109   4.869   1.095 -1.0930 -0.5783 -0.5548
 2354SOL    HW110082   1.020   4.842   1.118 -1.4393  0.9602 -0.0385
 2354SOL    HW210083   1.162   4.842   1.170 -1.3433 -0.3032 -0.2766
 2355SOL     OW10084   7.963   4.605   2.676  0.1692 -0.1597  0.4374
 2355SOL    HW110085   8.040   4.660   2.676 -0.0637  0.1733  1.2156
 2355SOL    HW210086   7.959   4.568   2.588  3.4709 -3.3331  1.4667
 2356SOL     OW10087   7.659   8.419   0.109 -0.2822 -0.5894  0.2473
 2356SOL    HW110088   7.734   8.471   0.080 -0.9681  1.0383  1.3427
 2356SOL    HW210089   7.660   8.426   0.204 -2.3853  0.2801  0.2329
 2357SOL     OW10090   4.560   8.074   4.141  0.9293  0.3285 -0.2209
 2357SOL    HW110091   4.638   8.042   4.096  1.1292 -0.1617  0.4733
 2357SOL    HW210092   4.585   8.078   4.233  1.0714  2.9485 -0.3455
 2358SOL     OW10093   4.401   4.937   7.523 -0.0780 -0.0237  0.3524
 2358SOL    HW110094   4.359   4.959   7.606 -0.2966 -1.6425  0.6895
 2358SOL    HW210095   4.494   4.930   7.544  0.3449  2.8502 -0.2499
 2359SOL     OW10096   4.508   3.616   0.669  0.1933 -0.4415  0.1384
 2359SOL    HW110097   4.494   3.547   0.733 -1.1147 -0.7073 -0.4172
 2359SOL    HW210098   4.510   3.570   0.585  0.6381  0.0455 -0.1226
 2360SOL     OW10099   3.649   7.971   8.074 -0.0059  0.4295  0.3213
 2360SOL    HW110100   3.557   7.966   8.100  0.1236 -1.2163  0.4866
 2360SOL    HW210101   3.647   7.993   7.981 -0.5606  0.7592  0.4129
 2361SOL     OW10102   2.824   2.333   9.425  0.0986 -0.2809  0.2712
 2361SOL    HW110103   2.904   2.358   9.379 -0.2848  0.6895  0.1428
 2361SOL    HW210104   2.801   2.248   9.387 -0.1400  0.4498 -1.2313
 2362SOL     OW10105   1.223   5.691   0.046  0.4868  0.1841 -0.6163
 2362SOL    HW110106   1.315   5.675   0.029  0.1961 -0.3877 -1.7526
 2362SOL    HW210107   1.197   5.624   0.109  1.2233  1.3505  0.9350
 2363SOL     OW10108   6.195   8.956   9.312  0.0438  0.4899 -0.3048
 2363SOL    HW110109   6.121   8.910   9.349 -0.3301 -0.5888 -2.3074
 2363SOL    HW210110   6.272   8.919   9.355 -0.5050  0.9012  1.0372
 2364SOL     OW10111   0.275   3.835   4.107 -0.2830  0.2332 -0.0554
 2364SOL    HW110112   0.199   3.793   4.067 -0.0442  2.1927 -2.7029
 2364SOL    HW210113   0.238   3.905   4.161 -0.3976  0.4567 -0.4276
 2365SOL     OW10114   8.514   2.056   8.840 -0.1365  0.0703 -0.0081
 2365SOL    HW110115   8.564   2.133   8.812 -0.3662  0.5903  0.9801
 2365SOL    HW210116   8.426   2.090   8.857 -0.1352 -0.3309  0.8290
 2366SOL     OW10117   1.223   4.052   6.424  0.1848  0.5512 -0.7428
 2366SOL    HW110118   1.303   4.093   6.390  0.1622  0.6788 -0.6428
 2366SOL    HW210119   1.251   3.965   6.451  0.4071  0.7831 -0.2134
 2367SOL     OW10120   5.742   0.819   3.684  0.3639 -0.4854  0.2531
 2367SOL    HW110121   5.659   0.780   3.655  0.8194 -1.6795  0.5084
 2367SOL    HW210122   5.808   0.755   3.659  1.1115  0.0293  0.8896
 2368SOL     OW10123   5.141   4.391   8.271  0.5431  0.0193 -0.2616
 2368SOL    HW110124   5.159   4.300   8.295  0.3729 -0.2568 -1.1808
 2368SOL    HW210125   5.173   4.442   8.346  0.8126 -0.7798  0.1728
 2369SOL     OW10126   4.868   6.312   2.104  0.1158  0.4326 -0.0775
 2369SOL    HW110127   4.951   6.329   2.150  0.3944  1.5754 -0.9758
 2369SOL    HW210128   4.878   6.356   2.020 -1.2513  0.2211 -0.3603
 2370SOL     OW10129   2.108   5.655   3.036 -0.0636 -0.1067 -0.3805
 2370SOL    HW110130   2.191   5.674   2.992  0.5398 -1.1782  0.2579
 2370SOL    HW210131   2.042   5.669   2.968  0.6484  0.5862 -0.9486
 2371SOL     OW10132   3.473   5.994   3.248 -0.3877 -0.2928 -0.2017
 2371SOL    HW110133   3.516   5.928   3.302  0.0629  1.0405  1.1364
 2371SOL    HW210134   3.420   5.945   3.186  1.6536 -1.9538 -0.6990
 2372SOL     OW10135   5.330   3.261   8.291 -0.4965  0.2280 -0.0733
 2372SOL    HW110136   5.291   3.198   8.231 -0.3423  0.7292 -0.6967
 2372SOL    HW210137   5.411   3.219   8.320  0.8592  1.1670 -2.3770
 2373SOL     OW10138   5.699   8.901   0.568  0.2257 -0.0866  0.2002
 2373SOL    HW110139   5.610   8.872   0.589  0.1300 -0.0218 -0.1096
 2373SOL    HW210140   5.733   8.935   0.650 -0.7165  1.6787 -0.1097
 2374SOL     OW10141   7.217   9.104   9.165 -0.1852  0.3158  0.5343
 2374SOL    HW110142   7.247   9.058   9.087 -1.4487 -0.1078  0.2929
 2374SOL    HW210143   7.187   9.035   9.224  0.1095  0.6786  1.1187
 2375SOL     OW10144   3.102   8.381   2.537  0.4536  0.1229  0.2179
 2375SOL    HW110145   3.165   8.451   2.557  1.1264 -0.3807 -0.1495
 2375SOL    HW210146   3.023   8.407   2.584  0.6491  1.2194 -0.0458
 2376SOL     OW10147   8.056   2.181   3.078 -0.5547 -0.2049  0.4836
 2376SOL    HW110148   7.997   2.211   3.148  0.2102  1.8042  0.3026
 2376SOL    HW210149   8.021   2.222   2.999 -0.3171 -0.9641 -0.0185
 2377SOL     OW10150   8.507   8.020   7.450  0.0352 -0.4221  0.1278
 2377SOL    HW110151   8.593   8.010   7.492 -0.8131 -0.4866  1.8418
 2377SOL    HW210152   8.505   7.950   7.384  2.1761  0.9217 -1.4524
 2378SOL     OW10153   6.465   7.403   2.221 -0.1392  0.5856  0.5342
 2378SOL    HW110154   6.501   7.328   2.173 -0.7400  1.3997 -1.2276
 2378SOL    HW210155   6.444   7.368   2.307  0.1353 -1.1328 -0.0764
 2379SOL     OW10156   0.926   7.981   2.772  0.1890  0.1166 -0.2166
 2379SOL    HW110157   1.000   7.969   2.712  0.1777 -0.6975 -0.0835
 2379SOL    HW210158   0.949   8.059   2.823  0.9734 -0.1381 -0.1651
 2380SOL     OW10159   5.142   3.733   6.610  0.1832 -0.5227 -0.0497
 2380SOL    HW110160   5.090   3.694   6.680 -0.3178  0.1958 -0.0134
 2380SOL    HW210161   5.223   3.682   6.608  0.2063 -0.5377  1.0536
 2381SOL     OW10162   9.305   3.576   5.462  0.0226  0.1941 -0.2934
 2381SOL    HW110163   9.217   3.597   5.493 -0.1532 -0.0710 -0.6019
 2381SOL    HW210164   9.343   3.660   5.437  1.2474  0.7859  3.3782
 2382SOL     OW10165   2.654   6.298   2.191 -0.4952 -0.4646  0.0238
 2382SOL    HW110166   2.655   6.241   2.114 -0.3479 -0.0814 -0.2607
 2382SOL    HW210167   2.740   6.286   2.231 -0.1656  0.1452 -0.4787
 2383SOL     OW10168   8.540   1.183   1.813  0.2644  0.4864  0.7911
 2383SOL    HW110169   8.604   1.136   1.760  0.8605  0.4926  1.5012
 2383SOL    HW210170   8.506   1.118   1.874  0.1830  0.6838  0.9574
 2384SOL     OW10171   7.334   7.393   0.943 -0.2039  0.1878 -0.0448
 2384SOL    HW110172   7.404   7.378   0.880 -0.3561  4.3118 -1.3873
 2384SOL    HW210173   7.259   7.419   0.889 -1.0057  1.5722  1.6785
 2385SOL     OW10174   5.388   3.834   2.152  0.2820  0.5484 -0.2586
 2385SOL    HW110175   5.420   3.924   2.155  0.4281  0.5315 -0.9760
 2385SOL    HW210176   5.310   3.838   2.096  0.9824  0.0406 -1.2919
 2386SOL     OW10177   7.633   5.883   4.386  0.2869 -0.0458  0.0202
 2386SOL    HW110178   7.701   5.828   4.426 -0.2695 -0.5583  0.2609
 2386SOL    HW210179   7.631   5.962   4.441  1.1875  0.2843 -0.4130
 2387SOL     OW10180   7.307   5.817   8.615 -0.0806  0.0844 -0.2107
 2387SOL    HW110181   7.306   5.837   8.708  2.1695 -1.4530  0.1852
 2387SOL    HW210182   7.379   5.869   8.580 -2.1622  2.2052 -1.5164
 2388SOL     OW10183   8.239   1.292   0.542  0.1686 -0.3636 -0.4719
 2388SOL    HW110184   8.319   1.314   0.591 -0.2561 -2.3912  1.2144
 2388SOL    HW210185   8.263   1.303   0.450  2.1374 -0.1311  0.0512
 2389SOL     OW10186   3.353   4.860   5.469  0.6594  0.5307 -0.0889
 2389SOL    HW110187   3.430   4.910   5.495  0.4610  0.1559  1.2933
 2389SOL    HW210188   3.285   4.889   5.531  0.0555 -0.0911 -0.4637
 2390SOL     OW10189   7.813   7.857   4.682 -0.5607 -0.1413 -0.0228
 2390SOL    HW110190   7.875   7.816   4.743 -0.2916  0.1470 -0.0985
 2390SOL    HW210191   7.730   7.856   4.729 -0.8221 -1.8482 -0.4994
 2391SOL     OW10192   5.119   4.548   3.974 -0.1236  0.0169  0.0496
 2391SOL    HW110193   5.105   4.581   3.885 -1.8977 -3.3392 -1.0045
 2391SOL    HW210194   5.207   4.510   3.972 -0.8113 -1.5880 -0.8225
 2392SOL     OW10195   7.012   8.930   5.220 -0.5521  0.3980  0.2313
 2392SOL    HW110196   7.099   8.925   5.261 -0.9485  2.0363  1.3510
 2392SOL    HW210197   7.022   8.995   5.151 -1.0710  1.1832  0.8840
 2393SOL     OW10198   1.262   5.440   4.862 -0.2330  0.1183  0.5273
 2393SOL    HW110199   1.353   5.454   4.888  0.0784 -0.1386 -0.4266
 2393SOL    HW210200   1.243   5.514   4.804 -0.0273 -0.8733 -0.8181
 2394SOL     OW10201   2.427   0.072   4.410  0.1513 -0.0841 -0.3473
 2394SOL    HW110202   2.480   0.022   4.347 -1.2443 -2.5881  0.3829
 2394SOL    HW210203   2.364   0.119   4.356 -0.3632 -1.3966 -0.9235
 2395SOL     OW10204   5.472   1.746   5.391  0.1055  0.0174  0.2418
 2395SOL    HW110205   5.550   1.701   5.359 -0.0209 -0.4529  0.5769
 2395SOL    HW210206   5.414   1.675   5.420  0.2210  0.4321  1.5157
 2396SOL     OW10207   3.623   1.054   8.674  0.3978 -0.0487  0.4052
 2396SOL    HW110208   3.666   1.028   8.756  0.7737 -0.9501 -0.0726
 2396SOL    HW210209   3.581   1.138   8.695  0.6905 -0.1519  1.4510
 2397SOL     OW10210   9.281   1.417   6.065  1.2472  0.3424 -0.1228
 2397SOL    HW110211   9.258   1.324   6.064  2.2048  0.0912  0.9140
 2397SOL    HW210212   9.375   1.419   6.048  1.4133  1.0598  0.8473
 2398SOL     OW10213   1.727   6.586   4.763  0.9455  0.4668 -0.4885
 2398SOL    HW110214   1.794   6.529   4.799 -1.1535 -2.1725 -0.6071
 2398SOL    HW210215   1.644   6.542   4.783 -0.6570  2.6080 -2.0905
 2399SOL     OW10216   2.409   4.541   1.954  0.0761  0.0305 -0.3692
 2399SOL    HW110217   2.370   4.528   1.868 -1.2370  0.0079  0.2169
 2399SOL    HW210218   2.354   4.490   2.013 -0.8381  2.3986  0.9177
 2400SOL     OW10219   6.333   0.226   8.194  0.8235  0.7839  0.0742
 2400SOL    HW110220   6.291   0.299   8.241 -0.2113  0.6567 -0.6602
 2400SOL    HW210221   6.318   0.245   8.102 -0.7419 -1.1448 -0.0806
 2401SOL     OW10222   1.912   4.623   8.104 -0.1850 -0.0769  0.0587
 2401SOL    HW110223   1.862   4.542   8.096 -0.8289  0.3351 -0.1081
 2401SOL    HW210224   1.857   4.690   8.064  0.8957  0.2286 -0.9577
 2402SOL     OW10225   0.393   4.164   4.060  0.4958 -0.2494  0.3928
 2402SOL    HW110226   0.444   4.243   4.044  0.4899 -0.0475  1.3589
 2402SOL    HW210227   0.342   4.152   3.980  0.1468  0.9766  0.4232
 2403SOL     OW10228   7.036   6.833   6.038  0.3813  0.2242  0.0123
 2403SOL    HW110229   6.995   6.759   5.995  0.2270 -0.5047  1.3855
 2403SOL    HW210230   7.081   6.880   5.968  0.1262 -0.9224 -0.9300
 2404SOL     OW10231   1.236   7.062   8.442  0.6925 -0.0515 -0.7870
 2404SOL    HW110232   1.284   7.016   8.373 -1.5636 -2.7290 -0.6791
 2404SOL    HW210233   1.193   6.992   8.492 -1.3932  2.1011  0.5319
 2405SOL     OW10234   2.228   0.315   1.599 -0.0730  0.5705 -1.0211
 2405SOL    HW110235   2.224   0.326   1.504  0.5502 -1.0241 -1.2459
 2405SOL    HW210236   2.321   0.318   1.620 -0.2478  1.5239 -0.3784
 2406SOL     OW10237   8.116   6.440   7.619  0.0196  0.0001  0.5581
 2406SOL    HW110238   8.033   6.448   7.572  0.7030  0.4630 -0.5897
 2406SOL    HW210239   8.143   6.530   7.635  1.7810 -0.0705 -1.7518
 2407SOL     OW10240   5.838   6.620   2.383 -0.0677 -0.7141 -0.1915
 2407SOL    HW110241   5.914   6.649   2.333 -0.6782 -0.3009 -0.8696
 2407SOL    HW210242   5.764   6.665   2.344 -0.8185 -1.9813 -0.2592
 2408SOL     OW10243   3.768   6.160   4.895  0.0249 -0.0814 -0.3167
 2408SOL    HW110244   3.807   6.178   4.810  1.1593 -0.2085  0.1723
 2408SOL    HW210245   3.792   6.069   4.913  0.1602  0.0850  0.3438
 2409SOL     OW10246   9.251   1.558   0.486 -0.2355  0.7150 -0.3787
 2409SOL    HW110247   9.227   1.646   0.458 -0.1140  0.2506 -2.0101
 2409SOL    HW210248   9.304   1.571   0.565 -0.0951  2.1131 -0.6915
 2410SOL     OW10249   7.832   0.976   3.978  0.0843 -0.3627 -0.4803
 2410SOL    HW110250   7.898   1.030   4.022  0.9497 -0.4950 -1.5924
 2410SOL    HW210251   7.794   1.034   3.912  1.2580 -1.2101 -1.9081
 2411SOL     OW10252   8.743   3.211   6.255  0.7515  0.0238 -0.2209
 2411SOL    HW110253   8.835   3.208   6.229 -0.2792  0.9078 -4.3416
 2411SOL    HW210254   8.713   3.121   6.245  1.4489 -0.5446  2.4650
 2412SOL     OW10255   4.069   6.713   2.508  0.7830 -0.1627  0.6530
 2412SOL    HW110256   4.100   6.764   2.433 -0.6299 -1.3014 -0.7347
 2412SOL    HW210257   4.120   6.747   2.582  1.9084  1.2698 -0.7269
 2413SOL     OW10258   2.170   2.721   8.416  0.0428  0.2300  0.3011
 2413SOL    HW110259   2.083   2.762   8.414 -0.1210 -0.1256 -0.1741
 2413SOL    HW210260   2.222   2.773   8.355  0.0522  0.2122  0.2935
 2414SOL     OW10261   4.012   6.140   5.895  0.0937 -0.3812  0.8487
 2414SOL    HW110262   3.931   6.092   5.913 -1.3074  0.7089 -2.2280
 2414SOL    HW210263   4.076   6.073   5.875 -1.4087 -1.1289 -1.7149
 2415SOL     OW10264   3.304   2.983   2.217  0.3634 -0.0029 -0.1421
 2415SOL    HW110265   3.270   3.044   2.152  0.8310  0.3468 -0.0664
 2415SOL    HW210266   3.380   2.943   2.174 -0.3299 -1.0136 -0.4334
 2416SOL     OW10267   8.082   8.661   2.217  0.2599 -0.6970 -0.4184
 2416SOL    HW110268   8.100   8.601   2.145 -0.8074 -0.8777 -0.5440
 2416SOL    HW210269   8.101   8.748   2.182  0.7305 -0.8631 -0.5830
 2417SOL     OW10270   8.665   0.291   1.691  0.3935  0.0636 -0.3464
 2417SOL    HW110271   8.741   0.280   1.635  1.7085 -1.7578  1.7547
 2417SOL    HW210272   8.699   0.283   1.781 -1.9748  0.9165  0.6706
 2418SOL     OW10273   6.844   2.065   8.658  0.6968  0.2473  0.8059
 2418SOL    HW110274   6.833   2.115   8.738  1.3464  1.5881  0.0767
 2418SOL    HW210275   6.899   2.120   8.602 -0.8252 -0.0587 -1.0710
 2419SOL     OW10276   9.108   1.997   5.251  0.0378  0.6874  0.4445
 2419SOL    HW110277   9.055   2.022   5.175 -0.0221 -1.7681 -0.3652
 2419SOL    HW210278   9.044   1.981   5.321 -0.0391  0.9548  0.4369
 2420SOL     OW10279   0.794   4.177   7.250 -0.2540  0.4630  0.1340
 2420SOL    HW110280   0.763   4.244   7.312 -0.3454  0.3313  0.2303
 2420SOL    HW210281   0.841   4.226   7.183 -0.6865  0.6631 -0.0245
 2421SOL     OW10282   5.906   7.466   1.689  0.7244  0.3054  0.1336
 2421SOL    HW110283   5.893   7.372   1.682  2.8312  0.1142 -2.3125
 2421SOL    HW210284   5.977   7.476   1.752 -0.7383  0.3965  1.7925
 2422SOL     OW10285   4.816   8.504   5.062 -0.1069  0.3103 -0.3429
 2422SOL    HW110286   4.888   8.470   5.114  0.2932  0.3750 -0.8590
 2422SOL    HW210287   4.852   8.516   4.975 -0.6062  0.8090 -0.4834
 2423SOL     OW10288   0.917   1.583   2.908  0.4221 -0.0485  0.0572
 2423SOL    HW110289   0.919   1.675   2.935  1.1032 -0.7060  2.3376
 2423SOL    HW210290   0.862   1.540   2.974 -0.0379 -1.2541 -1.0924
 2424SOL     OW10291   4.992   1.348   3.733 -0.0241  0.4950 -0.2078
 2424SOL    HW110292   5.086   1.365   3.732  0.2718 -0.9684  1.0919
 2424SOL    HW210293   4.954   1.421   3.684  1.5972  2.3193  1.1432
 2425SOL     OW10294   9.216   5.331   4.849 -0.3645 -0.3870 -0.3626
 2425SOL    HW110295   9.290   5.357   4.903 -0.9948  0.2614  0.2130
 2425SOL    HW210296   9.151   5.298   4.912 -0.1573 -1.9544 -0.9530
 2426SOL     OW10297   6.146   2.153   6.515 -0.1188  0.0298  0.5607
 2426SOL    HW110298   6.057   2.128   6.543  0.8176 -2.4937  1.4572
 2426SOL    HW210299   6.134   2.191   6.428 -2.0497 -0.6997  0.4793
 2427SOL     OW10300   5.526   6.065   4.509 -0.5250 -0.0202  0.3254
 2427SOL    HW110301   5.571   6.138   4.551 -1.1106 -0.0340  0.9902
 2427SOL    HW210302   5.447   6.052   4.562  0.3255 -2.1436  1.1722
 2428SOL     OW10303   4.276   4.013   6.742 -0.0059  0.1831 -0.2036
 2428SOL    HW110304   4.232   3.953   6.802 -2.3875 -0.8345 -2.8366
 2428SOL    HW210305   4.361   3.971   6.724 -0.1544 -0.5526  0.7973
 2429SOL     OW10306   8.072   3.248   8.489  0.5834  0.0615  0.2648
 2429SOL    HW110307   8.007   3.234   8.420  1.3268  1.2912 -0.7123
 2429SOL    HW210308   8.149   3.280   8.443  1.7194 -0.8679  1.4788
 2430SOL     OW10309   5.007   8.971   5.489  0.3672  0.2388 -0.1661
 2430SOL    HW110310   4.994   8.922   5.570  0.4186 -0.1608 -0.4009
 2430SOL    HW210311   4.975   9.059   5.509  2.4884  0.7874  1.0381
 2431SOL     OW10312   8.440   0.822   2.286 -0.7111 -0.4204  0.0205
 2431SOL    HW110313   8.433   0.914   2.313  1.2857  0.0244 -0.8562
 2431SOL    HW210314   8.525   0.794   2.321 -2.4291 -2.7543  2.5366
 2432SOL     OW10315   3.090   5.663   2.481 -0.5153 -0.4441  0.3985
 2432SOL    HW110316   3.086   5.703   2.567 -0.0876  0.2598  0.0933
 2432SOL    HW210317   3.156   5.594   2.489 -2.2937 -2.0774  1.3249
 2433SOL     OW10318   0.159   1.280   0.130 -0.2608 -0.0191  0.0460
 2433SOL    HW110319   0.150   1.205   0.189 -1.5561 -0.4368 -0.6310
 2433SOL    HW210320   0.094   1.343   0.161 -0.1819  0.2127 -0.2547
 2434SOL     OW10321   8.814   7.357   6.928  0.0864  0.3045 -0.6803
 2434SOL    HW110322   8.888   7.373   6.871  1.0743  1.2527  0.8213
 2434SOL    HW210323   8.756   7.432   6.913 -0.7705 -0.6214 -2.1244
 2435SOL     OW10324   1.185   1.933   5.401  0.2398 -0.0702 -0.5903
 2435SOL    HW110325   1.091   1.935   5.423  0.4696  1.2000  0.3014
 2435SOL    HW210326   1.187   1.929   5.306 -0.7343  0.4323 -0.6412
 2436SOL     OW10327   8.883   0.221   8.605 -0.2497  0.0793  0.2824
 2436SOL    HW110328   8.818   0.157   8.632  0.7784 -1.9930 -2.0035
 2436SOL    HW210329   8.953   0.170   8.565  1.1382  2.5297 -0.5773
 2437SOL     OW10330   1.739   7.158   1.002 -0.3971  0.3186  0.3346
 2437SOL    HW110331   1.749   7.138   0.909 -0.2318  1.2301  0.1530
 2437SOL    HW210332   1.779   7.244   1.013  1.6609 -0.7822  1.7132
 2438SOL     OW10333   8.865   4.845   3.721  0.6706  0.1558  0.0456
 2438SOL    HW110334   8.874   4.764   3.770 -1.0744 -0.5949 -0.8404
 2438SOL    HW210335   8.918   4.832   3.642 -0.3606 -0.5004 -0.5472
 2439SOL     OW10336   7.566   4.020   6.791  0.9110  0.2806  0.0640
 2439SOL    HW110337   7.645   4.023   6.736  0.1478  3.5538 -1.0078
 2439SOL    HW210338   7.599   4.028   6.880  1.8337  2.3678 -0.4167
 2440SOL     OW10339   9.384   1.746   0.113  0.3595 -0.1004  0.0509
 2440SOL    HW110340   9.412   1.720   0.025  0.6574  1.0296 -0.2005
 2440SOL    HW210341   9.445   1.815   0.137 -1.2050  1.2653  0.1728
 2441SOL     OW10342   7.329   1.490   1.910 -0.2578  0.4271  0.3072
 2441SOL    HW110343   7.419   1.470   1.937 -0.2101  2.0565  1.4144
 2441SOL    HW210344   7.294   1.545   1.980 -2.4193 -0.8490  0.2832
 2442SOL     OW10345   4.617   4.371   8.443  0.1878 -0.2670 -0.2062
 2442SOL    HW110346   4.575   4.315   8.509 -0.4381  2.1121  1.4642
 2442SOL    HW210347   4.698   4.400   8.485  0.7552 -0.2976 -1.2644
 2443SOL     OW10348   7.897   3.668   5.133  0.0232  0.6363  0.4198
 2443SOL    HW110349   7.901   3.763   5.138 -2.2771  0.7517  0.8054
 2443SOL    HW210350   7.830   3.643   5.197 -2.2387 -0.8928 -2.4063
 2444SOL     OW10351   8.102   3.548   6.416 -0.1967  0.0286  0.5871
 2444SOL    HW110352   8.071   3.500   6.493 -2.8704  0.2940 -0.2517
 2444SOL    HW210353   8.169   3.608   6.449  2.3721 -3.3909  1.8554
 2445SOL     OW10354   5.293   9.087   2.515 -0.5795 -0.2046  0.0555
 2445SOL    HW110355   5.382   9.083   2.548 -0.6193 -1.6289  0.0349
 2445SOL    HW210356   5.266   9.178   2.528  0.6375  0.0764  0.6674
 2446SOL     OW10357   0.544   2.856   5.247 -0.3417  0.3556  0.0645
 2446SOL    HW110358   0.566   2.812   5.329  0.9770  0.9150  0.0240
 2446SOL    HW210359   0.547   2.949   5.268  0.9970  0.5344 -0.8394
 2447SOL     OW10360   4.466   6.664   8.621  0.1321  0.4177  0.6666
 2447SOL    HW110361   4.475   6.681   8.527 -0.8151 -1.9898  0.0955
 2447SOL    HW210362   4.555   6.665   8.655  0.4452  1.7461 -0.1807
 2448SOL     OW10363   1.158   1.004   7.541  0.2091 -0.0123  0.7463
 2448SOL    HW110364   1.106   0.924   7.544  0.8762 -0.4705 -0.0088
 2448SOL    HW210365   1.122   1.053   7.467  0.7437 -0.2595  0.3204
 2449SOL     OW10366   5.584   7.857   2.012 -0.3708 -0.0967  0.4327
 2449SOL    HW110367   5.618   7.946   2.018 -0.1992 -0.1151 -0.2258
 2449SOL    HW210368   5.629   7.820   1.936  0.2527 -1.0406  1.2500
 2450SOL     OW10369   3.698   6.452   4.867 -0.0108  0.2582  0.5832
 2450SOL    HW110370   3.712   6.357   4.871  0.7234  0.3755  0.8458
 2450SOL    HW210371   3.738   6.485   4.948 -0.7337  0.7332  0.7439
 2451SOL     OW10372   4.529   5.560   4.292  0.1578  0.9638  0.1005
 2451SOL    HW110373   4.567   5.510   4.364 -0.5335 -1.4684 -1.1476
 2451SOL    HW210374   4.594   5.553   4.221 -1.2993 -0.9204 -1.1244
 2452SOL     OW10375   0.358   0.670   7.712  0.3580 -0.1571 -0.2007
 2452SOL    HW110376   0.292   0.601   7.705 -0.8314  0.8762  0.7434
 2452SOL    HW210377   0.410   0.646   7.789  0.8660 -0.7624 -0.7209
 2453SOL     OW10378   0.572   0.636   3.672 -0.0755  0.0762  0.3797
 2453SOL    HW110379   0.522   0.609   3.595  1.9523 -0.6912 -0.6810
 2453SOL    HW210380   0.660   0.602   3.658  0.2666 -0.3592  3.1982
 2454SOL     OW10381   2.118   3.754   1.474  1.1943  0.4871  0.0443
 2454SOL    HW110382   2.119   3.717   1.562  0.7858 -0.9136 -0.5260
 2454SOL    HW210383   2.107   3.678   1.416 -2.6529  1.7212 -0.9870
 2455SOL     OW10384   2.233   2.506   3.845  0.4604  0.1541  0.4721
 2455SOL    HW110385   2.265   2.442   3.909  0.3151 -0.8636 -0.4666
 2455SOL    HW210386   2.176   2.456   3.786  0.6926  1.0552 -0.5402
 2456SOL     OW10387   2.991   7.085   0.742  0.3233  0.5465  0.6993
 2456SOL    HW110388   3.087   7.080   0.740  0.1966 -2.8312  1.4430
 2456SOL    HW210389   2.970   7.107   0.833  0.3086 -1.3088  1.1518
 2457SOL     OW10390   3.745   4.239   2.607 -0.4608  0.8925  0.1387
 2457SOL    HW110391   3.660   4.280   2.590 -0.6495  1.0175  1.3603
 2457SOL    HW210392   3.734   4.195   2.691 -0.2911 -1.7091 -1.1173
 2458SOL     OW10393   2.763   0.067   6.031 -0.4098  0.3894  0.3404
 2458SOL    HW110394   2.748  -0.021   6.066 -1.6666  0.5366  0.1744
 2458SOL    HW210395   2.851   0.090   6.062 -0.9748 -0.0158  2.2902
 2459SOL     OW10396   4.440   3.199   0.980  0.2951  0.2340 -0.1774
 2459SOL    HW110397   4.368   3.157   1.027  0.4228 -0.8088 -0.8875
 2459SOL    HW210398   4.512   3.202   1.042  0.0936 -0.0407  0.0673
 2460SOL     OW10399   6.967   4.618   4.619  0.1032 -0.5371 -0.2901
 2460SOL    HW110400   6.939   4.689   4.561 -1.1433 -1.1212 -0.4247
 2460SOL    HW210401   6.978   4.659   4.704  4.4659  0.8616 -1.4225
 2461SOL     OW10402   0.425   7.920   6.122  0.0939 -0.0991 -0.3721
 2461SOL    HW110403   0.453   7.831   6.104  1.0334  0.1853 -0.3239
 2461SOL    HW210404   0.486   7.975   6.072  0.3375  0.5612  0.6502
 2462SOL     OW10405   5.405   9.189   4.339 -0.2204 -0.1269 -0.4097
 2462SOL    HW110406   5.322   9.237   4.341  0.5418  1.1674  0.3755
 2462SOL    HW210407   5.405   9.137   4.419 -0.4894 -0.4964 -0.6489
 2463SOL     OW10408   3.050   8.911   5.022  0.6546 -0.2195  0.2104
 2463SOL    HW110409   3.120   8.872   4.970  0.0449 -0.6245 -0.3078
 2463SOL    HW210410   2.997   8.837   5.051  0.5564  0.0689  0.7721
 2464SOL     OW10411   0.491   4.637   1.522 -0.3934 -0.1419  0.1652
 2464SOL    HW110412   0.490   4.687   1.603 -3.2247 -1.5478  1.0629
 2464SOL    HW210413   0.523   4.550   1.547 -2.4867 -0.9758  0.1036
 2465SOL     OW10414   3.757   7.487   9.352  0.4603  0.1453  0.3529
 2465SOL    HW110415   3.804   7.404   9.345  1.1235  0.5894 -0.5791
 2465SOL    HW210416   3.707   7.480   9.433 -0.9843 -1.9351 -0.6854
 2466SOL     OW10417   9.348   8.974   5.833 -0.0887 -0.0375  0.3207
 2466SOL    HW110418   9.382   8.885   5.831  1.7373  0.6484 -0.8416
 2466SOL    HW210419   9.259   8.966   5.800 -0.1329 -1.5148  0.7582
 2467SOL     OW10420   6.961   7.846   6.079 -0.3899 -0.0260 -0.1763
 2467SOL    HW110421   6.917   7.761   6.079 -0.5374 -0.0209  3.0809
 2467SOL    HW210422   6.892   7.909   6.097 -0.0046  0.6261 -0.9394
 2468SOL     OW10423   3.489   0.769   4.147  0.3116 -0.4083  0.0057
 2468SOL    HW110424   3.462   0.689   4.192 -0.1128 -0.3492 -0.1451
 2468SOL    HW210425   3.585   0.769   4.154  0.4853 -2.0230 -1.8574
 2469SOL     OW10426   4.946   9.163   5.047 -0.4455 -0.1070  0.0443
 2469SOL    HW110427   4.861   9.127   5.072 -1.0736  0.8286 -0.6981
 2469SOL    HW210428   4.980   9.203   5.128 -1.2162  0.4920  0.0772
 2470SOL     OW10429   3.887   4.816   3.356 -0.7656 -0.0160  0.0447
 2470SOL    HW110430   3.822   4.748   3.341 -1.5365  0.6957  0.1568
 2470SOL    HW210431   3.841   4.884   3.404  0.5662 -0.3798  1.9335
 2471SOL     OW10432   0.889   0.541   5.265 -0.1475 -0.5922 -0.7188
 2471SOL    HW110433   0.879   0.515   5.357  0.9750 -0.1233 -0.4434
 2471SOL    HW210434   0.919   0.462   5.221  1.4277 -0.2876 -0.2456
 2472SOL     OW10435   0.933   3.932   4.046 -0.4232  0.3202 -0.2173
 2472SOL    HW110436   0.860   3.952   3.987 -1.2430  0.0383  0.6769
 2472SOL    HW210437   0.970   3.850   4.012  0.3500  1.1889 -1.4819
 2473SOL     OW10438   7.294   9.160   2.573  0.3948 -0.3194  0.3934
 2473SOL    HW110439   7.297   9.084   2.514 -0.2310 -0.2183  0.2333
 2473SOL    HW210440   7.343   9.132   2.650  1.4088 -0.3770 -0.2643
 2474SOL     OW10441   8.122   2.687   4.319 -0.1227 -0.0192  0.0050
 2474SOL    HW110442   8.120   2.628   4.243  0.5838 -0.6782  0.5004
 2474SOL    HW210443   8.066   2.761   4.292  0.2991 -0.1331 -1.2414
 2475SOL     OW10444   4.939   7.327   5.965 -0.1086  0.1714 -0.4298
 2475SOL    HW110445   4.993   7.248   5.957 -0.5687 -0.0774 -1.1438
 2475SOL    HW210446   4.947   7.370   5.879 -1.2121  0.0175 -0.6174
 2476SOL     OW10447   6.219   0.097   5.290  0.5046 -0.0258 -0.3712
 2476SOL    HW110448   6.159   0.065   5.358 -0.7671 -0.4547 -1.6653
 2476SOL    HW210449   6.286   0.145   5.338  0.6812 -1.9104  1.3400
 2477SOL     OW10450   3.488   5.323   5.427  0.3553 -0.3644 -0.0092
 2477SOL    HW110451   3.539   5.255   5.384  2.9593 -0.1708  2.6454
 2477SOL    HW210452   3.543   5.401   5.423 -0.0988  0.0939  2.1001
 2478SOL     OW10453   0.832   8.647   2.808  0.1552  0.0814 -0.4674
 2478SOL    HW110454   0.799   8.632   2.897  0.9362 -0.3284 -0.2439
 2478SOL    HW210455   0.756   8.682   2.761 -0.1370  0.7675  0.4823
 2479SOL     OW10456   6.535   4.698   2.179 -0.1401  0.0422  0.1761
 2479SOL    HW110457   6.511   4.688   2.271 -1.4277 -0.2138 -0.1746
 2479SOL    HW210458   6.540   4.608   2.146  1.7303  0.0755  0.3408
 2480SOL     OW10459   5.003   2.283   8.854  0.2793  0.2470 -0.0911
 2480SOL    HW110460   5.093   2.267   8.825  0.4880  0.8141  0.2402
 2480SOL    HW210461   4.963   2.334   8.784  0.3815  0.4757  0.0194
 2481SOL     OW10462   4.057   1.616   2.391 -0.3835  0.0017 -0.5057
 2481SOL    HW110463   4.127   1.678   2.372 -0.4291 -0.2838 -1.6271
 2481SOL    HW210464   4.062   1.550   2.321 -1.8425  0.0449 -0.6800
 2482SOL     OW10465   6.538   4.396   0.388 -0.2560  0.2526 -0.2180
 2482SOL    HW110466   6.554   4.371   0.297  2.0780  1.2959 -0.1261
 2482SOL    HW210467   6.622   4.428   0.420 -1.2928  0.8997  2.0049
 2483SOL     OW10468   1.779   0.834   3.886 -0.6268 -0.5790 -0.9936
 2483SOL    HW110469   1.864   0.789   3.884  0.4389  1.3769 -1.7489
 2483SOL    HW210470   1.747   0.821   3.975  0.8144 -0.7458 -0.4784
 2484SOL     OW10471   1.979   9.349   9.372  0.1600 -0.7087 -0.2754
 2484SOL    HW110472   2.011   9.362   9.462  2.3391  0.3328 -1.1817
 2484SOL    HW210473   1.944   9.435   9.347 -0.0601 -0.8853 -0.5794
 2485SOL     OW10474   1.688   0.015   7.281  0.8444  0.2097 -0.3421
 2485SOL    HW110475   1.683  -0.071   7.322  0.4840 -0.7414 -2.3097
 2485SOL    HW210476   1.770   0.052   7.312  0.3233 -0.2368  1.6460
 2486SOL     OW10477   7.318   3.190   8.795  0.3448  0.3281  0.1367
 2486SOL    HW110478   7.408   3.157   8.792  0.0756 -0.4294  0.2174
 2486SOL    HW210479   7.301   3.205   8.888  0.3862  0.4607  0.1217
 2487SOL     OW10480   7.531   3.034   4.246  0.1004 -0.1807  0.1555
 2487SOL    HW110481   7.488   3.042   4.161  0.2449  0.5909  0.1488
 2487SOL    HW210482   7.598   2.967   4.233 -0.9094 -1.2046  0.1001
 2488SOL     OW10483   9.333   1.721   7.133 -0.6487  0.4216  0.3333
 2488SOL    HW110484   9.357   1.781   7.062  0.4858 -1.1584 -0.6400
 2488SOL    HW210485   9.238   1.730   7.141 -0.9128 -0.1171 -2.0566
 2489SOL     OW10486   7.106   7.915   5.358  0.0735 -0.2635 -0.2465
 2489SOL    HW110487   7.041   7.982   5.340 -1.0668 -0.9987  1.0938
 2489SOL    HW210488   7.093   7.851   5.287 -0.8166 -0.5207  0.1425
 2490SOL     OW10489   7.697   3.404   2.933 -0.5774 -0.3623  0.2035
 2490SOL    HW110490   7.639   3.472   2.900 -0.4345 -0.0758  0.5411
 2490SOL    HW210491   7.681   3.329   2.875 -0.7844 -0.0677 -0.1247
 2491SOL     OW10492   4.470   7.474   4.591 -0.6190 -0.1214 -0.0542
 2491SOL    HW110493   4.418   7.399   4.561 -0.6113 -0.1364 -0.0295
 2491SOL    HW210494   4.420   7.510   4.664  0.2590 -1.1699  1.0884
 2492SOL     OW10495   2.486   8.847   1.585  0.8456  0.2695  0.4112
 2492SOL    HW110496   2.446   8.933   1.584  1.6540  0.6681  1.1058
 2492SOL    HW210497   2.485   8.821   1.677  2.7238  0.5602  0.5359
 2493SOL     OW10498   1.563   9.056   3.228  0.1948  0.3303  0.5377
 2493SOL    HW110499   1.635   9.065   3.291  0.3753  1.1674  0.2056
 2493SOL    HW210500   1.605   9.034   3.145 -0.0595 -1.0056  0.7446
 2494SOL     OW10501   0.512   7.764   0.949 -0.0954 -0.0834 -0.3498
 2494SOL    HW110502   0.419   7.740   0.947  0.3213 -1.7458 -0.4690
 2494SOL    HW210503   0.532   7.775   1.042 -0.4799  0.5605 -0.3414
 2495SOL     OW10504   3.510   6.766   6.331  0.2662 -0.1183 -0.1271
 2495SOL    HW110505   3.432   6.817   6.311 -0.2560 -1.6137 -2.1556
 2495SOL    HW210506   3.504   6.689   6.273  3.5273  0.0449 -0.8106
 2496SOL     OW10507   2.993   5.311   4.659  0.0690  0.0940 -0.0580
 2496SOL    HW110508   3.020   5.248   4.592  0.9599 -0.7168  1.0467
 2496SOL    HW210509   3.070   5.367   4.671 -1.5976  3.2306 -3.0257
 2497SOL     OW10510   2.073   5.694   7.894  0.1533  0.1819 -0.1257
 2497SOL    HW110511   2.089   5.706   7.987  2.3536 -2.1075 -0.1601
 2497SOL    HW210512   2.022   5.613   7.889  0.0172  0.3149 -0.9117
 2498SOL     OW10513   7.623   7.706   0.174  0.1331  0.0983 -0.0809
 2498SOL    HW110514   7.615   7.694   0.079  1.0405  0.2371 -0.1782
 2498SOL    HW210515   7.613   7.618   0.210  2.3825 -0.3440 -0.4915
 2499SOL     OW10516   4.059   7.998   7.852  0.1111 -0.1750 -0.6805
 2499SOL    HW110517   3.989   7.942   7.884 -0.2592  0.5651 -0.1576
 2499SOL    HW210518   4.139   7.961   7.890  0.0769 -1.3785 -1.7711
 2500SOL     OW10519   2.120   2.576   9.264  0.1798 -0.1095  0.6102
 2500SOL    HW110520   2.096   2.596   9.174 -0.9789 -0.3141  0.8687
 2500SOL    HW210521   2.174   2.650   9.292  2.0692 -0.8937 -0.8347
 2501SOL     OW10522   0.059   2.516   8.385 -0.1985 -0.0548 -0.2669
 2501SOL    HW110523  -0.004   2.470   8.330 -0.3639  0.6962 -0.7208
 2501SOL    HW210524   0.034   2.608   8.378  0.5243  0.1742  0.1010
 2502SOL     OW10525   5.994   3.914   0.579 -0.1652  0.1527 -0.1500
 2502SOL    HW110526   6.037   3.846   0.632  0.6399 -0.1377 -1.1630
 2502SOL    HW210527   5.915   3.871   0.546 -2.0014  1.1038  2.8118
 2503SOL     OW10528   7.286   2.375   3.664  0.3726  0.0326 -0.3477
 2503SOL    HW110529   7.380   2.355   3.668  0.5043  0.7026  0.0266
 2503SOL    HW210530   7.267   2.380   3.570  0.5036 -1.0513 -0.4300
 2504SOL     OW10531   3.032   3.944   6.062  0.2706 -0.3796  0.3877
 2504SOL    HW110532   3.020   3.893   5.982  0.8404  0.6357 -0.3593
 2504SOL    HW210533   2.944   3.955   6.098 -0.0085 -0.6250 -0.2225
 2505SOL     OW10534   6.632   5.023   1.572  0.1219 -0.2519  0.2936
 2505SOL    HW110535   6.620   4.976   1.490  0.2994 -0.3404  0.3182
 2505SOL    HW210536   6.557   5.083   1.577  0.7544  0.6220 -0.5279
 2506SOL     OW10537   2.715   0.221   8.378  0.0479  0.5016 -0.4415
 2506SOL    HW110538   2.705   0.162   8.304 -0.0918  1.2780 -1.0532
 2506SOL    HW210539   2.804   0.256   8.369  0.0708  0.5173 -0.1750
 2507SOL     OW10540   6.965   6.355   5.036 -0.7786 -0.3542 -0.1352
 2507SOL    HW110541   6.955   6.260   5.047  0.0981 -0.4563 -0.1165
 2507SOL    HW210542   6.905   6.393   5.101  0.1854 -0.9214  1.1217
 2508SOL     OW10543   5.195   6.925   4.060 -0.7158  0.1984  0.4657
 2508SOL    HW110544   5.232   6.942   3.974 -4.2449  0.1204 -1.1297
 2508SOL    HW210545   5.229   6.839   4.084 -0.6031 -0.2731 -1.3400
 2509SOL     OW10546   5.682   0.196   9.225 -0.1629 -0.5121 -0.7291
 2509SOL    HW110547   5.735   0.140   9.282  0.6197  1.4073  0.5094
 2509SOL    HW210548   5.708   0.171   9.136  0.7831 -1.5197 -0.1864
 2510SOL     OW10549   6.878   1.849   0.869 -0.7561  0.4551 -0.1966
 2510SOL    HW110550   6.953   1.824   0.815 -1.4775  2.5995 -2.2696
 2510SOL    HW210551   6.914   1.864   0.956  0.8902 -0.3222 -0.7265
 2511SOL     OW10552   8.473   4.023   8.514  0.1445 -0.1888  0.0820
 2511SOL    HW110553   8.476   3.996   8.423  0.5032  0.5913 -0.1431
 2511SOL    HW210554   8.390   3.989   8.547 -0.1341 -0.1950 -0.6247
 2512SOL     OW10555   8.026   4.223   5.207 -0.0825  0.2639 -0.4415
 2512SOL    HW110556   8.098   4.284   5.218 -1.0494  1.1526  1.0741
 2512SOL    HW210557   7.992   4.209   5.295 -0.5490 -1.6481 -0.8903
 2513SOL     OW10558   1.645   0.919   2.919 -0.2962  0.5726  0.0810
 2513SOL    HW110559   1.626   0.826   2.912 -0.4273  0.7184 -1.6377
 2513SOL    HW210560   1.734   0.929   2.886  0.2526  0.8633  1.6215
 2514SOL     OW10561   9.084   8.681   2.199  0.0856 -0.1312  0.4684
 2514SOL    HW110562   9.051   8.741   2.267  1.2182  0.9494  0.0973
 2514SOL    HW210563   9.022   8.609   2.198 -0.7022  0.5091  1.7123
 2515SOL     OW10564   9.212   6.338   6.942 -0.5158  0.3197 -0.0397
 2515SOL    HW110565   9.207   6.377   7.029  3.4120  2.1903 -0.5341
 2515SOL    HW210566   9.270   6.263   6.953  0.7597  1.1163 -1.2006
 2516SOL     OW10567   3.661   8.516   8.206  0.3149  0.4501  0.1655
 2516SOL    HW110568   3.654   8.547   8.116 -3.1379 -0.7570 -0.0594
 2516SOL    HW210569   3.689   8.425   8.198  0.8151  0.5802  0.3787
 2517SOL     OW10570   0.878   7.545   9.121  0.0319 -0.2148 -0.3304
 2517SOL    HW110571   0.911   7.626   9.160 -2.1998  0.6517 -0.1213
 2517SOL    HW210572   0.800   7.573   9.073  0.3373 -1.9519 -1.8867
 2518SOL     OW10573   8.115   0.315   4.501  0.4729 -0.4134 -0.2760
 2518SOL    HW110574   8.164   0.385   4.543  0.8359 -0.2284 -1.0093
 2518SOL    HW210575   8.134   0.237   4.555 -0.4747  0.1718  0.9331
 2519SOL     OW10576   7.965   3.425   7.462  0.0225 -0.3464 -0.3157
 2519SOL    HW110577   7.971   3.464   7.375  0.7563 -0.7414 -0.4426
 2519SOL    HW210578   7.927   3.494   7.516  1.3787  0.5849 -0.5201
 2520SOL     OW10579   7.180   5.658   9.103 -0.2040 -0.3270 -1.2515
 2520SOL    HW110580   7.151   5.570   9.128 -1.5340  0.7705  1.2456
 2520SOL    HW210581   7.269   5.665   9.138 -0.5669 -0.2297 -0.3404
 2521SOL     OW10582   9.179   1.898   8.445 -0.3915  0.4470 -0.9598
 2521SOL    HW110583   9.090   1.932   8.460 -0.1643  1.3231 -1.5180
 2521SOL    HW210584   9.176   1.865   8.355 -0.9924 -2.3106  0.0337
 2522SOL     OW10585   0.901   1.666   1.197  0.0068 -0.2141 -0.3948
 2522SOL    HW110586   0.812   1.640   1.175 -0.0824  0.8884 -1.4699
 2522SOL    HW210587   0.940   1.691   1.112  1.1235 -0.0859  0.1405
 2523SOL     OW10588   6.294   5.160   4.229 -0.6482 -0.2105  0.6288
 2523SOL    HW110589   6.291   5.222   4.301  2.4085 -0.5507  1.1109
 2523SOL    HW210590   6.276   5.212   4.151  1.8321  1.3470  1.0250
 2524SOL     OW10591   8.032   1.164   5.007 -0.1144  0.0243  0.3605
 2524SOL    HW110592   7.941   1.169   4.975 -0.3874 -0.5666  1.0278
 2524SOL    HW210593   8.070   1.092   4.956 -0.3763 -0.5242  0.9298
 2525SOL     OW10594   2.379   9.314   8.695 -0.3345  0.4253 -0.6688
 2525SOL    HW110595   2.426   9.339   8.615  0.1462  1.3900 -0.0899
 2525SOL    HW210596   2.416   9.228   8.718 -1.1425 -0.2996 -1.9917
 2526SOL     OW10597   2.345   1.350   2.746  0.2954 -0.2272  0.3758
 2526SOL    HW110598   2.302   1.336   2.830  0.2677  1.1536  0.5963
 2526SOL    HW210599   2.405   1.275   2.737  0.8091 -0.0089  1.9446
 2527SOL     OW10600   6.496   3.104   3.784  0.2617 -0.1172 -0.4408
 2527SOL    HW110601   6.447   3.098   3.702 -0.8116 -1.4771  0.2799
 2527SOL    HW210602   6.433   3.134   3.849  0.2010 -2.3353  0.5981
 2528SOL     OW10603   6.339   5.075   6.661 -0.3443  0.7798  0.0331
 2528SOL    HW110604   6.403   5.128   6.615  0.9795  0.0135  0.9343
 2528SOL    HW210605   6.313   5.007   6.598  1.1911 -0.0552  0.2863
 2529SOL     OW10606   8.484   3.574   2.153  0.5885 -0.1566  0.1604
 2529SOL    HW110607   8.559   3.528   2.115  1.5250  2.0735 -0.7848
 2529SOL    HW210608   8.508   3.586   2.244  1.5136  0.7764 -0.1966
 2530SOL     OW10609   0.353   4.661   0.800  0.2887  0.3114  0.5553
 2530SOL    HW110610   0.444   4.648   0.824  0.7445  0.5385 -1.0117
 2530SOL    HW210611   0.313   4.574   0.809  0.3740  0.4356  2.3245
 2531SOL     OW10612   1.150   1.235   0.548  0.5891  0.4827 -0.1123
 2531SOL    HW110613   1.149   1.330   0.552 -1.8755  0.4548  0.7909
 2531SOL    HW210614   1.071   1.212   0.498  0.5179 -1.0916  0.6910
 2532SOL     OW10615   3.122   6.780   3.469  0.2021 -0.5266 -0.0544
 2532SOL    HW110616   3.158   6.859   3.510 -0.6735  0.1093 -0.5122
 2532SOL    HW210617   3.197   6.720   3.464  0.9690  0.4177 -0.0801
 2533SOL     OW10618   0.065   6.268   3.221  0.2923 -0.2128 -0.6297
 2533SOL    HW110619   0.019   6.228   3.147  2.1385 -2.6005 -0.5256
 2533SOL    HW210620   0.114   6.196   3.261  1.5867  1.6340  1.1992
 2534SOL     OW10621   3.466   7.704   8.719 -0.2444  0.1186  0.0501
 2534SOL    HW110622   3.492   7.669   8.804  0.4927 -0.3681 -0.3697
 2534SOL    HW210623   3.405   7.639   8.684 -0.3920  0.2200  0.1173
 2535SOL     OW10624   3.271   4.917   6.037 -0.2624  0.0264  0.2998
 2535SOL    HW110625   3.179   4.913   6.012 -0.0221 -1.1862 -0.4362
 2535SOL    HW210626   3.274   4.870   6.121 -0.1348 -1.0012 -0.2655
 2536SOL     OW10627   6.119   1.837   0.217  0.0724  0.3165  0.6163
 2536SOL    HW110628   6.121   1.746   0.246 -0.6109 -0.1185 -0.6577
 2536SOL    HW210629   6.163   1.837   0.132 -1.6148  0.8202 -0.2852
 2537SOL     OW10630   6.479   1.402   2.924  0.8814 -0.3662  0.0277
 2537SOL    HW110631   6.411   1.464   2.900  2.3258  0.8119 -1.1802
 2537SOL    HW210632   6.555   1.457   2.946  1.5656 -1.6471  0.9330
 2538SOL     OW10633   5.651   1.380   5.063 -0.3705  0.0798  0.2465
 2538SOL    HW110634   5.578   1.337   5.017  0.3949 -0.8235 -0.1443
 2538SOL    HW210635   5.729   1.346   5.020  0.2659  1.8386 -0.0197
 2539SOL     OW10636   6.922   8.492   4.645 -0.1041 -0.3660  0.6869
 2539SOL    HW110637   6.850   8.465   4.702  0.7869  1.5679  2.7910
 2539SOL    HW210638   7.001   8.465   4.692  0.6394  1.2000  0.3496
 2540SOL     OW10639   7.046   1.553   1.872  0.2324  0.0711 -0.2021
 2540SOL    HW110640   7.141   1.554   1.858  0.1502 -0.8584 -0.8857
 2540SOL    HW210641   7.014   1.627   1.820  0.4001 -0.6912 -1.4148
 2541SOL     OW10642   0.212   7.633   6.652 -0.1477  0.3962  0.2867
 2541SOL    HW110643   0.142   7.673   6.703 -0.7984  0.4997 -0.6661
 2541SOL    HW210644   0.166   7.584   6.584  0.7018  2.1289 -1.6089
 2542SOL     OW10645   3.405   0.779   2.281 -0.6949  0.1136 -0.2453
 2542SOL    HW110646   3.412   0.690   2.247 -0.0828 -0.4977  1.4168
 2542SOL    HW210647   3.335   0.820   2.229  0.6950 -0.5247 -2.6722
 2543SOL     OW10648   8.647   6.729   3.975  0.6421  0.3069  0.8114
 2543SOL    HW110649   8.561   6.689   3.963  1.5949 -1.5888 -0.0787
 2543SOL    HW210650   8.630   6.811   4.022 -1.7460  0.5587 -0.4267
 2544SOL     OW10651   8.071   3.606   0.109  0.1831  0.7053 -0.0632
 2544SOL    HW110652   8.026   3.597   0.025  0.2249  0.2439 -0.0360
 2544SOL    HW210653   8.159   3.636   0.086  0.7670 -1.1376 -0.3119
 2545SOL     OW10654   6.213   2.946   2.437  0.2091 -0.6548  0.0512
 2545SOL    HW110655   6.222   3.037   2.465  0.2823 -0.6972  0.1702
 2545SOL    HW210656   6.149   2.909   2.498  0.9077 -0.9338  0.6193
 2546SOL     OW10657   0.581   0.806   3.891  0.3921  0.5756  0.3691
 2546SOL    HW110658   0.577   0.897   3.861 -1.1577  0.4636  0.2418
 2546SOL    HW210659   0.555   0.754   3.816 -0.8543  0.1449  1.0880
 2547SOL     OW10660   9.305   6.240   5.989  0.7858  0.5272 -0.1359
 2547SOL    HW110661   9.313   6.270   5.899 -1.0105 -1.4311 -0.9672
 2547SOL    HW210662   9.327   6.147   5.986 -4.9663 -0.9955  0.3486
 2548SOL     OW10663   2.806   8.726   1.706  0.5345 -0.1647  0.5912
 2548SOL    HW110664   2.779   8.812   1.738  0.2179  0.2643 -0.7916
 2548SOL    HW210665   2.732   8.669   1.727  0.8836 -0.1774  1.8120
 2549SOL     OW10666   2.808   3.795   1.842  0.1454  0.3407 -0.1382
 2549SOL    HW110667   2.810   3.724   1.907 -1.3515  1.4746  1.1909
 2549SOL    HW210668   2.837   3.754   1.761 -2.0333 -2.1558  0.2783
 2550SOL     OW10669   5.286   3.948   7.461 -0.1104 -0.3657  0.4637
 2550SOL    HW110670   5.241   4.014   7.407  1.1946 -0.7767 -1.1728
 2550SOL    HW210671   5.216   3.906   7.511 -1.3842 -0.0563 -1.0250
 2551SOL     OW10672   8.417   5.192   6.032  0.2112  0.2363  0.0168
 2551SOL    HW110673   8.464   5.266   5.993  0.6701  0.2414  0.5685
 2551SOL    HW210674   8.338   5.232   6.070  0.2646  0.3872 -0.0280
 2552SOL     OW10675   2.242   3.960   8.375  0.3515  0.0956 -0.4222
 2552SOL    HW110676   2.297   3.977   8.299  0.1741 -0.8091 -0.7611
 2552SOL    HW210677   2.302   3.962   8.449  0.7245 -0.2056 -0.7172
 2553SOL     OW10678   7.689   6.874   1.952  0.5504 -0.2242  0.2194
 2553SOL    HW110679   7.711   6.851   1.862 -1.5123 -0.3236 -0.2840
 2553SOL    HW210680   7.602   6.836   1.966  0.2892  0.9138  1.8160
 2554SOL     OW10681   2.910   4.619   0.123  0.0546 -0.0253  0.5633
 2554SOL    HW110682   2.928   4.553   0.056  0.0860  0.0528  0.4940
 2554SOL    HW210683   2.884   4.697   0.073 -2.0579 -0.6073  0.7231
 2555SOL     OW10684   4.679   3.170   4.628 -0.1922 -0.2349  0.8354
 2555SOL    HW110685   4.747   3.202   4.688 -0.0027  0.3345  0.3319
 2555SOL    HW210686   4.648   3.249   4.584  1.7548 -0.9733 -1.9766
 2556SOL     OW10687   7.633   7.825   8.777 -0.4841 -0.2787  0.4085
 2556SOL    HW110688   7.714   7.831   8.725 -0.7620 -0.7783 -0.0822
 2556SOL    HW210689   7.650   7.754   8.839 -0.2814  0.0902  0.7811
 2557SOL     OW10690   8.251   8.811   8.686 -0.7552 -0.5481 -0.0092
 2557SOL    HW110691   8.183   8.756   8.727 -0.4859 -0.4800  0.5311
 2557SOL    HW210692   8.240   8.897   8.727  0.7742 -0.9788  1.3542
 2558SOL     OW10693   0.239   1.714   2.852 -0.1892 -0.1321  0.3459
 2558SOL    HW110694   0.246   1.788   2.912 -0.7858  1.1372 -1.1191
 2558SOL    HW210695   0.277   1.746   2.770 -0.5786 -1.3909 -0.3391
 2559SOL     OW10696   4.217   3.104   1.530 -0.4475 -0.0147 -0.0420
 2559SOL    HW110697   4.133   3.150   1.540 -0.4609 -0.3851  1.6509
 2559SOL    HW210698   4.278   3.154   1.583  0.0694 -0.5899 -0.0908
 2560SOL     OW10699   4.982   8.976   1.959 -0.7254  0.0835 -0.1316
 2560SOL    HW110700   4.944   8.945   2.041 -1.4429  1.7714  0.1917
 2560SOL    HW210701   5.060   9.025   1.986 -0.0484 -0.7376 -0.5790
 2561SOL     OW10702   6.037   3.570   8.670  0.4315  0.2243  0.0898
 2561SOL    HW110703   5.967   3.610   8.722  0.7271  0.4079  0.3482
 2561SOL    HW210704   6.014   3.590   8.580 -0.4844 -0.7378  0.1035
 2562SOL     OW10705   8.909   2.503   8.144 -0.4589  0.5068  0.0138
 2562SOL    HW110706   8.905   2.408   8.161 -1.2851  0.7999  1.5560
 2562SOL    HW210707   8.894   2.543   8.230 -0.7786  2.0371 -0.7489
 2563SOL     OW10708   8.780   8.239   7.259  0.4731 -0.0972 -0.1366
 2563SOL    HW110709   8.821   8.249   7.345  0.1847 -0.2731  0.0220
 2563SOL    HW210710   8.688   8.260   7.273  0.2060 -1.2264 -0.1669
 2564SOL     OW10711   2.553   2.337   0.737 -0.3708 -0.1384  0.5393
 2564SOL    HW110712   2.609   2.386   0.797 -0.5553  1.7061 -0.7648
 2564SOL    HW210713   2.610   2.311   0.665  0.2599 -3.8437  2.2181
 2565SOL     OW10714   5.119   3.735   0.398  0.3868  0.0349 -0.2845
 2565SOL    HW110715   5.166   3.656   0.424 -2.3242 -1.5126  0.0221
 2565SOL    HW210716   5.104   3.724   0.304  0.7875  0.6324 -0.4243
 2566SOL     OW10717   9.190   5.438   7.706 -0.2504 -0.5061  0.5529
 2566SOL    HW110718   9.095   5.449   7.714 -0.2198 -0.3510  0.6984
 2566SOL    HW210719   9.205   5.347   7.732 -0.5419 -1.0040 -0.9204
 2567SOL     OW10720   2.294   6.045   0.753 -0.0203  0.4118  0.5346
 2567SOL    HW110721   2.358   6.045   0.824 -0.4623 -0.0166  0.9406
 2567SOL    HW210722   2.245   5.963   0.765 -1.9904  1.6668  1.4787
 2568SOL     OW10723   1.770   6.198   6.316 -0.0371  0.2553  0.3155
 2568SOL    HW110724   1.725   6.202   6.401  0.7515  0.0069  0.7492
 2568SOL    HW210725   1.738   6.117   6.277  0.3789 -0.1628  0.8283
 2569SOL     OW10726   5.717   0.099   3.505  0.1279 -0.3569 -0.3780
 2569SOL    HW110727   5.693   0.187   3.536 -0.4838 -0.3590 -0.8196
 2569SOL    HW210728   5.652   0.080   3.437  0.9928 -0.6651 -1.1120
 2570SOL     OW10729   3.087   1.089   8.202  0.2739  0.1333 -0.0067
 2570SOL    HW110730   3.103   1.014   8.144 -2.2769 -0.2459 -0.3060
 2570SOL    HW210731   3.160   1.148   8.186  0.3339 -0.5825 -2.6400
 2571SOL     OW10732   6.538   0.704   9.110 -0.4296  0.3612  0.1342
 2571SOL    HW110733   6.537   0.732   9.018  0.9695  1.8328  0.5461
 2571SOL    HW210734   6.485   0.770   9.155 -0.5252  0.0436  0.4862
 2572SOL     OW10735   1.170   9.172   2.603  0.2690 -0.1720  0.1360
 2572SOL    HW110736   1.228   9.178   2.527 -1.2761  2.0710 -0.9437
 2572SOL    HW210737   1.095   9.120   2.572  0.9847 -1.7565  1.0480
 2573SOL     OW10738   5.815   5.564   2.204  0.3515 -0.0111 -0.2511
 2573SOL    HW110739   5.841   5.607   2.285 -0.0992  0.3700 -0.3041
 2573SOL    HW210740   5.798   5.473   2.229  1.6180 -0.2361 -0.2016
 2574SOL     OW10741   1.405   5.763   2.349  0.4711 -0.1228 -0.0818
 2574SOL    HW110742   1.384   5.856   2.341  0.0938 -0.1312  0.8178
 2574SOL    HW210743   1.324   5.718   2.325  0.4034 -0.2088  0.3142
 2575SOL     OW10744   7.295   0.358   2.206 -0.0527  0.5343  0.5158
 2575SOL    HW110745   7.306   0.427   2.271 -0.1228 -1.5783  2.8391
 2575SOL    HW210746   7.259   0.284   2.255 -0.6215 -0.9373 -2.0389
 2576SOL     OW10747   7.742   8.064   2.411  0.1838 -0.0355  0.1071
 2576SOL    HW110748   7.658   8.020   2.399  1.2416 -1.4157 -2.6461
 2576SOL    HW210749   7.788   8.011   2.476 -0.4335 -0.2101  0.4042
 2577SOL     OW10750   6.265   3.370   2.898  0.5178  0.0908 -0.0374
 2577SOL    HW110751   6.294   3.438   2.959  0.9795  0.3809 -0.5676
 2577SOL    HW210752   6.179   3.343   2.930 -0.3232  1.9416 -0.6266
 2578SOL     OW10753   4.987   9.437   8.549 -0.5174  0.8277 -0.1197
 2578SOL    HW110754   5.062   9.436   8.489  0.2142 -1.6947  0.7514
 2578SOL    HW210755   5.020   9.480   8.628  0.2175 -0.7363  0.4526
 2579SOL     OW10756   7.737   2.961   5.902 -0.7291 -0.0530 -0.4493
 2579SOL    HW110757   7.826   2.998   5.901 -0.0421 -1.6641 -2.2541
 2579SOL    HW210758   7.733   2.913   5.985  0.0128  0.2065 -0.2552
 2580SOL     OW10759   6.960   5.870   7.874 -0.3946 -0.1866 -0.4628
 2580SOL    HW110760   6.934   5.779   7.858 -1.5187  0.1842 -0.8038
 2580SOL    HW210761   7.036   5.863   7.933 -1.5619 -1.2987  0.9795
 2581SOL     OW10762   6.135   6.844   9.211 -0.1541  0.0740  0.1843
 2581SOL    HW110763   6.214   6.886   9.246  0.5869 -0.1601 -1.1852
 2581SOL    HW210764   6.123   6.766   9.266  1.6226 -0.8838 -0.7549
 2582SOL     OW10765   5.837   9.275   4.240  0.6261 -0.0142 -0.0299
 2582SOL    HW110766   5.833   9.370   4.250 -0.0694 -0.2605  2.3849
 2582SOL    HW210767   5.782   9.256   4.164  0.2877  1.4570 -0.1552
 2583SOL     OW10768   1.089   0.230   8.252  0.9714  0.5632  0.4111
 2583SOL    HW110769   1.092   0.177   8.331 -3.9274 -0.3154  0.2060
 2583SOL    HW210770   1.094   0.167   8.180  1.5639  0.9992  0.0666
 2584SOL     OW10771   7.681   4.923   4.345  0.0235  0.2572  0.3409
 2584SOL    HW110772   7.628   5.002   4.335  0.4998  0.6622  0.9465
 2584SOL    HW210773   7.620   4.857   4.377 -0.7733 -0.1316 -1.8981
 2585SOL     OW10774   5.917   7.142   6.303 -0.4022  0.1152 -0.0103
 2585SOL    HW110775   5.974   7.086   6.357 -0.2746 -0.2211 -0.4952
 2585SOL    HW210776   5.941   7.231   6.329  1.6194  0.0409 -1.4587
 2586SOL     OW10777   1.989   5.981   6.357 -0.1161 -0.6128  0.2028
 2586SOL    HW110778   2.065   5.936   6.395 -0.7200 -0.6435  1.3980
 2586SOL    HW210779   2.021   6.017   6.275  0.7958 -1.9201 -0.0374
 2587SOL     OW10780   4.314   7.023   5.969  0.4319 -0.2245  0.4943
 2587SOL    HW110781   4.307   6.983   6.056 -0.2292  0.8938  0.9588
 2587SOL    HW210782   4.226   7.054   5.949  0.6874 -0.0360 -0.3735
 2588SOL     OW10783   4.119   3.547   7.993  0.6298 -0.5964 -0.0175
 2588SOL    HW110784   4.186   3.527   7.927  0.9231 -1.6584  0.5903
 2588SOL    HW210785   4.163   3.604   8.056  0.1069  1.1381 -1.1669
 2589SOL     OW10786   3.055   4.378   1.355  0.4028 -0.8543 -0.3063
 2589SOL    HW110787   3.109   4.339   1.424  0.7109  0.8141  0.4232
 2589SOL    HW210788   3.025   4.461   1.393 -0.6958 -0.6556 -1.6082
 2590SOL     OW10789   6.114   0.159   7.931 -0.0270 -0.0774 -0.6687
 2590SOL    HW110790   6.194   0.212   7.930  0.2317 -0.4195  1.1892
 2590SOL    HW210791   6.146   0.069   7.918 -0.1665 -0.1501 -0.4974
 2591SOL     OW10792   7.357   5.426   2.327  0.7460 -0.9321  0.2265
 2591SOL    HW110793   7.359   5.475   2.409  0.1291  0.8788 -0.8173
 2591SOL    HW210794   7.320   5.341   2.351 -0.1395 -0.1547  1.6998
 2592SOL     OW10795   8.809   4.485   4.479 -0.1309  0.0337 -0.8440
 2592SOL    HW110796   8.847   4.401   4.506 -0.6927  0.1724  0.4042
 2592SOL    HW210797   8.884   4.541   4.460  0.2514 -0.5677 -1.1022
 2593SOL     OW10798   4.437   3.581   2.383  0.0654 -0.1566 -0.5322
 2593SOL    HW110799   4.404   3.558   2.469  0.0431 -0.3062 -0.5807
 2593SOL    HW210800   4.520   3.535   2.375 -1.0694 -2.0979 -1.5421
 2594SOL     OW10801   3.529   1.887   6.668  0.4051 -0.4529  0.0445
 2594SOL    HW110802   3.584   1.812   6.647  1.0240  0.1195 -0.3959
 2594SOL    HW210803   3.440   1.853   6.667  0.5381 -0.7959 -1.8867
 2595SOL     OW10804   5.310   0.119   0.499  0.4425 -0.4798  0.6360
 2595SOL    HW110805   5.370   0.044   0.492  0.9869 -0.1898  2.1372
 2595SOL    HW210806   5.348   0.174   0.567 -0.2747  0.8863 -0.0556
 2596SOL     OW10807   1.363   7.674   7.972  0.5388  0.4189  0.2642
 2596SOL    HW110808   1.443   7.670   7.920 -0.1910 -0.5838 -0.8192
 2596SOL    HW210809   1.390   7.651   8.061  1.2237 -1.4316 -0.3957
 2597SOL     OW10810   6.419   9.182   4.579 -0.1675  0.5811  0.1525
 2597SOL    HW110811   6.426   9.242   4.505  2.4216  0.3629  0.1643
 2597SOL    HW210812   6.462   9.228   4.651  1.5690 -1.1149  0.2391
 2598SOL     OW10813   5.914   5.307   6.136  0.4300 -0.2822  0.6645
 2598SOL    HW110814   5.913   5.211   6.140  1.1311 -0.3596 -0.6716
 2598SOL    HW210815   6.007   5.329   6.142  0.6053  0.1152 -2.5609
 2599SOL     OW10816   1.062   0.537   8.419 -0.1243 -0.2037  0.0414
 2599SOL    HW110817   1.014   0.492   8.349  0.3440  1.5725 -1.4537
 2599SOL    HW210818   1.149   0.553   8.383  0.6846 -0.8082  1.6819
 2600SOL     OW10819   2.256   8.124   0.500  0.2181 -0.0402  0.6382
 2600SOL    HW110820   2.303   8.041   0.510  1.8618  0.8079  0.1158
 2600SOL    HW210821   2.281   8.174   0.578  0.9245  0.7678 -0.0996
 2601SOL     OW10822   9.249   3.115   1.099  0.1817  0.1662 -0.0554
 2601SOL    HW110823   9.308   3.044   1.124  0.5970  0.4808 -0.1281
 2601SOL    HW210824   9.235   3.103   1.005  0.1905  0.1273 -0.0513
 2602SOL     OW10825   5.801   9.044   8.145 -0.1389 -0.1099 -0.0729
 2602SOL    HW110826   5.835   9.132   8.127  1.2356 -0.2772  1.5312
 2602SOL    HW210827   5.724   9.059   8.200 -1.0531  0.1661 -1.4239
 2603SOL     OW10828   7.630   5.740   2.883 -0.5048 -0.6811  0.0771
 2603SOL    HW110829   7.630   5.785   2.798 -2.3530  1.4329  1.1440
 2603SOL    HW210830   7.575   5.663   2.868 -2.5702  0.7698 -0.1746
 2604SOL     OW10831   0.033   5.364   8.797 -0.6574  0.0790  0.7340
 2604SOL    HW110832   0.127   5.376   8.786 -0.4552 -2.5518 -0.8235
 2604SOL    HW210833  -0.005   5.451   8.788  1.3842  0.7786 -1.3941
 2605SOL     OW10834   5.738   3.765   1.283  0.1885 -0.2771 -0.4413
 2605SOL    HW110835   5.697   3.716   1.355 -0.9322  1.6739  0.2957
 2605SOL    HW210836   5.696   3.732   1.204 -0.7311 -0.3461  0.0693
 2606SOL     OW10837   6.408   0.411   0.873  0.2862 -0.2764  0.6285
 2606SOL    HW110838   6.346   0.342   0.848 -0.4560 -0.0454  1.7729
 2606SOL    HW210839   6.415   0.467   0.795 -0.7673 -0.4477  0.4017
 2607SOL     OW10840   1.017   6.665   1.972  0.3113  0.3548 -0.3066
 2607SOL    HW110841   0.977   6.706   2.049  0.0407  0.0210 -0.2682
 2607SOL    HW210842   0.974   6.708   1.898  0.3813  0.4888 -0.2698
 2608SOL     OW10843   3.911   6.957   3.302  0.6883 -0.6964 -0.3152
 2608SOL    HW110844   3.861   6.889   3.256 -1.5782  2.3964 -2.6000
 2608SOL    HW210845   3.874   7.039   3.272  2.9085  1.6193  2.9204
 2609SOL     OW10846   7.670   0.886   0.291  0.3638 -0.4233 -0.2238
 2609SOL    HW110847   7.739   0.948   0.316  0.0573 -0.9430  1.9925
 2609SOL    HW210848   7.590   0.938   0.290  0.2505 -0.5807  0.6939
 2610SOL     OW10849   0.429   3.566   2.244  0.1266 -0.2379  0.3978
 2610SOL    HW110850   0.363   3.548   2.177 -0.1048  0.1798  0.5116
 2610SOL    HW210851   0.420   3.659   2.263  1.1438 -0.0554  0.0064
 2611SOL     OW10852   0.697   1.858   3.864 -0.7328 -0.4006 -0.1476
 2611SOL    HW110853   0.727   1.775   3.827 -1.2447 -0.8700  0.4612
 2611SOL    HW210854   0.714   1.849   3.958  0.5733  0.7780 -0.2561
 2612SOL     OW10855   8.042   7.707   3.118  0.5161 -0.0887  0.1863
 2612SOL    HW110856   8.132   7.709   3.149  0.2241 -1.9339  1.2338
 2612SOL    HW210857   8.002   7.785   3.156  1.4724  0.3415  0.3342
 2613SOL     OW10858   8.278   8.027   2.995 -0.3397 -0.1746  0.3779
 2613SOL    HW110859   8.317   8.111   3.020  1.6808 -0.8328 -0.4087
 2613SOL    HW210860   8.333   7.961   3.038 -0.0582 -1.1486 -1.3855
 2614SOL     OW10861   1.323   5.215   8.929 -0.0318  0.2210  0.1741
 2614SOL    HW110862   1.378   5.144   8.962  0.0521 -0.0311 -0.4969
 2614SOL    HW210863   1.313   5.196   8.835  1.5497  2.1078 -0.4079
 2615SOL     OW10864   1.629   7.019   5.116 -0.7435 -0.6065 -0.0600
 2615SOL    HW110865   1.696   7.086   5.128  0.3029 -1.7278  0.5539
 2615SOL    HW210866   1.572   7.028   5.192 -0.3175 -0.7267  0.2776
 2616SOL     OW10867   4.281   9.224   5.503  0.3099  0.1283 -0.0894
 2616SOL    HW110868   4.354   9.286   5.504  0.3851  0.0964 -1.7679
 2616SOL    HW210869   4.319   9.143   5.471 -0.5924  0.3192 -1.7260
 2617SOL     OW10870   1.182   2.478   3.440 -0.1364  0.2144 -0.0081
 2617SOL    HW110871   1.206   2.568   3.464  0.4298 -0.8957  3.7972
 2617SOL    HW210872   1.252   2.424   3.476 -1.8202 -2.0054  0.0251
 2618SOL     OW10873   7.394   8.209   1.749  0.0739 -0.2408  0.0690
 2618SOL    HW110874   7.434   8.242   1.829 -0.7387 -0.9496  0.7931
 2618SOL    HW210875   7.344   8.283   1.715 -0.2033 -0.1560  0.6452
 2619SOL     OW10876   6.580   4.398   6.413 -0.0845  0.2479 -0.0613
 2619SOL    HW110877   6.647   4.445   6.463 -0.0872 -0.8963  1.0461
 2619SOL    HW210878   6.515   4.372   6.478 -0.7605 -0.1112 -0.8715
 2620SOL     OW10879   2.999   8.114   7.170  0.1753 -0.1675 -0.1272
 2620SOL    HW110880   2.996   8.193   7.223  0.0476  0.2859 -0.8113
 2620SOL    HW210881   3.056   8.054   7.220 -0.4727  0.0101  0.8432
 2621SOL     OW10882   5.883   1.152   2.999  0.0553  0.3863  0.1525
 2621SOL    HW110883   5.819   1.221   2.984  0.6037  1.0829  0.9430
 2621SOL    HW210884   5.959   1.197   3.035  0.4571 -0.6179  0.5930
 2622SOL     OW10885   4.799   4.159   8.036  0.3892 -0.3154  0.7199
 2622SOL    HW110886   4.791   4.236   8.093 -1.4381 -0.5055  0.7281
 2622SOL    HW210887   4.874   4.111   8.072  0.1135  0.2669  2.1297
 2623SOL     OW10888   5.321   0.934   8.314 -0.3002  0.0541 -0.2052
 2623SOL    HW110889   5.246   0.940   8.374  0.3755 -2.8824  1.0110
 2623SOL    HW210890   5.383   1.000   8.346 -0.5759 -0.4572  1.4091
 2624SOL     OW10891   3.930   0.258   5.744  0.3186 -0.5413 -0.0418
 2624SOL    HW110892   4.001   0.248   5.681 -0.6571 -0.2531 -1.2108
 2624SOL    HW210893   3.953   0.198   5.816  0.9244 -1.6687 -1.1479
 2625SOL     OW10894   3.906   5.537   3.199  0.5447  0.3136  0.2612
 2625SOL    HW110895   3.810   5.531   3.206  0.5276  1.4581  1.2640
 2625SOL    HW210896   3.922   5.627   3.171  1.3873  0.7018  1.9298
 2626SOL     OW10897   4.617   0.771   5.043 -0.0242 -0.6438  0.6179
 2626SOL    HW110898   4.593   0.691   4.997  2.6391  0.2735 -2.6298
 2626SOL    HW210899   4.686   0.745   5.104  0.8725 -0.8318 -0.4696
 2627SOL     OW10900   6.396   0.035   2.851  0.2425 -0.1168  0.4563
 2627SOL    HW110901   6.398  -0.044   2.797  0.3703 -0.7428  1.3552
 2627SOL    HW210902   6.306   0.067   2.844  0.1146 -0.5039  0.3141
 2628SOL     OW10903   6.694   3.779   1.204 -0.3416  0.1258 -0.1044
 2628SOL    HW110904   6.742   3.704   1.237 -0.4956 -0.1337 -0.4673
 2628SOL    HW210905   6.756   3.822   1.144 -0.1380  0.4744  0.3481
 2629SOL     OW10906   6.444   0.703   0.730  0.3436  0.0549 -0.6149
 2629SOL    HW110907   6.398   0.676   0.650  1.4193 -1.9920 -0.5952
 2629SOL    HW210908   6.537   0.706   0.705  0.7037 -0.7279  0.5700
 2630SOL     OW10909   1.554   3.632   3.100 -0.5832  0.2994  0.3581
 2630SOL    HW110910   1.634   3.595   3.136 -0.9548 -1.3293 -0.4063
 2630SOL    HW210911   1.504   3.661   3.176 -0.2218 -0.6952  0.9869
 2631SOL     OW10912   1.669   0.495   2.214 -0.2965 -0.8805  1.2894
 2631SOL    HW110913   1.672   0.513   2.120  1.3827 -2.5971  0.9991
 2631SOL    HW210914   1.575   0.499   2.235 -0.6129  0.4616 -0.2501
 2632SOL     OW10915   4.261   6.920   2.251 -0.4256  0.5754  0.7157
 2632SOL    HW110916   4.279   6.901   2.343 -0.3656 -0.0425  0.5777
 2632SOL    HW210917   4.200   6.853   2.224  0.9137 -0.3122 -0.1652
 2633SOL     OW10918   2.013   4.627   4.800  0.0977 -0.1520  0.1415
 2633SOL    HW110919   2.062   4.706   4.822  0.7139 -0.4186 -0.2560
 2633SOL    HW210920   2.066   4.555   4.836 -0.0213 -0.4382 -0.2561
 2634SOL     OW10921   5.610   9.391   3.708 -0.2304 -0.0111 -0.2001
 2634SOL    HW110922   5.646   9.445   3.638  0.8150  0.4700  0.6941
 2634SOL    HW210923   5.630   9.439   3.788 -0.4677 -1.0806  0.5144
 2635SOL     OW10924   6.419   7.998   6.247  0.0252 -0.1095 -0.1774
 2635SOL    HW110925   6.386   7.968   6.332  2.9815  1.5988  1.7041
 2635SOL    HW210926   6.397   8.091   6.245 -2.8542 -0.7996 -2.7708
 2636SOL     OW10927   7.580   6.436   5.236  0.4721  0.5862 -0.2240
 2636SOL    HW110928   7.488   6.437   5.262  0.5216  2.1117 -0.0843
 2636SOL    HW210929   7.625   6.395   5.310 -0.1187 -0.4472 -0.4244
 2637SOL     OW10930   8.920   5.541   1.544 -0.2205  0.0107 -0.3770
 2637SOL    HW110931   9.003   5.496   1.559 -1.5937 -2.4187  0.1875
 2637SOL    HW210932   8.937   5.598   1.468  1.8766 -0.5750 -0.3765
 2638SOL     OW10933   6.290   3.366   6.942  0.5091  0.2444  0.5201
 2638SOL    HW110934   6.200   3.385   6.970  0.0141 -3.3436  1.6295
 2638SOL    HW210935   6.344   3.423   6.998 -1.0138  2.4719 -0.1866
 2639SOL     OW10936   6.173   1.251   2.186  0.1904  0.0557  0.4064
 2639SOL    HW110937   6.247   1.192   2.171  0.0659  0.1853 -0.8164
 2639SOL    HW210938   6.132   1.260   2.100  0.6961  2.5761  0.3803
 2640SOL     OW10939   5.553   5.942   5.073 -0.2243 -0.7196 -0.1238
 2640SOL    HW110940   5.473   5.890   5.075 -1.0432  0.4298 -2.2816
 2640SOL    HW210941   5.541   6.007   5.142 -0.1665 -1.9275  1.0507
 2641SOL     OW10942   6.346   9.037   5.968  0.1848  0.0769  0.0358
 2641SOL    HW110943   6.330   9.123   5.928  0.6318 -0.0237 -0.3609
 2641SOL    HW210944   6.280   8.980   5.929  1.0364 -0.1673 -1.0369
 2642SOL     OW10945   4.413   3.760   7.873 -0.0671 -0.1015 -0.1781
 2642SOL    HW110946   4.345   3.745   7.938  1.9662  0.3671  2.1363
 2642SOL    HW210947   4.422   3.856   7.869 -2.7743  0.0719 -3.9815
 2643SOL     OW10948   6.560   6.767   4.972 -0.2385  0.0262 -0.4357
 2643SOL    HW110949   6.544   6.789   4.881 -0.5295  0.8098 -0.1984
 2643SOL    HW210950   6.478   6.729   5.003 -0.3945  0.4768 -0.2897
 2644SOL     OW10951   8.579   0.558   8.363  0.2856 -0.0230  0.0339
 2644SOL    HW110952   8.573   0.490   8.430  0.9893 -1.1017 -0.9710
 2644SOL    HW210953   8.653   0.612   8.390 -0.1995  0.2793  0.7713
 2645SOL     OW10954   9.410   3.639   8.193  0.2349 -0.0144 -0.3597
 2645SOL    HW110955   9.381   3.613   8.280  1.0296 -1.5544 -0.5365
 2645SOL    HW210956   9.415   3.558   8.144  1.0200  0.6857 -1.4736
 2646SOL     OW10957   3.661   4.795   3.749 -0.2150 -0.2448  0.0199
 2646SOL    HW110958   3.628   4.856   3.684  0.1075  1.4000  1.3684
 2646SOL    HW210959   3.735   4.841   3.789 -0.8116 -0.9569  1.9888
 2647SOL     OW10960   1.691   8.430   2.742  0.2624 -0.0385 -0.3499
 2647SOL    HW110961   1.638   8.510   2.738  2.4920  1.4856 -0.6811
 2647SOL    HW210962   1.744   8.441   2.821 -1.3611 -2.5049  1.1288
 2648SOL     OW10963   6.918   7.295   3.451  0.2878 -0.3317  0.1040
 2648SOL    HW110964   6.948   7.275   3.362  1.0088 -0.8352  0.4508
 2648SOL    HW210965   6.824   7.278   3.449  0.3935 -0.8925 -0.4209
 2649SOL     OW10966   7.527   1.643   5.952 -0.1085 -0.1028  0.0824
 2649SOL    HW110967   7.509   1.590   6.029  0.4385 -0.4284 -0.0152
 2649SOL    HW210968   7.617   1.621   5.927 -0.1070  0.3700 -0.3513
 2650SOL     OW10969   5.993   2.895   8.542  0.3306 -0.2036  0.3813
 2650SOL    HW110970   5.919   2.834   8.537 -0.7589  1.2266 -1.3085
 2650SOL    HW210971   5.990   2.929   8.632 -0.9086 -0.3614  0.4138
 2651SOL     OW10972   1.185   1.541   6.485 -0.4122 -0.3074 -0.1070
 2651SOL    HW110973   1.253   1.608   6.478 -0.9116 -0.0121 -3.0676
 2651SOL    HW210974   1.231   1.458   6.469 -0.4611 -0.2821 -0.3767
 2652SOL     OW10975   6.814   0.218   7.504  0.4420  0.0463 -0.3169
 2652SOL    HW110976   6.884   0.160   7.533  1.2704  0.6766 -1.0559
 2652SOL    HW210977   6.850   0.306   7.515 -0.4311  0.3904 -0.1948
 2653SOL     OW10978   7.216   7.948   6.146  0.0862 -0.4808  0.2429
 2653SOL    HW110979   7.153   7.900   6.092  0.2335 -0.0814 -0.2877
 2653SOL    HW210980   7.186   8.039   6.143 -0.9260 -0.7229  2.2891
 2654SOL     OW10981   1.925   0.096   7.390  1.0027 -0.4722 -0.3193
 2654SOL    HW110982   2.011   0.125   7.360  0.7372  0.9226  0.2604
 2654SOL    HW210983   1.921   0.124   7.482 -0.5709  0.5976 -0.7017
 2655SOL     OW10984   8.260   8.761   6.585  0.3157  0.0457  0.1116
 2655SOL    HW110985   8.236   8.689   6.643  1.7401 -0.2379  0.3591
 2655SOL    HW210986   8.269   8.836   6.644  3.7146 -0.6635  0.6034
 2656SOL     OW10987   7.594   8.351   4.829  0.3553 -0.4166 -0.0011
 2656SOL    HW110988   7.613   8.261   4.803  2.6465  0.4373 -1.3907
 2656SOL    HW210989   7.656   8.405   4.779  0.0148  1.8275  1.8943
 2657SOL     OW10990   2.363   7.495   5.486  0.1694 -0.2732  0.3201
 2657SOL    HW110991   2.435   7.471   5.544  1.1416 -2.0711 -1.5700
 2657SOL    HW210992   2.290   7.439   5.514  0.3037 -0.3226  0.5675
 2658SOL     OW10993   3.049   9.173   7.241 -0.3469 -0.4691 -0.4495
 2658SOL    HW110994   3.099   9.251   7.261 -0.3488 -0.3996 -0.7141
 2658SOL    HW210995   3.053   9.120   7.321 -0.1304 -0.3168 -0.3610
 2659SOL     OW10996   0.571   4.092   8.290  0.2720  0.3012 -0.7530
 2659SOL    HW110997   0.543   4.129   8.206 -0.8865  0.3757 -0.3545
 2659SOL    HW210998   0.516   4.014   8.301  0.8263 -0.0336 -0.3414
 2660SOL     OW10999   1.377   2.018   2.031 -0.3161 -0.4899 -0.0543
 2660SOL    HW111000   1.416   1.931   2.020 -1.3988 -0.5963 -3.8478
 2660SOL    HW211001   1.451   2.077   2.043  0.4653 -1.7937  1.8041
 2661SOL     OW11002   5.208   2.990   9.060 -0.1811 -0.0519 -0.1613
 2661SOL    HW111003   5.164   2.965   8.979  0.5257 -1.8151 -0.0217
 2661SOL    HW211004   5.182   3.081   9.074 -0.8345  0.0675 -2.0100
 2662SOL     OW11005   6.189   7.174   4.015  0.3597  0.4459 -0.2832
 2662SOL    HW111006   6.199   7.203   3.924 -1.9189 -1.6946 -1.2774
 2662SOL    HW211007   6.267   7.120   4.032  1.0324  1.2517 -0.7890
 2663SOL     OW11008   9.431   4.233   9.390  0.2980  0.3267 -0.5667
 2663SOL    HW111009   9.446   4.157   9.446  0.6275  0.4692 -0.4598
 2663SOL    HW211010   9.357   4.208   9.336 -0.9366  0.7193  0.8961
 2664SOL     OW11011   7.819   3.182   4.223 -0.0017 -0.0107 -0.3717
 2664SOL    HW111012   7.740   3.133   4.205 -1.9547  2.8652  0.0215
 2664SOL    HW211013   7.837   3.230   4.142  0.5703  0.3484 -0.0359
 2665SOL     OW11014   6.898   7.851   3.957  0.5693 -0.6564  0.3651
 2665SOL    HW111015   6.824   7.793   3.939  0.3543  0.4857 -2.7449
 2665SOL    HW211016   6.972   7.810   3.912  1.4582 -0.9144  2.0476
 2666SOL     OW11017   1.474   6.637   8.848  0.2400 -0.0825  0.1508
 2666SOL    HW111018   1.380   6.652   8.853  0.2453 -0.2196  0.6669
 2666SOL    HW211019   1.489   6.561   8.905  0.5338 -0.6172 -0.6311
 2667SOL     OW11020   6.802   6.999   0.396  0.7395 -0.3442 -0.0341
 2667SOL    HW111021   6.742   7.073   0.390 -0.2536 -1.2828 -1.9465
 2667SOL    HW211022   6.807   6.981   0.490 -1.2319  0.3392  0.2352
 2668SOL     OW11023   1.354   0.901   6.308  0.5110  0.3130  0.5784
 2668SOL    HW111024   1.334   0.853   6.388 -0.9015  0.8598  0.5722
 2668SOL    HW211025   1.437   0.945   6.327 -0.3438  1.3199  2.1675
 2669SOL     OW11026   8.008   8.119   0.958  0.0642 -1.0688  0.1888
 2669SOL    HW111027   8.029   8.128   1.050  0.7885  0.9514 -0.1588
 2669SOL    HW211028   7.913   8.117   0.954 -0.0826  2.3163  0.7119
 2670SOL     OW11029   8.679   2.472   9.025 -0.0314 -0.1223  0.1711
 2670SOL    HW111030   8.663   2.393   9.077 -1.8419  0.3089  0.2720
 2670SOL    HW211031   8.715   2.439   8.943 -0.8194 -1.0693  0.1945
 2671SOL     OW11032   1.174   7.387   4.894 -0.1892  0.3386 -0.4205
 2671SOL    HW111033   1.224   7.380   4.976  0.2491 -0.3194 -0.7351
 2671SOL    HW211034   1.203   7.312   4.842  0.0322  1.1299 -1.4505
 2672SOL     OW11035   2.219   9.187   8.262  0.1201 -0.8543  0.0737
 2672SOL    HW111036   2.134   9.154   8.291 -0.6479  0.4669 -0.6274
 2672SOL    HW211037   2.280   9.159   8.331 -1.4838  1.2698  2.4782
 2673SOL     OW11038   0.968   3.504   3.487  0.1181 -0.3481 -0.3232
 2673SOL    HW111039   1.038   3.552   3.443 -0.3154 -0.6766 -1.3955
 2673SOL    HW211040   0.961   3.545   3.573  1.8455 -0.5323 -0.0775
 2674SOL     OW11041   0.317   6.066   4.601  0.2145 -0.1865  0.8356
 2674SOL    HW111042   0.230   6.075   4.638  0.6519 -1.2991  2.2110
 2674SOL    HW211043   0.376   6.088   4.673  1.0788 -0.9442  0.3721
 2675SOL     OW11044   1.939   5.264   7.697  0.3570 -0.0511 -0.0174
 2675SOL    HW111045   1.937   5.174   7.730 -2.1189 -0.1660 -0.3751
 2675SOL    HW211046   1.886   5.261   7.617 -1.9193  2.2179  1.3280
 2676SOL     OW11047   8.434   2.819   0.205 -0.0615  0.4760 -0.6768
 2676SOL    HW111048   8.347   2.780   0.210 -0.1086  0.6523 -0.0741
 2676SOL    HW211049   8.484   2.758   0.151  0.5126 -1.6666  2.1071
 2677SOL     OW11050   8.465   6.684   3.691 -0.0270  0.2244  0.6022
 2677SOL    HW111051   8.415   6.692   3.772 -0.7011 -2.2195  0.4697
 2677SOL    HW211052   8.399   6.686   3.622  0.2698 -0.6057  0.2881
 2678SOL     OW11053   8.801   0.177   2.229 -0.1115 -0.5483  0.1510
 2678SOL    HW111054   8.751   0.179   2.147 -1.3868  2.1189  0.9563
 2678SOL    HW211055   8.855   0.257   2.226  1.4271 -1.5258  0.9631
 2679SOL     OW11056   8.523   8.199   3.875  0.3424 -0.0109 -0.0524
 2679SOL    HW111057   8.611   8.237   3.883  0.3577 -0.0616  0.0231
 2679SOL    HW211058   8.523   8.125   3.936  0.0531  0.3487  0.3928
 2680SOL     OW11059   7.944   5.541   4.281  0.1076  0.1993 -0.0192
 2680SOL    HW111060   7.883   5.488   4.333  1.4902 -1.7252 -0.2795
 2680SOL    HW211061   7.899   5.554   4.198 -0.8264  0.6104  0.5433
 2681SOL     OW11062   8.851   2.458   5.619 -0.2068  0.4301 -0.1678
 2681SOL    HW111063   8.890   2.373   5.599  0.9708  0.7214  0.8692
 2681SOL    HW211064   8.758   2.438   5.635 -0.9761  0.0201 -4.6287
 2682SOL     OW11065   4.326   5.621   1.280  0.0057 -0.1733 -0.2225
 2682SOL    HW111066   4.302   5.528   1.283 -0.0363 -0.1737 -0.6735
 2682SOL    HW211067   4.257   5.662   1.228  0.1972  0.0610 -0.2899
 2683SOL     OW11068   7.114   4.517   1.481  0.0607 -0.0239 -0.1576
 2683SOL    HW111069   7.122   4.521   1.386  0.6328 -0.0806 -0.1102
 2683SOL    HW211070   7.056   4.443   1.497 -1.2967  0.9381 -0.5298
 2684SOL     OW11071   5.642   8.707   7.979  0.3874  0.3311  0.0102
 2684SOL    HW111072   5.647   8.619   8.017 -2.6063  1.8707  4.3773
 2684SOL    HW211073   5.729   8.744   7.994  0.7915 -0.8965  0.8369
 2685SOL     OW11074   0.363   1.924   8.214  0.0514 -0.7168  0.1981
 2685SOL    HW111075   0.402   1.941   8.300  1.3816 -1.9928 -0.1194
 2685SOL    HW211076   0.423   1.966   8.152 -0.7165 -0.0927 -0.1210
 2686SOL     OW11077   3.561   2.380   3.537  0.5093  0.3969  0.1439
 2686SOL    HW111078   3.557   2.442   3.610  0.5856  0.5073  0.0558
 2686SOL    HW211079   3.652   2.386   3.507  0.3812  0.6277 -0.1983
 2687SOL     OW11080   6.411   1.067   1.040 -0.3922 -0.3399 -0.1491
 2687SOL    HW111081   6.406   1.052   1.134 -5.3286 -1.0562 -0.3950
 2687SOL    HW211082   6.435   0.982   1.004  0.9711 -0.1958  0.3741
 2688SOL     OW11083   1.257   6.361   0.125  0.2429 -0.0902 -0.1965
 2688SOL    HW111084   1.271   6.271   0.156  0.5547 -0.5792 -1.7185
 2688SOL    HW211085   1.167   6.360   0.091  0.7913 -0.2407 -1.6368
 2689SOL     OW11086   2.157   8.207   4.868  0.2309 -0.1644 -0.3648
 2689SOL    HW111087   2.139   8.180   4.778  1.5714  2.1642 -1.3712
 2689SOL    HW211088   2.100   8.283   4.882 -0.0587 -0.5914  0.7909
 2690SOL     OW11089   1.076   2.601   1.063 -0.9257  0.1938  0.0074
 2690SOL    HW111090   1.149   2.571   1.117 -0.5319  1.8303  0.4046
 2690SOL    HW211091   1.000   2.599   1.122 -0.9422 -0.2130 -0.0272
 2691SOL     OW11092   2.666   3.525   6.884 -0.0578  0.0185  0.4942
 2691SOL    HW111093   2.583   3.490   6.915  1.3045 -1.1813  2.9121
 2691SOL    HW211094   2.662   3.516   6.789 -2.6553 -0.0391  0.5673
 2692SOL     OW11095   6.133   9.209   3.806  0.0306  0.0101  0.1105
 2692SOL    HW111096   6.144   9.237   3.897 -0.0520  0.0388  0.1126
 2692SOL    HW211097   6.041   9.183   3.801 -0.4275  1.7165 -0.4380
 2693SOL     OW11098   8.299   5.525   2.219 -0.5277 -0.4173  0.0412
 2693SOL    HW111099   8.274   5.613   2.189 -1.0889 -0.4111  0.5291
 2693SOL    HW211100   8.385   5.510   2.178  0.1789  0.8732  0.9791
 2694SOL     OW11101   2.896   3.029   4.032 -0.1770 -0.0154  0.3891
 2694SOL    HW111102   2.929   3.081   4.106  0.3471 -1.1020  0.9338
 2694SOL    HW211103   2.824   2.978   4.070 -0.4668  0.0601 -0.0632
 2695SOL     OW11104   6.246   4.318   4.438  0.2090 -0.1045  0.2498
 2695SOL    HW111105   6.306   4.267   4.492  1.6212  0.3526 -0.8288
 2695SOL    HW211106   6.304   4.368   4.380 -1.1848  1.9137  0.5867
 2696SOL     OW11107   2.083   3.004   7.500 -0.0241  0.2368 -0.4814
 2696SOL    HW111108   2.126   2.938   7.447 -2.2135 -0.4069 -1.5297
 2696SOL    HW211109   2.141   3.080   7.496  1.6181 -1.0044 -0.7522
 2697SOL     OW11110   8.059   1.330   1.162 -0.0785  0.1325 -0.5371
 2697SOL    HW111111   8.087   1.332   1.253  1.8649 -0.5834 -1.0976
 2697SOL    HW211112   8.075   1.240   1.134 -2.7127 -0.2497 -0.9853
 2698SOL     OW11113   0.124   3.184   2.911 -0.1768 -0.2237 -0.1926
 2698SOL    HW111114   0.068   3.199   2.835  0.9905 -0.4360 -1.1098
 2698SOL    HW211115   0.213   3.198   2.878  0.2661  0.8565  1.4272
 2699SOL     OW11116   2.406   3.414   0.882 -0.5781  0.0616 -0.1920
 2699SOL    HW111117   2.461   3.399   0.805  1.0699 -0.4856  1.0665
 2699SOL    HW211118   2.413   3.508   0.898 -0.2508  0.0454 -0.2288
 2700SOL     OW11119   7.512   7.414   5.868 -0.1845  0.0023  0.6326
 2700SOL    HW111120   7.450   7.380   5.932 -1.3262 -1.1016 -1.0144
 2700SOL    HW211121   7.594   7.369   5.888 -0.1221  0.8263  2.2798
 2701SOL     OW11122   3.578   4.744   4.663  0.4964  0.0602 -0.2593
 2701SOL    HW111123   3.655   4.758   4.609 -0.2105 -2.0177 -1.8922
 2701SOL    HW211124   3.603   4.674   4.724  0.1186 -0.1568 -0.3506
 2702SOL     OW11125   8.693   8.110   6.178  0.4195 -0.0713 -0.3663
 2702SOL    HW111126   8.701   8.129   6.271 -0.1416  0.8381 -0.4982
 2702SOL    HW211127   8.764   8.048   6.160  2.0634  1.6063  0.1550
 2703SOL     OW11128   6.964   3.297   8.524  0.0170 -0.5674  0.0383
 2703SOL    HW111129   7.060   3.292   8.517  0.1901  2.0798 -0.0139
 2703SOL    HW211130   6.935   3.316   8.435 -0.6709 -2.5248 -0.1688
 2704SOL     OW11131   8.362   5.306   2.377  0.0873 -0.5175  0.3581
 2704SOL    HW111132   8.343   5.319   2.470  1.2920 -1.6874  0.7832
 2704SOL    HW211133   8.337   5.389   2.336 -0.9567 -0.1807  1.6410
 2705SOL     OW11134   4.370   3.942   4.855 -0.1987  0.7613 -0.2312
 2705SOL    HW111135   4.381   3.911   4.945  1.2537  1.5882 -0.1008
 2705SOL    HW211136   4.452   3.917   4.811 -0.4209  1.3859 -1.0074
 2706SOL     OW11137   1.383   1.130   0.028  0.6953  0.6558  0.7993
 2706SOL    HW111138   1.323   1.055   0.028  1.0407  0.3110 -2.4375
 2706SOL    HW211139   1.332   1.202   0.066 -0.6905 -0.4525  1.0556
 2707SOL     OW11140   9.106   1.673   0.003 -0.4676  0.0916  0.3255
 2707SOL    HW111141   9.192   1.633  -0.011  1.0284  3.0419  0.7492
 2707SOL    HW211142   9.106   1.699   0.095 -1.7005  0.4090  0.2503
 2708SOL     OW11143   4.454   4.653   2.889 -0.3205  0.3757 -0.4172
 2708SOL    HW111144   4.476   4.561   2.874 -0.9211 -0.0524  1.2527
 2708SOL    HW211145   4.478   4.697   2.807 -0.5928 -1.3538 -1.4390
 2709SOL     OW11146   7.480   4.210   7.983 -0.5099  0.1581  0.0572
 2709SOL    HW111147   7.407   4.166   8.027 -1.3819  0.7341 -0.7845
 2709SOL    HW211148   7.551   4.207   8.047 -1.8073  1.1593  1.5968
 2710SOL     OW11149   5.080   2.637   9.230 -0.4760 -0.4490  0.1865
 2710SOL    HW111150   5.012   2.626   9.164 -0.5604  0.6996  0.0748
 2710SOL    HW211151   5.096   2.549   9.262 -0.1814 -1.0791 -1.6269
 2711SOL     OW11152   7.817   1.962   7.111 -0.1841  0.7757  0.4421
 2711SOL    HW111153   7.868   1.912   7.175 -0.8550  0.9832  1.1447
 2711SOL    HW211154   7.730   1.922   7.113  0.8160 -1.8653 -3.2725
 2712SOL     OW11155   4.221   8.439   7.826  0.0595  0.1174  0.0099
 2712SOL    HW111156   4.204   8.518   7.774  1.4526  0.2371 -0.2714
 2712SOL    HW211157   4.244   8.473   7.913 -2.8694 -0.0934  0.9476
 2713SOL     OW11158   4.600   4.697   2.633  0.2807 -0.2641 -0.0633
 2713SOL    HW111159   4.602   4.790   2.657  2.2606 -0.1502 -0.5732
 2713SOL    HW211160   4.687   4.680   2.597 -0.4194 -2.0700 -0.9528
 2714SOL     OW11161   5.158   2.859   4.281 -0.3983 -0.1117  0.3401
 2714SOL    HW111162   5.180   2.813   4.363 -0.2751 -0.6898 -0.0104
 2714SOL    HW211163   5.064   2.848   4.272 -0.4717  0.2952  0.6077
 2715SOL     OW11164   3.732   6.340   8.217  0.0739 -0.4559 -0.4983
 2715SOL    HW111165   3.784   6.416   8.244  0.4618 -1.4102  1.5664
 2715SOL    HW211166   3.796   6.276   8.188  0.1175 -1.5965  1.9630
 2716SOL     OW11167   7.986   0.137   3.567 -0.0749 -0.0951  1.2847
 2716SOL    HW111168   8.057   0.135   3.632  0.6501 -1.0899  0.4643
 2716SOL    HW211169   7.924   0.071   3.597  0.5004 -0.9049  0.7006
 2717SOL     OW11170   1.657   7.250   4.579 -0.0968 -0.3012  0.2841
 2717SOL    HW111171   1.571   7.280   4.549 -0.8874 -2.2534  0.4792
 2717SOL    HW211172   1.715   7.263   4.504 -0.5335  1.1200  0.1794
 2718SOL     OW11173   3.830   8.764   9.135  0.5118 -0.2792 -0.1321
 2718SOL    HW111174   3.756   8.804   9.091  1.7182  1.4009 -0.6739
 2718SOL    HW211175   3.842   8.679   9.091 -1.7111 -1.0437  0.6669
 2719SOL     OW11176   4.245   9.137   1.292  0.1323 -0.2646  0.5249
 2719SOL    HW111177   4.169   9.191   1.270  1.4561  1.1204 -0.7365
 2719SOL    HW211178   4.226   9.051   1.255 -0.8535  0.0575  0.2873
 2720SOL     OW11179   2.261   2.424   6.566  0.1604  0.0120 -0.4589
 2720SOL    HW111180   2.323   2.484   6.524 -0.7922 -0.3561 -2.4526
 2720SOL    HW211181   2.276   2.340   6.523  0.8485 -1.0013  1.6781
 2721SOL     OW11182   9.168   0.740   1.151 -0.5370  0.1778  0.1628
 2721SOL    HW111183   9.107   0.670   1.173  2.1327 -1.6456  2.1118
 2721SOL    HW211184   9.186   0.783   1.235  2.0649 -0.3601 -0.0955
 2722SOL     OW11185   0.858   0.841   0.264 -0.7872 -0.5445  0.5441
 2722SOL    HW111186   0.909   0.894   0.326 -0.7856 -0.7757  0.7429
 2722SOL    HW211187   0.819   0.772   0.318 -2.4841  0.4724  0.6263
 2723SOL     OW11188   6.057   4.138   0.764 -0.6682 -0.3500 -0.6566
 2723SOL    HW111189   6.041   4.067   0.702 -4.5610 -0.6198  0.5138
 2723SOL    HW211190   5.980   4.194   0.757  0.9758  2.1691  0.5981
 2724SOL     OW11191   0.542   8.561   3.572 -0.5947  0.0809  0.1386
 2724SOL    HW111192   0.522   8.565   3.666 -0.6723 -2.6247  0.2884
 2724SOL    HW211193   0.629   8.520   3.568 -0.9478 -0.5838 -0.9831
 2725SOL     OW11194   0.603   3.209   8.762  0.0918  0.4698  0.3221
 2725SOL    HW111195   0.683   3.248   8.796  0.2932  0.7807 -0.4901
 2725SOL    HW211196   0.544   3.283   8.746 -0.0737  0.3086  0.1766
 2726SOL     OW11197   4.641   2.615   9.091 -0.1448  0.8472  0.5460
 2726SOL    HW111198   4.709   2.682   9.083  0.7348 -0.1362 -0.4273
 2726SOL    HW211199   4.610   2.601   9.002 -0.3887  0.0361  0.7545
 2727SOL     OW11200   1.980   2.196   7.353 -0.3829  0.0515  0.2032
 2727SOL    HW111201   1.917   2.125   7.338 -3.4878  2.4919  1.2711
 2727SOL    HW211202   1.955   2.264   7.292  0.8365  1.3257  1.0986
 2728SOL     OW11203   7.770   8.877   2.928 -0.6794  0.1512 -0.3959
 2728SOL    HW111204   7.849   8.844   2.886 -1.0224  0.5201 -1.3436
 2728SOL    HW211205   7.716   8.909   2.856 -1.0606  1.2612  0.3742
 2729SOL     OW11206   6.941   5.261   5.656 -0.0214  0.0791  0.1213
 2729SOL    HW111207   6.941   5.213   5.738  0.1381  0.1143  0.1426
 2729SOL    HW211208   6.954   5.353   5.682 -1.3925  0.2641  0.1557
 2730SOL     OW11209   6.671   1.660   5.680  0.3974 -0.1404  0.2473
 2730SOL    HW111210   6.747   1.637   5.628  0.3381  0.3594 -0.0711
 2730SOL    HW211211   6.617   1.714   5.621  0.5900  0.8861  0.9924
 2731SOL     OW11212   8.657   2.328   7.833 -0.3950  0.2626 -1.1789
 2731SOL    HW111213   8.650   2.257   7.769 -0.3859 -0.2759 -0.5869
 2731SOL    HW211214   8.632   2.288   7.916  1.1659  0.5241 -0.5586
 2732SOL     OW11215   3.570   6.692   3.433  0.2398 -0.3387  0.1446
 2732SOL    HW111216   3.658   6.694   3.395 -0.0313  0.8215 -0.4507
 2732SOL    HW211217   3.511   6.697   3.357 -0.3460 -1.4679  0.5143
 2733SOL     OW11218   8.890   5.573   5.514  0.3103  0.0525  0.2499
 2733SOL    HW111219   8.808   5.624   5.509 -0.0053 -0.5947 -1.1520
 2733SOL    HW211220   8.954   5.635   5.550  0.1505  1.7268 -2.2670
 2734SOL     OW11221   6.030   0.166   9.207  0.2622 -0.0411  0.0992
 2734SOL    HW111222   6.107   0.142   9.258  0.2279 -0.6357 -0.1299
 2734SOL    HW211223   5.956   0.148   9.265  0.1487 -1.9487 -0.6231
 2735SOL     OW11224   3.422   8.245   4.894  0.3919 -0.2984 -0.5809
 2735SOL    HW111225   3.399   8.168   4.841  0.0901 -1.7945  1.6509
 2735SOL    HW211226   3.408   8.217   4.984  1.0031  2.1653  0.3200
 2736SOL     OW11227   1.963   6.173   2.763 -0.0367  0.2933  0.1707
 2736SOL    HW111228   2.041   6.180   2.819  1.0334  1.3478 -1.4246
 2736SOL    HW211229   1.971   6.246   2.701 -2.0183  0.0827 -0.3715
 2737SOL     OW11230   3.777   0.620   3.917  0.4715 -0.8832  0.2552
 2737SOL    HW111231   3.685   0.613   3.894  0.5655  1.4723 -0.9651
 2737SOL    HW211232   3.777   0.649   4.008  0.0401 -1.9026  0.5895
 2738SOL     OW11233   0.019   6.099   4.666  0.0962 -0.1191  0.3263
 2738SOL    HW111234  -0.070   6.111   4.634  0.3822  0.5427 -0.2408
 2738SOL    HW211235   0.021   6.145   4.750  0.4330  1.5119 -0.5658
 2739SOL     OW11236   4.891   5.173   8.991 -0.0947  0.3458  0.0287
 2739SOL    HW111237   4.938   5.126   9.059  1.5057  0.5081 -0.9432
 2739SOL    HW211238   4.839   5.239   9.038  0.2481 -0.1699  1.1392
 2740SOL     OW11239   7.017   5.139   6.978 -0.6445  0.2852 -0.5936
 2740SOL    HW111240   7.021   5.223   7.024 -1.5974  0.4266 -0.7467
 2740SOL    HW211241   6.926   5.111   6.988 -0.0907 -1.2281  0.3208
 2741SOL     OW11242   7.328   0.641   6.773 -0.4075  0.4281 -0.0865
 2741SOL    HW111243   7.329   0.588   6.693  1.6346 -0.7575  0.6916
 2741SOL    HW211244   7.275   0.591   6.834  1.6145 -0.8432  0.6860
 2742SOL     OW11245   4.164   4.253   1.606  0.2783  0.0615 -0.7004
 2742SOL    HW111246   4.163   4.261   1.702  1.0678  1.8071 -0.8248
 2742SOL    HW211247   4.120   4.170   1.589  1.9793 -1.3016  1.2792
 2743SOL     OW11248   3.661   1.979   2.296  0.3829  0.2355  0.1372
 2743SOL    HW111249   3.725   1.915   2.329  0.3035 -0.0644 -0.2798
 2743SOL    HW211250   3.702   2.014   2.217  0.1787  0.2885  0.0550
 2744SOL     OW11251   1.474   7.835   8.756 -0.6447 -0.0719  0.6340
 2744SOL    HW111252   1.430   7.781   8.821  0.9544 -1.5729  0.5194
 2744SOL    HW211253   1.556   7.862   8.798 -0.2900  0.1775 -0.2049
 2745SOL     OW11254   2.891   1.109   9.295  0.3654 -0.1507  0.4251
 2745SOL    HW111255   2.817   1.146   9.248  0.5470 -1.1218 -0.6411
 2745SOL    HW211256   2.968   1.142   9.249  0.5599 -0.3031  0.6361
 2746SOL     OW11257   2.618   7.623   7.336  0.5839 -0.0203  0.1887
 2746SOL    HW111258   2.641   7.552   7.396  2.7540  1.6081  1.3388
 2746SOL    HW211259   2.698   7.640   7.287 -0.3355  0.6714 -1.1072
 2747SOL     OW11260   0.840   9.061   8.612  0.2557 -0.4140 -0.4969
 2747SOL    HW111261   0.887   8.982   8.586  0.6041 -0.7232  1.0326
 2747SOL    HW211262   0.838   9.114   8.533  2.6164 -0.6814 -0.7932
 2748SOL     OW11263   8.431   8.449   3.128  0.1107  0.2369 -0.1493
 2748SOL    HW111264   8.350   8.438   3.178  0.0700  1.1072 -0.0102
 2748SOL    HW211265   8.501   8.432   3.191  0.0416  0.0252 -0.1295
 2749SOL     OW11266   0.926   2.999   2.166  0.3388 -0.5421 -0.2753
 2749SOL    HW111267   0.921   3.094   2.156  0.2136 -0.4824  0.3292
 2749SOL    HW211268   0.871   2.965   2.096 -0.6467 -0.1309  0.2756
 2750SOL     OW11269   8.090   1.357   9.037  0.0595  0.0006  0.2280
 2750SOL    HW111270   8.029   1.419   9.078  0.6753  0.2534  0.7692
 2750SOL    HW211271   8.163   1.412   9.007 -0.3036 -0.1952 -1.0808
 2751SOL     OW11272   3.645   5.147   7.588 -1.0783 -0.0500  0.0794
 2751SOL    HW111273   3.646   5.057   7.554  2.0773 -1.7575  4.2364
 2751SOL    HW211274   3.700   5.196   7.526  0.6534 -1.9690  0.0222
 2752SOL     OW11275   5.183   4.836   8.776  0.0169  0.3166 -0.0955
 2752SOL    HW111276   5.173   4.780   8.853 -0.3813 -0.8438 -0.9724
 2752SOL    HW211277   5.119   4.907   8.789 -0.2106 -0.0010  0.5314
 2753SOL     OW11278   2.852   2.768   8.705  0.2123  0.0046 -0.5686
 2753SOL    HW111279   2.882   2.853   8.738  0.7066 -0.3263 -0.1774
 2753SOL    HW211280   2.756   2.776   8.704  0.2355  0.3645 -0.0080
 2754SOL     OW11281   6.831   2.656   3.824 -0.4133  0.2780  0.1390
 2754SOL    HW111282   6.762   2.712   3.790  0.9386  1.5891 -0.4866
 2754SOL    HW211283   6.908   2.678   3.773  0.0634 -2.4837 -0.4283
 2755SOL     OW11284   6.361   0.075   6.942 -0.2701 -0.6409 -0.2539
 2755SOL    HW111285   6.380   0.156   6.989 -1.8154 -0.6420  0.4181
 2755SOL    HW211286   6.266   0.064   6.952  0.0038 -2.8347  0.1744
 2756SOL     OW11287   7.300   5.621   2.543  0.0125 -0.1261 -0.1702
 2756SOL    HW111288   7.279   5.549   2.603  0.2168 -0.4807 -0.5159
 2756SOL    HW211289   7.218   5.639   2.497  0.9678 -3.1976 -3.3131
 2757SOL     OW11290   6.717   5.380   9.407  0.1416 -0.3068 -0.2436
 2757SOL    HW111291   6.696   5.426   9.326  0.0695 -0.8831 -0.5623
 2757SOL    HW211292   6.735   5.290   9.379 -1.5341 -0.9223  0.5714
 2758SOL     OW11293   3.374   8.514   6.535  0.2208  0.2301 -0.3137
 2758SOL    HW111294   3.323   8.551   6.607 -1.7091 -0.8496 -1.0726
 2758SOL    HW211295   3.309   8.468   6.481  1.9214 -0.6427 -1.6710
 2759SOL     OW11296   4.263   0.780   1.242  0.0686  0.2832  0.2682
 2759SOL    HW111297   4.295   0.764   1.331 -0.0517  2.0136  0.6418
 2759SOL    HW211298   4.168   0.775   1.249  0.0849 -0.4434  0.0487
 2760SOL     OW11299   6.334   2.826   1.165  0.2151 -0.4046 -0.2440
 2760SOL    HW111300   6.244   2.844   1.194  0.7841  0.8537  0.7754
 2760SOL    HW211301   6.336   2.855   1.074  0.0308  1.1055  0.2242
 2761SOL     OW11302   2.160   1.879   0.859 -0.3081  0.1064  0.0254
 2761SOL    HW111303   2.136   1.926   0.939  0.2374 -1.2730  1.0270
 2761SOL    HW211304   2.096   1.807   0.854  0.0456 -0.1761 -0.4299
 2762SOL     OW11305   2.126   5.914   3.282 -0.1023 -0.4725 -0.2245
 2762SOL    HW111306   2.082   5.830   3.292  0.1144 -0.6978 -1.1946
 2762SOL    HW211307   2.055   5.978   3.292 -0.0319 -0.7031  1.9804
 2763SOL     OW11308   2.597   0.131   5.830  0.4379 -0.4568  0.2925
 2763SOL    HW111309   2.634   0.060   5.778  0.7186  0.7345 -1.1829
 2763SOL    HW211310   2.640   0.124   5.915 -0.9650 -3.2239  0.8307
 2764SOL     OW11311   6.751   2.657   1.122  0.0117  0.8979  0.5920
 2764SOL    HW111312   6.830   2.709   1.105 -0.1316  0.7380 -0.5514
 2764SOL    HW211313   6.686   2.722   1.150  0.4730  1.0535  1.3352
 2765SOL     OW11314   3.259   7.433   0.825  0.2701  0.3636  0.3544
 2765SOL    HW111315   3.176   7.469   0.794  0.6329 -0.9776 -2.3378
 2765SOL    HW211316   3.269   7.351   0.777  3.4939  0.8451  0.0738
 2766SOL     OW11317   9.067   1.990   4.233 -0.1235 -0.4171  0.4401
 2766SOL    HW111318   9.162   1.998   4.238 -0.1325  0.2211 -0.3447
 2766SOL    HW211319   9.034   2.056   4.295 -0.0641 -0.1626  0.2013
 2767SOL     OW11320   9.004   3.877   7.212  0.4439 -0.0233  0.7211
 2767SOL    HW111321   9.039   3.800   7.167 -0.0150  0.3222 -0.2281
 2767SOL    HW211322   8.942   3.915   7.150 -0.7930 -0.0023  1.9622
 2768SOL     OW11323   9.096   9.403   6.289 -0.2514 -0.1959  0.5900
 2768SOL    HW111324   9.116   9.477   6.231 -0.6362  0.8642  1.7861
 2768SOL    HW211325   9.153   9.417   6.365 -0.5283 -0.9904  0.9439
 2769SOL     OW11326   0.185   7.965   1.405  0.6612  0.1175 -0.0338
 2769SOL    HW111327   0.104   7.943   1.452  0.5234  2.5068  0.8909
 2769SOL    HW211328   0.158   8.032   1.342  1.8249  0.6164 -0.0108
 2770SOL     OW11329   1.382   8.129   0.751 -0.1932  0.0499  0.7709
 2770SOL    HW111330   1.333   8.196   0.703  0.2505 -1.4365 -1.8551
 2770SOL    HW211331   1.315   8.073   0.789 -0.5623 -0.1406 -0.1442
 2771SOL     OW11332   0.511   6.307   7.232  0.2426  0.1452  0.2454
 2771SOL    HW111333   0.602   6.278   7.243 -0.8464 -3.2815  0.9242
 2771SOL    HW211334   0.474   6.245   7.169 -1.0665  2.8694 -1.7761
 2772SOL     OW11335   2.280   2.895   9.137  0.2787  0.0034 -0.4226
 2772SOL    HW111336   2.361   2.909   9.089 -0.2282  2.1821 -0.6925
 2772SOL    HW211337   2.237   2.980   9.136 -0.6293 -0.3840  2.2462
 2773SOL     OW11338   2.087   5.399   8.905  0.3300  0.1168  0.2177
 2773SOL    HW111339   1.996   5.405   8.934  0.6472 -1.8405  1.7977
 2773SOL    HW211340   2.083   5.358   8.819 -0.3740  1.7031 -0.5134
 2774SOL     OW11341   4.674   9.207   1.570  0.2328  0.3898 -0.4813
 2774SOL    HW111342   4.644   9.225   1.659  1.0964  2.5098 -0.5789
 2774SOL    HW211343   4.719   9.123   1.575  0.6838  0.7293  1.1702
 2775SOL     OW11344   1.219   0.437   6.456  0.2402 -0.2360 -1.0917
 2775SOL    HW111345   1.209   0.459   6.548 -0.7352  0.6869 -1.4027
 2775SOL    HW211346   1.312   0.449   6.437  0.3182  0.2441 -0.4020
 2776SOL     OW11347   7.707   1.255   4.027 -0.5481 -0.0526 -0.3796
 2776SOL    HW111348   7.793   1.216   4.040 -0.3813  0.6094  0.5663
 2776SOL    HW211349   7.717   1.346   4.055 -1.8403 -0.2603  0.7951
 2777SOL     OW11350   2.862   3.992   7.523  0.1957 -0.0431 -0.0873
 2777SOL    HW111351   2.777   4.001   7.480  0.4389 -0.6529 -0.7167
 2777SOL    HW211352   2.880   4.078   7.559 -0.1978  0.3785 -0.8745
 2778SOL     OW11353   6.568   8.574   0.473 -0.0479 -0.7477 -0.0491
 2778SOL    HW111354   6.535   8.503   0.418 -0.8672 -1.0360  0.8034
 2778SOL    HW211355   6.504   8.644   0.462 -0.3547 -0.9008  0.7381
 2779SOL     OW11356   2.805   2.604   7.017 -0.5818  0.7145 -0.3517
 2779SOL    HW111357   2.888   2.555   7.022 -1.4833 -1.0187 -1.9328
 2779SOL    HW211358   2.743   2.549   7.066 -0.9292  1.7741  0.4082
 2780SOL     OW11359   8.050   6.780   5.204 -0.1596  0.1229  0.6900
 2780SOL    HW111360   7.990   6.851   5.227 -0.7601 -0.8640  2.2145
 2780SOL    HW211361   8.115   6.821   5.147 -0.6165  1.8472  1.3904
 2781SOL     OW11362   7.999   6.357   6.346 -0.0879  0.6423 -0.2650
 2781SOL    HW111363   8.053   6.384   6.421  0.0804 -0.5291  0.0411
 2781SOL    HW211364   7.918   6.325   6.385  0.0377 -0.0626 -0.5774
 2782SOL     OW11365   6.140   4.159   9.029  0.2154 -0.3207 -0.5506
 2782SOL    HW111366   6.074   4.107   8.982 -0.8334 -0.4526  1.0393
 2782SOL    HW211367   6.096   4.186   9.110  2.0240 -0.1281  0.3789
 2783SOL     OW11368   2.172   2.037   2.969  0.2828 -0.1179  0.1982
 2783SOL    HW111369   2.262   2.014   2.993  0.5109  0.2089 -0.3332
 2783SOL    HW211370   2.162   2.007   2.879 -0.2002 -0.3064  0.3114
 2784SOL     OW11371   8.901   6.301   0.188 -0.1179 -0.0370 -0.2017
 2784SOL    HW111372   8.844   6.291   0.265 -0.4506  1.3324 -0.2536
 2784SOL    HW211373   8.985   6.330   0.224  0.5079 -1.8394 -0.1469
 2785SOL     OW11374   8.298   2.012   7.979 -0.3425  0.0793  0.2245
 2785SOL    HW111375   8.214   2.019   7.934  0.5627  0.2354 -1.4619
 2785SOL    HW211376   8.356   1.970   7.916  0.7245 -0.4908  1.5557
 2786SOL     OW11377   2.448   6.027   2.688  0.7716  0.3326  0.2727
 2786SOL    HW111378   2.513   5.964   2.660  0.6002  0.4503 -0.3891
 2786SOL    HW211379   2.366   5.995   2.652  0.3308 -0.2098  1.7073
 2787SOL     OW11380   8.120   5.382   8.896  0.0301 -0.2130  0.4922
 2787SOL    HW111381   8.109   5.393   8.990 -2.6961  1.3959  0.0224
 2787SOL    HW211382   8.136   5.470   8.863  0.2039 -0.6581 -0.6453
 2788SOL     OW11383   6.781   1.799   8.756  0.8208  0.2722 -0.4989
 2788SOL    HW111384   6.859   1.744   8.762  1.1036  0.3216 -3.3583
 2788SOL    HW211385   6.811   1.880   8.715 -0.4627  0.8309 -0.3674
 2789SOL     OW11386   5.862   2.450   6.126  0.1440  0.0455  0.0556
 2789SOL    HW111387   5.854   2.433   6.220 -0.0358 -0.2103 -0.0064
 2789SOL    HW211388   5.795   2.515   6.108 -0.5151 -0.6681 -0.0921
 2790SOL     OW11389   2.222   7.908   2.566  0.1495  0.0517  0.3863
 2790SOL    HW111390   2.216   7.896   2.661 -0.8897 -0.7966  0.2295
 2790SOL    HW211391   2.189   7.996   2.551  0.3792  0.2136  0.8186
 2791SOL     OW11392   2.623   4.427   4.192  0.3204 -0.0241  0.2080
 2791SOL    HW111393   2.676   4.478   4.253  0.7768  0.3401 -0.4816
 2791SOL    HW211394   2.680   4.354   4.166  0.3395  0.1440 -0.2267
 2792SOL     OW11395   3.693   7.245   4.459  0.4738 -0.2104 -0.5004
 2792SOL    HW111396   3.683   7.340   4.450 -0.1698 -0.1971  0.2931
 2792SOL    HW211397   3.782   7.234   4.492 -0.3729  0.3126  2.1062
 2793SOL     OW11398   6.797   9.428   1.714 -0.2094 -0.0927 -0.1493
 2793SOL    HW111399   6.813   9.334   1.724 -2.0015 -0.3897  0.1994
 2793SOL    HW211400   6.732   9.448   1.782  1.3837  1.7570  0.8768
 2794SOL     OW11401   7.469   2.104   6.828 -0.1837  0.5072  0.3002
 2794SOL    HW111402   7.410   2.179   6.822 -0.3929  0.3344  0.1767
 2794SOL    HW211403   7.496   2.100   6.919  1.3186  1.8738 -0.0686
 2795SOL     OW11404   3.757   2.271   4.211 -0.7758  0.1729  0.2319
 2795SOL    HW111405   3.814   2.313   4.275 -0.2980 -1.6441  1.0467
 2795SOL    HW211406   3.721   2.195   4.257  0.0069 -1.4918 -1.7737
 2796SOL     OW11407   7.082   3.867   1.528  0.2696 -0.5367 -0.1513
 2796SOL    HW111408   7.118   3.780   1.512 -0.0701 -0.9886  1.4881
 2796SOL    HW211409   7.107   3.887   1.618 -1.0179  0.3838  0.0146
 2797SOL     OW11410   9.251   7.185   3.906  0.1479 -0.3414  0.2432
 2797SOL    HW111411   9.213   7.177   3.818 -0.2612  0.2442  0.3614
 2797SOL    HW211412   9.178   7.171   3.965  0.0881  0.8297  0.4732
 2798SOL     OW11413   7.795   1.620   8.254  0.9815 -0.2218 -0.4222
 2798SOL    HW111414   7.841   1.637   8.336  0.7497  0.9815 -0.5314
 2798SOL    HW211415   7.801   1.702   8.206  0.3594 -0.6506 -1.2413
 2799SOL     OW11416   9.125   1.510   1.649 -0.1981  0.2300 -0.0078
 2799SOL    HW111417   9.045   1.528   1.600  0.5205 -2.0266 -2.1077
 2799SOL    HW211418   9.095   1.468   1.730 -1.1050 -1.9480 -1.4376
 2800SOL     OW11419   2.037   1.985   1.063 -0.0737  0.4155 -0.0439
 2800SOL    HW111420   2.029   2.078   1.086 -1.7497  0.3587 -0.3308
 2800SOL    HW211421   1.948   1.959   1.038  0.1667 -1.5587  1.0723
 2801SOL     OW11422   7.812   4.720   7.709  0.2051  0.4354 -0.2408
 2801SOL    HW111423   7.851   4.679   7.786  2.3034  1.1828 -0.8644
 2801SOL    HW211424   7.753   4.653   7.674  0.9889 -0.7806  0.6945
 2802SOL     OW11425   6.628   1.515   7.718 -0.4166  0.1290 -0.1054
 2802SOL    HW111426   6.548   1.466   7.700 -0.7451  1.1632 -1.4916
 2802SOL    HW211427   6.600   1.586   7.775 -0.6330  0.9661 -1.2527
 2803SOL     OW11428   4.547   2.690   3.490  0.3086  0.0464 -0.7102
 2803SOL    HW111429   4.458   2.706   3.520 -0.0272 -0.9178 -1.1413
 2803SOL    HW211430   4.554   2.594   3.487  1.5394  0.1136 -0.1464
 2804SOL     OW11431   8.437   6.582   5.447  0.7759 -0.1540  0.0448
 2804SOL    HW111432   8.361   6.640   5.443  1.3888  0.5757 -1.7413
 2804SOL    HW211433   8.415   6.509   5.389  1.0216 -0.4589  0.3298
 2805SOL     OW11434   8.966   8.422   3.529 -0.1836  0.1738  0.0286
 2805SOL    HW111435   9.020   8.345   3.510 -2.5505 -1.5464  0.1629
 2805SOL    HW211436   8.996   8.488   3.466  1.5504 -0.9715 -0.3950
 2806SOL     OW11437   8.175   9.308   2.778  0.1881  0.0647 -0.1553
 2806SOL    HW111438   8.194   9.221   2.743 -0.1571  0.1627 -0.5938
 2806SOL    HW211439   8.087   9.301   2.814 -0.2668  0.5186 -1.1571
 2807SOL     OW11440   8.620   6.078   0.624 -0.0248  0.3469 -0.3413
 2807SOL    HW111441   8.524   6.080   0.619  0.0076 -1.8438 -3.2040
 2807SOL    HW211442   8.644   6.167   0.649 -2.7829  0.9974  0.2312
 2808SOL     OW11443   8.982   1.112   8.461 -0.3944  0.2382 -0.5875
 2808SOL    HW111444   9.053   1.176   8.460 -0.8272  0.7168 -1.1419
 2808SOL    HW211445   8.973   1.086   8.369  1.1540 -2.1491 -0.1121
 2809SOL     OW11446   4.679   8.574   0.425  0.4388  0.5519  0.5409
 2809SOL    HW111447   4.752   8.635   0.423  1.1401 -0.3003 -0.8752
 2809SOL    HW211448   4.604   8.627   0.452  0.6843  2.4265 -2.2449
 2810SOL     OW11449   2.556   2.232   4.887  0.2590  0.2258  0.4863
 2810SOL    HW111450   2.568   2.320   4.852 -0.8049 -0.1712 -0.9347
 2810SOL    HW211451   2.564   2.243   4.981  0.8395  1.7249  0.2858
 2811SOL     OW11452   5.713   2.570   0.958 -0.0892  0.1715 -0.3983
 2811SOL    HW111453   5.751   2.643   1.008 -0.8124 -0.0822  0.5381
 2811SOL    HW211454   5.641   2.610   0.909 -0.0238  0.2257 -0.4509
 2812SOL     OW11455   6.587   2.432   1.034  0.5628 -0.3209  0.2175
 2812SOL    HW111456   6.535   2.481   0.970 -0.3238  0.2050  1.3066
 2812SOL    HW211457   6.621   2.499   1.093  0.6013 -0.8742  0.8310
 2813SOL     OW11458   6.210   1.244   1.866 -0.0189 -0.0594 -0.1532
 2813SOL    HW111459   6.263   1.321   1.886 -0.8266  0.2683  0.7566
 2813SOL    HW211460   6.121   1.269   1.893  0.1072 -2.1412  2.2991
 2814SOL     OW11461   3.571   0.374   0.137 -0.2077 -0.1446 -0.2486
 2814SOL    HW111462   3.527   0.290   0.152  0.7709 -0.3560  1.6023
 2814SOL    HW211463   3.505   0.429   0.095 -1.8901 -0.8217  1.4536
 2815SOL     OW11464   6.458   5.089   7.631  0.9812 -0.0048  0.3266
 2815SOL    HW111465   6.444   5.008   7.681  0.3955  0.1359  0.3991
 2815SOL    HW211466   6.380   5.098   7.577  0.6937  0.9072  0.8746
 2816SOL     OW11467   0.248   5.691   8.326  0.0559 -0.4663 -0.2951
 2816SOL    HW111468   0.230   5.662   8.237 -0.8415  1.9917 -0.9299
 2816SOL    HW211469   0.218   5.781   8.330 -0.7684 -0.7889  2.7568
 2817SOL     OW11470   3.517   5.725   0.687  0.5543 -0.2837  0.4140
 2817SOL    HW111471   3.495   5.638   0.654 -2.6507  0.6539 -0.0253
 2817SOL    HW211472   3.477   5.729   0.774  0.1762  0.9642  0.1947
 2818SOL     OW11473   8.825   1.377   5.882 -0.1263  0.0738 -0.5227
 2818SOL    HW111474   8.797   1.331   5.961  0.6757  0.9062  0.2389
 2818SOL    HW211475   8.745   1.380   5.828 -0.8404  0.0860  0.5141
 2819SOL     OW11476   7.474   3.663   1.735 -0.2390  0.1942 -0.0401
 2819SOL    HW111477   7.520   3.587   1.700  0.3952  0.6491 -0.2050
 2819SOL    HW211478   7.468   3.646   1.829 -0.0937 -0.0525 -0.0737
 2820SOL     OW11479   8.696   7.320   2.285 -0.4175 -0.5381  0.0203
 2820SOL    HW111480   8.696   7.280   2.372 -0.6646 -2.9794 -1.0798
 2820SOL    HW211481   8.701   7.247   2.224  3.8445  1.2460 -1.9999
 2821SOL     OW11482   9.219   2.107   0.294 -0.1432 -0.0163 -0.3475
 2821SOL    HW111483   9.224   2.086   0.201 -1.1051 -0.1851 -0.3645
 2821SOL    HW211484   9.226   2.022   0.338  0.2309  0.0559 -0.2576
 2822SOL     OW11485   6.449   5.183   6.197 -0.1295 -0.0299  0.2265
 2822SOL    HW111486   6.464   5.135   6.116  0.8643 -1.3355  1.1482
 2822SOL    HW211487   6.475   5.273   6.178  0.8727 -0.5061 -0.6650
 2823SOL     OW11488   2.704   1.562   1.587  0.0679 -0.0420 -0.2047
 2823SOL    HW111489   2.774   1.500   1.609 -0.3200 -0.8134 -1.0868
 2823SOL    HW211490   2.715   1.577   1.493 -0.6022  0.2862 -0.2273
 2824SOL     OW11491   0.319   3.426   6.523  0.0581  0.1072 -0.0687
 2824SOL    HW111492   0.291   3.505   6.568  1.3748  0.4859  0.1122
 2824SOL    HW211493   0.238   3.382   6.498 -0.7152 -0.3816  3.1121
 2825SOL     OW11494   9.406   2.226   1.851  0.0064  0.3696  0.5291
 2825SOL    HW111495   9.370   2.290   1.913 -1.8289 -0.4650  0.3366
 2825SOL    HW211496   9.330   2.184   1.813  1.1850 -0.9131 -0.4420
 2826SOL     OW11497   5.443   4.325   0.760 -0.2524 -0.1204 -0.2051
 2826SOL    HW111498   5.496   4.308   0.838  1.5415  0.7470 -1.2095
 2826SOL    HW211499   5.366   4.371   0.793  0.7328  0.6903  1.0113
 2827SOL     OW11500   4.020   6.544   3.274  0.5499 -0.1679  0.2312
 2827SOL    HW111501   4.061   6.464   3.308 -0.1089 -0.7249 -0.2657
 2827SOL    HW211502   3.930   6.519   3.255  0.3641  0.6724 -0.0180
 2828SOL     OW11503   3.956   6.289   5.174 -0.2259  0.3083 -0.3290
 2828SOL    HW111504   3.986   6.202   5.149 -1.1489  0.2131 -1.1121
 2828SOL    HW211505   3.886   6.310   5.113 -0.8944  1.0729  0.6650
 2829SOL     OW11506   9.062   1.783   0.255  0.2987  0.6512 -0.8304
 2829SOL    HW111507   8.987   1.770   0.312  1.2930 -2.3715 -0.1560
 2829SOL    HW211508   9.136   1.794   0.315  0.6967  1.8334 -1.5126
 2830SOL     OW11509   7.877   4.212   3.255  0.3415 -0.1881  0.4454
 2830SOL    HW111510   7.893   4.230   3.348  0.0264 -0.8419  0.6276
 2830SOL    HW211511   7.794   4.165   3.254  0.2828 -0.0713 -0.1840
 2831SOL     OW11512   3.268   7.720   0.681 -0.0325 -0.8351  0.4268
 2831SOL    HW111513   3.358   7.688   0.693 -0.1454 -0.8194  1.3683
 2831SOL    HW211514   3.256   7.784   0.751 -0.3117  0.2153 -0.5527
 2832SOL     OW11515   3.203   6.112   1.596  0.3901  0.1545 -0.1634
 2832SOL    HW111516   3.190   6.146   1.684 -0.8744 -0.4407 -0.1110
 2832SOL    HW211517   3.165   6.178   1.538 -1.6105 -0.8857 -0.0865
 2833SOL     OW11518   1.602   6.299   0.465  0.1059 -0.7812  0.2192
 2833SOL    HW111519   1.647   6.383   0.461 -0.4884 -0.4435  0.5301
 2833SOL    HW211520   1.600   6.277   0.558 -0.5103 -0.7144  0.2222
 2834SOL     OW11521   5.398   5.872   4.265  0.4559  0.0202 -0.1993
 2834SOL    HW111522   5.306   5.846   4.253  0.8742 -1.7970  0.2514
 2834SOL    HW211523   5.404   5.897   4.357  0.3333  0.5090 -0.3223
 2835SOL     OW11524   3.584   2.125   2.547 -0.3101 -0.3040  0.0474
 2835SOL    HW111525   3.500   2.170   2.545 -0.7830 -1.0995  1.5007
 2835SOL    HW211526   3.586   2.075   2.465 -1.5009 -0.7225  0.2659
 2836SOL     OW11527   6.568   2.313   8.318 -0.0232 -0.3175 -0.0245
 2836SOL    HW111528   6.520   2.384   8.361 -0.4389 -0.5152 -0.1595
 2836SOL    HW211529   6.563   2.240   8.380 -1.6874 -0.9968 -0.9333
 2837SOL     OW11530   1.279   4.708   6.780 -0.2448  0.3152 -0.1421
 2837SOL    HW111531   1.252   4.617   6.795 -0.2354 -0.0267 -2.1382
 2837SOL    HW211532   1.202   4.750   6.742  0.4591  0.5705 -1.3035
 2838SOL     OW11533   0.574   7.447   8.814 -0.1529  0.6464  0.3445
 2838SOL    HW111534   0.573   7.535   8.776 -0.7832  0.8964  0.9280
 2838SOL    HW211535   0.496   7.405   8.776 -0.1640  0.5257  0.5039
 2839SOL     OW11536   9.336   8.360   3.809 -0.8827  0.1572  0.2190
 2839SOL    HW111537   9.376   8.296   3.750 -1.6927 -1.0812  1.0017
 2839SOL    HW211538   9.301   8.427   3.750  1.7518  0.9784 -0.5181
 2840SOL     OW11539   6.586   8.691   8.099 -0.5993  0.0494  0.4080
 2840SOL    HW111540   6.668   8.666   8.140  0.4558  1.3092 -0.8775
 2840SOL    HW211541   6.583   8.641   8.018  0.1184  1.8017 -0.7449
 2841SOL     OW11542   6.018   3.957   7.580  0.0654  0.3153 -0.0022
 2841SOL    HW111543   6.097   3.944   7.529 -0.1661 -0.6569 -0.1355
 2841SOL    HW211544   6.020   4.049   7.606  1.3273  0.2483  0.1585
 2842SOL     OW11545   2.667   2.340   6.793  0.3108  0.0023 -0.3691
 2842SOL    HW111546   2.741   2.393   6.764  1.3090 -0.5939  1.0557
 2842SOL    HW211547   2.704   2.280   6.858 -1.1660 -1.1953 -0.6146
 2843SOL     OW11548   1.965   1.626   3.435  0.6038  0.1193 -0.1208
 2843SOL    HW111549   2.047   1.676   3.438  1.2605 -1.0312  2.5460
 2843SOL    HW211550   1.991   1.538   3.409  0.0150  0.1102 -0.6837
 2844SOL     OW11551   9.053   4.802   4.667  0.0216  0.4843  0.5754
 2844SOL    HW111552   9.136   4.811   4.620 -0.3032  1.0545  0.0961
 2844SOL    HW211553   9.043   4.708   4.683 -0.2060  0.2072 -1.1263
 2845SOL     OW11554   7.510   7.544   6.216 -0.5412  0.1120 -0.1474
 2845SOL    HW111555   7.604   7.547   6.198 -0.5590 -0.4239 -0.3498
 2845SOL    HW211556   7.499   7.595   6.296  0.2488 -1.8090  1.2284
 2846SOL     OW11557   4.711   5.668   4.903 -0.4554 -0.4230  0.0224
 2846SOL    HW111558   4.669   5.753   4.890 -0.1837 -0.2976 -0.0471
 2846SOL    HW211559   4.664   5.629   4.977  0.1606  0.2759  0.7917
 2847SOL     OW11560   7.757   3.654   8.789 -0.0741 -0.1119 -0.2370
 2847SOL    HW111561   7.720   3.698   8.713 -0.0858  0.3467  0.0301
 2847SOL    HW211562   7.720   3.701   8.864  0.9558  0.2835  0.0368
 2848SOL     OW11563   0.049   6.769   9.221  0.2035 -0.6650 -0.1341
 2848SOL    HW111564   0.068   6.830   9.293  0.2098 -0.5315 -0.2500
 2848SOL    HW211565   0.126   6.774   9.164 -0.0456 -0.3608 -0.4384
 2849SOL     OW11566   0.631   2.425   8.573  0.5421 -0.2713 -0.0775
 2849SOL    HW111567   0.639   2.383   8.488  0.6343  0.6710 -0.5409
 2849SOL    HW211568   0.715   2.470   8.586  0.4117 -0.1484  0.3644
 2850SOL     OW11569   6.179   5.101   3.861 -0.1632 -0.2835  0.2479
 2850SOL    HW111570   6.173   5.007   3.879 -0.0283 -0.4223 -0.4442
 2850SOL    HW211571   6.261   5.112   3.815 -0.9366 -0.0493 -1.0894
 2851SOL     OW11572   3.562   1.567   2.879  0.0277 -0.3043  0.5131
 2851SOL    HW111573   3.599   1.490   2.837 -0.0842  0.5781 -1.2437
 2851SOL    HW211574   3.467   1.557   2.871  0.0383  1.2341 -2.0517
 2852SOL     OW11575   4.461   8.542   5.731  0.2875 -0.4629  0.7096
 2852SOL    HW111576   4.466   8.637   5.739  0.6716 -0.5397  1.3283
 2852SOL    HW211577   4.377   8.519   5.769 -0.1289 -0.3023 -0.0881
 2853SOL     OW11578   7.286   2.578   6.496 -0.1149 -0.2126 -0.8581
 2853SOL    HW111579   7.200   2.554   6.531 -0.7823  1.1178 -1.5162
 2853SOL    HW211580   7.266   2.638   6.423  1.3768  0.2613 -0.8974
 2854SOL     OW11581   3.067   6.328   5.292  0.1323  0.2302  0.0116
 2854SOL    HW111582   3.016   6.340   5.212 -1.4368 -0.4852  0.8779
 2854SOL    HW211583   3.146   6.380   5.278  0.7575 -1.3558 -2.7656
 2855SOL     OW11584   7.384   5.610   4.993 -0.1984 -0.5172 -0.3218
 2855SOL    HW111585   7.397   5.574   5.080 -1.2612 -1.1743 -0.4230
 2855SOL    HW211586   7.403   5.703   5.002 -1.2367 -0.4133  0.8208
 2856SOL     OW11587   6.087   8.443   2.227 -0.0163  0.2159  0.1907
 2856SOL    HW111588   6.107   8.529   2.191 -1.5327  0.4207 -0.2256
 2856SOL    HW211589   6.148   8.432   2.299 -0.1181  1.8494  0.5493
 2857SOL     OW11590   2.608   3.879   8.109  0.1831  0.1839 -0.1548
 2857SOL    HW111591   2.660   3.914   8.181  2.3359 -0.1014 -1.5470
 2857SOL    HW211592   2.631   3.934   8.034 -2.8564  1.1821 -0.4179
 2858SOL     OW11593   3.741   8.808   2.917 -0.2684 -0.4358  0.2269
 2858SOL    HW111594   3.781   8.726   2.889 -1.1687 -0.4560 -1.0244
 2858SOL    HW211595   3.650   8.802   2.889 -0.5685  0.6088  0.9336
 2859SOL     OW11596   0.264   1.136   3.854  0.2398  0.0450  0.2226
 2859SOL    HW111597   0.221   1.052   3.872 -0.7564  0.3483 -0.7557
 2859SOL    HW211598   0.216   1.199   3.908 -1.2415  0.5605 -1.6589
 2860SOL     OW11599   1.551   2.227   4.875 -0.0910  0.0160 -0.0562
 2860SOL    HW111600   1.580   2.317   4.859 -0.1049  0.7161  3.4464
 2860SOL    HW211601   1.460   2.235   4.902  0.7259 -0.7161  3.0604
 2861SOL     OW11602   6.150   8.644   7.536 -0.5152 -0.4995  0.9325
 2861SOL    HW111603   6.225   8.597   7.499 -0.3868 -0.0636  0.6307
 2861SOL    HW211604   6.190   8.707   7.596 -0.7238 -1.2206  1.8333
 2862SOL     OW11605   0.719   7.537   5.405 -0.2876 -0.4295 -0.1784
 2862SOL    HW111606   0.677   7.571   5.484 -1.2508  0.1455 -0.9237
 2862SOL    HW211607   0.797   7.491   5.437 -1.0965 -0.8981  1.1742
 2863SOL     OW11608   8.621   6.029   1.917 -0.8116  0.1194 -0.1106
 2863SOL    HW111609   8.678   6.075   1.978 -1.2458  1.7088 -0.8858
 2863SOL    HW211610   8.538   6.019   1.964 -0.4760 -0.5691  0.3416
 2864SOL     OW11611   2.248   0.718   0.643 -0.2036 -0.3067 -0.5332
 2864SOL    HW111612   2.203   0.732   0.560  3.0919 -2.0600 -2.7080
 2864SOL    HW211613   2.338   0.745   0.626  0.2717  0.4456  2.8626
 2865SOL     OW11614   8.988   7.149   5.757 -0.0791 -0.0952 -0.2295
 2865SOL    HW111615   9.039   7.133   5.836  0.9352 -0.8782 -1.0270
 2865SOL    HW211616   9.010   7.238   5.731  1.9638 -0.9070 -1.3400
 2866SOL     OW11617   1.255   0.067   3.651 -0.2309 -0.2032  0.0826
 2866SOL    HW111618   1.252   0.060   3.746  1.1325  1.1015  0.2339
 2866SOL    HW211619   1.188   0.131   3.629  0.2665  0.3850  0.2703
 2867SOL     OW11620   3.668   7.523   0.543  0.1235  0.2184 -0.0322
 2867SOL    HW111621   3.754   7.482   0.535 -0.2405 -0.3021 -1.5176
 2867SOL    HW211622   3.638   7.533   0.452 -2.0315 -0.9966  0.4961
 2868SOL     OW11623   6.209   9.405   1.321 -0.1824 -0.5781  0.1801
 2868SOL    HW111624   6.299   9.374   1.316 -0.2539 -0.7219 -0.2301
 2868SOL    HW211625   6.186   9.429   1.231 -1.0251 -1.9074  0.0221
 2869SOL     OW11626   3.485   0.439   5.555  0.0709 -0.1264 -0.0224
 2869SOL    HW111627   3.390   0.433   5.545  0.3178 -0.3696 -2.4637
 2869SOL    HW211628   3.500   0.434   5.650 -2.3543  0.1218  0.3874
 2870SOL     OW11629   0.343   7.813   5.710 -0.5840 -0.4471 -0.2139
 2870SOL    HW111630   0.336   7.724   5.676  0.6281 -0.7243  0.2433
 2870SOL    HW211631   0.433   7.839   5.691 -0.6587  0.3359  0.4819
 2871SOL     OW11632   3.280   0.149   8.840  0.4061 -0.0046  0.1453
 2871SOL    HW111633   3.361   0.138   8.890 -0.1323  1.7762  1.4464
 2871SOL    HW211634   3.310   0.155   8.749  1.8096  1.3455  0.6713
 2872SOL     OW11635   7.828   7.016   7.566  0.6185 -0.0189 -0.0498
 2872SOL    HW111636   7.785   6.980   7.488  0.8252  0.1780 -0.2561
 2872SOL    HW211637   7.789   7.102   7.577  1.3094  0.3590 -0.5262
 2873SOL     OW11638   5.346   1.179   6.710 -0.1722  0.3715  0.4102
 2873SOL    HW111639   5.284   1.129   6.657  0.5686 -0.9787  0.7855
 2873SOL    HW211640   5.357   1.262   6.664  0.5647 -0.8341 -1.6158
 2874SOL     OW11641   7.050   3.787   0.537  0.2355  0.0151 -0.4718
 2874SOL    HW111642   7.041   3.881   0.519 -0.4800 -0.1488 -1.0201
 2874SOL    HW211643   6.961   3.759   0.561 -0.0458 -0.9698 -2.5520
 2875SOL     OW11644   1.903   2.095   2.706  0.1527 -0.3746  0.0224
 2875SOL    HW111645   1.834   2.070   2.645  1.0410 -1.8705 -0.3916
 2875SOL    HW211646   1.949   2.166   2.663 -0.1395 -0.4304 -0.3853
 2876SOL     OW11647   7.875   6.623   5.057 -0.1123 -0.0900  0.6948
 2876SOL    HW111648   7.796   6.678   5.055 -0.1411 -0.1834 -0.7813
 2876SOL    HW211649   7.934   6.669   5.117 -1.0019  0.3726  1.2285
 2877SOL     OW11650   1.792   8.578   3.022  0.1518 -0.7010 -0.1871
 2877SOL    HW111651   1.790   8.668   2.988  1.7040 -0.1138  1.2026
 2877SOL    HW211652   1.711   8.570   3.073 -0.1015 -0.1524 -0.4985
 2878SOL     OW11653   4.866   5.496   0.979  0.0082  0.1863  0.1434
 2878SOL    HW111654   4.806   5.438   1.024  0.1350  0.6565  0.9240
 2878SOL    HW211655   4.813   5.572   0.955 -0.0248  0.0025 -0.3802
 2879SOL     OW11656   1.941   6.261   7.979  0.4552 -0.2603 -0.1634
 2879SOL    HW111657   1.960   6.312   7.900  0.1874 -0.5251 -0.3976
 2879SOL    HW211658   1.890   6.320   8.034  1.3789  0.2265  0.1863
 2880SOL     OW11659   9.265   3.472   0.848  0.3759  0.0431  1.0846
 2880SOL    HW111660   9.290   3.381   0.835 -0.4309 -0.0922  0.4583
 2880SOL    HW211661   9.335   3.508   0.903  1.4597 -0.5593  0.1314
 2881SOL     OW11662   6.037   3.528   8.179  0.3064 -0.1771  0.1519
 2881SOL    HW111663   6.013   3.442   8.144 -0.6902 -0.2142  0.8915
 2881SOL    HW211664   6.095   3.566   8.113  2.0927 -2.0844  0.5688
 2882SOL     OW11665   4.783   1.988   3.991 -0.1407  0.0373 -0.2239
 2882SOL    HW111666   4.703   1.966   4.038  0.3558 -0.9913  0.1497
 2882SOL    HW211667   4.845   2.012   4.059 -1.0574  3.9776 -0.6804
 2883SOL     OW11668   7.046   0.001   8.300 -0.0875  0.1923 -0.1599
 2883SOL    HW111669   7.013  -0.070   8.245 -0.7375 -0.3410  0.9033
 2883SOL    HW211670   7.034   0.080   8.248  0.4510 -0.4498 -1.2694
 2884SOL     OW11671   0.901   7.774   1.007  0.2794  0.0561  0.3348
 2884SOL    HW111672   0.842   7.843   1.035  0.9643  0.0036  1.9404
 2884SOL    HW211673   0.975   7.820   0.968 -0.2878  0.1512 -0.6505
 2885SOL     OW11674   7.635   4.489   9.327 -0.2649 -0.3412 -0.3599
 2885SOL    HW111675   7.653   4.411   9.275 -0.7768 -0.2952 -0.6131
 2885SOL    HW211676   7.656   4.463   9.417 -2.9706 -1.6595 -0.0554
 2886SOL     OW11677   8.672   5.955   8.131  0.0059  0.5247 -0.0560
 2886SOL    HW111678   8.648   5.866   8.158  2.6341 -0.2932 -0.2248
 2886SOL    HW211679   8.765   5.949   8.109  0.0762  3.1899 -0.7070
 2887SOL     OW11680   3.136   5.889   7.322 -0.0620  0.6722  0.1658
 2887SOL    HW111681   3.069   5.942   7.366 -0.2574  1.3421 -0.8978
 2887SOL    HW211682   3.100   5.873   7.235  0.7639  0.2600 -0.1065
 2888SOL     OW11683   1.942   7.786   4.499 -0.2627  0.0395 -0.1613
 2888SOL    HW111684   1.872   7.721   4.492  0.2807 -0.7784  1.8546
 2888SOL    HW211685   2.022   7.736   4.480  0.0253  0.4017  0.1098
 2889SOL     OW11686   9.419   9.109   4.965  0.1872  0.4623 -0.1265
 2889SOL    HW111687   9.434   9.070   5.051  1.1995  0.3847 -0.3375
 2889SOL    HW211688   9.499   9.157   4.946 -0.7066  1.9160 -0.2661
 2890SOL     OW11689   4.142   3.398   0.396 -0.8062 -0.3106  0.9193
 2890SOL    HW111690   4.188   3.478   0.420  0.4839 -0.7092 -0.1645
 2890SOL    HW211691   4.209   3.329   0.404 -0.9322 -0.7624 -1.6801
 2891SOL     OW11692   3.043   8.712   8.088 -0.0583 -0.1909  0.3598
 2891SOL    HW111693   3.021   8.752   8.172 -0.8104 -0.4532  0.2902
 2891SOL    HW211694   3.128   8.750   8.064  0.3535 -0.4315  1.4389
 2892SOL     OW11695   5.344   5.487   3.077 -0.3688  0.1452 -0.2302
 2892SOL    HW111696   5.399   5.495   3.156  1.9638  1.9537 -1.9685
 2892SOL    HW211697   5.255   5.501   3.109  0.3484 -0.8208  2.3565
 2893SOL     OW11698   3.636   8.348   4.562 -0.0731 -0.5339  0.7429
 2893SOL    HW111699   3.575   8.421   4.570 -0.3334 -0.8243  1.5939
 2893SOL    HW211700   3.693   8.356   4.639  1.3485  0.0713 -0.3519
 2894SOL     OW11701   3.684   2.268   9.276 -0.1469  0.1256  0.3628
 2894SOL    HW111702   3.739   2.193   9.300  0.5224  1.2470  2.5039
 2894SOL    HW211703   3.594   2.238   9.290 -0.0808 -1.4880 -2.4622
 2895SOL     OW11704   1.407   0.542   1.500  0.1082  0.4701  0.0940
 2895SOL    HW111705   1.408   0.636   1.486  1.1478  0.6246  1.1145
 2895SOL    HW211706   1.423   0.505   1.413 -2.2621  1.1561 -0.6690
 2896SOL     OW11707   6.368   4.016   1.058 -0.0116 -0.2681 -0.0299
 2896SOL    HW111708   6.422   4.095   1.062  1.2058 -1.0515 -0.8881
 2896SOL    HW211709   6.336   4.014   0.968 -0.5480 -0.4319  0.1615
 2897SOL     OW11710   2.913   5.720   2.182 -0.7851  0.2701  0.0330
 2897SOL    HW111711   2.982   5.758   2.236  0.0209 -0.1509 -0.6933
 2897SOL    HW211712   2.947   5.634   2.157 -1.0188  0.5732 -1.3909
 2898SOL     OW11713   0.753   1.513   7.961  0.0812  0.0674  0.3714
 2898SOL    HW111714   0.659   1.495   7.969  0.0220  0.0560 -0.2856
 2898SOL    HW211715   0.794   1.462   8.031 -0.2821 -0.9980 -0.1662
 2899SOL     OW11716   0.659   5.734   1.940  0.1229  0.3141  0.2345
 2899SOL    HW111717   0.691   5.644   1.937 -0.7543 -0.1545  3.2316
 2899SOL    HW211718   0.563   5.726   1.932  0.1714  1.1831 -1.6481
 2900SOL     OW11719   0.956   8.601   5.692 -0.2360 -0.2239  0.0652
 2900SOL    HW111720   0.904   8.629   5.617  1.6862  0.0607 -1.2225
 2900SOL    HW211721   0.902   8.621   5.769 -1.6514  0.7855 -1.1740
 2901SOL     OW11722   7.054   5.443   4.601  0.3592  0.0257  0.0557
 2901SOL    HW111723   6.959   5.456   4.610  0.1205 -0.0241 -2.1801
 2901SOL    HW211724   7.063   5.385   4.525  2.2315  0.8248 -0.3467
 2902SOL     OW11725   5.120   3.617   7.093  0.2521  0.2960  0.0797
 2902SOL    HW111726   5.160   3.535   7.120  1.1523  0.4730 -0.7146
 2902SOL    HW211727   5.150   3.681   7.157 -0.6791 -0.0426  0.8662
 2903SOL     OW11728   8.045   1.971   6.115 -0.0124 -0.3724 -0.1206
 2903SOL    HW111729   8.013   1.992   6.027  1.6421 -0.7087 -0.8115
 2903SOL    HW211730   7.967   1.939   6.161 -0.3255 -2.9322 -2.3315
 2904SOL     OW11731   5.943   7.490   2.701  0.0355 -0.0542  0.2036
 2904SOL    HW111732   5.967   7.582   2.702 -1.1067  0.2558 -0.6626
 2904SOL    HW211733   6.026   7.443   2.692  0.5414  0.9143 -0.1863
 2905SOL     OW11734   3.064   8.498   7.916 -0.1671 -0.6332 -0.2836
 2905SOL    HW111735   3.091   8.564   7.979  0.3690 -2.3339  1.3189
 2905SOL    HW211736   2.969   8.491   7.927 -0.3422  0.4611 -1.0592
 2906SOL     OW11737   7.883   7.325   8.066  0.1740  0.0782 -0.3886
 2906SOL    HW111738   7.903   7.232   8.054  0.5690  0.1955 -0.6414
 2906SOL    HW211739   7.790   7.332   8.044 -0.0368 -0.3861  0.3496
 2907SOL     OW11740   7.148   1.305   7.142  0.3515  0.1164 -0.2262
 2907SOL    HW111741   7.137   1.222   7.189 -0.7744 -0.1653 -0.9767
 2907SOL    HW211742   7.128   1.285   7.051  1.6362  0.8692 -0.6876
 2908SOL     OW11743   9.054   1.322   9.365  0.5982 -0.1906 -0.3775
 2908SOL    HW111744   9.008   1.244   9.396  1.1538 -0.2748  0.2473
 2908SOL    HW211745   9.124   1.288   9.310  2.6190 -0.3109  2.1786
 2909SOL     OW11746   3.454   1.518   4.214  0.0100  0.1030 -0.2828
 2909SOL    HW111747   3.480   1.429   4.190  1.5462 -0.4029  2.9773
 2909SOL    HW211748   3.360   1.521   4.194  0.0793 -2.0072 -1.1125
 2910SOL     OW11749   0.870   2.533   4.069  0.5223 -0.6201  0.1986
 2910SOL    HW111750   0.836   2.553   3.982  0.2553 -0.9386  0.2256
 2910SOL    HW211751   0.797   2.487   4.112  1.2353 -1.9312  0.0244
 2911SOL     OW11752   4.698   3.265   8.418  0.4835 -0.5269  0.2706
 2911SOL    HW111753   4.749   3.332   8.372  2.7658 -2.1329  0.3624
 2911SOL    HW211754   4.644   3.314   8.480 -1.1240  1.5250 -2.6370
 2912SOL     OW11755   2.963   6.062   4.331 -0.0272 -0.1378  0.1606
 2912SOL    HW111756   3.014   6.081   4.252  1.1877 -0.7445  0.7960
 2912SOL    HW211757   2.982   6.134   4.390  0.0362 -0.3314  0.3757
 2913SOL     OW11758   2.067   9.226   5.241  0.1295 -0.4756  0.0754
 2913SOL    HW111759   2.103   9.170   5.171  0.0286  0.4535 -0.7402
 2913SOL    HW211760   2.143   9.275   5.273  0.1298 -0.7216  0.4504
 2914SOL     OW11761   9.438   8.416   0.393 -0.2454  0.3640  0.5190
 2914SOL    HW111762   9.527   8.431   0.426 -0.1444  0.7187  0.0858
 2914SOL    HW211763   9.447   8.416   0.298 -0.8362  1.1761  0.4577
 2915SOL     OW11764   8.957   1.094   8.732  0.6105 -0.1880  0.2133
 2915SOL    HW111765   8.975   1.063   8.644  1.3383  1.5819 -0.2817
 2915SOL    HW211766   8.996   1.181   8.736 -1.5810  0.7858  1.4886
 2916SOL     OW11767   1.787   8.961   2.727  0.8144  0.6439  0.3979
 2916SOL    HW111768   1.696   8.956   2.698  0.6548  1.9751  0.6584
 2916SOL    HW211769   1.822   8.873   2.711 -0.5714  0.0617  0.5129
 2917SOL     OW11770   2.918   8.689   5.128 -0.3353  0.2828 -0.2986
 2917SOL    HW111771   2.897   8.603   5.093  2.1164 -0.7325  0.6470
 2917SOL    HW211772   2.948   8.672   5.218  1.5956  1.9404 -0.5986
 2918SOL     OW11773   5.668   7.102   1.630  0.2617  0.2232  0.4368
 2918SOL    HW111774   5.684   7.106   1.724 -1.1576 -1.1543  0.7530
 2918SOL    HW211775   5.573   7.116   1.621  0.4041  0.4695 -0.7953
 2919SOL     OW11776   1.565   8.419   7.089  0.4621  0.2017  0.1246
 2919SOL    HW111777   1.540   8.352   7.153 -1.6676 -0.0945 -0.9463
 2919SOL    HW211778   1.560   8.501   7.137 -1.2939  0.0020  0.3127
 2920SOL     OW11779   2.008   4.059   8.488  0.0312  1.0950 -0.0630
 2920SOL    HW111780   2.071   4.128   8.508  1.5780 -0.0270 -0.8992
 2920SOL    HW211781   2.060   3.993   8.442 -1.2090 -1.0151  1.4917
 2921SOL     OW11782   2.144   4.698   3.465  0.4198  0.2005  0.3666
 2921SOL    HW111783   2.142   4.736   3.377 -1.5590  2.4681  1.3431
 2921SOL    HW211784   2.201   4.757   3.515 -1.8838  1.3668  1.6497
 2922SOL     OW11785   7.010   2.779   0.538  0.7817  0.1399 -0.3383
 2922SOL    HW111786   6.964   2.851   0.495 -0.0816  1.2822  2.4343
 2922SOL    HW211787   7.035   2.814   0.623  0.3168 -2.8495  1.0679
 2923SOL     OW11788   6.839   5.132   9.319 -0.3812  0.0332  0.3380
 2923SOL    HW111789   6.929   5.139   9.352 -0.6088  1.5831  0.6698
 2923SOL    HW211790   6.840   5.185   9.239 -1.3121  1.0806  1.0153
 2924SOL     OW11791   0.356   0.818   2.863 -0.4047 -0.3916  0.0601
 2924SOL    HW111792   0.347   0.729   2.896  0.6943 -0.4165  0.2825
 2924SOL    HW211793   0.450   0.830   2.849 -0.7617 -0.1693 -2.4214
 2925SOL     OW11794   4.994   3.466   0.030  0.2981 -0.1015 -0.2151
 2925SOL    HW111795   4.955   3.400   0.087  0.8578 -1.2449 -1.1314
 2925SOL    HW211796   4.946   3.458  -0.052  0.2690  0.7429 -0.2861
 2926SOL     OW11797   5.428   3.791   2.606 -0.0915 -0.3628 -0.0824
 2926SOL    HW111798   5.486   3.818   2.677  0.6113 -0.0994 -0.7467
 2926SOL    HW211799   5.407   3.873   2.560 -0.0992 -0.5940 -0.4982
 2927SOL     OW11800   7.233   0.635   6.076  0.5870 -0.3579  0.0735
 2927SOL    HW111801   7.295   0.673   6.014 -0.7780  1.0846 -0.4394
 2927SOL    HW211802   7.149   0.634   6.029  0.2150 -2.3192  0.7310
 2928SOL     OW11803   3.814   6.260   6.643  0.0160  0.0953  0.0357
 2928SOL    HW111804   3.866   6.182   6.663  2.0482  1.7995  1.7457
 2928SOL    HW211805   3.802   6.258   6.548  0.6310 -1.9166 -0.0173
 2929SOL     OW11806   7.708   2.117   0.815 -0.2015  0.3590  0.7177
 2929SOL    HW111807   7.675   2.131   0.726  0.8471  0.1067  0.2879
 2929SOL    HW211808   7.784   2.175   0.822 -0.5419  0.7095  1.6017
 2930SOL     OW11809   0.263   1.640   0.765  0.0845  0.3477  0.1150
 2930SOL    HW111810   0.276   1.561   0.712  0.3050  0.1592  0.4477
 2930SOL    HW211811   0.189   1.618   0.823  1.8117 -0.5839  2.0339
 2931SOL     OW11812   3.313   1.789   6.344 -0.7705  0.6430  0.1631
 2931SOL    HW111813   3.254   1.716   6.362 -1.3105  0.9685 -0.2730
 2931SOL    HW211814   3.401   1.752   6.353 -1.0401 -0.1548 -0.4457
 2932SOL     OW11815   0.865   2.342   1.479 -0.0053  0.1771 -0.1401
 2932SOL    HW111816   0.933   2.371   1.540  1.9946  1.6399 -2.9821
 2932SOL    HW211817   0.907   2.276   1.425 -1.6476 -0.8361 -0.2168
 2933SOL     OW11818   6.150   6.539   9.213 -0.1860  0.1799 -0.5458
 2933SOL    HW111819   6.183   6.500   9.132 -1.2242  0.3784 -1.0644
 2933SOL    HW211820   6.229   6.557   9.264  0.4553 -0.2173 -1.3872
 2934SOL     OW11821   3.988   3.686   6.790 -0.1961 -0.3485  0.2241
 2934SOL    HW111822   4.019   3.625   6.857 -2.3230 -0.6775  0.9690
 2934SOL    HW211823   3.894   3.667   6.783 -0.6646  2.0616 -0.3772
 2935SOL     OW11824   1.059   2.440   1.635  0.1249  0.4516 -0.1930
 2935SOL    HW111825   1.093   2.426   1.724  0.6474 -0.2567 -0.5021
 2935SOL    HW211826   1.031   2.532   1.635 -2.3250 -0.2239  1.5328
 2936SOL     OW11827   1.203   0.487   5.487  0.0677  0.1118  0.0605
 2936SOL    HW111828   1.230   0.408   5.534  0.6157  0.8783  1.0560
 2936SOL    HW211829   1.108   0.485   5.490  0.0770 -0.4723  0.1427
 2937SOL     OW11830   7.237   5.651   4.659  0.2549  0.0099  0.5974
 2937SOL    HW111831   7.161   5.604   4.624  0.3600  1.1578 -1.2578
 2937SOL    HW211832   7.301   5.651   4.587  1.0706  1.1290  1.2993
 2938SOL     OW11833   7.988   5.619   3.540 -0.0359  0.0541 -0.4801
 2938SOL    HW111834   7.978   5.695   3.482  0.3596  0.1749 -0.3921
 2938SOL    HW211835   7.907   5.570   3.529  0.4889 -0.5158 -1.9833
 2939SOL     OW11836   1.466   0.353   0.914  0.3455 -0.0703 -0.0269
 2939SOL    HW111837   1.372   0.337   0.904 -0.2476  2.6335  0.7186
 2939SOL    HW211838   1.502   0.339   0.827 -0.9786  0.2166 -0.6411
 2940SOL     OW11839   3.099   1.215   3.633 -0.0352  0.3762 -0.7152
 2940SOL    HW111840   3.049   1.192   3.554 -1.4996 -1.2156  0.6211
 2940SOL    HW211841   3.042   1.189   3.705  1.9574  0.3148  0.8767
 2941SOL     OW11842   7.477   0.548   8.494  0.0352 -0.4555  0.4186
 2941SOL    HW111843   7.523   0.515   8.416  1.6197  2.9589 -0.1831
 2941SOL    HW211844   7.400   0.593   8.459  1.3808  2.1423  0.6149
 2942SOL     OW11845   7.158   9.120   6.919  0.1087  0.4795  1.4728
 2942SOL    HW111846   7.084   9.065   6.945  1.1705 -0.5987  2.2591
 2942SOL    HW211847   7.225   9.103   6.986  2.4305 -1.3490 -1.1891
 2943SOL     OW11848   8.867   4.617   0.813  0.2042 -0.8946 -0.5621
 2943SOL    HW111849   8.907   4.666   0.740  0.9031 -2.3055 -1.1391
 2943SOL    HW211850   8.941   4.576   0.857  0.0153  1.5142  2.1725
 2944SOL     OW11851   9.343   1.409   2.665  0.8711  0.6961  0.7025
 2944SOL    HW111852   9.289   1.478   2.627 -0.3872 -0.3834  0.4460
 2944SOL    HW211853   9.340   1.338   2.600  2.0522  0.3733  0.9965
 2945SOL     OW11854   1.651   2.354   6.410 -0.6979  0.2221 -0.0533
 2945SOL    HW111855   1.673   2.360   6.317  1.0185 -0.4267  0.2876
 2945SOL    HW211856   1.736   2.348   6.454 -1.4703  1.0902  1.6032
 2946SOL     OW11857   9.015   0.312   8.066 -0.7833  0.2502  0.0190
 2946SOL    HW111858   8.975   0.337   7.983 -1.4588 -0.2697  0.1843
 2946SOL    HW211859   8.945   0.270   8.115 -0.1646 -0.2264  0.5101
 2947SOL     OW11860   3.429   4.809   4.280  0.2801  0.1643 -0.1474
 2947SOL    HW111861   3.418   4.900   4.253 -1.4084 -0.0035 -0.1054
 2947SOL    HW211862   3.371   4.800   4.356 -0.6358 -1.2867 -0.9875
 2948SOL     OW11863   2.844   7.759   5.578 -0.1404 -0.1171  0.1451
 2948SOL    HW111864   2.787   7.787   5.506 -0.5103 -0.9365  0.1138
 2948SOL    HW211865   2.799   7.683   5.616  0.7473 -0.5405  0.3519
 2949SOL     OW11866   0.660   7.706   7.819 -0.2172  0.3747 -0.0140
 2949SOL    HW111867   0.577   7.674   7.783 -0.5797  2.3880 -0.9832
 2949SOL    HW211868   0.722   7.634   7.803 -0.9755  0.2079 -2.3344
 2950SOL     OW11869   2.103   5.557   4.984  0.9732  0.2971  0.1038
 2950SOL    HW111870   2.079   5.597   5.067  1.1868 -1.0148  0.8081
 2950SOL    HW211871   2.167   5.617   4.946  1.0193  0.7978  0.9643
 2951SOL     OW11872   6.685   6.267   6.093 -0.0289 -0.8287 -0.2756
 2951SOL    HW111873   6.670   6.319   6.172  0.5953  1.3961 -1.5475
 2951SOL    HW211874   6.709   6.180   6.125 -0.0653 -0.0576  1.9622
 2952SOL     OW11875   7.537   5.053   8.255 -0.8308 -0.4832  0.4297
 2952SOL    HW111876   7.468   5.048   8.321  0.4766 -0.9940  1.7883
 2952SOL    HW211877   7.546   4.964   8.223 -0.4511 -0.5259  0.6431
 2953SOL     OW11878   4.884   9.365   1.370 -0.1527  0.3872 -0.0381
 2953SOL    HW111879   4.807   9.320   1.405 -0.5447  1.8356  0.9631
 2953SOL    HW211880   4.871   9.361   1.275 -1.1748  0.1276  0.0984
 2954SOL     OW11881   7.703   7.081   7.920 -0.6799  0.2730 -0.0180
 2954SOL    HW111882   7.796   7.061   7.909 -0.8743 -1.1081  0.7509
 2954SOL    HW211883   7.679   7.128   7.840  0.7930  1.0928  0.0065
 2955SOL     OW11884   7.053   2.758   5.174 -0.3278  0.2684  0.0201
 2955SOL    HW111885   7.023   2.689   5.233 -0.4475 -0.5739 -1.0024
 2955SOL    HW211886   7.137   2.786   5.210  0.5962 -1.6909 -0.5793
 2956SOL     OW11887   0.840   2.097   4.381  0.3671 -0.0875 -0.3757
 2956SOL    HW111888   0.917   2.056   4.341  1.2934  0.5048  0.7973
 2956SOL    HW211889   0.812   2.163   4.317  0.0486 -1.1821 -1.3804
 2957SOL     OW11890   5.887   4.714   3.622 -0.1113 -0.3048 -0.0974
 2957SOL    HW111891   5.800   4.746   3.600 -0.5179 -1.9334 -0.9121
 2957SOL    HW211892   5.872   4.639   3.679  0.8071  0.2448  0.9007
 2958SOL     OW11893   6.562   1.135   2.387  0.0292  0.3740  0.3808
 2958SOL    HW111894   6.485   1.131   2.444 -0.2188  2.3622  0.2123
 2958SOL    HW211895   6.632   1.095   2.439 -0.6045  0.5696  1.3981
 2959SOL     OW11896   3.680   0.027   6.041  0.3917  0.6390 -0.0994
 2959SOL    HW111897   3.626   0.047   5.965  1.5604 -0.4259 -1.2411
 2959SOL    HW211898   3.666   0.100   6.101 -2.0648  0.5180 -0.4831
 2960SOL     OW11899   0.901   1.936   5.927 -0.4235  0.4688 -0.3230
 2960SOL    HW111900   0.977   1.939   5.868 -1.3873  0.2550 -1.6004
 2960SOL    HW211901   0.912   2.013   5.983  1.5253 -0.3766  0.5279
 2961SOL     OW11902   0.087   1.726   1.242  0.5234  0.1824 -0.1839
 2961SOL    HW111903   0.160   1.675   1.210  2.2127 -0.2384  4.0529
 2961SOL    HW211904   0.116   1.817   1.236  0.9870  0.0792  0.3999
 2962SOL     OW11905   6.463   6.031   5.876  0.1122 -0.6686 -0.6321
 2962SOL    HW111906   6.556   6.021   5.895 -0.3478 -2.5153  0.8400
 2962SOL    HW211907   6.449   5.981   5.796  0.2023 -1.3384 -0.2387
 2963SOL     OW11908   2.232   1.778   8.284 -0.6090  0.4260  0.3667
 2963SOL    HW111909   2.140   1.751   8.290 -0.1207 -1.4258 -0.1965
 2963SOL    HW211910   2.229   1.863   8.241 -2.1137  0.7219  1.0442
 2964SOL     OW11911   8.767   0.611   1.876  0.2351 -0.4043  0.8864
 2964SOL    HW111912   8.759   0.584   1.785  2.4763  0.5556  0.3758
 2964SOL    HW211913   8.790   0.530   1.923  2.2123 -0.3311  0.0931
 2965SOL     OW11914   8.160   4.591   5.865 -0.3534 -0.0522 -0.0003
 2965SOL    HW111915   8.096   4.608   5.795  0.2460  2.0025 -0.0737
 2965SOL    HW211916   8.151   4.666   5.924  1.2608 -0.2652  0.5295
 2966SOL     OW11917   0.773   7.463   7.903  0.6732  1.0690 -0.0298
 2966SOL    HW111918   0.778   7.446   7.809  1.2036  1.1376 -0.0148
 2966SOL    HW211919   0.864   7.462   7.932  0.4462  0.0751  0.6576
 2967SOL     OW11920   8.696   1.358   8.480 -0.2833  0.1925  0.0779
 2967SOL    HW111921   8.778   1.387   8.521 -1.4887  0.6505  2.2546
 2967SOL    HW211922   8.679   1.273   8.521 -1.5033  0.6461  0.5305
 2968SOL     OW11923   4.719   1.412   2.327  0.1546 -0.3470 -0.3272
 2968SOL    HW111924   4.634   1.399   2.369  0.7850 -0.1819  1.0203
 2968SOL    HW211925   4.734   1.331   2.279 -0.2577 -0.8222  0.3323
 2969SOL     OW11926   2.291   1.652   9.244  0.1683  0.3601 -0.4589
 2969SOL    HW111927   2.303   1.660   9.149 -2.3875 -2.4025 -1.1116
 2969SOL    HW211928   2.274   1.559   9.257  1.2009  0.5926  2.8472
 2970SOL     OW11929   4.010   1.782   1.510 -0.2659  0.7386 -0.2386
 2970SOL    HW111930   4.104   1.791   1.522  0.0266 -1.5701 -0.6754
 2970SOL    HW211931   3.998   1.782   1.415 -0.7432  1.3636 -0.1815
 2971SOL     OW11932   2.395   8.616   3.012 -0.0992  0.4679  0.2997
 2971SOL    HW111933   2.388   8.521   3.001  0.8696  0.6268 -1.7405
 2971SOL    HW211934   2.377   8.630   3.106  0.5541 -1.7905  0.7906
 2972SOL     OW11935   8.149   8.831   7.024 -0.3548  0.6985  0.4959
 2972SOL    HW111936   8.067   8.881   7.035 -0.4078 -0.0349  3.9060
 2972SOL    HW211937   8.192   8.838   7.108  2.8812  0.5462 -1.0835
 2973SOL     OW11938   5.695   1.469   3.969  0.1302  0.0496 -0.1489
 2973SOL    HW111939   5.698   1.564   3.980  1.5204 -0.1814  1.7723
 2973SOL    HW211940   5.712   1.455   3.876  1.2503  1.6206 -0.1930
 2974SOL     OW11941   8.471   0.078   5.940 -0.0300 -0.1036  0.1283
 2974SOL    HW111942   8.502   0.169   5.939 -0.7565  0.1310 -1.9654
 2974SOL    HW211943   8.538   0.030   5.891  0.5787 -0.8004  1.6036
 2975SOL     OW11944   1.982   5.243   0.367  0.2226 -0.2424  0.2931
 2975SOL    HW111945   2.024   5.319   0.408  0.3649 -0.5516  0.7168
 2975SOL    HW211946   1.996   5.171   0.428  2.3220 -1.2151 -1.2558
 2976SOL     OW11947   0.825   0.594   7.178 -0.1685 -0.3088 -0.4667
 2976SOL    HW111948   0.840   0.509   7.220 -2.2372  0.7419  2.4940
 2976SOL    HW211949   0.766   0.573   7.105 -0.7739 -1.4029  0.3146
 2977SOL     OW11950   3.826   1.054   5.030 -0.0552  0.5417 -0.2964
 2977SOL    HW111951   3.874   1.106   5.094 -0.2574  1.0643 -0.5603
 2977SOL    HW211952   3.889   0.988   4.999  0.6271  1.4848 -0.9480
 2978SOL     OW11953   3.403   0.603   3.266 -0.0473 -0.6934 -0.3711
 2978SOL    HW111954   3.468   0.575   3.202 -0.1959  0.2318 -0.9448
 2978SOL    HW211955   3.342   0.530   3.271  0.6464 -1.2764 -0.3613
 2979SOL     OW11956   7.526   1.694   4.140  0.4815  0.6259  0.2583
 2979SOL    HW111957   7.438   1.663   4.115  0.3667  0.9401  0.2665
 2979SOL    HW211958   7.535   1.778   4.095  1.3367 -0.0612 -0.8758
 2980SOL     OW11959   5.870   6.754   6.520  0.3197  0.1211 -0.0246
 2980SOL    HW111960   5.927   6.831   6.517  2.6766 -1.6527 -1.6721
 2980SOL    HW211961   5.818   6.767   6.600  2.4194  2.1771  1.0749
 2981SOL     OW11962   3.787   5.351   6.723 -0.0604  0.3863 -0.1403
 2981SOL    HW111963   3.720   5.409   6.760  1.0372  1.9020 -0.4955
 2981SOL    HW211964   3.868   5.378   6.766  1.0927  1.5909 -2.9936
 2982SOL     OW11965   9.265   2.867   8.661 -0.0173 -0.1027  0.1280
 2982SOL    HW111966   9.201   2.810   8.702  0.8980 -0.3812  1.1973
 2982SOL    HW211967   9.237   2.956   8.684 -1.3546 -0.1152 -1.4116
 2983SOL     OW11968   0.643   1.758   8.988  0.6063  0.3235 -0.0206
 2983SOL    HW111969   0.551   1.770   8.964 -0.2040 -1.8995  1.9066
 2983SOL    HW211970   0.669   1.842   9.027 -1.2925  0.1685  1.6100
 2984SOL     OW11971   5.215   0.930   2.122 -0.4532 -0.0715 -0.1984
 2984SOL    HW111972   5.256   0.872   2.058 -0.1588  0.2683 -0.3188
 2984SOL    HW211973   5.154   0.983   2.070  1.0774  1.4434 -0.5048
 2985SOL     OW11974   0.399   7.238   1.147 -0.6057 -0.1529  0.1982
 2985SOL    HW111975   0.488   7.231   1.112 -1.1642  0.3389 -1.3608
 2985SOL    HW211976   0.372   7.327   1.127 -1.3004 -0.1764  1.0300
 2986SOL     OW11977   3.789   0.041   5.621 -0.7423 -0.6834 -0.2362
 2986SOL    HW111978   3.701   0.066   5.594 -0.0581 -0.0101 -1.9436
 2986SOL    HW211979   3.818   0.111   5.679 -2.3487 -2.2945  2.5790
 2987SOL     OW11980   5.876   6.803   9.420 -0.1923  0.1033 -0.1032
 2987SOL    HW111981   5.815   6.729   9.424  0.8431 -0.7723 -0.2810
 2987SOL    HW211982   5.853   6.849   9.340  0.3982 -1.1338 -0.9996
 2988SOL     OW11983   8.296   0.132   4.405 -0.3902  0.3489  0.1992
 2988SOL    HW111984   8.358   0.069   4.368  0.7347  1.5993 -0.0592
 2988SOL    HW211985   8.304   0.209   4.350 -2.2294  0.5197  0.1302
 2989SOL     OW11986   8.576   6.093   1.351 -0.9553  0.3061  0.0518
 2989SOL    HW111987   8.576   6.137   1.266 -0.4919  1.8456  0.8274
 2989SOL    HW211988   8.659   6.046   1.354 -0.7828  0.5976 -0.1658
 2990SOL     OW11989   9.436   8.410   3.283 -0.0339 -0.1851  0.9700
 2990SOL    HW111990   9.530   8.424   3.270  0.2161 -0.8013  2.0762
 2990SOL    HW211991   9.400   8.499   3.292  0.1825  0.1314 -1.0929
 2991SOL     OW11992   3.891   0.734   0.818  0.5394  0.1489 -0.0734
 2991SOL    HW111993   3.867   0.723   0.910  0.3118 -0.1908 -0.1704
 2991SOL    HW211994   3.812   0.710   0.770  0.7345  0.0843 -0.3630
 2992SOL     OW11995   3.288   5.351   2.266 -0.1927 -0.9056 -0.0220
 2992SOL    HW111996   3.309   5.257   2.270 -2.9453 -1.5854 -0.0384
 2992SOL    HW211997   3.246   5.369   2.351 -0.8150 -0.0119 -0.5157
 2993SOL     OW11998   3.805   7.576   3.456  0.0579 -0.2522  0.1392
 2993SOL    HW111999   3.814   7.664   3.492  2.0475 -0.5680  0.5125
 2993SOL    HW212000   3.869   7.524   3.506 -1.9379 -2.1715  0.7475
 2994SOL     OW12001   1.480   4.667   2.384 -0.1483  0.2660 -0.6040
 2994SOL    HW112002   1.443   4.696   2.467 -1.1558  0.2412 -1.0378
 2994SOL    HW212003   1.554   4.612   2.408 -2.2827 -2.2884  0.3452
 2995SOL     OW12004   4.267   7.713   3.103 -0.1432  0.4104  0.0330
 2995SOL    HW112005   4.312   7.796   3.091 -0.1111  0.1398 -1.7632
 2995SOL    HW212006   4.268   7.672   3.017  0.6963 -1.8890  1.0825
 2996SOL     OW12007   5.943   3.860   3.890  0.5056  0.3862  0.3772
 2996SOL    HW112008   5.921   3.787   3.947  3.8678 -0.6498  0.4289
 2996SOL    HW212009   6.038   3.860   3.887  0.4570  2.4031 -2.7086
 2997SOL     OW12010   8.553   4.343   3.202  0.0296  0.1926 -0.1356
 2997SOL    HW112011   8.542   4.275   3.269  0.7300 -1.3758 -1.5816
 2997SOL    HW212012   8.520   4.423   3.243 -0.2518 -0.8979  1.8094
 2998SOL     OW12013   1.706   3.278   1.793  0.3490  0.1273  0.7088
 2998SOL    HW112014   1.748   3.357   1.827  0.6610  0.8427 -1.2719
 2998SOL    HW212015   1.722   3.281   1.698 -1.8940 -0.9680  0.2691
 2999SOL     OW12016   8.118   3.490   9.046  0.0862  0.3657  0.2558
 2999SOL    HW112017   8.065   3.417   9.079  0.0780  0.6243  0.8266
 2999SOL    HW212018   8.107   3.487   8.951  0.4942 -0.6972  0.2316
 3000SOL     OW12019   3.772   7.600   7.338  0.0633 -0.9195 -0.2410
 3000SOL    HW112020   3.783   7.642   7.423 -0.7866  2.3524 -1.6654
 3000SOL    HW212021   3.823   7.518   7.345  1.1471 -0.0618  2.8892
 3001SOL     OW12022   9.215   4.231   0.290  0.0002 -0.4740  0.6735
 3001SOL    HW112023   9.127   4.251   0.259 -0.1173  1.2064  2.0006
 3001SOL    HW212024   9.272   4.291   0.242  0.2476 -0.5813  0.8308
 3002SOL     OW12025   9.279   6.074   0.721 -0.0351 -0.2069 -0.5492
 3002SOL    HW112026   9.345   6.009   0.747 -0.4033  0.1032  1.2717
 3002SOL    HW212027   9.328   6.141   0.673  1.0953  0.2867  1.2375
 3003SOL     OW12028   0.861   4.797   0.161 -0.5676  0.1608 -0.3076
 3003SOL    HW112029   0.865   4.838   0.248  0.2288 -1.8603  0.6477
 3003SOL    HW212030   0.768   4.775   0.149 -0.3246 -1.8506  1.1798
 3004SOL     OW12031   3.220   9.180   9.078 -0.0945  0.2787  0.3780
 3004SOL    HW112032   3.222   9.258   9.134  2.1932  1.4159 -1.2271
 3004SOL    HW212033   3.178   9.209   8.997 -0.6966 -0.5806  0.3781
 3005SOL     OW12034   8.239   6.508   4.127 -0.6696 -0.0874 -0.2586
 3005SOL    HW112035   8.257   6.602   4.121 -1.7635  0.1439 -0.1211
 3005SOL    HW212036   8.258   6.474   4.040 -1.2905  0.4509 -0.6050
 3006SOL     OW12037   0.857   1.993   6.350 -0.4044 -0.2710  0.7822
 3006SOL    HW112038   0.800   2.055   6.303 -1.7635 -1.0990  1.3061
 3006SOL    HW212039   0.907   1.950   6.281 -1.1583 -0.2623  0.2180
 3007SOL     OW12040   1.499   7.284   6.042 -0.8781  0.3312  0.8173
 3007SOL    HW112041   1.479   7.190   6.046 -3.3672  0.8389  1.0171
 3007SOL    HW212042   1.500   7.304   5.948 -0.3799  0.1199  0.7755
 3008SOL     OW12043   7.586   6.016   4.167 -0.4697 -0.1735 -0.4640
 3008SOL    HW112044   7.506   6.069   4.162 -1.4584 -1.7703 -2.1932
 3008SOL    HW212045   7.582   5.974   4.253 -1.9695 -0.9407 -0.8836
 3009SOL     OW12046   4.278   3.740   6.016  0.0810 -0.5392  0.0518
 3009SOL    HW112047   4.317   3.773   6.097  0.5431  0.8810 -0.7252
 3009SOL    HW212048   4.352   3.732   5.956 -0.2268 -1.8129 -0.1647
 3010SOL     OW12049   5.444   4.217   4.331 -0.7721 -0.6512  0.1677
 3010SOL    HW112050   5.499   4.293   4.348  0.0943 -0.9515 -1.2898
 3010SOL    HW212051   5.444   4.169   4.414  2.2211 -1.3257 -0.1781
 3011SOL     OW12052   6.029   7.618   6.254 -0.4563 -0.0430 -0.8582
 3011SOL    HW112053   6.102   7.673   6.226  0.7776 -0.2313  1.8314
 3011SOL    HW212054   5.954   7.676   6.255  0.0748  0.6656 -1.6066
 3012SOL     OW12055   7.308   3.438   8.433  0.4356  0.1277 -0.2291
 3012SOL    HW112056   7.381   3.495   8.410  0.3008 -0.1280 -1.3312
 3012SOL    HW212057   7.254   3.489   8.493  0.5288  0.9975 -0.8899
 3013SOL     OW12058   3.889   5.730   5.792  0.2922 -0.2634 -0.0373
 3013SOL    HW112059   3.942   5.691   5.723 -0.2645  1.4892 -1.4973
 3013SOL    HW212060   3.818   5.667   5.806  0.7584 -0.9234 -0.6260
 3014SOL     OW12061   1.848   5.764   8.932 -0.5491 -0.7205 -0.6212
 3014SOL    HW112062   1.936   5.779   8.898 -0.2002 -2.0971 -0.3611
 3014SOL    HW212063   1.792   5.764   8.854 -0.6494  2.2046 -0.6128
 3015SOL     OW12064   2.964   3.700   2.791  0.3333 -0.2433 -0.2435
 3015SOL    HW112065   3.055   3.705   2.820  0.4415  3.5891 -1.0245
 3015SOL    HW212066   2.967   3.648   2.711  2.0023  0.7874 -0.8730
 3016SOL     OW12067   5.606   6.810   3.834 -0.3790 -0.1690  0.8499
 3016SOL    HW112068   5.683   6.772   3.875 -0.0597 -2.1595 -1.4609
 3016SOL    HW212069   5.623   6.905   3.834  1.1704 -0.4315  2.0935
 3017SOL     OW12070   2.965   6.052   2.544 -0.0110  0.7198  0.4637
 3017SOL    HW112071   3.035   6.063   2.608  0.0104  1.5623  0.3016
 3017SOL    HW212072   2.885   6.051   2.597  0.1027  0.0175  0.6254
 3018SOL     OW12073   1.430   2.525   6.335  0.4485 -0.4484  0.3739
 3018SOL    HW112074   1.476   2.587   6.278 -0.6646  0.2595  0.2319
 3018SOL    HW212075   1.500   2.473   6.375  1.2743 -0.7203 -1.3733
 3019SOL     OW12076   5.549   3.738   0.478 -0.0585 -0.0362  0.1587
 3019SOL    HW112077   5.517   3.668   0.421 -0.7243  1.5830 -1.4891
 3019SOL    HW212078   5.488   3.736   0.553 -1.3903  0.1875 -0.9000
 3020SOL     OW12079   4.887   8.585   3.781 -0.4766 -0.2491  0.2203
 3020SOL    HW112080   4.872   8.601   3.874 -0.9897 -2.1102  0.4975
 3020SOL    HW212081   4.936   8.503   3.779 -0.9772 -0.5365 -1.1566
 3021SOL     OW12082   5.899   1.681   0.788  0.0960 -0.3201 -0.2807
 3021SOL    HW112083   5.977   1.726   0.821  0.8677 -0.7329 -1.5187
 3021SOL    HW212084   5.832   1.750   0.782  0.6151  0.2075 -0.0279
 3022SOL     OW12085   1.796   6.822   5.250  0.2624 -0.0544 -0.6323
 3022SOL    HW112086   1.833   6.782   5.171 -1.3071 -1.5191 -0.6545
 3022SOL    HW212087   1.732   6.885   5.217 -0.4884 -0.7613 -0.5336
 3023SOL     OW12088   6.707   7.152   6.601  0.0253 -0.2823 -0.1887
 3023SOL    HW112089   6.715   7.243   6.572  0.7640 -0.2359  0.1660
 3023SOL    HW212090   6.711   7.157   6.696 -2.1413 -0.4651 -0.0631
 3024SOL     OW12091   6.714   6.182   2.732  0.1679 -0.7663 -0.5813
 3024SOL    HW112092   6.768   6.133   2.794  0.3242  0.8012  0.5370
 3024SOL    HW212093   6.625   6.147   2.746  0.0152  0.2837  1.2814
 3025SOL     OW12094   3.059   5.596   3.134 -0.1282 -1.0069  0.1106
 3025SOL    HW112095   3.061   5.520   3.077  0.4126 -0.8076 -0.1377
 3025SOL    HW212096   2.966   5.613   3.149 -0.2931 -0.5975 -1.3319
 3026SOL     OW12097   8.040   4.911   5.141 -0.5388  0.2363 -0.2526
 3026SOL    HW112098   8.130   4.893   5.116  0.1130  0.8310  1.6058
 3026SOL    HW212099   8.012   4.982   5.082  0.2081  0.0933 -0.7855
 3027SOL     OW12100   6.707   2.954   3.488 -0.4192 -0.2277 -0.5992
 3027SOL    HW112101   6.620   2.916   3.472  0.0918 -1.1324 -1.3400
 3027SOL    HW212102   6.764   2.907   3.427  0.6988 -0.0884  0.3330
 3028SOL     OW12103   3.998   1.287   1.145  0.3624  0.1096 -0.3187
 3028SOL    HW112104   3.946   1.367   1.157  1.7775  0.8690  0.8274
 3028SOL    HW212105   4.065   1.311   1.081  0.8445 -0.1239  0.0964
 3029SOL     OW12106   6.530   1.116   4.462 -0.7900 -0.1352  0.0549
 3029SOL    HW112107   6.469   1.185   4.486 -0.5588  0.3667 -0.7851
 3029SOL    HW212108   6.562   1.141   4.376 -1.5506 -1.8662 -0.7578
 3030SOL     OW12109   6.862   4.358   5.502  0.8897 -0.1479  0.3705
 3030SOL    HW112110   6.800   4.306   5.451  2.5471 -1.0151 -0.8101
 3030SOL    HW212111   6.831   4.448   5.492 -0.6118 -0.6380  0.4407
 3031SOL     OW12112   6.211   7.727   2.239  0.9373  0.0918 -0.2361
 3031SOL    HW112113   6.217   7.633   2.259  0.7048  0.3033  0.8747
 3031SOL    HW212114   6.301   7.754   2.223  1.1030 -0.1420  0.2963
 3032SOL     OW12115   8.486   6.399   3.673  0.2935 -0.4151  0.0086
 3032SOL    HW112116   8.462   6.492   3.679  0.1944 -0.5092  1.2807
 3032SOL    HW212117   8.569   6.399   3.626  0.5536  0.3684  0.4530
 3033SOL     OW12118   5.958   3.375   4.276  0.4720  0.4902 -0.5503
 3033SOL    HW112119   5.869   3.356   4.248  0.5398 -1.3789  0.4392
 3033SOL    HW212120   5.950   3.396   4.369  1.0510  0.3921 -0.4765
 3034SOL     OW12121   6.940   8.555   2.617 -0.6395 -0.3818 -0.0875
 3034SOL    HW112122   6.948   8.528   2.526 -1.0404 -1.4277  0.1840
 3034SOL    HW212123   6.849   8.582   2.626 -1.0226 -1.8112  0.4089
 3035SOL     OW12124   4.551   8.070   7.170  0.1133  0.7380  0.6761
 3035SOL    HW112125   4.565   7.983   7.208 -1.0939 -0.2736 -1.0976
 3035SOL    HW212126   4.632   8.117   7.189  0.1866 -0.2350  3.0417
 3036SOL     OW12127   0.801   4.605   8.178  0.3607  0.3498 -0.3967
 3036SOL    HW112128   0.837   4.678   8.227  1.6463  0.4024 -1.3830
 3036SOL    HW212129   0.874   4.545   8.166 -0.3021 -0.3755 -0.9162
 3037SOL     OW12130   5.422   8.094   4.223  0.0150 -0.0197  0.1872
 3037SOL    HW112131   5.464   8.178   4.204  2.1508 -1.2906 -0.9459
 3037SOL    HW212132   5.384   8.105   4.310  1.0545  1.8267  0.4351
 3038SOL     OW12133   4.291   5.797   9.397 -0.5582  0.2100 -0.0984
 3038SOL    HW112134   4.347   5.735   9.349 -1.1745  0.9804 -1.8556
 3038SOL    HW212135   4.237   5.741   9.453  0.4669 -0.6836  0.0295
 3039SOL     OW12136   1.241   0.572   4.834  0.2782  0.7293  0.2851
 3039SOL    HW112137   1.283   0.509   4.892  1.6380  1.4992  0.1444
 3039SOL    HW212138   1.149   0.545   4.833  0.6615 -0.6675  0.9798
 3040SOL     OW12139   3.572   8.699   1.109  0.1231 -0.1969 -0.5427
 3040SOL    HW112140   3.562   8.604   1.103  0.1442 -0.1579 -1.2532
 3040SOL    HW212141   3.487   8.730   1.142  0.5129 -0.5636  0.8377
 3041SOL     OW12142   3.027   3.628   3.282 -0.1555  0.4549 -0.2798
 3041SOL    HW112143   2.932   3.628   3.292 -0.0266 -0.7754  1.0901
 3041SOL    HW212144   3.056   3.701   3.338 -0.3026  1.0250 -0.9356
 3042SOL     OW12145   3.493   0.406   8.439  0.4563 -0.1468 -0.2659
 3042SOL    HW112146   3.411   0.453   8.428  0.1836 -0.5099  0.2104
 3042SOL    HW212147   3.539   0.453   8.508  0.7649  0.2126 -0.7112
 3043SOL     OW12148   0.283   9.414   8.879  0.6329  0.4605 -0.2315
 3043SOL    HW112149   0.361   9.377   8.921  0.3866  0.6061  0.3604
 3043SOL    HW212150   0.209   9.376   8.926  0.3844  2.7388  1.3520
 3044SOL     OW12151   0.728   2.947   5.855  0.3288  0.6552 -0.2333
 3044SOL    HW112152   0.814   2.912   5.879  0.7467  0.7542 -1.5566
 3044SOL    HW212153   0.715   3.021   5.915  0.7387  0.0556  0.6103
 3045SOL     OW12154   3.327   4.987   1.876  0.1007 -0.4114  0.8083
 3045SOL    HW112155   3.267   4.913   1.875 -0.1013 -0.2392  0.0788
 3045SOL    HW212156   3.271   5.064   1.865  0.4152 -0.2274  0.4771
 3046SOL     OW12157   0.821   7.482   2.942  0.1198  0.0030  0.0600
 3046SOL    HW112158   0.819   7.575   2.921 -1.3707  0.0626  0.3949
 3046SOL    HW212159   0.879   7.476   3.018  3.0777  0.1699 -2.1276
 3047SOL     OW12160   4.908   0.786   2.867 -0.3827 -0.7825  0.5752
 3047SOL    HW112161   4.843   0.717   2.855 -0.6354 -0.5385  0.5406
 3047SOL    HW212162   4.895   0.844   2.792 -0.6020 -0.3470  0.9477
 3048SOL     OW12163   6.428   0.673   6.347 -0.0186 -0.0295 -0.0419
 3048SOL    HW112164   6.351   0.729   6.345  0.9752  1.3181 -1.5991
 3048SOL    HW212165   6.414   0.610   6.276  0.5135  0.5270 -0.6545
 3049SOL     OW12166   4.237   2.238   7.558 -0.2630  0.1920 -0.0736
 3049SOL    HW112167   4.257   2.147   7.580 -0.8876  0.1382  0.2757
 3049SOL    HW212168   4.165   2.232   7.495  0.1236  0.4197 -0.5350
 3050SOL     OW12169   6.859   2.102   1.517  0.1467  0.3348  0.0682
 3050SOL    HW112170   6.930   2.104   1.580  1.0052 -0.6978 -0.8472
 3050SOL    HW212171   6.848   2.010   1.495 -0.8969  0.5651 -0.4482
 3051SOL     OW12172   0.804   6.278   7.136  0.4077  0.3108  0.0579
 3051SOL    HW112173   0.766   6.330   7.065 -0.6419 -0.4170  0.0643
 3051SOL    HW212174   0.863   6.338   7.182  0.4177  1.0336 -0.8904
 3052SOL     OW12175   3.766   7.986   0.179 -0.5819 -0.2883 -0.4235
 3052SOL    HW112176   3.843   8.009   0.231 -0.7152 -1.4808  0.3221
 3052SOL    HW212177   3.692   8.008   0.235 -0.7664  0.0933 -0.8160
 3053SOL     OW12178   7.722   1.859   7.493 -0.0891 -0.1813 -0.2695
 3053SOL    HW112179   7.645   1.803   7.501 -0.2635  0.1072  0.0846
 3053SOL    HW212180   7.770   1.847   7.575 -0.0878  0.1300 -0.2231
 3054SOL     OW12181   7.934   3.531   3.624  0.2215 -0.0455 -0.3306
 3054SOL    HW112182   7.955   3.441   3.599  0.6615  0.7451 -3.0702
 3054SOL    HW212183   7.842   3.528   3.649  0.5359 -1.4622  0.6835
 3055SOL     OW12184   0.946   0.175   2.354  0.0928 -0.2399 -1.0992
 3055SOL    HW112185   0.895   0.144   2.279  0.3683 -2.6325 -0.3549
 3055SOL    HW212186   0.881   0.187   2.423  0.0403  0.4300 -1.2671
 3056SOL     OW12187   7.227   0.423   1.217  0.5056 -0.0156  0.4674
 3056SOL    HW112188   7.195   0.439   1.306 -1.3897 -2.4839  0.2836
 3056SOL    HW212189   7.148   0.409   1.165  1.5934  1.6520 -1.6891
 3057SOL     OW12190   8.635   3.160   3.526 -0.5280 -0.3282  0.0089
 3057SOL    HW112191   8.708   3.109   3.561 -0.0517  1.3530  1.5637
 3057SOL    HW212192   8.573   3.095   3.494  0.5814 -1.8496  0.8963
 3058SOL     OW12193   1.628   4.063   3.277  0.7541  0.8107 -0.4096
 3058SOL    HW112194   1.696   4.066   3.345 -0.4741  1.5620  0.8040
 3058SOL    HW212195   1.661   3.999   3.214  2.0365  0.2692  0.7667
 3059SOL     OW12196   9.056   3.289   7.752 -0.3389  0.0287  0.3931
 3059SOL    HW112197   9.122   3.349   7.720  1.0268 -0.6409  1.9303
 3059SOL    HW212198   8.990   3.344   7.794 -0.3295  0.6183 -0.3612
 3060SOL     OW12199   6.984   1.421   2.785 -0.1462  0.0667 -0.4600
 3060SOL    HW112200   6.961   1.385   2.871 -1.8783 -0.9678 -1.3374
 3060SOL    HW212201   6.961   1.352   2.723  1.8506  0.4882 -1.7114
 3061SOL     OW12202   2.618   8.021   7.289 -0.1519 -0.3004  0.0059
 3061SOL    HW112203   2.581   8.020   7.200  1.5702 -1.5277 -0.7290
 3061SOL    HW212204   2.590   8.105   7.326  0.3533  0.8999 -2.2455
 3062SOL     OW12205   4.985   4.630   3.505  0.1417 -0.4065 -0.1770
 3062SOL    HW112206   4.902   4.624   3.458  0.7628 -0.5330 -1.2645
 3062SOL    HW212207   5.026   4.709   3.471  0.1921  0.0023  0.8220
 3063SOL     OW12208   5.168   4.212   4.573  0.5158 -0.3774 -0.0327
 3063SOL    HW112209   5.246   4.266   4.578  0.0419  0.4299 -1.0455
 3063SOL    HW212210   5.188   4.134   4.625  1.3256  0.6262  1.1789
 3064SOL     OW12211   4.306   2.241   6.587 -0.0217  0.4886  0.4263
 3064SOL    HW112212   4.261   2.181   6.647  0.6387 -1.2975 -0.8323
 3064SOL    HW212213   4.370   2.187   6.542  0.2548  2.0424 -1.1095
 3065SOL     OW12214   4.311   8.510   8.081  0.1387  0.1748 -0.1374
 3065SOL    HW112215   4.377   8.544   8.140 -0.1136  1.7075 -0.7178
 3065SOL    HW212216   4.237   8.488   8.137  0.8572 -0.8380  0.4193
 3066SOL     OW12217   2.750   2.254   7.446  0.0319  0.3719  0.5446
 3066SOL    HW112218   2.833   2.296   7.424  0.8843 -0.3952  2.1875
 3066SOL    HW212219   2.773   2.163   7.464 -0.9330  0.4717  2.4324
 3067SOL     OW12220   0.021   3.022   1.995  0.3741  0.0980 -0.0930
 3067SOL    HW112221  -0.068   2.991   2.008  0.4503 -0.4260 -0.8077
 3067SOL    HW212222   0.077   2.952   2.030  0.5412 -0.5744 -1.6760
 3068SOL     OW12223   8.676   6.820   5.108  0.1621  0.2791 -0.3275
 3068SOL    HW112224   8.690   6.825   5.203  0.8586 -2.6165 -0.2125
 3068SOL    HW212225   8.747   6.871   5.070 -1.0064  2.7499  0.7139
 3069SOL     OW12226   5.540   1.724   0.756  0.3361 -0.3780 -0.1263
 3069SOL    HW112227   5.549   1.812   0.720 -0.2989 -0.8899 -1.5792
 3069SOL    HW212228   5.541   1.737   0.851  2.0612  0.9971 -0.3050
 3070SOL     OW12229   9.137   8.621   2.966 -0.4104 -0.0391 -0.3253
 3070SOL    HW112230   9.050   8.590   2.940 -0.2349  0.8535 -2.0192
 3070SOL    HW212231   9.194   8.545   2.952 -0.4740  0.1557 -1.7458
 3071SOL     OW12232   4.705   9.421   5.919  0.2585 -0.0122  0.7445
 3071SOL    HW112233   4.749   9.349   5.874  0.3220  1.2085 -1.1838
 3071SOL    HW212234   4.612   9.403   5.909  0.2752 -1.3404  2.7764
 3072SOL     OW12235   2.244   8.446   3.328 -0.0879 -0.2588  0.4311
 3072SOL    HW112236   2.308   8.509   3.363  1.4456 -0.9840 -1.0008
 3072SOL    HW212237   2.244   8.374   3.391 -0.3579  0.2659  1.0354
 3073SOL     OW12238   9.431   6.079   4.074 -0.3047 -0.1365 -0.1348
 3073SOL    HW112239   9.431   6.003   4.017  0.7707 -1.4879  1.6235
 3073SOL    HW212240   9.485   6.144   4.028  0.3382 -1.1093 -0.7713
 3074SOL     OW12241   5.200   4.597   7.353 -0.1415 -0.5357 -0.4721
 3074SOL    HW112242   5.162   4.647   7.281 -0.2387 -0.0410 -0.0809
 3074SOL    HW212243   5.132   4.599   7.421  0.4282  0.0220  0.0852
 3075SOL     OW12244   0.620   4.435   2.390  0.3408 -0.3462  0.3185
 3075SOL    HW112245   0.628   4.361   2.330 -0.4149  0.6140 -0.9879
 3075SOL    HW212246   0.542   4.415   2.442 -1.2301  0.5993 -1.6000
 3076SOL     OW12247   2.772   5.005   2.856  0.0010 -0.6807  0.7182
 3076SOL    HW112248   2.819   5.080   2.819 -0.7275  0.2170  1.5714
 3076SOL    HW212249   2.801   4.930   2.804 -0.0564  0.3533 -0.8473
 3077SOL     OW12250   4.154   9.009   4.556 -0.5713 -1.0665  0.1590
 3077SOL    HW112251   4.214   9.082   4.569  0.9578 -2.2329 -0.1087
 3077SOL    HW212252   4.104   9.003   4.637  0.2546 -0.5915  0.7071
 3078SOL     OW12253   0.576   4.856   6.910  0.4587  0.4183  0.0041
 3078SOL    HW112254   0.567   4.850   7.005  0.5844 -0.4899 -0.0358
 3078SOL    HW212255   0.487   4.871   6.878  0.0918 -1.2854  0.1346
 3079SOL     OW12256   0.914   5.616   8.277  0.1056  0.0591  0.4386
 3079SOL    HW112257   0.857   5.675   8.327  0.9701  1.0885  0.1975
 3079SOL    HW212258   0.900   5.640   8.186 -1.1483 -1.5437  0.1760
 3080SOL     OW12259   7.540   1.044   3.183  0.1054 -0.0933  0.1859
 3080SOL    HW112260   7.618   1.041   3.127  1.2144 -0.8363  1.7480
 3080SOL    HW212261   7.496   0.961   3.167  0.1497 -0.0871  0.0338
 3081SOL     OW12262   0.890   4.456   0.401  0.1588  0.0524  0.1595
 3081SOL    HW112263   0.808   4.502   0.386  0.1371 -0.4682 -1.3454
 3081SOL    HW212264   0.913   4.477   0.492 -1.0049  1.1856  0.2011
 3082SOL     OW12265   0.528   4.251   8.001  0.6380 -0.0394  0.1275
 3082SOL    HW112266   0.510   4.313   7.930 -0.6670  0.0620  0.5374
 3082SOL    HW212267   0.526   4.165   7.959  2.2347  0.1696 -0.4021
 3083SOL     OW12268   1.957   7.737   5.647  0.4160 -0.7853  0.1945
 3083SOL    HW112269   2.026   7.796   5.677  0.6300 -1.1460  0.4210
 3083SOL    HW212270   1.997   7.686   5.577 -0.3166  0.5940 -1.2677
 3084SOL     OW12271   7.150   8.554   8.111 -0.3717 -0.5116  0.5807
 3084SOL    HW112272   7.160   8.647   8.129  2.5336  0.0820 -3.3797
 3084SOL    HW212273   7.203   8.510   8.177 -0.1025  0.7363  1.2039
 3085SOL     OW12274   6.658   6.384   2.562  0.3220 -0.8399 -0.7299
 3085SOL    HW112275   6.742   6.430   2.562  0.4187 -0.9921  0.9040
 3085SOL    HW212276   6.657   6.335   2.644 -2.5152  1.3506  0.6659
 3086SOL     OW12277   8.497   0.922   2.696  0.0967  0.1324  0.2963
 3086SOL    HW112278   8.492   0.926   2.792  0.2551 -0.0880  0.3147
 3086SOL    HW212279   8.406   0.931   2.667 -0.0094 -0.3270  0.4902
 3087SOL     OW12280   9.323   7.683   2.553 -0.5850 -0.7735 -0.8943
 3087SOL    HW112281   9.257   7.681   2.623  1.4753 -1.5021  1.0953
 3087SOL    HW212282   9.323   7.774   2.523 -1.5871 -0.4731 -0.0290
 3088SOL     OW12283   6.841   6.941   2.914  0.2446 -0.1473  0.2515
 3088SOL    HW112284   6.857   6.847   2.909  0.8625 -0.0044 -0.4604
 3088SOL    HW212285   6.771   6.957   2.850  0.5450 -0.0304 -0.0466
 3089SOL     OW12286   4.530   4.221   4.432  0.5065 -0.3158  0.1982
 3089SOL    HW112287   4.617   4.261   4.434  0.7569 -0.8166 -0.2894
 3089SOL    HW212288   4.546   4.129   4.452  0.2529 -0.6619 -1.0902
 3090SOL     OW12289   2.495   8.715   5.763 -0.2852  0.3930 -0.0531
 3090SOL    HW112290   2.548   8.793   5.775  0.2835  0.2265 -1.4081
 3090SOL    HW212291   2.498   8.698   5.668 -0.5856 -1.1262  0.1961
 3091SOL     OW12292   4.360   8.451   7.212 -0.4988 -0.3093 -0.3474
 3091SOL    HW112293   4.377   8.361   7.187 -2.5305 -1.1252  1.1191
 3091SOL    HW212294   4.314   8.445   7.295 -1.3242  2.0534 -0.5951
 3092SOL     OW12295   3.698   4.883   4.406  0.5477 -0.0131 -0.5301
 3092SOL    HW112296   3.626   4.824   4.385  2.4049 -1.9872 -1.5026
 3092SOL    HW212297   3.746   4.893   4.324  1.3253  1.3520  0.0761
 3093SOL     OW12298   0.504   6.922   0.878 -0.1170  0.2691 -0.2615
 3093SOL    HW112299   0.420   6.945   0.919 -0.4668  1.3467 -1.5200
 3093SOL    HW212300   0.487   6.841   0.832 -0.1407 -0.1290  0.4365
 3094SOL     OW12301   5.466   0.331   0.627 -0.1141  0.2908 -0.1089
 3094SOL    HW112302   5.507   0.308   0.544 -0.8375  1.9350 -0.9380
 3094SOL    HW212303   5.452   0.426   0.622 -1.2295  0.2306  1.4046
 3095SOL     OW12304   4.539   3.910   6.705 -0.3766  0.4027 -0.3183
 3095SOL    HW112305   4.577   3.990   6.743 -2.9004  2.3096 -1.6721
 3095SOL    HW212306   4.611   3.870   6.656  0.9209  1.8274  0.3729
 3096SOL     OW12307   3.022   3.228   3.860 -0.7989 -0.5618  0.1596
 3096SOL    HW112308   2.995   3.299   3.918  2.1704  0.0443  0.8802
 3096SOL    HW212309   2.970   3.153   3.888 -1.0762  0.3184  2.0837
 3097SOL     OW12310   2.373   5.957   4.741  0.4320 -0.3766  0.5966
 3097SOL    HW112311   2.433   5.936   4.670  0.7273 -0.4107  0.8575
 3097SOL    HW212312   2.414   6.030   4.787  0.9560 -1.3015  1.6165
 3098SOL     OW12313   3.064   4.040   4.455 -0.4390 -0.5344 -0.4190
 3098SOL    HW112314   3.043   4.102   4.526 -0.2093 -0.6476 -0.2515
 3098SOL    HW212315   2.981   3.997   4.435 -1.1722  1.6365 -2.2890
 3099SOL     OW12316   1.981   2.756   6.116  0.0379 -0.1739 -0.2171
 3099SOL    HW112317   1.897   2.793   6.090 -1.5083 -2.5433  1.1770
 3099SOL    HW212318   1.980   2.761   6.212  1.0656 -1.0723 -0.1529
 3100SOL     OW12319   0.654   9.110   9.321 -0.2984  0.0772 -0.4894
 3100SOL    HW112320   0.569   9.153   9.328 -1.6007 -2.1721 -1.9202
 3100SOL    HW212321   0.700   9.159   9.253 -0.1791  1.7070  0.7487
 3101SOL     OW12322   3.745   7.880   2.808  0.0784 -0.4895  0.0099
 3101SOL    HW112323   3.716   7.938   2.879  0.2093  0.2353 -0.5207
 3101SOL    HW212324   3.788   7.807   2.853 -0.3907 -0.3447  0.6998
 3102SOL     OW12325   7.910   7.852   4.412 -0.6187 -0.3101 -0.0370
 3102SOL    HW112326   7.894   7.944   4.390 -0.3415 -0.0523  0.8627
 3102SOL    HW212327   7.873   7.841   4.499  0.2544 -0.8065  0.2725
 3103SOL     OW12328   1.982   3.592   3.729  0.8068  0.4645  0.1627
 3103SOL    HW112329   1.925   3.517   3.718  0.2028  0.3338  3.6522
 3103SOL    HW212330   2.059   3.572   3.676  0.2920 -2.1950  0.3858
 3104SOL     OW12331   4.479   2.901   5.996  0.0771  0.6157 -0.1149
 3104SOL    HW112332   4.517   2.908   5.909  0.9488  2.2070  0.3752
 3104SOL    HW212333   4.428   2.820   5.993  0.6180  0.3097 -1.8886
 3105SOL     OW12334   0.024   2.187   3.003 -0.4481  0.0999 -0.3066
 3105SOL    HW112335   0.029   2.216   3.095 -1.3547  1.2411 -0.6088
 3105SOL    HW212336   0.109   2.211   2.966  0.6959 -2.1741  0.7323
 3106SOL     OW12337   0.737   6.857   9.397 -0.2245 -0.7511  0.3149
 3106SOL    HW112338   0.743   6.950   9.376 -0.2540 -0.4257  1.7504
 3106SOL    HW212339   0.648   6.845   9.429  0.8822 -0.5485  3.5748
 3107SOL     OW12340   6.423   6.397   0.431  0.1237 -0.0708 -0.7188
 3107SOL    HW112341   6.509   6.362   0.452  0.4306  0.6749 -0.7600
 3107SOL    HW212342   6.426   6.415   0.337  0.1176  0.5070 -0.6097
 3108SOL     OW12343   2.320   8.981   6.707  0.3410  0.3471 -0.0127
 3108SOL    HW112344   2.300   9.012   6.619  1.3785  1.4579  0.1251
 3108SOL    HW212345   2.415   8.970   6.708  0.6068  2.3591  1.5768
 3109SOL     OW12346   6.181   3.990   3.220  0.2565 -0.1091 -0.1610
 3109SOL    HW112347   6.123   3.929   3.175  2.1204 -2.1755  0.1450
 3109SOL    HW212348   6.233   4.030   3.150 -1.3135  1.5889 -0.4138
 3110SOL     OW12349   7.506   6.744   9.049 -0.5524 -0.5886 -0.5991
 3110SOL    HW112350   7.458   6.664   9.031 -0.5554 -0.4676 -1.1637
 3110SOL    HW212351   7.480   6.769   9.137 -0.9476 -0.9264 -0.6176
 3111SOL     OW12352   3.610   9.065   8.108 -0.3350  0.2515  0.3695
 3111SOL    HW112353   3.527   9.096   8.144 -1.3167  1.7141 -2.9853
 3111SOL    HW212354   3.675   9.128   8.140 -1.0359  0.9984  0.3401
 3112SOL     OW12355   5.286   3.435   6.567 -0.0185 -0.3340  0.2806
 3112SOL    HW112356   5.217   3.394   6.619 -0.6149  1.0810  0.6231
 3112SOL    HW212357   5.280   3.393   6.481 -0.8285 -0.7183  0.5235
 3113SOL     OW12358   3.219   2.001   6.457  0.4453  0.0774 -0.3515
 3113SOL    HW112359   3.252   2.000   6.547 -0.5478  0.7689  0.0249
 3113SOL    HW212360   3.255   1.921   6.418 -0.2586 -0.9628  1.0697
 3114SOL     OW12361   5.423   1.081   7.562 -0.5984 -0.0231 -0.2428
 3114SOL    HW112362   5.448   1.109   7.650 -1.4607  2.5970 -0.8086
 3114SOL    HW212363   5.459   0.992   7.554  1.3527  0.5341  1.9520
 3115SOL     OW12364   7.713   2.053   2.553 -0.3459 -0.3363  0.0236
 3115SOL    HW112365   7.744   1.965   2.532  0.4158 -0.5208  1.7995
 3115SOL    HW212366   7.672   2.043   2.639  0.0006  1.0924  0.3613
 3116SOL     OW12367   6.541   6.016   7.583 -0.7102  0.3489  0.0823
 3116SOL    HW112368   6.587   6.082   7.531 -1.5142  1.5820  0.9139
 3116SOL    HW212369   6.558   5.933   7.537  0.7131  1.0544 -0.6924
 3117SOL     OW12370   4.436   6.063   0.941  0.3295  0.4509  0.3027
 3117SOL    HW112371   4.439   6.070   1.036  0.2741  0.5933  0.2941
 3117SOL    HW212372   4.351   6.101   0.917 -0.7643 -1.7923  0.4037
 3118SOL     OW12373   9.298   1.829   0.400 -0.7065  0.6860 -0.7411
 3118SOL    HW112374   9.332   1.819   0.311 -1.3381  1.5691 -1.0870
 3118SOL    HW212375   9.375   1.851   0.452 -0.0513 -1.3879 -0.7657
 3119SOL     OW12376   6.245   4.623   4.253  0.2567 -0.4071  0.1249
 3119SOL    HW112377   6.332   4.595   4.223  0.5469  0.3719  0.2330
 3119SOL    HW212378   6.249   4.719   4.254 -0.5828 -0.3637  0.1990
 3120SOL     OW12379   2.881   0.726   7.894  0.3162  0.2042 -0.4942
 3120SOL    HW112380   2.795   0.739   7.854  0.3126  0.3834 -0.4283
 3120SOL    HW212381   2.943   0.735   7.821  0.1862 -1.5089 -0.8429
 3121SOL     OW12382   3.352   6.871   0.507  0.7907 -0.0682  0.3256
 3121SOL    HW112383   3.342   6.961   0.476 -0.5063  0.3238  1.7748
 3121SOL    HW212384   3.432   6.872   0.560  0.5475  0.3547  0.6926
 3122SOL     OW12385   1.755   0.726   6.607  0.3158 -0.2219 -0.0129
 3122SOL    HW112386   1.780   0.651   6.661 -1.1254  0.3634  1.5420
 3122SOL    HW212387   1.688   0.692   6.548 -0.2797 -0.2103  0.6391
 3123SOL     OW12388   3.572   8.590   5.352  0.5735 -0.2278 -0.3147
 3123SOL    HW112389   3.618   8.660   5.307 -0.1611  1.5163  1.5303
 3123SOL    HW212390   3.480   8.618   5.352  0.4924 -0.3724  1.8207
 3124SOL     OW12391   4.418   4.230   5.225  0.1646  0.5419 -0.0580
 3124SOL    HW112392   4.507   4.208   5.197 -0.4425 -0.1323 -1.4807
 3124SOL    HW212393   4.385   4.289   5.158 -0.4482  0.8392  0.4970
 3125SOL     OW12394   1.033   1.921   4.310  0.4580  0.3099  0.6051
 3125SOL    HW112395   1.108   1.944   4.256 -0.0340  0.3806 -0.0548
 3125SOL    HW212396   1.066   1.857   4.372  0.9659  0.0460  0.0571
 3126SOL     OW12397   9.324   2.192   8.122 -0.2667 -0.2159  0.0273
 3126SOL    HW112398   9.374   2.111   8.124 -1.1413 -0.7319  2.0435
 3126SOL    HW212399   9.242   2.169   8.078  0.4317  0.1578 -1.5022
 3127SOL     OW12400   3.330   7.481   8.640 -0.1885  0.1141 -0.0045
 3127SOL    HW112401   3.296   7.513   8.556  0.1711  1.4179  0.3481
 3127SOL    HW212402   3.252   7.469   8.694 -0.3300  0.3213 -0.1617
 3128SOL     OW12403   5.881   1.629   4.201 -0.2982 -0.0128  0.3931
 3128SOL    HW112404   5.962   1.589   4.232  0.6260  0.5633 -1.2251
 3128SOL    HW212405   5.896   1.723   4.209 -1.1284  0.0930  0.8341
 3129SOL     OW12406   0.098   5.748   8.982 -1.1178  0.3797 -0.4642
 3129SOL    HW112407   0.040   5.737   9.057 -0.2128 -1.2898  0.0136
 3129SOL    HW212408   0.186   5.755   9.020 -0.4437 -2.2688 -1.4180
 3130SOL     OW12409   4.454   7.491   8.740 -0.2215  0.2603 -0.0545
 3130SOL    HW112410   4.375   7.443   8.762 -0.3781  0.5581  0.0488
 3130SOL    HW212411   4.424   7.579   8.719  0.3629  1.4093  3.4811
 3131SOL     OW12412   1.675   7.472   3.843 -0.2993  0.4257 -0.1721
 3131SOL    HW112413   1.703   7.388   3.805  1.7177  0.2666  1.5652
 3131SOL    HW212414   1.656   7.527   3.767 -0.8310 -1.3283 -1.3423
 3132SOL     OW12415   3.602   0.624   2.524 -0.0284  0.4332  0.3992
 3132SOL    HW112416   3.518   0.668   2.507  1.4704  3.5832  0.7774
 3132SOL    HW212417   3.662   0.695   2.547  2.7309 -1.7810  0.3061
 3133SOL     OW12418   1.028   7.377   0.264 -0.2642  0.2258  0.0616
 3133SOL    HW112419   0.962   7.440   0.292  1.2954  1.6965  0.4537
 3133SOL    HW212420   1.041   7.321   0.341  0.2627  1.0563  0.5779
 3134SOL     OW12421   2.220   2.173   5.483 -0.0055 -0.2379  0.3043
 3134SOL    HW112422   2.247   2.225   5.407  0.7210 -0.7486  0.2106
 3134SOL    HW212423   2.194   2.089   5.447 -1.2087  0.0631  0.4555
 3135SOL     OW12424   2.831   5.447   5.240 -0.1169  0.3220  0.5348
 3135SOL    HW112425   2.880   5.529   5.229 -0.8684  0.5594 -1.3629
 3135SOL    HW212426   2.739   5.474   5.239 -0.4406 -0.6700 -2.0025
 3136SOL     OW12427   8.722   6.953   8.433 -0.6699 -0.0413 -0.4650
 3136SOL    HW112428   8.757   7.037   8.463 -0.3314  0.1189 -1.3031
 3136SOL    HW212429   8.651   6.934   8.494  1.4773 -0.8420  1.8572
 3137SOL     OW12430   6.972   8.545   0.203  0.0394  0.0740  0.5037
 3137SOL    HW112431   6.986   8.609   0.134 -0.5121 -1.5273 -1.1355
 3137SOL    HW212432   6.916   8.589   0.267 -1.4010  0.7865 -1.2243
 3138SOL     OW12433   2.269   4.699   2.589 -0.0869 -0.3159 -0.2165
 3138SOL    HW112434   2.210   4.627   2.565  1.8405 -2.0131 -0.0236
 3138SOL    HW212435   2.319   4.664   2.663  1.4210  0.9627 -0.6282
 3139SOL     OW12436   6.611   4.474   5.687 -0.2359  0.1275  0.1002
 3139SOL    HW112437   6.550   4.412   5.727 -0.2769 -1.1346 -1.8599
 3139SOL    HW212438   6.557   4.522   5.623  0.1494  1.0955  0.5018
 3140SOL     OW12439   1.552   4.343   2.516 -0.1390  0.0528 -0.7490
 3140SOL    HW112440   1.619   4.410   2.530  1.4633 -1.4243 -1.1334
 3140SOL    HW212441   1.519   4.323   2.603  0.4059  0.2945 -0.4877
 3141SOL     OW12442   1.433   1.740   0.817 -0.1883 -0.7023  0.1835
 3141SOL    HW112443   1.525   1.724   0.837 -0.0246 -0.1125 -0.0666
 3141SOL    HW212444   1.434   1.814   0.756 -0.8294 -0.6427  0.2336
 3142SOL     OW12445   3.348   4.198   7.820  0.3421  0.5835  0.0148
 3142SOL    HW112446   3.255   4.219   7.823  0.2193 -0.1309  1.8884
 3142SOL    HW212447   3.392   4.279   7.847  0.3650  1.3374 -2.1553
 3143SOL     OW12448   9.398   2.043   5.758 -0.3996  0.2067  0.3157
 3143SOL    HW112449   9.492   2.037   5.778 -0.1722 -0.7385 -0.9433
 3143SOL    HW212450   9.372   1.952   5.742 -1.1847  0.6196 -0.8220
 3144SOL     OW12451   2.841   7.696   0.356  0.0109  0.0617 -0.3765
 3144SOL    HW112452   2.795   7.645   0.423  1.2147 -1.9287 -0.9934
 3144SOL    HW212453   2.904   7.748   0.404 -0.2294 -0.1463  0.1672
 3145SOL     OW12454   5.449   3.702   1.927 -0.5912  0.2434 -0.0330
 3145SOL    HW112455   5.404   3.747   1.856 -1.0849 -1.2007 -0.6463
 3145SOL    HW212456   5.426   3.751   2.006 -3.7372 -0.8410 -0.2433
 3146SOL     OW12457   4.815   4.491   2.217  0.2210 -0.5866 -0.0526
 3146SOL    HW112458   4.893   4.479   2.163 -0.3428 -2.9577 -0.3951
 3146SOL    HW212459   4.830   4.437   2.294  0.3021  1.5071  1.4426
 3147SOL     OW12460   2.089   7.109   9.131  0.0086  0.1711 -0.2566
 3147SOL    HW112461   2.077   7.178   9.065  1.8472 -0.5990 -1.4502
 3147SOL    HW212462   2.077   7.027   9.082  0.1665 -0.3875  0.6415
 3148SOL     OW12463   8.111   4.687   1.292  0.6232  0.2103 -0.5757
 3148SOL    HW112464   8.151   4.718   1.373  0.3716  0.3543 -0.5074
 3148SOL    HW212465   8.021   4.718   1.296  0.2935 -0.7587 -0.3749
 3149SOL     OW12466   6.069   2.388   5.618  0.2669 -0.4494  0.1956
 3149SOL    HW112467   6.112   2.311   5.655 -0.8670 -0.3383  1.8252
 3149SOL    HW212468   5.980   2.385   5.655 -0.1485  0.9982 -0.6562
 3150SOL     OW12469   3.311   5.111   8.985 -0.2925  0.5014 -0.3217
 3150SOL    HW112470   3.372   5.054   9.032 -0.3091  0.6146 -0.1616
 3150SOL    HW212471   3.299   5.186   9.043 -1.2503  0.0780  0.0384
 3151SOL     OW12472   0.573   8.300   1.944 -0.0390  0.3661 -0.3503
 3151SOL    HW112473   0.570   8.388   1.982  1.6133  0.3177 -0.0582
 3151SOL    HW212474   0.655   8.263   1.977 -0.6767 -1.2435 -0.5660
 3152SOL     OW12475   5.132   0.922   3.633  0.6306 -0.1064  0.2432
 3152SOL    HW112476   5.206   0.979   3.615  0.6961 -0.1950  0.2319
 3152SOL    HW212477   5.162   0.835   3.608  1.4574 -0.5653  2.7536
 3153SOL     OW12478   4.889   0.623   7.585  0.0288 -0.1391 -0.4043
 3153SOL    HW112479   4.903   0.593   7.496  1.9912  0.8183 -0.4266
 3153SOL    HW212480   4.973   0.657   7.613 -0.4626 -0.7868  1.9628
 3154SOL     OW12481   3.028   2.026   4.611 -0.2998  0.4022 -0.3552
 3154SOL    HW112482   2.988   2.047   4.526 -1.4464 -0.7710 -0.1041
 3154SOL    HW212483   2.956   2.027   4.673  0.0407 -1.8036  0.0908
 3155SOL     OW12484   3.394   0.607   5.285 -0.2208 -0.2304  0.1674
 3155SOL    HW112485   3.352   0.605   5.371 -0.3309 -0.8557  0.1010
 3155SOL    HW212486   3.467   0.545   5.293  0.8121  0.9910  0.3486
 3156SOL     OW12487   6.805   2.500   6.645 -0.6611 -0.4555 -0.0931
 3156SOL    HW112488   6.805   2.478   6.739 -1.5545 -0.5540 -0.1064
 3156SOL    HW212489   6.854   2.582   6.639  0.4925 -1.1117  0.2980
 3157SOL     OW12490   8.418   1.089   2.386 -0.2788  0.4365 -0.3513
 3157SOL    HW112491   8.363   1.164   2.409  0.3560  1.5255 -2.2456
 3157SOL    HW212492   8.498   1.102   2.437 -0.2275  0.9928 -0.5654
 3158SOL     OW12493   0.134   7.184   2.448 -0.1369 -0.6795 -0.5793
 3158SOL    HW112494   0.184   7.115   2.492  0.1944 -0.4996 -0.6750
 3158SOL    HW212495   0.177   7.265   2.474 -1.8389 -0.3408  1.2877
 3159SOL     OW12496   6.161   5.014   6.900 -0.0525 -0.6417  0.2896
 3159SOL    HW112497   6.187   5.031   6.809  1.7719  0.2810  0.9619
 3159SOL    HW212498   6.069   5.040   6.903  0.2065  0.5255 -0.9873
 3160SOL     OW12499   6.001   6.258   2.174 -0.0030  0.1660  0.0993
 3160SOL    HW112500   5.994   6.171   2.215  0.3476  0.1115  0.0455
 3160SOL    HW212501   6.095   6.268   2.156  0.3100  1.5512  2.2892
 3161SOL     OW12502   4.197   0.150   2.101  0.5432  0.3210 -0.3810
 3161SOL    HW112503   4.158   0.215   2.043 -0.4690 -1.4732 -1.7730
 3161SOL    HW212504   4.150   0.069   2.080  1.1909 -0.6741  1.9042
 3162SOL     OW12505   6.238   2.332   6.715 -0.1042  0.6406  0.1306
 3162SOL    HW112506   6.262   2.405   6.658  0.9668  0.3591  0.2155
 3162SOL    HW212507   6.194   2.270   6.657  3.7757 -1.0938 -1.0969
 3163SOL     OW12508   7.228   8.997   2.899  0.3402 -0.0307  0.2060
 3163SOL    HW112509   7.207   9.071   2.956 -0.1605 -0.1356  0.1573
 3163SOL    HW212510   7.144   8.954   2.884  0.7111 -0.9540  0.7134
 3164SOL     OW12511   1.371   2.595   0.867  0.2375  0.0234  0.0645
 3164SOL    HW112512   1.429   2.650   0.920 -0.7930 -0.6195  1.9065
 3164SOL    HW212513   1.333   2.533   0.930 -1.7202 -0.1771 -1.2729
 3165SOL     OW12514   5.749   3.834   7.825  0.3864 -0.3872 -0.0016
 3165SOL    HW112515   5.837   3.813   7.857  0.4248 -0.6775 -0.2931
 3165SOL    HW212516   5.707   3.748   7.817  0.9144 -0.4649 -2.3096
 3166SOL     OW12517   2.783   4.464   3.758 -0.3133 -0.6385  0.3027
 3166SOL    HW112518   2.779   4.441   3.665 -0.6442  0.2139  0.1006
 3166SOL    HW212519   2.692   4.461   3.787 -0.6592  2.5796 -0.2748
 3167SOL     OW12520   9.012   3.528   5.498 -0.0099  0.3753  0.0554
 3167SOL    HW112521   9.012   3.482   5.582 -1.1402  1.2997  0.5694
 3167SOL    HW212522   8.930   3.502   5.457  0.0882  0.7014 -0.3439
 3168SOL     OW12523   8.526   3.511   0.175  0.5140  0.0477 -0.0920
 3168SOL    HW112524   8.559   3.600   0.192  0.0192  0.1811  0.1754
 3168SOL    HW212525   8.592   3.472   0.117  0.2361  0.9269 -1.0212
 3169SOL     OW12526   2.261   7.928   2.262  0.2999  0.3099 -0.1409
 3169SOL    HW112527   2.259   7.923   2.358  2.3706  0.2614 -0.0837
 3169SOL    HW212528   2.345   7.970   2.242  0.9361 -1.7850 -2.0125
 3170SOL     OW12529   8.409   4.082   5.255  0.4379  0.3163 -0.2274
 3170SOL    HW112530   8.356   4.086   5.175  0.4624 -1.6568 -0.3718
 3170SOL    HW212531   8.496   4.113   5.228  0.2751  0.2715 -0.8119
 3171SOL     OW12532   3.745   7.292   6.903  0.0207 -0.3255  0.1244
 3171SOL    HW112533   3.827   7.341   6.906  0.4403 -1.0179 -0.0442
 3171SOL    HW212534   3.683   7.348   6.950  1.0987 -0.7571  2.1253
 3172SOL     OW12535   2.026   9.064   2.839  0.3193 -0.1985  0.6799
 3172SOL    HW112536   2.057   9.127   2.774  0.4753 -1.0719 -0.1098
 3172SOL    HW212537   1.948   9.024   2.798 -0.2826  0.0902  1.5295
 3173SOL     OW12538   1.705   2.942   9.329  0.6324  0.2531  0.2379
 3173SOL    HW112539   1.642   2.876   9.356 -0.0358  1.1841  0.9733
 3173SOL    HW212540   1.773   2.940   9.397 -0.7094  2.1230  1.7107
 3174SOL     OW12541   5.436   4.232   9.158 -0.0906 -0.0395  0.1606
 3174SOL    HW112542   5.512   4.238   9.216 -1.0195 -1.2401  1.5587
 3174SOL    HW212543   5.448   4.302   9.094  2.1443 -0.1807  0.4102
 3175SOL     OW12544   0.154   8.824   6.468 -0.0827  0.5075  0.3104
 3175SOL    HW112545   0.146   8.741   6.421  0.3216  1.4294 -1.4414
 3175SOL    HW212546   0.196   8.801   6.551 -0.5884 -1.1265  0.1284
 3176SOL     OW12547   1.759   0.314   1.769  0.1928 -0.6876  0.1540
 3176SOL    HW112548   1.766   0.219   1.776 -2.6426 -0.8961  0.3638
 3176SOL    HW212549   1.772   0.345   1.858  1.9297 -0.7860 -0.0399
 3177SOL     OW12550   1.933   6.366   5.365  0.0548  0.0359 -0.0270
 3177SOL    HW112551   1.886   6.282   5.367  0.7207 -0.4037 -2.2144
 3177SOL    HW212552   2.008   6.352   5.422 -1.1010 -0.0642  1.5102
 3178SOL     OW12553   0.053   5.567   3.883  0.1825 -0.4300  0.1172
 3178SOL    HW112554   0.136   5.595   3.922 -0.1862 -0.0374  0.6357
 3178SOL    HW212555   0.004   5.648   3.869 -0.2617 -0.6842  0.1735
 3179SOL     OW12556   8.259   6.082   2.297 -0.5257 -0.2776 -0.6613
 3179SOL    HW112557   8.291   6.125   2.377  0.2868 -1.1300 -0.5149
 3179SOL    HW212558   8.280   6.144   2.227 -0.0641 -0.0838 -0.3566
 3180SOL     OW12559   5.832   4.249   0.550  0.1835 -0.2170  0.1997
 3180SOL    HW112560   5.840   4.338   0.583  0.9213 -0.2646  0.1420
 3180SOL    HW212561   5.903   4.239   0.487  0.3693 -0.9837  0.5206
 3181SOL     OW12562   8.496   5.848   8.515 -0.1158  0.1142  0.6224
 3181SOL    HW112563   8.553   5.841   8.592  0.8059 -1.6826 -0.2144
 3181SOL    HW212564   8.452   5.763   8.509 -0.7463  0.4987 -0.4180
 3182SOL     OW12565   2.144   4.819   8.014 -0.2439  0.4162 -0.0501
 3182SOL    HW112566   2.231   4.855   8.002 -0.9042  1.7751 -0.9035
 3182SOL    HW212567   2.158   4.730   8.047  1.5358 -0.7422 -3.7046
 3183SOL     OW12568   1.979   5.399   2.021  0.8643 -0.2228 -0.1170
 3183SOL    HW112569   2.070   5.368   2.015  0.8732 -0.0066 -1.1030
 3183SOL    HW212570   1.977   5.478   1.968  0.8089  1.4506  2.3037
 3184SOL     OW12571   5.069   1.468   8.850 -0.6057 -0.2305  0.8284
 3184SOL    HW112572   5.143   1.460   8.790  0.9931  0.6338  2.6404
 3184SOL    HW212573   4.999   1.417   8.808  1.5152 -2.5257 -0.0901
 3185SOL     OW12574   1.171   1.905   2.601  0.0676  0.0324  0.0635
 3185SOL    HW112575   1.212   1.876   2.683  0.9138 -0.5920 -0.5711
 3185SOL    HW212576   1.238   1.892   2.535 -0.9329 -0.3818 -0.8965
 3186SOL     OW12577   1.084   7.564   1.072 -0.0726 -0.5184  0.2540
 3186SOL    HW112578   1.024   7.614   1.017  2.1268  0.9464 -0.8884
 3186SOL    HW212579   1.142   7.630   1.111  1.1241 -1.9216  0.9098
 3187SOL     OW12580   6.905   8.570   5.652  0.4198  0.4586  0.1134
 3187SOL    HW112581   6.870   8.529   5.731  1.9401  0.5949  0.8935
 3187SOL    HW212582   6.858   8.653   5.644 -0.8887 -0.2926 -0.0464
 3188SOL     OW12583   1.058   2.250   8.625  0.3671  0.1432 -0.0417
 3188SOL    HW112584   0.970   2.227   8.654  0.0259  0.4348 -0.8326
 3188SOL    HW212585   1.046   2.330   8.573  1.1177  0.2742 -0.0234
 3189SOL     OW12586   7.654   6.124   4.517  0.3339  0.5992 -0.0982
 3189SOL    HW112587   7.658   6.183   4.442  0.3249  2.5432  1.4119
 3189SOL    HW212588   7.605   6.172   4.583 -2.0636 -2.1412  0.2474
 3190SOL     OW12589   1.147   7.857   1.424  0.1260  0.6097 -0.4223
 3190SOL    HW112590   1.054   7.877   1.438  0.9014  4.2236  0.2016
 3190SOL    HW212591   1.169   7.794   1.492 -1.3100  1.6800  1.0832
 3191SOL     OW12592   5.806   2.341   1.091 -0.1000  0.0591  0.3898
 3191SOL    HW112593   5.751   2.342   1.169  1.3200 -0.5594  1.4257
 3191SOL    HW212594   5.798   2.428   1.053 -0.4161  0.5048  1.4919
 3192SOL     OW12595   6.693   8.397   8.555  0.6467  0.6029  0.0055
 3192SOL    HW112596   6.761   8.451   8.516 -0.0134 -0.5056 -2.8338
 3192SOL    HW212597   6.690   8.319   8.499  0.3850 -1.6024  2.9468
 3193SOL     OW12598   0.097   7.423   4.659 -0.0947  0.6468 -0.3361
 3193SOL    HW112599   0.024   7.483   4.646 -0.9855 -0.4535 -0.5553
 3193SOL    HW212600   0.055   7.339   4.680  1.0449 -0.3678 -1.9587
 3194SOL     OW12601   1.792   1.882   1.513 -0.1646  0.3678  0.0299
 3194SOL    HW112602   1.842   1.957   1.544  2.0256 -0.9726 -0.1772
 3194SOL    HW212603   1.855   1.830   1.462 -1.3914 -2.0567  0.9160
 3195SOL     OW12604   1.338   4.614   8.375 -0.4830 -0.2773  0.4116
 3195SOL    HW112605   1.416   4.559   8.385  0.3675  1.3071  3.0142
 3195SOL    HW212606   1.301   4.588   8.291  2.3665 -1.6928 -0.4687
 3196SOL     OW12607   9.384   1.224   7.267  0.0341  0.3981  0.3359
 3196SOL    HW112608   9.420   1.306   7.303  2.2739 -1.0544  1.5187
 3196SOL    HW212609   9.298   1.217   7.307  1.1582  0.5034  2.8956
 3197SOL     OW12610   3.239   0.924   5.968 -0.6606 -0.2054  0.0736
 3197SOL    HW112611   3.287   0.989   6.019 -0.2220  0.3356 -1.0304
 3197SOL    HW212612   3.156   0.966   5.947  1.0428  1.4435 -3.7733
 3198SOL     OW12613   9.387   1.267   2.957 -0.4769  0.3275 -0.1829
 3198SOL    HW112614   9.458   1.213   2.923 -0.8632 -0.6475  0.5380
 3198SOL    HW212615   9.415   1.291   3.046 -0.5428  0.8989 -0.3102
 3199SOL     OW12616   4.760   2.547   9.336  0.1715 -0.3964  0.0277
 3199SOL    HW112617   4.730   2.559   9.246 -1.2335 -1.0941  0.4038
 3199SOL    HW212618   4.737   2.457   9.358  1.7752 -0.6844  0.6179
 3200SOL     OW12619   6.157   4.390   1.250  0.1070 -0.1843  0.6176
 3200SOL    HW112620   6.096   4.323   1.221  0.2466 -0.0658  0.0435
 3200SOL    HW212621   6.233   4.381   1.193  1.0855 -1.0361  2.0288
 3201SOL     OW12622   6.928   8.583   0.721 -0.1162 -0.1761  0.0831
 3201SOL    HW112623   6.836   8.561   0.703 -0.4811  2.2297 -1.0234
 3201SOL    HW212624   6.924   8.661   0.776  1.3180  0.7146 -1.0618
 3202SOL     OW12625   3.091   5.783   4.535  0.1030  0.3405 -0.0573
 3202SOL    HW112626   3.006   5.812   4.502  0.7383  2.2574 -0.0695
 3202SOL    HW212627   3.151   5.796   4.462  0.4723 -0.7434  0.0406
 3203SOL     OW12628   2.009   6.298   3.506  0.0261  0.1508 -0.0433
 3203SOL    HW112629   2.016   6.266   3.596  2.0589  0.0755 -0.1976
 3203SOL    HW212630   2.091   6.345   3.490 -0.0531 -0.3097 -2.0376
 3204SOL     OW12631   6.709   6.315   3.808  0.0657  0.9314 -0.0419
 3204SOL    HW112632   6.682   6.404   3.828  1.8371  1.7925 -1.4096
 3204SOL    HW212633   6.663   6.293   3.727 -0.5888  0.4904  0.4434
 3205SOL     OW12634   7.007   2.439   1.576  0.2876  0.2401 -0.7715
 3205SOL    HW112635   7.049   2.467   1.658  1.3339 -2.1122 -0.4779
 3205SOL    HW212636   6.914   2.435   1.597  0.6152 -0.9838  0.5197
 3206SOL     OW12637   8.975   4.088   6.378 -0.1807 -0.3538 -0.2814
 3206SOL    HW112638   8.962   4.014   6.317 -1.5065  0.3897 -0.9377
 3206SOL    HW212639   8.887   4.103   6.414  0.3565  0.0440  0.8580
 3207SOL     OW12640   2.361   0.732   2.886  0.3733 -0.3441 -0.0715
 3207SOL    HW112641   2.384   0.825   2.896 -0.8087  0.0543 -0.9873
 3207SOL    HW212642   2.436   0.694   2.839  1.0128  0.0665  0.5962
 3208SOL     OW12643   1.385   6.855   2.665 -0.0568 -0.5190  0.2029
 3208SOL    HW112644   1.293   6.852   2.636 -0.3862 -0.9870  1.2813
 3208SOL    HW212645   1.419   6.767   2.647  0.6302  0.0961 -1.6092
 3209SOL     OW12646   1.293   4.983   8.389 -0.4327 -0.5133  0.1708
 3209SOL    HW112647   1.230   5.055   8.401 -0.6332 -0.7711  0.6883
 3209SOL    HW212648   1.239   4.905   8.383 -0.2030 -0.6428 -0.2417
 3210SOL     OW12649   9.262   6.036   5.299  0.3614 -0.3393 -0.2945
 3210SOL    HW112650   9.216   6.094   5.239  3.1746 -0.6975 -2.8806
 3210SOL    HW212651   9.310   6.096   5.357 -0.5873 -0.0220  0.1679
 3211SOL     OW12652   7.622   9.272   7.881  0.0242  0.0294  0.0795
 3211SOL    HW112653   7.645   9.307   7.795  0.0122  1.5004  0.6688
 3211SOL    HW212654   7.593   9.348   7.931  1.4793 -0.5716  1.8803
 3212SOL     OW12655   1.642   7.788   4.252 -0.2825 -0.1308  0.2911
 3212SOL    HW112656   1.626   7.694   4.264  1.8322 -0.4503  0.7874
 3212SOL    HW212657   1.568   7.831   4.294 -0.6079 -1.5525  1.1875
 3213SOL     OW12658   6.540   5.342   2.898 -0.4903 -0.1192 -0.1892
 3213SOL    HW112659   6.634   5.342   2.912 -0.7737  0.1084  1.7476
 3213SOL    HW212660   6.529   5.382   2.811  1.0385  2.3093  0.6905
 3214SOL     OW12661   5.238   6.115   3.587 -0.0707  0.2787 -0.1261
 3214SOL    HW112662   5.271   6.041   3.536 -2.4182  0.0029 -1.2697
 3214SOL    HW212663   5.317   6.163   3.613  1.3511 -1.4754 -1.1124
 3215SOL     OW12664   5.237   4.653   9.017  0.3571 -0.0316 -0.1785
 3215SOL    HW112665   5.208   4.688   9.101  2.3425  1.2676  0.0198
 3215SOL    HW212666   5.331   4.640   9.029  0.5999 -0.1081 -2.1109
 3216SOL     OW12667   0.099   7.783   2.854 -0.1689 -0.4059 -1.1019
 3216SOL    HW112668   0.153   7.836   2.795 -0.2309 -0.1163 -0.8941
 3216SOL    HW212669   0.131   7.693   2.841  0.4543 -0.2169 -0.8781
 3217SOL     OW12670   8.190   6.114   9.387 -0.0748  0.3524  0.6337
 3217SOL    HW112671   8.130   6.055   9.342  1.8656 -1.1780 -0.0340
 3217SOL    HW212672   8.204   6.074   9.472  0.2045  0.5717  0.6927
 3218SOL     OW12673   1.225   1.307   0.889  0.3578  0.1205 -0.2221
 3218SOL    HW112674   1.273   1.366   0.831 -0.4861  0.4333 -0.5951
 3218SOL    HW212675   1.137   1.343   0.894 -0.5503 -1.8106 -1.5048
 3219SOL     OW12676   5.895   3.979   2.037 -0.2134  0.0958  0.1660
 3219SOL    HW112677   5.865   3.912   2.098 -1.3067  0.5882  0.1743
 3219SOL    HW212678   5.815   4.013   1.997  0.4573  0.1375 -1.1677
 3220SOL     OW12679   5.189   1.813   3.646 -0.0695 -0.4152 -0.7746
 3220SOL    HW112680   5.266   1.759   3.665  0.5169  1.2569  1.9156
 3220SOL    HW212681   5.225   1.892   3.605 -0.5053 -0.3739 -1.0731
 3221SOL     OW12682   4.629   2.589   5.866 -0.5893 -0.2833 -0.1215
 3221SOL    HW112683   4.650   2.502   5.831  0.5442 -0.4329  0.8962
 3221SOL    HW212684   4.542   2.579   5.904 -0.2291 -1.1280  0.4891
 3222SOL     OW12685   3.929   1.525   6.068  0.2160  0.3813  0.1345
 3222SOL    HW112686   3.858   1.467   6.040 -0.0718  0.5416  0.5283
 3222SOL    HW212687   3.930   1.518   6.163 -0.7311  2.0705  0.2983
 3223SOL     OW12688   1.454   6.648   0.707 -0.5537 -0.0726 -0.0614
 3223SOL    HW112689   1.506   6.700   0.645  0.4247 -0.5128  0.3822
 3223SOL    HW212690   1.423   6.712   0.771 -1.5205  0.3765 -0.9673
 3224SOL     OW12691   8.792   3.337   7.229 -0.3011  0.5423  0.6111
 3224SOL    HW112692   8.822   3.246   7.224 -1.1402  0.3622 -1.5365
 3224SOL    HW212693   8.813   3.374   7.143 -0.6927  2.1527  1.1925
 3225SOL     OW12694   3.346   4.316   5.747  0.3819 -0.2636  0.3167
 3225SOL    HW112695   3.378   4.227   5.736 -1.2953 -0.8549 -0.0031
 3225SOL    HW212696   3.421   4.372   5.725  0.3123 -1.5542 -3.5884
 3226SOL     OW12697   0.907   3.060   5.144  0.3429 -0.2531  0.5144
 3226SOL    HW112698   0.864   2.974   5.147  1.4547 -0.8074  0.8187
 3226SOL    HW212699   0.835   3.122   5.138 -0.4535 -1.2345 -0.3112
 3227SOL     OW12700   6.658   3.351   4.162 -0.3331 -0.5664  0.0313
 3227SOL    HW112701   6.590   3.410   4.196 -0.3866  0.4049 -1.6940
 3227SOL    HW212702   6.621   3.263   4.173 -0.9244 -0.1920  1.1677
 3228SOL     OW12703   3.676   9.110   1.401  0.3944 -0.1981  0.1713
 3228SOL    HW112704   3.736   9.092   1.328  1.5220 -0.1493  1.0623
 3228SOL    HW212705   3.678   9.205   1.411  1.7455 -0.3514  1.4925
 3229SOL     OW12706   4.850   0.534   1.659  0.1995 -0.2240  0.0370
 3229SOL    HW112707   4.945   0.534   1.653  0.3227 -2.5001  1.5760
 3229SOL    HW212708   4.824   0.448   1.627 -1.2922  0.0082  0.5850
 3230SOL     OW12709   8.948   0.725   8.838  0.5752  0.9318 -0.0187
 3230SOL    HW112710   9.044   0.716   8.838  0.4682 -0.3312  1.4561
 3230SOL    HW212711   8.932   0.801   8.894  0.7172  1.4339 -0.6433
 3231SOL     OW12712   5.710   4.082   6.291  0.1204 -0.2911  0.0141
 3231SOL    HW112713   5.617   4.061   6.288  0.1787 -0.5946  0.3154
 3231SOL    HW212714   5.715   4.174   6.265 -0.4627  0.3172  1.9321
 3232SOL     OW12715   6.850   5.217   0.416 -0.0964  0.0365 -0.4899
 3232SOL    HW112716   6.818   5.214   0.507 -1.8467 -1.4385 -1.1301
 3232SOL    HW212717   6.773   5.241   0.365  0.6740 -0.0321 -1.6830
 3233SOL     OW12718   2.418   2.669   9.003 -0.2592 -0.3385 -0.2387
 3233SOL    HW112719   2.457   2.755   8.989 -0.3723 -0.0779  1.0277
 3233SOL    HW212720   2.325   2.682   8.984 -0.2026 -0.2945 -0.4919
 3234SOL     OW12721   6.309   2.571   6.607 -0.1847  0.6218  0.2330
 3234SOL    HW112722   6.264   2.652   6.631  1.7420  1.0294  2.7338
 3234SOL    HW212723   6.402   2.590   6.622  0.3482 -1.8163  0.2234
 3235SOL     OW12724   1.331   4.851   7.873  0.1559 -0.5743 -0.0234
 3235SOL    HW112725   1.263   4.870   7.938  0.0256  1.5613 -0.7522
 3235SOL    HW212726   1.306   4.767   7.836 -1.9248  0.0427 -0.0590
 3236SOL     OW12727   9.077   5.973   4.242 -0.2645 -0.6623  0.5649
 3236SOL    HW112728   9.015   5.901   4.247 -1.6905  0.4177 -1.0277
 3236SOL    HW212729   9.086   5.991   4.148 -0.1474  1.3924  0.9455
 3237SOL     OW12730   8.672   5.303   3.613  0.1494 -0.2010 -0.4573
 3237SOL    HW112731   8.729   5.229   3.593 -0.5267 -0.7242 -0.4471
 3237SOL    HW212732   8.716   5.378   3.573  1.1942 -0.4854  0.1413
 3238SOL     OW12733   6.173   3.129   4.992 -0.1640  0.1572  0.3285
 3238SOL    HW112734   6.217   3.072   5.056  1.0425  3.0611  2.2080
 3238SOL    HW212735   6.099   3.166   5.041  0.4211  1.9457 -0.1045
 3239SOL     OW12736   4.986   1.108   1.415  0.0328  0.2650 -0.3770
 3239SOL    HW112737   4.972   1.111   1.321 -0.8914  3.6938 -0.1878
 3239SOL    HW212738   5.081   1.097   1.424 -0.0752 -1.9380 -1.6707
 3240SOL     OW12739   2.722   1.638   7.168  0.8003 -0.0954 -0.3233
 3240SOL    HW112740   2.651   1.580   7.141  1.3182 -0.6101 -0.5878
 3240SOL    HW212741   2.716   1.640   7.264 -0.3336  0.8408 -0.4020
 3241SOL     OW12742   7.560   1.566   5.613 -0.1887 -0.2242 -0.5316
 3241SOL    HW112743   7.485   1.619   5.641  0.3133  0.5619 -0.6452
 3241SOL    HW212744   7.541   1.544   5.522 -2.0497 -3.1801  0.5108
 3242SOL     OW12745   9.271   2.661   3.679  0.3001  0.3744 -0.3823
 3242SOL    HW112746   9.176   2.657   3.664  0.1201  0.1694  0.8164
 3242SOL    HW212747   9.284   2.622   3.765  1.5017  0.2539 -0.6096
 3243SOL     OW12748   8.548   6.833   9.060 -0.8139  0.5375  0.2424
 3243SOL    HW112749   8.623   6.796   9.012 -0.6219  1.3514 -0.0904
 3243SOL    HW212750   8.586   6.904   9.113 -1.4918  1.5572 -0.6218
 3244SOL     OW12751   5.319   0.717   2.336  0.2799 -0.7553  0.1450
 3244SOL    HW112752   5.251   0.764   2.383 -0.1304 -3.0689  1.9175
 3244SOL    HW212753   5.350   0.651   2.397  3.2070 -0.6084 -1.0985
 3245SOL     OW12754   7.626   4.309   5.162 -0.3836 -0.0526  0.1285
 3245SOL    HW112755   7.556   4.284   5.102 -0.9178 -0.2614  0.8346
 3245SOL    HW212756   7.676   4.228   5.177 -0.2694 -0.0072 -0.0027
 3246SOL     OW12757   9.005   1.593   2.967  0.3993 -0.0188  0.5856
 3246SOL    HW112758   9.064   1.517   2.964  1.4408  0.8047 -1.4218
 3246SOL    HW212759   8.923   1.561   2.931 -1.0324 -1.6334  4.9892
 3247SOL     OW12760   6.990   5.615   2.858 -0.3938  0.0288 -0.7034
 3247SOL    HW112761   7.004   5.616   2.763 -0.5798 -0.8168 -0.7460
 3247SOL    HW212762   7.065   5.662   2.894  0.2040 -0.5319 -1.2054
 3248SOL     OW12763   6.285   6.323   3.323  0.3169 -0.3310  0.3954
 3248SOL    HW112764   6.294   6.332   3.418 -1.1907 -0.7443  0.5899
 3248SOL    HW212765   6.202   6.366   3.302  0.0701 -1.2464 -0.5626
 3249SOL     OW12766   3.257   2.058   6.863 -0.1645 -0.6620  0.3025
 3249SOL    HW112767   3.178   2.030   6.817 -0.6610 -0.3243  0.9340
 3249SOL    HW212768   3.233   2.055   6.956 -0.4700  2.5073  0.3811
 3250SOL     OW12769   8.328   6.596   6.044  0.0400 -0.1499  0.8286
 3250SOL    HW112770   8.344   6.690   6.049  0.4601 -0.1628 -0.3064
 3250SOL    HW212771   8.269   6.578   6.117 -1.0284  1.1900  0.2960
 3251SOL     OW12772   2.514   5.891   5.938  0.1938 -0.2648  0.3007
 3251SOL    HW112773   2.579   5.951   5.900 -0.5372  0.8747  0.8350
 3251SOL    HW212774   2.485   5.838   5.864 -0.5442  1.3320 -0.5833
 3252SOL     OW12775   5.662   3.595   0.957 -0.5959  0.3182  0.2254
 3252SOL    HW112776   5.678   3.683   0.923  1.1749 -0.3545 -0.7706
 3252SOL    HW212777   5.727   3.585   1.026 -1.0700 -0.0731  0.6168
 3253SOL     OW12778   4.209   1.154   4.928  0.4796  0.3253  0.6911
 3253SOL    HW112779   4.242   1.068   4.902  3.1367  1.0777  1.4457
 3253SOL    HW212780   4.189   1.198   4.845 -2.4603 -1.5460  0.3371
 3254SOL     OW12781   0.182   0.119   3.587 -0.0025 -0.3031 -0.0012
 3254SOL    HW112782   0.215   0.045   3.536  0.6953 -1.1453  1.6314
 3254SOL    HW212783   0.089   0.100   3.600  0.1059 -0.7400  0.1400
 3255SOL     OW12784   0.612   8.050   3.325  0.2756  0.6656 -0.3968
 3255SOL    HW112785   0.645   8.138   3.304 -0.8432  0.8926 -1.2474
 3255SOL    HW212786   0.689   8.003   3.358  1.0172  1.7755 -0.4965
 3256SOL     OW12787   2.149   0.517   6.986  0.2287 -0.9583 -0.2200
 3256SOL    HW112788   2.088   0.449   6.955 -0.3939 -0.3551 -0.3307
 3256SOL    HW212789   2.198   0.543   6.908 -0.3264 -0.4737 -0.4117
 3257SOL     OW12790   7.042   6.810   3.121 -0.0516 -0.1904 -0.3440
 3257SOL    HW112791   7.014   6.727   3.161 -0.7523  1.0341  1.7452
 3257SOL    HW212792   6.962   6.847   3.083  0.0946 -0.0661 -0.5301
 3258SOL     OW12793   6.522   8.939   0.985  0.8506  0.3439 -0.1174
 3258SOL    HW112794   6.591   8.894   1.034  0.5683 -0.2676 -0.2741
 3258SOL    HW212795   6.569   9.000   0.927  1.3362 -1.0882 -1.2600
 3259SOL     OW12796   6.986   8.447   5.399  0.5493 -0.2521 -0.1978
 3259SOL    HW112797   6.963   8.452   5.491 -0.2286  0.0115 -0.4014
 3259SOL    HW212798   6.944   8.523   5.359  2.3010  0.5864 -0.4747
 3260SOL     OW12799   4.505   0.103   0.676 -0.2604 -0.8172  0.0496
 3260SOL    HW112800   4.529   0.028   0.622 -3.8214 -2.7777  1.0214
 3260SOL    HW212801   4.409   0.104   0.675 -0.3609  1.1171  3.5512
 3261SOL     OW12802   1.387   9.040   8.533  0.2494  0.0335  0.0404
 3261SOL    HW112803   1.326   8.985   8.583  0.8861 -0.5655  0.1507
 3261SOL    HW212804   1.470   9.031   8.578  0.6154  0.2107 -0.5998
 3262SOL     OW12805   5.264   9.096   5.497 -0.5223  0.3053  0.9030
 3262SOL    HW112806   5.187   9.039   5.509 -0.7152  0.6485  1.3015
 3262SOL    HW212807   5.335   9.036   5.475 -0.9773  0.0122  0.2306
 3263SOL     OW12808   5.681   7.055   2.933 -0.1813 -0.6619  0.1037
 3263SOL    HW112809   5.740   7.090   3.000  1.3746 -2.5775 -0.2222
 3263SOL    HW212810   5.630   6.989   2.979 -0.8924 -0.2147 -0.0318
 3264SOL     OW12811   8.982   8.491   0.366 -0.4701 -0.0098 -0.8848
 3264SOL    HW112812   8.916   8.465   0.430 -1.0163  0.8258 -1.1061
 3264SOL    HW212813   9.057   8.521   0.418 -0.5689 -0.1981 -0.6367
 3265SOL     OW12814   9.169   6.664   7.090  0.0702 -0.1292 -0.0269
 3265SOL    HW112815   9.145   6.581   7.131  0.2815 -0.2875 -0.2174
 3265SOL    HW212816   9.239   6.699   7.146  0.7946 -0.6461 -0.5892
 3266SOL     OW12817   8.093   8.418   6.406  0.1697 -0.2148  0.5901
 3266SOL    HW112818   8.152   8.343   6.413  1.3166  0.6672  0.4896
 3266SOL    HW212819   8.142   8.483   6.356 -0.3168  1.0965  1.7740
 3267SOL     OW12820   7.992   2.378   2.921  0.1358  0.0317  0.0526
 3267SOL    HW112821   7.993   2.465   2.961  1.3762  0.2129 -0.3534
 3267SOL    HW212822   7.925   2.383   2.853 -0.0191  0.5741  0.2428
 3268SOL     OW12823   3.197   4.277   3.550  0.5995  0.0340  0.2714
 3268SOL    HW112824   3.185   4.328   3.469  1.9209  1.4213  0.9111
 3268SOL    HW212825   3.266   4.214   3.528  2.2306  1.5787  0.7921
 3269SOL     OW12826   8.725   8.936   3.897 -0.7126 -0.6289  0.6595
 3269SOL    HW112827   8.684   8.922   3.982  0.6271 -1.2244  1.2154
 3269SOL    HW212828   8.737   8.847   3.861  0.0369 -0.4623  0.4835
 3270SOL     OW12829   5.550   4.021   0.129  0.6978  0.2167 -0.4005
 3270SOL    HW112830   5.597   3.938   0.137  0.2922 -0.0594 -0.8578
 3270SOL    HW212831   5.562   4.063   0.215  0.6739 -0.4345 -0.0708
 3271SOL     OW12832   9.017   5.953   6.388 -0.2585 -0.5517 -0.6714
 3271SOL    HW112833   9.029   5.865   6.423  2.4237  0.0324  0.0651
 3271SOL    HW212834   8.965   5.999   6.454 -0.7194 -1.2644 -0.5381
 3272SOL     OW12835   5.250   6.683   4.203 -0.1115 -0.2541  0.1682
 3272SOL    HW112836   5.179   6.619   4.198  0.6222 -0.9768 -1.2581
 3272SOL    HW212837   5.328   6.634   4.177  0.8834  0.5875  1.5030
 3273SOL     OW12838   0.265   4.681   0.037 -0.2339 -0.1038 -0.2969
 3273SOL    HW112839   0.350   4.644   0.058 -0.1179 -0.0030 -0.5847
 3273SOL    HW212840   0.203   4.632   0.092  0.1756  0.8878  1.0819
 3274SOL     OW12841   1.886   6.240   1.510 -0.2397 -0.1346  0.3468
 3274SOL    HW112842   1.967   6.204   1.472 -0.1004  0.4643  0.0670
 3274SOL    HW212843   1.869   6.319   1.459  0.1062  0.8449  1.7158
 3275SOL     OW12844   4.854   1.167   5.580 -0.2114  0.1891  0.5156
 3275SOL    HW112845   4.890   1.201   5.498 -0.4067  2.1084  1.2087
 3275SOL    HW212846   4.760   1.158   5.563 -0.1987  0.2380  0.4162
 3276SOL     OW12847   4.672   9.233   8.993 -0.2162 -0.0294  0.5752
 3276SOL    HW112848   4.672   9.173   9.068  0.6858 -0.1846  0.4645
 3276SOL    HW212849   4.765   9.242   8.970 -0.2715  2.0761  1.1037
 3277SOL     OW12850   3.855   8.341   0.836 -0.0534  0.2568 -0.2993
 3277SOL    HW112851   3.930   8.284   0.856  1.4423  1.3322 -2.6418
 3277SOL    HW212852   3.863   8.413   0.898 -1.1090 -1.3054  1.6986
 3278SOL     OW12853   5.734   8.167   3.598 -0.1414  0.1165 -0.1422
 3278SOL    HW112854   5.662   8.130   3.649  0.2823  1.1510  1.2551
 3278SOL    HW212855   5.810   8.115   3.622  0.0994  0.7310  0.4521
 3279SOL     OW12856   7.567   0.733   3.191 -0.1883 -0.0626 -0.0033
 3279SOL    HW112857   7.640   0.724   3.253  0.4484  0.0524 -0.7148
 3279SOL    HW212858   7.598   0.688   3.112 -0.1401  1.5605 -0.9347
 3280SOL     OW12859   8.793   6.274   1.566 -0.3087  0.3690 -0.1155
 3280SOL    HW112860   8.707   6.259   1.604  0.4049 -0.4767  1.2104
 3280SOL    HW212861   8.798   6.214   1.491 -0.5001 -0.2708  0.3888
 3281SOL     OW12862   7.924   3.234   1.662  0.1742 -0.2817 -0.9653
 3281SOL    HW112863   7.932   3.326   1.636 -0.0886  0.1876  0.5594
 3281SOL    HW212864   7.843   3.205   1.622 -1.1090  0.9185  0.6767
 3282SOL     OW12865   6.536   4.842   6.342 -0.6054 -0.3084  0.8537
 3282SOL    HW112866   6.466   4.820   6.280 -1.1612  0.6939  1.1106
 3282SOL    HW212867   6.490   4.864   6.423  0.0571 -0.3926  1.2603
 3283SOL     OW12868   5.531   7.009   8.628  0.1416  0.5370  0.4094
 3283SOL    HW112869   5.550   7.096   8.662  2.5755 -0.6780  2.3587
 3283SOL    HW212870   5.510   6.957   8.705  0.7372 -1.0812 -0.4777
 3284SOL     OW12871   0.121   5.200   0.330 -0.1243  0.3582 -0.4877
 3284SOL    HW112872   0.048   5.260   0.351 -0.0106 -0.0976  1.3336
 3284SOL    HW212873   0.132   5.148   0.410  0.9578 -0.8790 -1.4321
 3285SOL     OW12874   7.005   1.613   8.293 -0.3193  0.6586 -0.8116
 3285SOL    HW112875   7.025   1.609   8.386  1.3877 -0.4624 -1.2005
 3285SOL    HW212876   6.956   1.532   8.275 -2.2412  1.7221 -0.5647
 3286SOL     OW12877   5.036   0.730   2.107 -0.0648 -0.5302 -0.3634
 3286SOL    HW112878   5.089   0.796   2.150 -0.6553 -0.8581  0.8667
 3286SOL    HW212879   4.947   0.745   2.138  0.1445 -3.3537  1.7642
 3287SOL     OW12880   8.828   7.854   6.542  0.4760 -0.2665  0.0443
 3287SOL    HW112881   8.909   7.828   6.587  0.1605 -1.7489 -0.2210
 3287SOL    HW212882   8.819   7.947   6.562  1.1507 -0.5507  1.8071
 3288SOL     OW12883   6.395   4.560   2.516  0.1669  0.1346  0.3551
 3288SOL    HW112884   6.489   4.575   2.525  0.0512  0.3794  1.1611
 3288SOL    HW212885   6.354   4.632   2.564 -0.4455  0.6298 -0.8988
 3289SOL     OW12886   3.391   7.278   1.169 -0.1082 -0.0217 -0.4308
 3289SOL    HW112887   3.460   7.225   1.127 -1.0743 -1.3027 -0.4327
 3289SOL    HW212888   3.377   7.237   1.254 -0.6865  0.3922 -0.3213
 3290SOL     OW12889   6.605   7.623   4.798  0.2107  0.7810  0.2002
 3290SOL    HW112890   6.634   7.568   4.725 -1.1836  0.2232  0.0511
 3290SOL    HW212891   6.569   7.702   4.757  0.5114  0.9866  0.3330
 3291SOL     OW12892   8.642   8.040   2.619 -0.1745  0.4469  0.8814
 3291SOL    HW112893   8.666   8.065   2.708  1.6695 -1.2335  0.8964
 3291SOL    HW212894   8.593   7.959   2.628  0.7646 -0.1937  0.3293
 3292SOL     OW12895   2.809   9.063   8.002 -0.2341 -0.4817 -0.1560
 3292SOL    HW112896   2.901   9.079   7.985  0.1246 -1.7853  0.5165
 3292SOL    HW212897   2.790   8.981   7.958 -0.7636 -0.8525  0.7567
 3293SOL     OW12898   0.126   5.744   5.063 -0.4352 -0.4880 -0.3296
 3293SOL    HW112899   0.102   5.756   4.971 -1.6478 -0.0784  0.0314
 3293SOL    HW212900   0.055   5.786   5.112  1.1142  0.9155  0.7769
 3294SOL     OW12901   8.734   6.282   5.959  0.3173 -0.1540 -0.1771
 3294SOL    HW112902   8.738   6.187   5.951  0.7715 -0.2175  0.7501
 3294SOL    HW212903   8.666   6.298   6.025 -0.3236  0.1951 -0.9135
 3295SOL     OW12904   5.682   3.292   0.989 -0.1151  0.8225 -0.2745
 3295SOL    HW112905   5.648   3.381   0.997 -4.1731 -0.6852  0.6264
 3295SOL    HW212906   5.604   3.237   0.988  2.3558 -2.8812  0.9722
 3296SOL     OW12907   4.853   1.636   7.112  0.0079 -0.4111 -0.0666
 3296SOL    HW112908   4.932   1.678   7.078  0.7200 -2.0583 -0.5356
 3296SOL    HW212909   4.862   1.639   7.207 -0.8458  2.1038 -0.0236
 3297SOL     OW12910   2.560   7.166   3.759 -0.0618  0.4286 -0.2179
 3297SOL    HW112911   2.534   7.136   3.672 -1.3339  1.0255 -0.0627
 3297SOL    HW212912   2.655   7.163   3.758 -0.1078 -1.1715 -1.0544
 3298SOL     OW12913   4.526   2.612   1.411  0.0321  0.0584 -0.1247
 3298SOL    HW112914   4.504   2.643   1.499 -1.0377  0.5595 -0.5608
 3298SOL    HW212915   4.450   2.635   1.358  0.6075 -0.3836 -1.1510
 3299SOL     OW12916   8.672   6.379   2.090 -0.3489 -0.2661  0.1698
 3299SOL    HW112917   8.693   6.469   2.115 -0.3236  0.4782 -2.3634
 3299SOL    HW212918   8.754   6.332   2.103 -0.3628  0.0641  1.5238
 3300SOL     OW12919   1.664   1.137   0.122  0.2025  0.3972 -0.0583
 3300SOL    HW112920   1.602   1.182   0.064  1.8224  2.3004 -0.3398
 3300SOL    HW212921   1.662   1.187   0.203  0.8802  0.0515  0.1728
 3301SOL     OW12922   0.176   7.129   6.528  0.0349 -0.0711 -0.5206
 3301SOL    HW112923   0.100   7.137   6.469 -2.3977  3.1337  2.8027
 3301SOL    HW212924   0.159   7.050   6.579 -1.3952  0.8522  0.4942
 3302SOL     OW12925   0.694   1.824   5.781  0.4710 -0.4782 -0.0007
 3302SOL    HW112926   0.747   1.808   5.703  1.6893 -0.9610  0.9257
 3302SOL    HW212927   0.748   1.879   5.837 -0.1727 -0.6015  0.7616
 3303SOL     OW12928   1.120   3.298   5.949  0.1318  0.4962 -0.2432
 3303SOL    HW112929   1.079   3.362   5.891  0.9694  1.2202 -0.0453
 3303SOL    HW212930   1.169   3.241   5.891 -1.0880 -0.3333 -0.4754
 3304SOL     OW12931   2.992   6.065   4.991  0.1766 -0.1092 -0.1484
 3304SOL    HW112932   3.044   6.117   4.930  1.4644 -0.0810  0.9525
 3304SOL    HW212933   2.993   6.115   5.073 -0.3629 -0.8265  0.3057
 3305SOL     OW12934   3.768   9.382   7.518 -0.0609 -0.2223 -0.4040
 3305SOL    HW112935   3.850   9.335   7.536  0.3872  0.3376 -0.9467
 3305SOL    HW212936   3.718   9.374   7.599  1.5067  1.3980  0.7712
 3306SOL     OW12937   3.029   1.459   5.898  0.2703  0.8815 -0.0528
 3306SOL    HW112938   3.101   1.434   5.956  1.1347  0.3533 -1.3225
 3306SOL    HW212939   2.952   1.462   5.954  0.9421 -0.4267  0.9584
 3307SOL     OW12940   3.230   3.317   6.607 -0.1684  0.0909  0.0009
 3307SOL    HW112941   3.205   3.247   6.667 -0.4959 -0.4087 -0.7125
 3307SOL    HW212942   3.326   3.315   6.606 -0.0724  1.3576  1.9716
 3308SOL     OW12943   2.122   7.001   4.569 -0.3971  0.2279 -0.2702
 3308SOL    HW112944   2.118   6.907   4.586 -3.1060  0.5638  1.2633
 3308SOL    HW212945   2.193   7.033   4.624 -0.4494 -0.7068  0.3481
 3309SOL     OW12946   0.808   1.664   8.237 -0.6604  0.0464 -0.1624
 3309SOL    HW112947   0.752   1.615   8.297 -2.0146  1.0483 -0.5931
 3309SOL    HW212948   0.885   1.608   8.226 -1.5974 -1.4002  0.3742
 3310SOL     OW12949   7.392   3.539   0.547 -0.6565  0.5700  0.1195
 3310SOL    HW112950   7.388   3.631   0.575 -1.9262  0.3864  0.5736
 3310SOL    HW212951   7.303   3.519   0.518 -0.2953 -0.4142 -0.3196
 3311SOL     OW12952   6.286   2.595   6.218  0.4939  0.7799  0.2432
 3311SOL    HW112953   6.328   2.634   6.295 -0.7193 -0.8545  1.7623
 3311SOL    HW212954   6.317   2.505   6.217  0.6489  0.8466 -1.3181
 3312SOL     OW12955   6.022   4.766   1.932  0.2924 -0.6236 -0.3038
 3312SOL    HW112956   6.088   4.835   1.924  0.1802 -0.3387  1.2547
 3312SOL    HW212957   6.055   4.709   2.001 -1.5631  0.0739  1.2010
 3313SOL     OW12958   6.644   1.024   6.619  0.3293  0.3975  0.0727
 3313SOL    HW112959   6.715   1.074   6.579 -0.1844  0.0212 -1.3284
 3313SOL    HW212960   6.685   0.942   6.646  0.5160  0.3528 -0.3464
 3314SOL     OW12961   8.391   9.278   6.139 -0.1126  0.0503 -0.4978
 3314SOL    HW112962   8.316   9.325   6.103 -0.5795  1.1000  1.7279
 3314SOL    HW212963   8.352   9.208   6.193  0.4660  1.0807  1.2957
 3315SOL     OW12964   0.037   3.141   1.741 -0.0692  0.3378 -0.5652
 3315SOL    HW112965   0.052   3.096   1.824  0.2061 -1.8426 -1.7652
 3315SOL    HW212966  -0.058   3.149   1.736 -0.3569 -2.8945 -1.7093
 3316SOL     OW12967   4.061   4.960   2.550 -0.2307  0.1848  0.2139
 3316SOL    HW112968   4.037   4.967   2.642 -0.4527 -0.4844  0.2098
 3316SOL    HW212969   4.154   4.981   2.548 -0.1979  0.0929  0.6115
 3317SOL     OW12970   2.545   9.262   7.946  0.1156 -0.1188 -0.3818
 3317SOL    HW112971   2.631   9.223   7.932  0.3394  0.2273 -0.0064
 3317SOL    HW212972   2.558   9.356   7.932 -0.0485  0.0157  0.3202
 3318SOL     OW12973   3.415   6.944   6.820 -0.3595 -0.0374 -0.3643
 3318SOL    HW112974   3.481   7.011   6.807  0.0984 -0.4702 -0.3091
 3318SOL    HW212975   3.464   6.862   6.820 -0.6940 -0.2610  1.1500
 3319SOL     OW12976   5.008   7.690   5.873  0.3944 -0.2993 -0.7183
 3319SOL    HW112977   4.941   7.724   5.932  0.6328  0.5522 -0.9254
 3319SOL    HW212978   4.971   7.608   5.840 -1.0222  0.6808 -1.6519
 3320SOL     OW12979   1.080   5.991   7.161  0.2607 -0.0924  0.3372
 3320SOL    HW112980   1.154   5.929   7.160 -0.6837 -1.2388  0.7577
 3320SOL    HW212981   1.030   5.968   7.083  0.2879  0.6349  0.1006
 3321SOL     OW12982   9.110   6.457   8.667 -0.6941 -0.5553  0.3865
 3321SOL    HW112983   9.154   6.432   8.586 -0.7362  2.1214 -0.5089
 3321SOL    HW212984   9.017   6.452   8.647 -0.6887  1.5017 -0.1865
 3322SOL     OW12985   1.216   5.821   7.698  0.4420 -0.2691  0.6130
 3322SOL    HW112986   1.303   5.819   7.739 -0.5767 -0.9426  2.8342
 3322SOL    HW212987   1.156   5.798   7.769 -1.8019  2.7151 -0.2293
 3323SOL     OW12988   6.446   0.004   1.694 -0.3103 -0.3301  0.2662
 3323SOL    HW112989   6.506   0.010   1.619 -0.6989 -0.5373 -0.0661
 3323SOL    HW212990   6.486   0.059   1.761  0.5286 -0.9039  0.2373
 3324SOL     OW12991   1.408   7.458   0.395 -0.3601 -0.3479 -0.0193
 3324SOL    HW112992   1.409   7.365   0.373  1.7615 -0.4410  0.3171
 3324SOL    HW212993   1.317   7.485   0.384 -0.7931 -2.2083 -1.1766
 3325SOL     OW12994   1.911   2.510   5.727  0.0838 -0.2226 -0.4064
 3325SOL    HW112995   1.944   2.578   5.669 -0.5802  0.0024 -0.5160
 3325SOL    HW212996   1.976   2.439   5.719  0.1218 -0.0958 -1.2284
 3326SOL     OW12997   0.581   4.659   9.070 -0.1404  0.3514 -0.0528
 3326SOL    HW112998   0.607   4.714   8.996  0.2367  0.9408  0.5167
 3326SOL    HW212999   0.571   4.720   9.143  0.1277 -0.3130  0.5431
 3327SOL     OW13000   3.172   0.548   8.059  0.5267 -0.8244  0.1390
 3327SOL    HW113001   3.255   0.580   8.096  0.8838 -1.0085 -0.5035
 3327SOL    HW213002   3.123   0.518   8.135  0.8303 -0.2223  0.5843
 3328SOL     OW13003   1.720   5.047   7.084  0.1333 -0.0463 -0.5509
 3328SOL    HW113004   1.782   4.974   7.093  0.7900  0.3182 -2.0098
 3328SOL    HW213005   1.634   5.005   7.084  0.4326 -0.6777  0.1932
 3329SOL     OW13006   3.336   1.707   7.920 -0.2117 -0.3780  0.4356
 3329SOL    HW113007   3.252   1.724   7.962 -0.5317 -1.4887  0.2436
 3329SOL    HW213008   3.337   1.765   7.844  0.0945  1.1697  1.6017
 3330SOL     OW13009   4.264   1.146   2.292 -0.6425  0.5375 -0.8748
 3330SOL    HW113010   4.308   1.211   2.346  0.0669 -0.5544 -0.0967
 3330SOL    HW213011   4.209   1.097   2.353 -3.2750  2.1272 -1.8969
 3331SOL     OW13012   8.751   2.703   3.798  0.1346 -0.0656 -0.3482
 3331SOL    HW113013   8.663   2.672   3.777 -0.3839  1.2626 -0.1372
 3331SOL    HW213014   8.758   2.693   3.893  0.0135  0.3532 -0.2963
 3332SOL     OW13015   5.252   5.038   1.580  0.1691  0.3376 -0.4680
 3332SOL    HW113016   5.233   4.988   1.501  0.7986 -2.1589  0.9241
 3332SOL    HW213017   5.200   4.996   1.648  0.5937  1.6913  0.7151
 3333SOL     OW13018   2.442   0.592   5.138  0.2978 -0.1583  0.3664
 3333SOL    HW113019   2.514   0.529   5.144 -0.0528 -0.5722  0.2299
 3333SOL    HW213020   2.366   0.545   5.173  0.0195  0.1592  0.1877
 3334SOL     OW13021   9.019   1.611   0.717  0.3863 -1.1245  0.0913
 3334SOL    HW113022   9.048   1.580   0.803  2.8721  1.3493  0.2242
 3334SOL    HW213023   9.077   1.568   0.655 -0.5595 -1.8942 -0.2797
 3335SOL     OW13024   0.515   7.677   0.411 -0.2193 -0.1069 -0.5177
 3335SOL    HW113025   0.594   7.629   0.389 -0.3135 -0.4841 -0.0532
 3335SOL    HW213026   0.470   7.691   0.328  0.3351  0.1035 -0.7775
 3336SOL     OW13027   8.603   4.938   6.858 -0.4258 -0.1753  0.0359
 3336SOL    HW113028   8.664   4.922   6.930  0.7938  0.4675 -0.8213
 3336SOL    HW213029   8.516   4.930   6.897  0.2194  0.2018  1.5814
 3337SOL     OW13030   0.624   1.154   0.265  0.3074 -0.0709  0.0816
 3337SOL    HW113031   0.534   1.124   0.256  0.0109  0.9641 -0.5517
 3337SOL    HW213032   0.667   1.125   0.184  0.4326 -0.1741  0.1842
 3338SOL     OW13033   3.406   2.591   9.087  0.0380  0.1094  0.7847
 3338SOL    HW113034   3.483   2.581   9.144  0.7858 -0.1571 -0.2566
 3338SOL    HW213035   3.360   2.666   9.123  0.2120 -0.3916  2.0758
 3339SOL     OW13036   6.876   2.621   2.231 -0.1568 -0.0563 -0.4209
 3339SOL    HW113037   6.808   2.672   2.187  0.8891  1.0797 -0.7478
 3339SOL    HW213038   6.842   2.607   2.320 -0.8471  0.4304 -0.6071
 3340SOL     OW13039   8.270   1.756   2.592  0.0176  0.2597  0.3771
 3340SOL    HW113040   8.283   1.848   2.568  2.2853  0.1825  1.2269
 3340SOL    HW213041   8.267   1.710   2.508 -0.1656  0.9854 -0.0241
 3341SOL     OW13042   2.316   8.550   3.628  0.1915  0.3122  0.1902
 3341SOL    HW113043   2.337   8.636   3.664 -0.8513  1.1042 -1.0837
 3341SOL    HW213044   2.285   8.500   3.704 -1.0636  1.6651  0.6028
 3342SOL     OW13045   8.292   3.317   8.343 -0.2176 -0.0843 -0.2997
 3342SOL    HW113046   8.378   3.357   8.332 -0.5098  0.5401 -0.3811
 3342SOL    HW213047   8.309   3.224   8.356  0.5142  0.1486  0.4224
 3343SOL     OW13048   2.578   0.917   4.226 -0.6030 -0.0955 -0.6734
 3343SOL    HW113049   2.661   0.877   4.254  0.1107  2.9354  1.9019
 3343SOL    HW213050   2.593   0.943   4.135  0.7073 -1.0418 -0.7352
 3344SOL     OW13051   3.588   0.789   8.421 -0.5079 -0.4756  0.4233
 3344SOL    HW113052   3.582   0.720   8.354 -0.1813  0.4341 -0.5475
 3344SOL    HW213053   3.540   0.753   8.496 -0.2274 -1.8264 -0.0179
 3345SOL     OW13054   6.802   4.870   0.971 -0.5597  0.1417  0.5062
 3345SOL    HW113055   6.811   4.965   0.980  4.6321 -0.0829 -0.6282
 3345SOL    HW213056   6.788   4.857   0.877  2.6639 -0.3044  0.0246
 3346SOL     OW13057   4.720   9.046   9.229 -0.2456  0.1429  0.3474
 3346SOL    HW113058   4.806   9.051   9.269  0.5004  0.7996 -1.2864
 3346SOL    HW213059   4.659   9.072   9.298  0.8945  0.0234  1.4046
 3347SOL     OW13060   1.765   6.584   2.865 -0.4702 -0.4725 -0.3865
 3347SOL    HW113061   1.804   6.499   2.881 -1.7901 -1.1258 -0.5706
 3347SOL    HW213062   1.720   6.607   2.946  0.8660  0.6058  0.0748
 3348SOL     OW13063   7.806   5.205   8.656 -0.0947  0.4803  0.2233
 3348SOL    HW113064   7.786   5.259   8.732 -0.5676 -0.6798  0.9432
 3348SOL    HW213065   7.873   5.144   8.687  0.6671  0.8461 -0.6693
 3349SOL     OW13066   5.663   0.151   4.832 -0.5595  0.1181  0.4791
 3349SOL    HW113067   5.681   0.131   4.740 -0.0418 -0.8966  0.7951
 3349SOL    HW213068   5.616   0.075   4.865 -0.3236  0.2715  1.1810
 3350SOL     OW13069   9.135   4.854   1.369 -0.1543 -0.2383 -0.1733
 3350SOL    HW113070   9.159   4.858   1.461  0.0604 -2.6402 -0.0924
 3350SOL    HW213071   9.218   4.857   1.322 -0.2256  0.3210 -0.2670
 3351SOL     OW13072   5.825   3.525   0.719  0.4448  0.3420  0.0427
 3351SOL    HW113073   5.744   3.478   0.740  0.7874 -0.3563 -0.1792
 3351SOL    HW213074   5.802   3.617   0.727  0.5034  0.1322  3.3376
 3352SOL     OW13075   8.405   0.877   8.552  0.1792  0.5298  0.3113
 3352SOL    HW113076   8.352   0.919   8.619  1.0268  1.8908  0.1402
 3352SOL    HW213077   8.417   0.944   8.485 -0.7550 -0.8341 -1.2816
 3353SOL     OW13078   0.440   6.407   5.890 -0.1268 -0.5613 -0.1634
 3353SOL    HW113079   0.527   6.389   5.855 -0.2850 -1.5020 -0.0836
 3353SOL    HW213080   0.413   6.488   5.846  1.4288  0.6122  0.9792
 3354SOL     OW13081   3.237   0.310   5.575  0.0351  0.2377  0.1685
 3354SOL    HW113082   3.195   0.383   5.620  2.0331  0.9082  0.9589
 3354SOL    HW213083   3.172   0.239   5.580 -0.4226  0.7871  2.7063
 3355SOL     OW13084   0.967   2.039   6.792 -0.2065  0.0428  0.0534
 3355SOL    HW113085   1.014   2.085   6.863 -0.0934  0.3600 -0.2269
 3355SOL    HW213086   0.875   2.061   6.807 -0.3487 -1.1766  1.0418
 3356SOL     OW13087   6.599   4.483   7.368 -0.3445 -0.6415  0.4854
 3356SOL    HW113088   6.679   4.435   7.346 -0.5285 -0.1187 -1.3511
 3356SOL    HW213089   6.628   4.549   7.432  0.7348 -0.3431 -0.2929
 3357SOL     OW13090   0.299   5.943   3.542 -0.1730 -0.1932 -0.8216
 3357SOL    HW113091   0.230   5.888   3.579 -0.4220  0.3372 -0.4735
 3357SOL    HW213092   0.306   6.016   3.604  1.5637 -0.8627 -0.2078
 3358SOL     OW13093   8.370   3.023   4.412  0.4862  0.0291 -0.5461
 3358SOL    HW113094   8.389   2.968   4.488  0.3736  0.5030 -0.1751
 3358SOL    HW213095   8.343   2.961   4.344  3.1141 -0.6585 -1.0247
 3359SOL     OW13096   3.674   8.270   2.747 -0.0671 -0.2427 -0.4734
 3359SOL    HW113097   3.592   8.228   2.772 -1.0508  2.3592  0.8723
 3359SOL    HW213098   3.656   8.309   2.661  0.1848 -0.7636 -0.7663
 3360SOL     OW13099   2.241   7.801   1.804  0.6110  0.5404  0.1039
 3360SOL    HW113100   2.288   7.718   1.793  1.2010  0.7623  0.9044
 3360SOL    HW213101   2.193   7.791   1.886 -1.7249 -0.1377 -1.3071
 3361SOL     OW13102   2.094   6.637   0.536 -0.0697 -0.4122 -0.4686
 3361SOL    HW113103   2.050   6.589   0.466 -0.7439 -1.8472  0.9140
 3361SOL    HW213104   2.029   6.699   0.568 -0.0187 -0.3041 -0.5721
 3362SOL     OW13105   3.563   7.516   7.002 -0.8361  0.7505 -0.6260
 3362SOL    HW113106   3.496   7.585   6.995 -0.3633  1.1835 -0.8794
 3362SOL    HW213107   3.533   7.462   7.075 -1.5154  0.8877 -0.7949
 3363SOL     OW13108   6.890   7.105   1.069  0.0952  0.0239  0.2283
 3363SOL    HW113109   6.801   7.072   1.081  0.7047 -1.2188  1.4529
 3363SOL    HW213110   6.939   7.033   1.029  0.4147  0.9117 -1.0171
 3364SOL     OW13111   0.413   5.219   3.259 -1.4102  0.2135  0.3637
 3364SOL    HW113112   0.486   5.234   3.199 -2.7869  1.5668 -0.9954
 3364SOL    HW213113   0.452   5.173   3.333  0.5517 -0.3430 -0.9903
 3365SOL     OW13114   5.256   4.596   6.522  0.3462 -0.6324  0.0369
 3365SOL    HW113115   5.269   4.691   6.525  0.3578 -0.4964 -2.7812
 3365SOL    HW213116   5.180   4.584   6.466 -1.0441 -2.2119  2.2141
 3366SOL     OW13117   6.961   6.182   7.171  0.0511  0.1650 -0.6189
 3366SOL    HW113118   7.044   6.170   7.215 -0.2044 -0.2701 -0.2475
 3366SOL    HW213119   6.925   6.093   7.164 -0.4808  0.3743 -0.5736
 3367SOL     OW13120   7.567   6.442   3.059 -0.1773 -0.0880  0.2472
 3367SOL    HW113121   7.489   6.493   3.082  0.6483  1.2221  0.2193
 3367SOL    HW213122   7.538   6.351   3.064 -1.2481  0.3066  1.9909
 3368SOL     OW13123   5.038   0.060   2.056  0.2155  0.3058  0.0719
 3368SOL    HW113124   5.057   0.153   2.064  2.1598 -0.1953  1.7256
 3368SOL    HW213125   5.106   0.026   1.997 -0.0040 -0.2262  0.1175
 3369SOL     OW13126   7.081   6.669   0.673 -0.3639 -0.0715  0.1409
 3369SOL    HW113127   7.120   6.754   0.653 -1.8070  0.6498  0.2705
 3369SOL    HW213128   7.146   6.605   0.646  1.6065  1.1163  1.9815
 3370SOL     OW13129   8.053   5.810   6.556  0.1320  0.6618 -0.3963
 3370SOL    HW113130   8.045   5.881   6.493  1.6664  2.6361  1.5668
 3370SOL    HW213131   7.997   5.836   6.629  2.6186  1.1048  1.4034
 3371SOL     OW13132   4.292   1.031   2.042  0.3622  0.3172 -0.2864
 3371SOL    HW113133   4.299   1.064   2.131  1.1720  0.1521 -0.2872
 3371SOL    HW213134   4.382   1.029   2.010 -0.0271  1.3831 -1.4738
 3372SOL     OW13135   6.162   9.015   6.295  0.4235  0.2786  0.2284
 3372SOL    HW113136   6.253   8.990   6.310  0.7645 -0.0484 -2.2287
 3372SOL    HW213137   6.145   8.993   6.204 -2.8818 -1.9646  1.2732
 3373SOL     OW13138   8.173   5.373   4.511 -0.1319 -0.2183 -0.3475
 3373SOL    HW113139   8.192   5.361   4.604 -1.4520 -1.3828 -0.2168
 3373SOL    HW213140   8.170   5.468   4.499  1.5313 -0.0425  0.4718
 3374SOL     OW13141   8.238   1.374   5.001 -0.2474  0.2619  0.2202
 3374SOL    HW113142   8.285   1.407   4.925  0.1198 -0.6097  0.0571
 3374SOL    HW213143   8.157   1.339   4.966  0.2947 -0.9081  0.1086
 3375SOL     OW13144   1.863   0.832   7.974 -0.5165  0.0401  0.0743
 3375SOL    HW113145   1.896   0.770   8.039 -0.3553  0.7417  0.6667
 3375SOL    HW213146   1.884   0.792   7.890 -0.7990 -0.9151  0.4555
 3376SOL     OW13147   3.144   3.467   6.163  0.2435 -0.3809 -0.2638
 3376SOL    HW113148   3.198   3.429   6.094 -1.4858 -1.9277 -0.8088
 3376SOL    HW213149   3.152   3.406   6.236 -1.9234 -1.4261 -0.8671
 3377SOL     OW13150   5.504   0.695   4.366 -0.1245 -0.4367 -0.4303
 3377SOL    HW113151   5.512   0.692   4.461 -0.0214 -1.3266 -0.4620
 3377SOL    HW213152   5.551   0.618   4.335 -0.0618 -0.0927 -1.2099
 3378SOL     OW13153   7.518   5.918   1.861  0.8142  0.2832 -0.0737
 3378SOL    HW113154   7.516   5.947   1.770 -2.1826  1.8163  0.4278
 3378SOL    HW213155   7.458   5.843   1.863  0.3940  0.6423  0.7590
 3379SOL     OW13156   7.967   8.101   5.554 -0.4575  0.1070  0.4796
 3379SOL    HW113157   7.992   8.145   5.473  1.1125 -0.7241  0.4922
 3379SOL    HW213158   8.045   8.106   5.609  0.1193 -3.4405  0.1429
 3380SOL     OW13159   7.217   8.455   4.519  0.4527  0.1185  0.1797
 3380SOL    HW113160   7.197   8.543   4.552 -0.9870  0.6983 -2.1765
 3380SOL    HW213161   7.307   8.461   4.487 -0.0649  1.0985 -1.1252
 3381SOL     OW13162   5.225   0.513   0.976  0.1678  0.4530  0.3986
 3381SOL    HW113163   5.257   0.575   0.911 -0.5140  1.2766  0.8378
 3381SOL    HW213164   5.241   0.427   0.937 -2.0007  0.9671 -1.7149
 3382SOL     OW13165   7.252   4.243   2.680  0.1660  0.2339  0.3355
 3382SOL    HW113166   7.206   4.314   2.724 -1.0631 -1.1076  1.2663
 3382SOL    HW213167   7.190   4.210   2.615  0.2091 -0.8758  0.8412
 3383SOL     OW13168   6.297   8.897   8.640 -0.2552 -0.2055  0.4698
 3383SOL    HW113169   6.242   8.848   8.579 -1.4604  0.7708  0.7511
 3383SOL    HW213170   6.240   8.966   8.673  1.1723  0.8891  0.6929
 3384SOL     OW13171   5.728   0.453   8.152  0.3833 -0.9365  0.7117
 3384SOL    HW113172   5.690   0.395   8.218 -0.1014  0.8775  2.0642
 3384SOL    HW213173   5.670   0.529   8.151  1.7497  0.1121 -0.0909
 3385SOL     OW13174   7.988   3.518   2.574 -0.2930 -0.4454  0.4744
 3385SOL    HW113175   7.909   3.468   2.595  0.0960 -1.3321 -0.1458
 3385SOL    HW213176   7.956   3.607   2.558 -1.0107 -0.5268  1.4117
 3386SOL     OW13177   8.097   5.738   1.213  0.1215 -0.1340  0.3274
 3386SOL    HW113178   8.135   5.654   1.240  1.5243  0.3752  0.0228
 3386SOL    HW213179   8.100   5.792   1.292  1.7420  0.4833 -0.1189
 3387SOL     OW13180   4.470   8.251   6.901 -0.1855 -0.2986  0.0573
 3387SOL    HW113181   4.463   8.198   6.980 -3.3432  0.9385  0.6755
 3387SOL    HW213182   4.446   8.191   6.830 -0.2700 -0.6275  0.3614
 3388SOL     OW13183   2.424   6.297   2.555  0.4996  0.3063  0.5140
 3388SOL    HW113184   2.370   6.321   2.630 -0.7037  1.9481 -0.8312
 3388SOL    HW213185   2.366   6.242   2.502  1.6924 -1.7228  1.2803
 3389SOL     OW13186   6.044   3.869   7.888 -0.1754 -0.2124  0.0708
 3389SOL    HW113187   6.108   3.914   7.832  0.1659 -0.6900  0.0697
 3389SOL    HW213188   6.082   3.782   7.902 -0.3596 -0.1607  0.8866
 3390SOL     OW13189   1.883   3.625   6.735  0.0579  0.1049  0.2802
 3390SOL    HW113190   1.839   3.706   6.763  1.6102  0.7880  0.7887
 3390SOL    HW213191   1.892   3.574   6.815 -0.1187 -0.1869  0.1139
 3391SOL     OW13192   4.749   8.974   1.768  0.1741 -0.5639  0.1999
 3391SOL    HW113193   4.820   8.964   1.705 -0.5563 -1.0769 -0.5516
 3391SOL    HW213194   4.793   8.978   1.853  1.0086 -2.3135 -0.1350
 3392SOL     OW13195   4.121   1.941   1.839 -0.0746  0.1671 -0.5405
 3392SOL    HW113196   4.158   1.994   1.769  0.6319  0.6155  0.1637
 3392SOL    HW213197   4.162   1.855   1.829  1.7787  0.8644  0.6915
 3393SOL     OW13198   0.442   0.290   1.750 -0.4249  0.1452 -0.1299
 3393SOL    HW113199   0.465   0.262   1.838 -0.4330  0.2900 -0.0806
 3393SOL    HW213200   0.515   0.261   1.696 -0.5808 -0.2434 -0.1313
 3394SOL     OW13201   3.353   7.501   7.432  0.3459  0.7956 -0.3113
 3394SOL    HW113202   3.362   7.582   7.481 -2.4176  0.6194  0.5630
 3394SOL    HW213203   3.319   7.438   7.496  0.2615 -0.4336 -1.5428
 3395SOL     OW13204   0.920   4.102   7.614  0.4244 -0.6093  0.2743
 3395SOL    HW113205   0.994   4.132   7.666  0.3675  2.5935 -1.3677
 3395SOL    HW213206   0.858   4.175   7.617 -1.8122 -2.4441 -0.0179
 3396SOL     OW13207   8.112   6.652   4.874 -0.1540  0.0025 -0.1861
 3396SOL    HW113208   8.110   6.600   4.794 -1.1079  1.8969 -1.4223
 3396SOL    HW213209   8.025   6.640   4.913 -1.3050  2.6279 -1.8043
 3397SOL     OW13210   4.628   2.938   1.479 -0.6596 -0.1689  0.0109
 3397SOL    HW113211   4.655   2.999   1.548 -1.4629 -0.6555  0.7637
 3397SOL    HW213212   4.597   2.861   1.526 -0.6272 -0.7514 -0.9173
 3398SOL     OW13213   1.485   8.930   4.206  0.4997 -0.3143  0.1408
 3398SOL    HW113214   1.530   8.896   4.283  1.1434 -0.9390 -0.5028
 3398SOL    HW213215   1.524   8.883   4.132  0.5721  0.9827 -0.6558
 3399SOL     OW13216   4.521   9.059   8.825  0.1057  0.2863 -0.3153
 3399SOL    HW113217   4.433   9.081   8.794  0.1403 -0.3096 -0.8453
 3399SOL    HW213218   4.534   9.115   8.900 -0.8365  0.2029 -0.0773
 3400SOL     OW13219   6.884   4.312   8.146 -0.4636  0.1723 -0.4838
 3400SOL    HW113220   6.888   4.252   8.071 -2.8408  1.2351 -1.5250
 3400SOL    HW213221   6.924   4.393   8.114 -0.0744  0.1323 -0.0962
 3401SOL     OW13222   5.848   1.493   8.960  0.1194  0.4188 -0.3994
 3401SOL    HW113223   5.896   1.507   9.042 -1.2234  1.4813  0.2105
 3401SOL    HW213224   5.789   1.420   8.979  0.6343 -0.1046 -0.7901
 3402SOL     OW13225   6.191   6.261   3.926  0.6517 -0.5950 -0.3089
 3402SOL    HW113226   6.259   6.201   3.955  0.0938 -1.3389 -0.5162
 3402SOL    HW213227   6.134   6.271   4.003  0.7589 -0.3212 -0.2679
 3403SOL     OW13228   4.890   4.999   6.292  0.6211  0.1994 -0.5883
 3403SOL    HW113229   4.916   5.073   6.346 -1.5801  1.3734 -1.0570
 3403SOL    HW213230   4.813   4.962   6.336  0.4759 -0.5326 -1.4264
 3404SOL     OW13231   9.431   3.692   0.085  0.9029  0.5370  0.7822
 3404SOL    HW113232   9.481   3.625   0.132  0.4983  0.0331  0.4984
 3404SOL    HW213233   9.411   3.652   0.000  0.0317  0.7408  0.8918
 3405SOL     OW13234   2.039   8.682   4.475  0.2158 -0.6175  0.1068
 3405SOL    HW113235   1.990   8.716   4.550 -0.7085  0.5744 -1.0005
 3405SOL    HW213236   2.104   8.750   4.457 -1.8595  0.7999 -2.3367
 3406SOL     OW13237   1.724   5.931   3.202  0.2306 -0.2930 -0.0251
 3406SOL    HW113238   1.634   5.944   3.232 -0.1428 -1.0810 -0.7870
 3406SOL    HW213239   1.769   6.011   3.228 -0.9762  0.6380 -0.7310
 3407SOL     OW13240   6.373   4.141   7.406  0.0203 -0.0640  0.0214
 3407SOL    HW113241   6.359   4.166   7.498 -0.0968  0.1923 -0.0656
 3407SOL    HW213242   6.364   4.222   7.357  3.0121  0.3692  0.0613
 3408SOL     OW13243   4.542   1.921   2.150 -0.3372 -0.2234 -0.2108
 3408SOL    HW113244   4.611   1.893   2.211 -0.2830  0.2558 -0.0435
 3408SOL    HW213245   4.567   2.010   2.126 -1.1106  0.1031  0.1701
 3409SOL     OW13246   8.026   3.519   7.201 -0.6667  0.3814 -0.3039
 3409SOL    HW113247   8.053   3.510   7.110 -0.5237  0.1647 -0.2410
 3409SOL    HW213248   8.094   3.573   7.241  0.3033 -1.1163  0.1223
 3410SOL     OW13249   4.412   7.606   6.620  0.0405 -1.0043  0.1284
 3410SOL    HW113250   4.470   7.561   6.558 -0.2735 -2.6499  0.9935
 3410SOL    HW213251   4.468   7.673   6.660 -0.0514  0.8502 -2.7115
 3411SOL     OW13252   7.778   8.679   7.008 -0.3167 -0.5707 -0.3841
 3411SOL    HW113253   7.822   8.617   7.066  0.7396  1.4877  1.0640
 3411SOL    HW213254   7.835   8.684   6.931 -0.2607 -1.1866 -0.3862
 3412SOL     OW13255   2.529   8.612   2.615  0.5992  0.1571  0.1139
 3412SOL    HW113256   2.472   8.541   2.646  0.5703 -0.3825 -1.1656
 3412SOL    HW213257   2.617   8.584   2.638  0.5581 -0.1393 -0.0886
 3413SOL     OW13258   1.869   5.557   6.276 -0.1196 -0.4728  0.0908
 3413SOL    HW113259   1.916   5.558   6.360  0.5929 -0.0401 -0.3042
 3413SOL    HW213260   1.938   5.555   6.211 -0.6136 -4.9258 -0.5073
 3414SOL     OW13261   9.388   9.235   3.150 -0.2561 -0.0926 -0.2651
 3414SOL    HW113262   9.297   9.250   3.178  0.1837  0.1466  1.0880
 3414SOL    HW213263   9.399   9.290   3.072 -1.3690 -0.3799 -0.6285
 3415SOL     OW13264   2.516   5.648   3.610  0.1593 -0.7675  0.3074
 3415SOL    HW113265   2.518   5.723   3.669  0.2796  0.2025 -0.9150
 3415SOL    HW213266   2.567   5.675   3.534  1.4173 -2.6095  0.4401
 3416SOL     OW13267   8.418   4.064   3.744 -0.4196  0.4414 -0.1089
 3416SOL    HW113268   8.333   4.094   3.712 -1.2120 -0.1541  1.3961
 3416SOL    HW213269   8.402   4.039   3.835  1.7323  1.9034  0.7128
 3417SOL     OW13270   8.173   7.605   0.057  0.0067  0.5638  0.2283
 3417SOL    HW113271   8.145   7.551  -0.017  1.4052 -0.7020  0.5831
 3417SOL    HW213272   8.097   7.607   0.115  0.0961 -1.5451  0.4708
 3418SOL     OW13273   3.843   2.096   6.304  0.3797  0.4028 -0.0397
 3418SOL    HW113274   3.894   2.015   6.302  0.2838  0.3508 -1.1165
 3418SOL    HW213275   3.754   2.068   6.327  0.7611  0.4559  1.5409
 3419SOL     OW13276   7.579   2.048   2.783  0.1946 -0.4741  0.2155
 3419SOL    HW113277   7.495   2.004   2.793 -0.7171  1.5961  1.9168
 3419SOL    HW213278   7.610   2.062   2.873  1.0288  1.2868 -0.3173
 3420SOL     OW13279   8.829   3.427   9.129  0.3287  0.0414 -0.6673
 3420SOL    HW113280   8.833   3.332   9.120  1.0295  0.0133 -0.1020
 3420SOL    HW213281   8.735   3.447   9.129  0.1334 -0.7987  0.5746
 3421SOL     OW13282   7.230   2.542   9.170  0.0348  0.1325 -0.0121
 3421SOL    HW113283   7.275   2.622   9.198 -0.6051  0.1510  1.0246
 3421SOL    HW213284   7.289   2.471   9.198  0.5912  0.2278 -0.9109
 3422SOL     OW13285   6.630   1.242   0.715 -0.1377 -0.5443  0.9011
 3422SOL    HW113286   6.646   1.184   0.641 -1.1951  1.1638 -0.7055
 3422SOL    HW213287   6.716   1.279   0.735  0.4247 -2.1559  1.5218
 3423SOL     OW13288   8.842   1.969   6.461 -0.0296 -0.6517 -0.3740
 3423SOL    HW113289   8.862   1.948   6.553  3.2650  2.1557 -0.3580
 3423SOL    HW213290   8.881   1.897   6.412  1.4312 -0.3148  0.2571
 3424SOL     OW13291   5.349   4.512   0.948  0.3558  0.5039  0.1793
 3424SOL    HW113292   5.436   4.552   0.941  0.0223  1.2198  0.0146
 3424SOL    HW213293   5.331   4.508   1.042  1.9842 -2.8036  0.3989
 3425SOL     OW13294   1.454   5.894   6.099  0.1617  0.1661  0.1684
 3425SOL    HW113295   1.492   5.873   6.184  2.0120  1.4340 -0.3216
 3425SOL    HW213296   1.436   5.809   6.059  2.8488 -0.4782  0.2657
 3426SOL     OW13297   2.602   8.966   5.787 -0.0981 -0.0892  0.1418
 3426SOL    HW113298   2.552   8.977   5.706  2.5785 -0.0950 -1.6115
 3426SOL    HW213299   2.632   9.055   5.808  0.3060 -0.2747  0.3600
 3427SOL     OW13300   1.585   3.095   0.687  0.1214 -0.1866 -0.1468
 3427SOL    HW113301   1.525   3.023   0.666  0.7986 -0.9221  0.4232
 3427SOL    HW213302   1.671   3.054   0.692  0.7092  0.8902 -1.1327
 3428SOL     OW13303   0.423   8.322   9.214  0.2956 -0.9532  0.3633
 3428SOL    HW113304   0.515   8.332   9.240  0.6013 -0.3664 -0.8900
 3428SOL    HW213305   0.422   8.244   9.158 -0.1466 -1.5411  1.1914
 3429SOL     OW13306   2.399   4.402   7.824  0.4660  0.0516  0.0878
 3429SOL    HW113307   2.308   4.409   7.855 -0.4484  0.1012 -2.5087
 3429SOL    HW213308   2.420   4.491   7.795  1.3722  0.0418  0.7054
 3430SOL     OW13309   2.785   5.743   1.633 -0.7647  0.0057 -0.5405
 3430SOL    HW113310   2.744   5.728   1.718  0.1997  1.4741  0.2067
 3430SOL    HW213311   2.832   5.661   1.615 -3.1001 -1.2986 -0.9248
 3431SOL     OW13312   5.117   0.705   7.038 -0.0990 -0.2940 -0.5154
 3431SOL    HW113313   5.181   0.736   7.101 -2.1664 -1.5966  2.3487
 3431SOL    HW213314   5.166   0.645   6.981  1.4122 -0.5721  1.0399
 3432SOL     OW13315   7.912   5.821   3.899  0.1431 -0.0450  0.0496
 3432SOL    HW113316   7.818   5.818   3.879 -0.3840 -3.2232  2.6699
 3432SOL    HW213317   7.919   5.886   3.969 -0.0817  0.2243 -0.1739
 3433SOL     OW13318   4.649   1.942   0.718  0.0752  0.4453  0.3094
 3433SOL    HW113319   4.697   1.869   0.679  0.4225 -0.2792  2.0668
 3433SOL    HW213320   4.703   1.970   0.791 -0.4178  2.0040  0.0929
 3434SOL     OW13321   6.141   5.867   0.681 -0.5943  0.2179 -0.5323
 3434SOL    HW113322   6.138   5.776   0.649  0.4868 -0.0599  0.1143
 3434SOL    HW213323   6.057   5.904   0.655 -2.1876 -1.7674  1.5739
 3435SOL     OW13324   2.227   0.604   1.560 -0.3249 -0.2211 -0.1271
 3435SOL    HW113325   2.186   0.555   1.631 -0.6574  0.5121  0.1875
 3435SOL    HW213326   2.158   0.616   1.496 -0.6979  1.2708  0.5338
 3436SOL     OW13327   7.172   4.107   0.999 -0.1053  0.2659 -0.1263
 3436SOL    HW113328   7.147   4.123   1.090  1.6552  1.3168  0.2037
 3436SOL    HW213329   7.267   4.120   0.998 -0.0397 -0.2359 -2.0115
 3437SOL     OW13330   7.833   4.911   5.301 -0.2205 -0.2438 -0.2502
 3437SOL    HW113331   7.910   4.900   5.245 -0.0229 -0.6217  0.0930
 3437SOL    HW213332   7.771   4.845   5.269  0.6773 -1.8698  1.3143
 3438SOL     OW13333   0.132   6.655   3.440  0.1186  0.2754 -0.3977
 3438SOL    HW113334   0.133   6.735   3.491 -1.7317 -0.0613  0.2118
 3438SOL    HW213335   0.152   6.586   3.502 -4.4246 -0.4083  0.5011
 3439SOL     OW13336   8.968   0.022   3.018  0.0713 -0.0315  0.2507
 3439SOL    HW113337   8.981   0.111   2.987 -0.3775  0.2145  0.7607
 3439SOL    HW213338   9.043   0.005   3.076  1.1300 -0.6366 -1.2657
 3440SOL     OW13339   0.528   8.310   0.435  0.5469 -0.1346 -0.6237
 3440SOL    HW113340   0.604   8.264   0.472  0.7259  0.6938  0.0628
 3440SOL    HW213341   0.455   8.284   0.492 -0.0383 -2.2453 -2.2659
 3441SOL     OW13342   0.572   9.094   4.437 -0.1227  1.0676  0.1504
 3441SOL    HW113343   0.663   9.123   4.440  0.3842 -0.0475 -2.6073
 3441SOL    HW213344   0.570   9.016   4.492  0.8073  0.6261 -0.4211
 3442SOL     OW13345   6.663   6.867   1.480  0.3717  0.3271  0.3722
 3442SOL    HW113346   6.594   6.803   1.464  1.4833 -0.3909 -1.5980
 3442SOL    HW213347   6.725   6.822   1.538  1.2041 -0.4269 -1.0929
 3443SOL     OW13348   2.894   4.105   8.006 -0.1336 -0.2491 -0.2731
 3443SOL    HW113349   2.817   4.147   7.970  0.0262 -1.2020 -1.7649
 3443SOL    HW213350   2.965   4.167   7.991 -0.5694  0.6052  1.0577
 3444SOL     OW13351   5.266   2.166   6.199  0.0276 -0.1468 -0.4836
 3444SOL    HW113352   5.347   2.143   6.154  0.5076  0.3092  0.1405
 3444SOL    HW213353   5.227   2.235   6.145 -0.3860 -0.9868 -1.2546
 3445SOL     OW13354   2.187   0.030   7.116  0.3718 -0.0655 -0.4103
 3445SOL    HW113355   2.138   0.111   7.103  0.7872  0.1725 -0.4870
 3445SOL    HW213356   2.198   0.024   7.211  1.9141  0.9039 -0.5114
 3446SOL     OW13357   1.912   4.968   8.212 -0.0780  0.3313  0.6927
 3446SOL    HW113358   1.974   4.953   8.141  0.7188  1.9283  1.0241
 3446SOL    HW213359   1.838   5.013   8.170 -1.2979 -2.0225  0.1987
 3447SOL     OW13360   8.603   5.705   0.096 -0.3632  0.3696  0.0938
 3447SOL    HW113361   8.672   5.713   0.030  0.2052  1.6432  0.8263
 3447SOL    HW213362   8.620   5.621   0.139 -0.6306 -0.3824 -1.2479
 3448SOL     OW13363   5.613   3.977   3.122  0.1392  0.2248  0.6296
 3448SOL    HW113364   5.594   3.884   3.114  0.3040  0.2478 -0.1588
 3448SOL    HW213365   5.581   4.002   3.209  0.4944 -0.6586  1.0152
 3449SOL     OW13366   6.826   7.939   7.088  0.9914 -0.0454 -0.4757
 3449SOL    HW113367   6.732   7.932   7.107  0.6671 -0.2159 -2.1070
 3449SOL    HW213368   6.866   7.958   7.173 -0.6746  1.4171  0.0097
 3450SOL     OW13369   6.409   7.370   1.703 -0.0021 -0.1906  0.7003
 3450SOL    HW113370   6.448   7.294   1.661 -0.8556 -0.4205  0.3309
 3450SOL    HW213371   6.465   7.386   1.779  0.8666 -0.4668  0.1290
 3451SOL     OW13372   1.375   7.158   1.096  0.4140  0.2927 -0.5939
 3451SOL    HW113373   1.406   7.200   1.177 -1.1058  0.5894 -0.1563
 3451SOL    HW213374   1.360   7.230   1.035  0.0225  0.2061 -0.6028
 3452SOL     OW13375   0.616   5.555   4.345  0.0281 -0.0234  0.7344
 3452SOL    HW113376   0.540   5.560   4.402  0.1909  2.0881  0.7838
 3452SOL    HW213377   0.673   5.627   4.374  1.3744 -0.6625 -0.2572
 3453SOL     OW13378   1.968   8.208   4.181 -0.4217  0.5322 -0.4376
 3453SOL    HW113379   1.977   8.145   4.253 -2.2273 -0.2163 -0.8303
 3453SOL    HW213380   2.008   8.164   4.106 -1.7184 -0.1850 -0.7216
 3454SOL     OW13381   2.311   5.983   0.018  0.1131 -0.2073 -0.7646
 3454SOL    HW113382   2.261   5.918   0.069  0.6084  0.2522  0.3222
 3454SOL    HW213383   2.283   6.067   0.054  2.4850  0.0143  0.6407
 3455SOL     OW13384   8.880   8.571   2.901  0.2087  0.1579 -0.4261
 3455SOL    HW113385   8.817   8.615   2.844 -1.6815 -1.6868  0.1855
 3455SOL    HW213386   8.857   8.601   2.989 -0.3565 -1.1351 -0.1201
 3456SOL     OW13387   4.728   6.579   5.188 -0.3608 -0.0702  0.2426
 3456SOL    HW113388   4.654   6.605   5.132 -0.2944 -1.5981 -0.5768
 3456SOL    HW213389   4.803   6.626   5.152 -0.7069  0.5703  0.3485
 3457SOL     OW13390   1.171   4.032   7.153  0.5469  0.1518 -0.0048
 3457SOL    HW113391   1.129   4.028   7.239  0.3238  1.7721 -0.0114
 3457SOL    HW213392   1.151   3.948   7.112 -1.5484  0.3645  0.5289
 3458SOL     OW13393   6.497   7.171   2.070  0.2878 -0.4809  0.5925
 3458SOL    HW113394   6.499   7.238   2.002  0.2847 -0.9824  0.1012
 3458SOL    HW213395   6.436   7.104   2.037  1.7938 -1.6756  0.1983
 3459SOL     OW13396   8.388   4.505   9.013 -0.1762  0.3868  0.4448
 3459SOL    HW113397   8.435   4.436   8.965 -1.1739 -1.5049  2.1221
 3459SOL    HW213398   8.297   4.496   8.986 -0.4421  0.5199  1.2770
 3460SOL     OW13399   4.559   7.937   5.976  0.9771  0.1827 -0.7957
 3460SOL    HW113400   4.525   8.021   6.009  0.1939  0.2698 -1.7955
 3460SOL    HW213401   4.552   7.878   6.051  0.6709  0.7736 -0.3491
 3461SOL     OW13402   7.266   0.394   7.375 -0.5278 -0.6826  0.2060
 3461SOL    HW113403   7.238   0.419   7.463 -1.5883 -1.2294  0.0309
 3461SOL    HW213404   7.185   0.375   7.328 -0.0198  0.4287 -1.1540
 3462SOL     OW13405   0.693   3.673   2.805  0.2463  0.5143  0.6726
 3462SOL    HW113406   0.776   3.721   2.801  0.2880  0.3590 -0.5596
 3462SOL    HW213407   0.719   3.581   2.811  0.1900  0.3480 -1.2511
 3463SOL     OW13408   3.529   0.570   9.243  0.2493 -0.2992  0.2747
 3463SOL    HW113409   3.514   0.477   9.224  1.3938 -0.4016 -0.1594
 3463SOL    HW213410   3.624   0.579   9.245  0.1473  0.7631  0.8454
 3464SOL     OW13411   4.786   5.592   3.084 -0.0626  0.4177  0.3725
 3464SOL    HW113412   4.730   5.653   3.133 -1.5082 -1.0319  0.5855
 3464SOL    HW213413   4.725   5.524   3.054  1.9436 -2.5780  2.7672
 3465SOL     OW13414   5.297   6.625   8.843 -0.1172 -0.0285 -0.1379
 3465SOL    HW113415   5.309   6.532   8.861 -0.8686 -0.2458 -0.7169
 3465SOL    HW213416   5.235   6.628   8.770 -0.2398  0.9311 -0.0122
 3466SOL     OW13417   0.024   0.329   6.105  1.1886  1.1277 -0.1269
 3466SOL    HW113418   0.095   0.382   6.140  1.7713  1.4282 -1.7289
 3466SOL    HW213419  -0.048   0.391   6.093  0.5390  0.7630  1.7903
 3467SOL     OW13420   1.794   6.063   9.410 -0.2670 -0.1392  0.3321
 3467SOL    HW113421   1.741   6.001   9.360  0.0424  0.0761 -0.2675
 3467SOL    HW213422   1.762   6.055   9.499 -0.5718 -0.7970  0.1649
 3468SOL     OW13423   8.142   3.434   3.850  0.0494  0.3176  0.2025
 3468SOL    HW113424   8.223   3.415   3.896  0.4359  0.3026 -0.4770
 3468SOL    HW213425   8.167   3.497   3.782 -0.1776 -0.9497 -1.0828
 3469SOL     OW13426   1.301   2.130   3.760  0.3501  0.0577 -0.4585
 3469SOL    HW113427   1.227   2.075   3.734  0.6026  0.3823 -1.9045
 3469SOL    HW213428   1.316   2.187   3.685  2.4975 -0.4419 -0.4310
 3470SOL     OW13429   0.777   0.279   9.159  0.5244  0.3395  0.9115
 3470SOL    HW113430   0.795   0.197   9.113 -2.2717  0.3035 -0.1829
 3470SOL    HW213431   0.749   0.252   9.246 -2.2069 -0.0030 -0.0339
 3471SOL     OW13432   8.825   5.374   7.278 -0.0108 -0.0882 -0.1831
 3471SOL    HW113433   8.827   5.431   7.355  1.0521 -0.6230  0.1932
 3471SOL    HW213434   8.732   5.361   7.261 -0.2661 -0.1779  1.1871
 3472SOL     OW13435   1.666   1.290   3.889  0.2243  0.3079  0.2364
 3472SOL    HW113436   1.756   1.296   3.858 -0.1014  1.5605 -0.5005
 3472SOL    HW213437   1.644   1.197   3.883  1.5293 -0.0315  0.6106
 3473SOL     OW13438   8.744   4.158   1.838  0.0375  0.0361  0.5563
 3473SOL    HW113439   8.654   4.176   1.809 -0.1252 -0.8572  0.4935
 3473SOL    HW213440   8.799   4.186   1.765 -0.2542 -0.3901  0.1738
 3474SOL     OW13441   6.925   1.835   5.418  0.3852  0.3463 -0.2738
 3474SOL    HW113442   6.998   1.898   5.420  0.2667  0.5250 -1.3334
 3474SOL    HW213443   6.874   1.860   5.341 -0.1709 -0.4931 -0.1831
 3475SOL     OW13444   6.906   7.324   3.966 -0.2428 -0.7256 -0.5297
 3475SOL    HW113445   6.886   7.344   3.875  0.4033 -0.1834 -0.5527
 3475SOL    HW213446   6.851   7.384   4.017  1.0677  0.5739 -0.5924
 3476SOL     OW13447   4.763   2.096   8.571  0.1265 -0.3734  0.1486
 3476SOL    HW113448   4.678   2.140   8.573  0.7108  0.8108 -0.5176
 3476SOL    HW213449   4.744   2.005   8.594 -1.3125 -0.1110  0.0188
 3477SOL     OW13450   6.057   2.309   4.201  0.3512  0.3963  0.1913
 3477SOL    HW113451   6.069   2.275   4.112 -1.2542 -1.5795  0.6981
 3477SOL    HW213452   6.019   2.396   4.188  1.3213  0.6395 -1.0805
 3478SOL     OW13453   7.675   8.153   7.888  0.2273 -0.3660  0.4876
 3478SOL    HW113454   7.681   8.245   7.913  0.7760 -0.0094 -0.8948
 3478SOL    HW213455   7.634   8.155   7.801 -0.6381 -1.4853  0.8632
 3479SOL     OW13456   8.756   9.037   8.756 -0.5423  0.1829  0.3731
 3479SOL    HW113457   8.848   9.056   8.737  0.5702 -3.2220  1.9856
 3479SOL    HW213458   8.715   9.029   8.670  1.0278  0.0809 -0.3872
 3480SOL     OW13459   2.367   7.907   0.118  0.2105 -0.6480  0.0750
 3480SOL    HW113460   2.302   7.969   0.151 -0.9545 -0.3895 -2.5802
 3480SOL    HW213461   2.422   7.959   0.059  0.5340 -1.6975 -0.5496
 3481SOL     OW13462   1.461   6.989   4.904  0.1893  0.4901 -0.1153
 3481SOL    HW113463   1.521   6.995   4.978  0.7338 -0.2199 -0.4862
 3481SOL    HW213464   1.453   6.895   4.887 -0.9784  0.5866 -0.1151
 3482SOL     OW13465   8.387   9.256   4.168  0.1113 -0.3403 -0.0232
 3482SOL    HW113466   8.403   9.295   4.254  0.0804 -1.5143  0.5284
 3482SOL    HW213467   8.298   9.222   4.173  0.4079 -1.1792 -0.2086
 3483SOL     OW13468   1.539   5.374   2.699  0.7011 -0.0565 -0.0974
 3483SOL    HW113469   1.518   5.453   2.648 -0.6320 -0.9351 -0.9215
 3483SOL    HW213470   1.635   5.373   2.701  0.7846  0.2594 -2.2194
 3484SOL     OW13471   7.637   3.957   1.830  0.2518 -0.0880 -0.4474
 3484SOL    HW113472   7.614   3.930   1.741  1.1402 -0.2135 -0.6451
 3484SOL    HW213473   7.698   4.031   1.817 -1.0816  1.1240  0.0710
 3485SOL     OW13474   7.798   5.570   5.125 -0.1025  0.2227  0.0573
 3485SOL    HW113475   7.786   5.584   5.031  2.1532 -1.1631 -0.4596
 3485SOL    HW213476   7.762   5.482   5.140 -1.5205  0.8949  0.7373
 3486SOL     OW13477   0.536   3.174   2.190 -0.4318  0.0001  0.0510
 3486SOL    HW113478   0.554   3.117   2.264  1.6895 -0.5187 -0.8366
 3486SOL    HW213479   0.553   3.120   2.113 -1.0192  1.0193 -0.8067
 3487SOL     OW13480   3.831   2.107   3.203 -0.5405  0.6882  0.0524
 3487SOL    HW113481   3.832   2.062   3.287  0.0185  1.5647  0.5185
 3487SOL    HW213482   3.902   2.172   3.209 -0.1404  0.3899 -1.2855
 3488SOL     OW13483   3.020   8.674   0.621 -0.0366 -0.4570 -0.7023
 3488SOL    HW113484   2.953   8.648   0.684  0.4744 -0.3109 -0.0898
 3488SOL    HW213485   3.079   8.731   0.670  0.0997  0.0533 -1.4424
 3489SOL     OW13486   8.492   9.328   1.168  0.4495 -0.4216  0.1612
 3489SOL    HW113487   8.403   9.358   1.187  0.9581 -0.5757  2.9666
 3489SOL    HW213488   8.486   9.290   1.080 -1.6753  1.8015 -0.7386
 3490SOL     OW13489   5.184   4.298   5.820 -0.1637  0.1189  0.4120
 3490SOL    HW113490   5.163   4.215   5.864 -0.3826  0.1519  0.3744
 3490SOL    HW213491   5.183   4.363   5.889  1.1475 -0.0886  0.6240
 3491SOL     OW13492   5.804   1.072   3.768 -0.2997  0.6727  0.5896
 3491SOL    HW113493   5.777   0.984   3.743 -1.7523  1.1986  0.2398
 3491SOL    HW213494   5.855   1.060   3.848  0.2771 -0.5645  0.0435
 3492SOL     OW13495   0.788   1.690   9.440 -0.1525  0.1475 -0.3038
 3492SOL    HW113496   0.760   1.600   9.452 -0.8769  0.1783 -1.7115
 3492SOL    HW213497   0.860   1.702   9.503  0.0785 -1.4524 -0.2600
 3493SOL     OW13498   5.831   0.392   5.500 -0.6396 -0.4032  0.3803
 3493SOL    HW113499   5.925   0.400   5.514 -0.9359  4.7011  0.3820
 3493SOL    HW213500   5.794   0.376   5.587  0.0839 -0.8337  0.6095
 3494SOL     OW13501   6.759   1.227   3.139 -0.2025  0.5673  0.5336
 3494SOL    HW113502   6.728   1.311   3.105 -0.0114 -0.4913 -2.3330
 3494SOL    HW213503   6.682   1.186   3.178 -0.7564  1.1354  0.0317
 3495SOL     OW13504   1.553   0.002   4.085  0.1960  0.3986 -0.0182
 3495SOL    HW113505   1.567   0.018   4.178 -1.9831  1.6904  0.1288
 3495SOL    HW213506   1.494  -0.073   4.081  0.9498 -0.1859 -0.4033
 3496SOL     OW13507   0.856   8.597   5.959 -0.6625  0.5493 -0.4602
 3496SOL    HW113508   0.847   8.507   5.990  0.7480  0.1270 -1.2233
 3496SOL    HW213509   0.898   8.643   6.032  1.3601 -0.1231 -1.1447
 3497SOL     OW13510   2.396   3.901   7.469  0.0510  0.0846 -0.9020
 3497SOL    HW113511   2.415   3.813   7.438 -0.9184 -0.1879 -0.7388
 3497SOL    HW213512   2.301   3.904   7.478  0.1661  0.7624  0.2586
 3498SOL     OW13513   3.564   5.681   6.618  0.2212 -0.4165  0.0157
 3498SOL    HW113514   3.653   5.682   6.654  0.3062  1.0416 -0.1704
 3498SOL    HW213515   3.560   5.601   6.566  1.6823 -0.1177 -0.5861
 3499SOL     OW13516   8.500   8.742   5.470 -0.3533  0.1934  0.2276
 3499SOL    HW113517   8.503   8.766   5.377 -0.2526 -2.0189 -0.3676
 3499SOL    HW213518   8.582   8.775   5.506  0.0451  0.2154 -0.6903
 3500SOL     OW13519   5.323   2.340   0.262 -0.4954  0.1161 -0.4177
 3500SOL    HW113520   5.367   2.256   0.276  1.0790  0.8107 -1.1019
 3500SOL    HW213521   5.364   2.376   0.184 -3.8115 -0.1964 -2.3997
 3501SOL     OW13522   8.582   0.161   1.263 -0.1483 -0.3062 -0.4270
 3501SOL    HW113523   8.586   0.137   1.356 -0.2225  0.9069 -0.0928
 3501SOL    HW213524   8.574   0.078   1.217 -0.5412 -0.8975  0.6826
 3502SOL     OW13525   8.252   3.148   1.984 -0.1629  0.5332 -0.2820
 3502SOL    HW113526   8.259   3.169   1.891  1.1522 -0.0736 -0.3275
 3502SOL    HW213527   8.160   3.124   1.996 -0.2244  0.0803 -1.5402
 3503SOL     OW13528   1.861   2.378   0.763  0.3225 -0.1927  0.3030
 3503SOL    HW113529   1.912   2.459   0.768  0.4518 -0.1921 -1.0008
 3503SOL    HW213530   1.816   2.383   0.679 -0.7423 -0.8483  0.8234
 3504SOL     OW13531   6.657   3.632   9.415 -0.0143 -0.5398 -0.2118
 3504SOL    HW113532   6.733   3.668   9.462 -0.0398  0.0772 -0.6477
 3504SOL    HW213533   6.582   3.654   9.471 -0.0708  0.3929 -0.6428
 3505SOL     OW13534   7.723   2.149   7.748 -0.5486  0.6082 -0.3476
 3505SOL    HW113535   7.808   2.104   7.755  0.6212  2.8109  0.1343
 3505SOL    HW213536   7.660   2.079   7.732  0.9963 -1.4068  1.9413
 3506SOL     OW13537   3.221   2.745   0.644 -0.3162  0.4124 -0.0583
 3506SOL    HW113538   3.225   2.649   0.651  1.4044  0.5682  1.5555
 3506SOL    HW213539   3.133   2.768   0.672 -0.8268 -0.7201 -0.7039
 3507SOL     OW13540   2.731   1.479   3.348 -0.3671 -0.1187 -0.1274
 3507SOL    HW113541   2.727   1.555   3.406  0.2884  1.1556 -1.7492
 3507SOL    HW213542   2.652   1.485   3.295 -1.1397 -1.4761  0.8103
 3508SOL     OW13543   6.966   0.582   0.617  0.1321 -0.6677  0.1419
 3508SOL    HW113544   6.991   0.668   0.583  0.2710 -0.9197 -0.3938
 3508SOL    HW213545   7.049   0.538   0.634  0.0592 -0.7810  0.1989
 3509SOL     OW13546   0.301   8.441   6.835 -0.3247  0.6600  0.4163
 3509SOL    HW113547   0.394   8.420   6.823  0.0158  1.9597  0.7324
 3509SOL    HW213548   0.273   8.387   6.909 -0.1748 -0.7427 -0.5236
 3510SOL     OW13549   3.241   9.355   0.439  0.1692 -0.2460  0.2529
 3510SOL    HW113550   3.308   9.292   0.413  0.2289  0.1365 -0.5429
 3510SOL    HW213551   3.193   9.374   0.359  1.0425  1.7582  0.1777
 3511SOL     OW13552   3.571   4.706   5.754 -0.6007 -0.1892 -0.0889
 3511SOL    HW113553   3.500   4.769   5.750  0.6571  1.2712  0.2709
 3511SOL    HW213554   3.558   4.662   5.839 -0.0048  1.3696  0.8282
 3512SOL     OW13555   7.912   8.764   1.546  0.1591  0.2770  0.3028
 3512SOL    HW113556   7.871   8.800   1.468  0.8390  0.9977  0.2665
 3512SOL    HW213557   8.003   8.751   1.521  0.1321 -0.5255  0.6347
 3513SOL     OW13558   0.679   1.238   1.563 -0.0455 -0.3996  0.4999
 3513SOL    HW113559   0.630   1.275   1.636 -0.9718  0.2763 -0.4504
 3513SOL    HW213560   0.681   1.307   1.497 -1.4295 -1.8781 -1.1295
 3514SOL     OW13561   3.854   1.094   1.050 -0.2491 -0.2071 -0.5268
 3514SOL    HW113562   3.917   1.161   1.074 -2.0357  1.9011 -1.6088
 3514SOL    HW213563   3.882   1.063   0.964  0.3420 -0.5957 -0.1998
 3515SOL     OW13564   2.176   2.386   0.975 -0.4275  0.0812 -0.2041
 3515SOL    HW113565   2.173   2.356   0.884  1.0346  1.3630 -0.7081
 3515SOL    HW213566   2.130   2.318   1.024  1.6736 -2.3533 -1.4660
 3516SOL     OW13567   7.691   0.142   7.767  0.2074 -0.0843  0.2120
 3516SOL    HW113568   7.657   0.231   7.759 -1.7586 -0.7278  0.8925
 3516SOL    HW213569   7.620   0.086   7.733  1.3876 -1.3968 -0.1693
 3517SOL     OW13570   6.810   9.162   5.783 -0.6025 -0.6818  0.1355
 3517SOL    HW113571   6.737   9.220   5.761  0.2174  0.8052  1.2684
 3517SOL    HW213572   6.851   9.203   5.859  1.4154 -1.5025 -0.4908
 3518SOL     OW13573   2.332   0.678   9.073  0.1143 -0.4145  0.1582
 3518SOL    HW113574   2.375   0.697   8.990 -1.6198 -0.1551 -0.7156
 3518SOL    HW213575   2.402   0.649   9.132  1.3835 -0.3648 -1.3221
 3519SOL     OW13576   6.427   9.278   3.415 -0.3910 -0.1490 -0.0382
 3519SOL    HW113577   6.391   9.360   3.380 -0.1099 -0.4019 -0.9239
 3519SOL    HW213578   6.491   9.306   3.480  0.0511  0.3490 -0.6757
 3520SOL     OW13579   2.879   4.939   9.043 -0.1605  0.6676 -0.1076
 3520SOL    HW113580   2.795   4.921   9.085 -0.0888  1.0055  0.1832
 3520SOL    HW213581   2.942   4.940   9.115  0.0769  0.5288 -0.3119
 3521SOL     OW13582   6.057   8.601   0.305  0.1547  0.4571  0.8239
 3521SOL    HW113583   5.996   8.655   0.256 -0.3788  0.1064  1.1004
 3521SOL    HW213584   6.017   8.592   0.391 -0.1774 -1.1100  0.5051
 3522SOL     OW13585   6.424   3.793   3.860 -0.3160 -0.5022 -0.0087
 3522SOL    HW113586   6.375   3.718   3.895 -1.8472 -0.5738 -2.2037
 3522SOL    HW213587   6.364   3.835   3.799  1.6233  0.7011 -1.1450
 3523SOL     OW13588   6.035   8.283   4.449  0.0562 -0.3379  0.1572
 3523SOL    HW113589   6.127   8.261   4.463  0.3086 -0.0539 -1.0106
 3523SOL    HW213590   6.029   8.307   4.357 -1.1526 -0.1521  0.2668
 3524SOL     OW13591   7.380   3.656   5.729 -1.1763 -0.4444  0.0557
 3524SOL    HW113592   7.394   3.706   5.648  0.1559  0.0006  0.5376
 3524SOL    HW213593   7.449   3.589   5.728  0.0999  0.7877  1.7378
 3525SOL     OW13594   2.983   1.008   5.924  0.4749 -0.0713  0.3628
 3525SOL    HW113595   2.926   1.085   5.929  3.1882  2.2750 -2.9601
 3525SOL    HW213596   2.967   0.971   5.837  2.3642 -0.6871  0.2509
 3526SOL     OW13597   5.856   9.236   3.785 -0.2922  0.2702  0.2575
 3526SOL    HW113598   5.767   9.217   3.814 -0.2617 -1.3662 -0.6449
 3526SOL    HW213599   5.856   9.216   3.691  1.0062  0.2889  0.2323
 3527SOL     OW13600   4.490   1.221   6.198 -0.2252 -0.2475  0.2610
 3527SOL    HW113601   4.473   1.168   6.120 -2.5190  0.4172  0.2680
 3527SOL    HW213602   4.526   1.303   6.163 -1.5951  0.1979 -0.1715
 3528SOL     OW13603   5.296   3.656   0.631 -0.3178 -0.8018 -0.4259
 3528SOL    HW113604   5.302   3.585   0.566 -4.3335  0.1483 -1.9849
 3528SOL    HW213605   5.280   3.611   0.714  3.8455 -1.9787 -0.1526
 3529SOL     OW13606   5.862   0.454   6.521  0.1994 -0.2371 -0.2929
 3529SOL    HW113607   5.885   0.510   6.595 -0.0859 -0.1662 -0.2573
 3529SOL    HW213608   5.945   0.441   6.474  0.0095  1.3218 -1.0624
 3530SOL     OW13609   4.224   7.809   0.506  0.3837  0.0105 -0.5258
 3530SOL    HW113610   4.232   7.891   0.457 -0.5864  0.1233 -0.5046
 3530SOL    HW213611   4.131   7.788   0.502  0.5735 -0.8916 -0.2011
 3531SOL     OW13612   4.219   8.266   3.733 -0.4485 -1.0653 -0.4767
 3531SOL    HW113613   4.251   8.342   3.781 -0.8007 -0.1754 -1.6245
 3531SOL    HW213614   4.255   8.191   3.780  2.2830 -0.1377 -0.9948
 3532SOL     OW13615   4.298   4.479   7.999 -0.1639 -0.4301  0.1538
 3532SOL    HW113616   4.278   4.572   8.011 -0.7709 -0.7044  1.3731
 3532SOL    HW213617   4.243   4.452   7.926 -0.2734  0.0745  0.0445
 3533SOL     OW13618   2.195   6.847   3.215 -0.2159 -0.0751  0.3171
 3533SOL    HW113619   2.282   6.807   3.216  0.1155  0.6481  0.7731
 3533SOL    HW213620   2.141   6.789   3.269  0.4967  0.5998  1.7778
 3534SOL     OW13621   5.004   4.424   9.244 -0.2349  0.4477 -0.1055
 3534SOL    HW113622   4.930   4.377   9.282 -1.5207 -0.5258 -3.6099
 3534SOL    HW213623   5.081   4.389   9.290 -1.6130 -1.4678  0.7952
 3535SOL     OW13624   7.768   1.964   4.716  0.1330 -0.2774 -0.1153
 3535SOL    HW113625   7.812   2.039   4.757  0.4798 -0.6733  0.2353
 3535SOL    HW213626   7.803   1.888   4.762  0.9025 -0.7634 -1.5046
 3536SOL     OW13627   5.541   5.990   6.724  0.3522  0.4530  0.3271
 3536SOL    HW113628   5.630   6.007   6.756  0.9558 -0.7577 -0.6519
 3536SOL    HW213629   5.550   5.983   6.629 -0.6372 -0.5068  0.2861
 3537SOL     OW13630   6.196   2.559   8.211 -0.4926  0.2798  0.2541
 3537SOL    HW113631   6.108   2.540   8.243 -1.7323  1.4195 -2.3180
 3537SOL    HW213632   6.184   2.634   8.153  2.0657 -0.0578 -0.7482
 3538SOL     OW13633   1.866   5.529   5.637  0.1835 -0.5173  0.5870
 3538SOL    HW113634   1.811   5.503   5.563 -0.1786  2.9098 -0.4656
 3538SOL    HW213635   1.816   5.505   5.715 -1.0441 -0.9744 -0.3312
 3539SOL     OW13636   0.434   2.398   3.550 -0.1828  1.0222  0.1766
 3539SOL    HW113637   0.453   2.338   3.478 -0.1193  3.0069 -1.4910
 3539SOL    HW213638   0.510   2.392   3.607 -0.0684 -0.2874 -0.1067
 3540SOL     OW13639   5.612   3.419   2.495  0.0774  0.2129 -0.0378
 3540SOL    HW113640   5.583   3.390   2.409 -3.3196  0.6252  0.8826
 3540SOL    HW213641   5.581   3.510   2.501  1.4063  0.6092  1.1269
 3541SOL     OW13642   1.703   2.290   1.577 -0.0263  0.5017  0.1080
 3541SOL    HW113643   1.676   2.265   1.489  0.7128 -1.0330  0.3049
 3541SOL    HW213644   1.691   2.385   1.580 -1.6128  0.3476 -1.1000
 3542SOL     OW13645   5.578   2.590   6.385 -0.6418  0.3944  0.0224
 3542SOL    HW113646   5.561   2.583   6.291  0.9197  2.3125 -0.4187
 3542SOL    HW213647   5.560   2.681   6.407  0.1574  0.2458  1.3627
 3543SOL     OW13648   1.209   2.682   8.592  0.9719  0.4666 -0.2023
 3543SOL    HW113649   1.193   2.607   8.534  0.9786  1.2339 -1.2094
 3543SOL    HW213650   1.303   2.698   8.584  0.8906  0.8699 -0.3474
 3544SOL     OW13651   6.641   4.672   0.107  0.4407 -0.2257 -0.1879
 3544SOL    HW113652   6.644   4.751   0.052  1.8165 -0.9042 -1.1227
 3544SOL    HW213653   6.723   4.674   0.155  0.5489 -1.1599 -0.3240
 3545SOL     OW13654   2.081   2.747   3.261 -0.4215 -0.1410 -0.0590
 3545SOL    HW113655   2.156   2.781   3.310 -0.8150  0.2135  0.3005
 3545SOL    HW213656   2.115   2.670   3.216  0.1096 -0.0964  0.2620
 3546SOL     OW13657   8.352   5.167   7.503 -0.1953 -0.1454  0.2545
 3546SOL    HW113658   8.307   5.087   7.530  0.6390 -1.2776 -1.6111
 3546SOL    HW213659   8.439   5.161   7.544  0.7982 -1.4931 -1.9647
 3547SOL     OW13660   8.757   2.567   1.865 -0.3409 -0.0355 -0.4141
 3547SOL    HW113661   8.676   2.515   1.871 -0.3575 -0.1016 -1.1681
 3547SOL    HW213662   8.757   2.600   1.775 -0.2412  1.1341  0.0090
 3548SOL     OW13663   6.251   0.018   6.068  0.1528 -0.1722  0.4499
 3548SOL    HW113664   6.314   0.040   6.136  0.6130  0.1368 -0.0677
 3548SOL    HW213665   6.301  -0.031   6.003 -0.2921 -0.5096  0.3573
 3549SOL     OW13666   6.306   3.502   8.152  0.5937  0.4383 -0.3682
 3549SOL    HW113667   6.238   3.544   8.203  0.6982  0.0885  0.0598
 3549SOL    HW213668   6.317   3.558   8.075  1.2693  1.6073  0.5644
 3550SOL     OW13669   6.386   6.036   1.464  0.2648 -0.1099  0.1912
 3550SOL    HW113670   6.431   6.048   1.380 -0.0728  0.3756  0.0795
 3550SOL    HW213671   6.412   5.948   1.492  2.4437  0.6831  0.8196
 3551SOL     OW13672   2.149   1.097   4.464  0.0638  0.6170  0.2822
 3551SOL    HW113673   2.170   1.163   4.397 -0.5107 -0.2812 -0.8129
 3551SOL    HW213674   2.122   1.020   4.413 -1.4444  0.2731  1.5822
 3552SOL     OW13675   6.766   8.130   8.410 -1.2020  0.2129  0.4465
 3552SOL    HW113676   6.821   8.062   8.371 -0.7048  1.2296 -0.6608
 3552SOL    HW213677   6.719   8.085   8.480  0.0019 -0.9958  0.5068
 3553SOL     OW13678   2.673   1.292   1.817  0.0236 -0.0904 -0.2572
 3553SOL    HW113679   2.695   1.209   1.776  0.3570 -0.0994 -0.0587
 3553SOL    HW213680   2.634   1.344   1.746 -0.3557 -0.4779 -0.3374
 3554SOL     OW13681   5.830   2.374   8.964 -0.4955 -0.7829 -0.0250
 3554SOL    HW113682   5.771   2.317   8.914  1.0225 -0.5601 -2.1570
 3554SOL    HW213683   5.917   2.349   8.935  0.3414  0.4804  1.3657
 3555SOL     OW13684   5.891   6.083   3.017 -0.1741 -0.2934 -0.0824
 3555SOL    HW113685   5.839   6.151   3.058 -0.0335 -0.8601  1.0674
 3555SOL    HW213686   5.935   6.126   2.944  0.4746  1.0179  1.0729
 3556SOL     OW13687   1.356   4.331   3.422  0.1706 -0.3477 -0.4370
 3556SOL    HW113688   1.276   4.360   3.379  0.6915 -0.2080 -1.3266
 3556SOL    HW213689   1.370   4.242   3.391  0.1621 -0.5071  0.0075
 3557SOL     OW13690   0.867   8.691   8.117 -0.0435  0.0684  0.3753
 3557SOL    HW113691   0.899   8.708   8.206  0.4448  1.5042 -0.0684
 3557SOL    HW213692   0.778   8.726   8.117  0.1398  0.5285  0.1425
 3558SOL     OW13693   1.961   7.548   1.436  0.0320  0.5390 -0.1477
 3558SOL    HW113694   1.867   7.559   1.452  0.1626  0.1608  0.8958
 3558SOL    HW213695   2.003   7.609   1.496  0.4456  0.8920 -0.7964
 3559SOL     OW13696   1.485   4.146   7.910 -0.1543  0.3302  0.7243
 3559SOL    HW113697   1.392   4.141   7.934  0.1267  0.0348  1.7902
 3559SOL    HW213698   1.527   4.080   7.965  0.5405 -0.2736 -0.5185
 3560SOL     OW13699   5.499   5.066   2.145  0.0616 -0.5076  0.0252
 3560SOL    HW113700   5.571   5.024   2.191 -0.8832 -2.1807  0.0034
 3560SOL    HW213701   5.443   4.994   2.117 -0.7375  0.6638 -1.4525
 3561SOL     OW13702   1.192   2.407   9.218  0.3855  0.9398  0.7276
 3561SOL    HW113703   1.275   2.432   9.178 -0.0941  1.7522  0.2243
 3561SOL    HW213704   1.177   2.474   9.285  1.2763 -0.5100  2.4224
 3562SOL     OW13705   6.308   2.534   1.168 -0.3335 -0.2417 -0.1805
 3562SOL    HW113706   6.366   2.527   1.092  1.3116 -1.6254  1.1691
 3562SOL    HW213707   6.327   2.621   1.204 -0.6623  0.1649 -0.9676
 3563SOL     OW13708   3.027   3.901   4.137  0.2107 -0.3797  0.2861
 3563SOL    HW113709   3.003   3.910   4.045  1.2614  0.9767  0.1252
 3563SOL    HW213710   3.075   3.981   4.157  2.4026 -1.8654  1.2542
 3564SOL     OW13711   4.519   2.253   7.206  0.3997 -1.0705  0.6459
 3564SOL    HW113712   4.614   2.240   7.206  0.6420  0.5372  0.6828
 3564SOL    HW213713   4.491   2.222   7.292  1.2278  0.6199  1.5472
 3565SOL     OW13714   3.138   8.413   8.308  0.5368  0.4400 -0.1770
 3565SOL    HW113715   3.165   8.501   8.332 -2.3224  1.6733 -1.3013
 3565SOL    HW213716   3.079   8.386   8.379  1.7910 -0.8121  0.4269
 3566SOL     OW13717   5.554   8.401   3.934  0.0858  0.4595 -0.2826
 3566SOL    HW113718   5.484   8.393   3.870  1.5433  1.0698 -1.9960
 3566SOL    HW213719   5.553   8.493   3.959  1.3782  0.8722 -1.6462
 3567SOL     OW13720   4.467   2.794   9.300  0.0624  0.0482 -0.1031
 3567SOL    HW113721   4.523   2.747   9.238 -1.2180 -0.8823 -0.5922
 3567SOL    HW213722   4.378   2.771   9.273 -0.6073  2.6354 -0.2285
 3568SOL     OW13723   3.072   3.994   8.826 -0.2295 -0.1698  0.5122
 3568SOL    HW113724   3.087   4.037   8.742 -0.6292 -1.0026  0.0014
 3568SOL    HW213725   3.142   3.928   8.832 -0.3964 -0.3336  0.6760
 3569SOL     OW13726   6.939   8.952   2.777 -0.3754 -0.0408 -0.1397
 3569SOL    HW113727   7.010   8.941   2.714 -0.9335  0.2454 -0.8302
 3569SOL    HW213728   6.959   8.890   2.847  0.1828 -0.4553 -0.6602
 3570SOL     OW13729   1.580   6.612   5.048 -0.1556  0.1801 -0.3631
 3570SOL    HW113730   1.675   6.623   5.049 -0.0732 -0.5786  1.2637
 3570SOL    HW213731   1.567   6.518   5.034 -0.6724  0.3067 -0.7455
 3571SOL     OW13732   6.756   3.282   8.882  0.1673  0.3598 -0.3464
 3571SOL    HW113733   6.730   3.345   8.949 -2.5303  0.3578 -1.3340
 3571SOL    HW213734   6.714   3.314   8.802  2.0119 -0.5372 -1.7022
 3572SOL     OW13735   7.081   4.402   5.853 -0.0255  0.2550 -0.3369
 3572SOL    HW113736   6.991   4.394   5.885  0.6138 -0.2208  1.4047
 3572SOL    HW213737   7.120   4.316   5.870  1.0639  0.7872 -0.1185
 3573SOL     OW13738   4.893   1.652   2.608 -0.4759 -0.0307 -0.6910
 3573SOL    HW113739   4.863   1.738   2.578  1.1885  1.1258  0.8745
 3573SOL    HW213740   4.827   1.625   2.672  0.2958  1.2227  0.6537
 3574SOL     OW13741   2.155   1.937   5.827  0.1488 -0.0690 -0.2864
 3574SOL    HW113742   2.204   1.856   5.821 -0.5512 -0.5681  0.7083
 3574SOL    HW213743   2.110   1.944   5.743 -0.0784 -0.9002 -0.2371
 3575SOL     OW13744   5.121   6.990   2.817 -0.1427  0.0764  0.2212
 3575SOL    HW113745   5.175   7.024   2.745  0.2180 -2.0057 -0.5142
 3575SOL    HW213746   5.042   7.045   2.815  0.8740  1.5611 -0.2508
 3576SOL     OW13747   0.605   4.207   6.983 -0.4202  0.3574 -0.3113
 3576SOL    HW113748   0.574   4.117   6.995 -1.5776  0.7264 -0.5132
 3576SOL    HW213749   0.644   4.207   6.895 -0.2148 -0.0053 -0.2212
 3577SOL     OW13750   8.069   7.161   5.360  0.4233 -0.7037 -0.1651
 3577SOL    HW113751   8.071   7.256   5.344  2.3681 -0.8215 -0.7251
 3577SOL    HW213752   8.147   7.144   5.412 -1.2082 -1.6722  2.0548
 3578SOL     OW13753   2.132   1.841   7.700  0.2962 -0.4057 -0.0576
 3578SOL    HW113754   2.179   1.788   7.765  0.8910 -0.8141 -0.8133
 3578SOL    HW213755   2.040   1.817   7.713  0.3560 -0.0810  0.9941
 3579SOL     OW13756   5.002   7.068   6.025  0.2967 -0.4196 -0.1936
 3579SOL    HW113757   5.066   7.020   6.078 -0.2339 -0.8749  0.0362
 3579SOL    HW213758   4.919   7.054   6.069  0.0071  0.0228 -0.5955
 3580SOL     OW13759   3.310   0.377   7.171  0.2359  0.2227 -0.2534
 3580SOL    HW113760   3.307   0.341   7.260 -1.3490  0.8101 -0.0672
 3580SOL    HW213761   3.363   0.314   7.122 -1.4068 -1.6715  0.3732
 3581SOL     OW13762   5.717   7.758   5.989 -0.3729 -0.7543  0.9013
 3581SOL    HW113763   5.688   7.845   5.961  0.2413 -1.0386 -0.7270
 3581SOL    HW213764   5.742   7.768   6.081 -1.1034  0.5892  0.9554
 3582SOL     OW13765   8.605   6.623   0.805  0.1556  0.6973 -0.3246
 3582SOL    HW113766   8.607   6.676   0.726  0.2532  1.9402  0.5016
 3582SOL    HW213767   8.681   6.652   0.856 -0.6868  0.8962  0.8551
 3583SOL     OW13768   7.384   0.067   6.098  0.3263 -0.8791  0.2296
 3583SOL    HW113769   7.460   0.009   6.107  0.8186 -0.6523 -2.2456
 3583SOL    HW213770   7.309   0.014   6.126  1.1112 -1.7866  0.6361
 3584SOL     OW13771   2.643   6.459   4.485 -0.2245  0.0725 -0.2783
 3584SOL    HW113772   2.605   6.543   4.459 -1.3431  0.2757  1.8934
 3584SOL    HW213773   2.737   6.470   4.471 -0.5364  1.0467 -1.7170
 3585SOL     OW13774   4.707   3.729   0.816 -0.2244 -0.1210  0.1285
 3585SOL    HW113775   4.667   3.754   0.899 -0.0985 -0.5682  0.3268
 3585SOL    HW213776   4.645   3.668   0.777 -0.1891 -0.0669 -0.0108
 3586SOL     OW13777   2.266   4.765   2.872  0.3338 -0.0034  0.5089
 3586SOL    HW113778   2.314   4.848   2.863  1.0537 -0.6063 -1.3934
 3586SOL    HW213779   2.175   4.788   2.851  0.6378  0.1937 -0.6167
 3587SOL     OW13780   8.266   8.486   2.795  0.3998  0.3341  0.2073
 3587SOL    HW113781   8.296   8.415   2.738  2.1666  0.7751  0.5688
 3587SOL    HW213782   8.197   8.445   2.848  3.0808 -1.8674  2.1439
 3588SOL     OW13783   5.555   0.288   4.554 -0.0331  0.1421 -0.4953
 3588SOL    HW113784   5.576   0.356   4.489  2.1034  0.5186  0.5368
 3588SOL    HW213785   5.635   0.236   4.561  0.6842  1.6054  3.5860
 3589SOL     OW13786   7.240   1.679   2.106 -0.1201  0.0708 -0.5395
 3589SOL    HW113787   7.147   1.674   2.124 -0.3202  1.8852 -0.9958
 3589SOL    HW213788   7.263   1.770   2.122  2.2507 -1.0202  2.7913
 3590SOL     OW13789   2.186   7.831   3.893  0.4588 -0.3613 -0.2207
 3590SOL    HW113790   2.272   7.868   3.909 -0.4781  1.3851  0.9492
 3590SOL    HW213791   2.193   7.741   3.926  0.7016  0.9868  3.6661
 3591SOL     OW13792   3.366   7.844   5.597  0.7541 -0.1348 -0.2526
 3591SOL    HW113793   3.407   7.760   5.616  0.5079  0.0404  1.0848
 3591SOL    HW213794   3.287   7.846   5.652  1.9608  1.9155  1.5018
 3592SOL     OW13795   5.129   8.293   5.925  0.6605 -0.3004 -0.4165
 3592SOL    HW113796   5.096   8.294   5.835  1.1627 -1.2664 -0.6164
 3592SOL    HW213797   5.068   8.238   5.973  0.7019 -0.2365 -0.2899
 3593SOL     OW13798   0.687   2.267   1.140  0.7859 -0.3024 -0.1397
 3593SOL    HW113799   0.706   2.182   1.179  0.7948 -0.0650  0.3937
 3593SOL    HW213800   0.709   2.258   1.048  2.1433 -0.4515  0.1900
 3594SOL     OW13801   0.841   4.801   6.883  0.1350  0.1893 -0.0190
 3594SOL    HW113802   0.747   4.797   6.864  0.2247  0.2835 -0.4733
 3594SOL    HW213803   0.845   4.813   6.978 -0.3248  0.8115 -0.0724
 3595SOL     OW13804   2.921   8.735   2.932  0.0982 -0.2385 -1.1875
 3595SOL    HW113805   2.993   8.677   2.958  0.2430  0.4789  0.0408
 3595SOL    HW213806   2.892   8.700   2.847  0.1434 -2.1361 -0.4486
 3596SOL     OW13807   3.940   4.694   0.732 -0.1411 -0.1432  0.1401
 3596SOL    HW113808   4.021   4.646   0.749 -0.3506 -0.5069  0.1054
 3596SOL    HW213809   3.947   4.772   0.787  0.7982  0.4594 -0.8008
 3597SOL     OW13810   7.669   3.202   6.772 -0.3403 -0.4945 -0.1418
 3597SOL    HW113811   7.619   3.127   6.803  1.1061 -0.9906  1.0501
 3597SOL    HW213812   7.704   3.174   6.688  1.6640 -1.8600  1.1017
 3598SOL     OW13813   2.400   3.697   0.911  0.3284 -0.7763  0.1353
 3598SOL    HW113814   2.328   3.689   0.974 -0.4654 -0.8826 -0.7770
 3598SOL    HW213815   2.446   3.777   0.938  1.4292 -2.0820  2.2836
 3599SOL     OW13816   8.629   2.413   8.432 -0.4543 -0.0446  0.4335
 3599SOL    HW113817   8.550   2.446   8.389 -1.5178 -0.5908  1.9105
 3599SOL    HW213818   8.701   2.460   8.390 -1.7384  2.2592  0.7243
 3600SOL     OW13819   9.018   1.471   6.115 -0.1655 -0.1493 -0.1333
 3600SOL    HW113820   9.110   1.484   6.093 -0.4164 -0.7469 -1.5952
 3600SOL    HW213821   8.973   1.470   6.030 -1.5667  0.5325  0.5836
 3601SOL     OW13822   2.770   3.401   8.920 -0.2848 -0.3368 -0.0533
 3601SOL    HW113823   2.850   3.395   8.973  1.3160  2.0093 -2.0940
 3601SOL    HW213824   2.700   3.416   8.984  1.3861  0.8458  1.5633
 3602SOL     OW13825   9.198   0.710   1.768  0.0151 -0.0442  0.2086
 3602SOL    HW113826   9.109   0.705   1.734  0.6156  1.4824 -1.6505
 3602SOL    HW213827   9.231   0.620   1.761 -1.3604 -0.6126  0.9048
 3603SOL     OW13828   9.093   3.515   9.319  0.3147  0.4318  0.1478
 3603SOL    HW113829   9.178   3.521   9.275  0.7113 -0.8568  0.7087
 3603SOL    HW213830   9.029   3.508   9.248  0.8348 -0.3993 -0.2398
 3604SOL     OW13831   0.813   9.406   0.129  0.3639 -0.5339 -0.1998
 3604SOL    HW113832   0.879   9.375   0.066 -0.0248 -0.4052 -0.6696
 3604SOL    HW213833   0.799   9.332   0.187  0.8454 -0.5996 -0.1640
 3605SOL     OW13834   4.510   2.930   0.677  0.1590 -0.0279  0.4665
 3605SOL    HW113835   4.582   2.875   0.708  0.5908  0.6865  0.7409
 3605SOL    HW213836   4.472   2.881   0.603 -0.0618 -1.1341  1.2947
 3606SOL     OW13837   0.671   4.011   4.979  0.4290  0.1779  0.1040
 3606SOL    HW113838   0.685   4.014   4.884  0.7201  1.6655  0.1702
 3606SOL    HW213839   0.759   4.009   5.017  0.3177 -0.1302  0.3507
 3607SOL     OW13840   6.588   0.139   2.664 -0.0057  0.7703 -0.3035
 3607SOL    HW113841   6.505   0.118   2.622 -0.3186  0.7973  0.2953
 3607SOL    HW213842   6.573   0.122   2.757  0.3009  1.8538 -0.0435
 3608SOL     OW13843   9.382   5.739   0.187 -0.4082  0.0611  0.3239
 3608SOL    HW113844   9.336   5.667   0.231  1.5083 -1.3337  0.1555
 3608SOL    HW213845   9.346   5.740   0.098 -1.4137  0.2097  0.7336
 3609SOL     OW13846   5.658   5.312   5.508  0.0019  0.3712 -0.1752
 3609SOL    HW113847   5.582   5.280   5.556 -0.9213 -0.2785 -2.0530
 3609SOL    HW213848   5.686   5.238   5.455  1.0689  1.0550 -0.5722
 3610SOL     OW13849   5.022   5.523   4.604 -0.1424 -0.6508 -0.1674
 3610SOL    HW113850   5.074   5.542   4.683  0.7131 -0.9178 -0.6643
 3610SOL    HW213851   4.938   5.492   4.638 -1.9958  4.7354  0.7670
 3611SOL     OW13852   2.870   6.797   8.609  0.0710  0.5159  0.0217
 3611SOL    HW113853   2.784   6.756   8.615  0.5747 -0.7092 -0.9302
 3611SOL    HW213854   2.865   6.852   8.531 -0.1921  1.2847  0.5768
 3612SOL     OW13855   0.704   6.917   3.899  0.1849  0.5233  0.4581
 3612SOL    HW113856   0.793   6.884   3.902  0.1243  0.3819  0.7031
 3612SOL    HW213857   0.693   6.964   3.982 -0.4073 -0.5864  1.0127
 3613SOL     OW13858   9.006   2.508   2.633 -0.0279 -0.6986  0.0482
 3613SOL    HW113859   9.078   2.567   2.613  1.5180 -2.1537  1.1184
 3613SOL    HW213860   9.017   2.488   2.726 -1.5376 -1.3122  0.1110
 3614SOL     OW13861   5.429   2.851   1.689 -0.2871  0.0826 -0.4509
 3614SOL    HW113862   5.486   2.775   1.673  0.4353  0.5590 -0.1450
 3614SOL    HW213863   5.340   2.815   1.684  0.0786 -1.0660  1.1459
 3615SOL     OW13864   4.824   8.305   2.701 -0.2945 -0.1354  0.5550
 3615SOL    HW113865   4.830   8.386   2.651 -0.2284 -0.8476 -0.6121
 3615SOL    HW213866   4.846   8.330   2.790  0.7689  0.9397  0.0089
 3616SOL     OW13867   7.042   8.035   4.385 -0.2591  0.5773 -0.7025
 3616SOL    HW113868   6.958   8.077   4.402  0.1412  0.2833  2.3349
 3616SOL    HW213869   7.105   8.107   4.384 -0.0235  0.4254  1.1754
 3617SOL     OW13870   1.581   8.498   4.741 -0.2244 -0.0088  0.7500
 3617SOL    HW113871   1.634   8.419   4.736  1.1565  0.9510 -0.0364
 3617SOL    HW213872   1.491   8.466   4.745  0.2905 -1.5960 -0.0610
 3618SOL     OW13873   4.346   6.911   6.221 -0.2897 -0.4188  0.1772
 3618SOL    HW113874   4.328   6.823   6.253 -3.1224  0.5538  1.4961
 3618SOL    HW213875   4.387   6.956   6.295  0.2314 -0.3636 -0.1482
 3619SOL     OW13876   7.013   2.701   6.477 -0.4718 -0.2629  0.0119
 3619SOL    HW113877   6.931   2.750   6.479 -0.3351 -0.0792  2.3958
 3619SOL    HW213878   7.071   2.755   6.422 -1.0636  1.0342  0.6410
 3620SOL     OW13879   3.760   6.279   6.366  0.7280  0.1039 -0.5375
 3620SOL    HW113880   3.684   6.221   6.375  1.6475 -0.8741  1.0967
 3620SOL    HW213881   3.820   6.231   6.309  0.7466  0.2195 -0.6139
 3621SOL     OW13882   0.484   6.265   5.571  0.1095  0.4990 -0.0868
 3621SOL    HW113883   0.540   6.188   5.569 -2.3914 -1.4720  1.7918
 3621SOL    HW213884   0.421   6.251   5.501 -2.2127 -0.7532  2.1390
 3622SOL     OW13885   5.078   1.811   7.145 -0.1591 -0.4107  0.6059
 3622SOL    HW113886   5.087   1.881   7.209  0.3411 -2.1281  2.4465
 3622SOL    HW213887   5.144   1.746   7.171 -1.7479 -2.3320 -0.0492
 3623SOL     OW13888   5.399   0.594   3.254  0.1338 -0.3456 -0.4165
 3623SOL    HW113889   5.376   0.670   3.308 -2.6682 -0.3785 -1.5079
 3623SOL    HW213890   5.398   0.627   3.165  1.1455 -1.1783 -0.7503
 3624SOL     OW13891   9.372   4.068   1.190 -0.3640  0.2103 -0.4231
 3624SOL    HW113892   9.330   4.098   1.110 -2.7144 -0.7567  0.3899
 3624SOL    HW213893   9.359   4.140   1.252 -1.0604 -0.1951 -0.0951
 3625SOL     OW13894   7.709   6.244   2.188 -0.2938  0.2211 -0.2785
 3625SOL    HW113895   7.804   6.250   2.176 -0.0558 -1.1025  0.7986
 3625SOL    HW213896   7.675   6.219   2.102  0.5480 -1.3352 -0.1699
 3626SOL     OW13897   0.432   0.617   1.308  0.1326 -0.1124 -0.0920
 3626SOL    HW113898   0.360   0.568   1.268  1.0803 -1.5501 -0.0729
 3626SOL    HW213899   0.505   0.606   1.247  0.3681  1.2350 -0.0536
 3627SOL     OW13900   8.132   0.039   9.160  0.0291 -0.1682 -0.4678
 3627SOL    HW113901   8.073   0.046   9.085 -0.7262  0.8372  0.2220
 3627SOL    HW213902   8.075   0.029   9.236  0.6786  2.0314  0.3469
 3628SOL     OW13903   8.439   6.621   1.365  0.1593 -0.0202 -0.6913
 3628SOL    HW113904   8.402   6.560   1.429 -1.8185  1.5157 -0.2763
 3628SOL    HW213905   8.532   6.600   1.362  0.0543 -1.0519  1.6780
 3629SOL     OW13906   2.853   5.197   0.977 -0.0392  0.9541 -0.3867
 3629SOL    HW113907   2.909   5.198   1.054 -0.4764 -0.1677 -0.0345
 3629SOL    HW213908   2.827   5.288   0.964  0.3745  1.2048  0.5475
 3630SOL     OW13909   4.535   8.149   6.213 -0.5176 -0.4686 -0.1431
 3630SOL    HW113910   4.591   8.159   6.290 -0.5083 -1.4214 -0.0244
 3630SOL    HW213911   4.485   8.231   6.209  0.6150  0.2407 -0.0382
 3631SOL     OW13912   1.938   1.606   0.547  0.2738  0.7932 -0.0303
 3631SOL    HW113913   1.984   1.685   0.576  0.8204 -0.2936  2.2008
 3631SOL    HW213914   2.001   1.560   0.493  0.3791  1.2820 -0.3292
 3632SOL     OW13915   7.618   2.015   4.479  0.0438 -0.1401  0.5087
 3632SOL    HW113916   7.655   1.975   4.557  1.3925  0.4005  0.1661
 3632SOL    HW213917   7.675   2.090   4.461  0.7459 -1.1933 -1.9113
 3633SOL     OW13918   1.424   0.163   3.908  0.4517 -0.3579  0.2637
 3633SOL    HW113919   1.455   0.253   3.895 -0.3879 -0.2581 -1.0892
 3633SOL    HW213920   1.476   0.131   3.981  1.4559  0.9065  0.1274
 3634SOL     OW13921   7.309   3.117   4.430 -0.2169  0.8556  0.0316
 3634SOL    HW113922   7.367   3.090   4.359  0.2061 -3.1817  1.7595
 3634SOL    HW213923   7.221   3.099   4.396 -0.0663 -0.0023  0.0722
 3635SOL     OW13924   5.880   3.238   7.178 -0.1638  0.5317 -0.7199
 3635SOL    HW113925   5.786   3.229   7.166  0.0036 -3.5654  0.1087
 3635SOL    HW213926   5.892   3.248   7.273  0.2553  0.7124 -0.7877
 3636SOL     OW13927   2.622   4.200   0.350 -0.6922  0.4094 -0.3986
 3636SOL    HW113928   2.649   4.258   0.278 -0.6071  1.6539  0.6309
 3636SOL    HW213929   2.608   4.116   0.307  3.8499 -0.0699 -1.1947
 3637SOL     OW13930   8.831   8.938   6.769  0.5470  0.1950 -0.1370
 3637SOL    HW113931   8.877   8.939   6.853 -0.0849  0.1726  0.2159
 3637SOL    HW213932   8.810   9.030   6.752 -1.9410 -0.0723  1.2068
 3638SOL     OW13933   1.195   2.647   1.939  0.7718  0.0610 -0.6442
 3638SOL    HW113934   1.185   2.553   1.929 -0.1312 -0.0616  1.3173
 3638SOL    HW213935   1.271   2.658   1.996  1.0988  0.5369 -1.1591
 3639SOL     OW13936   8.930   3.816   8.687 -0.3157 -0.2106 -0.0080
 3639SOL    HW113937   9.013   3.787   8.726  1.0752  1.4597 -1.5769
 3639SOL    HW213938   8.952   3.899   8.644 -2.9799  0.5912  0.0840
 3640SOL     OW13939   7.384   3.639   7.343 -0.0909  0.3011  0.5680
 3640SOL    HW113940   7.374   3.544   7.339 -0.2457  0.3334  0.0809
 3640SOL    HW213941   7.464   3.657   7.293 -1.9200  0.7106 -2.2959
 3641SOL     OW13942   4.733   5.263   5.022  0.6618  0.0872 -0.2278
 3641SOL    HW113943   4.659   5.223   4.976 -0.5043  2.2453 -0.3121
 3641SOL    HW213944   4.703   5.270   5.113  0.6458  1.1867 -0.3100
 3642SOL     OW13945   3.899   5.769   3.709 -0.3170 -0.1110  0.6367
 3642SOL    HW113946   3.889   5.703   3.778 -1.7955 -0.7283 -0.1578
 3642SOL    HW213947   3.888   5.853   3.753  1.8912 -0.3458  1.7187
 3643SOL     OW13948   5.039   7.432   4.659  0.2801 -0.2177  1.0149
 3643SOL    HW113949   4.966   7.378   4.687 -0.8983  0.9600  0.2685
 3643SOL    HW213950   5.028   7.440   4.564  1.4420 -0.1094  0.8729
 3644SOL     OW13951   3.804   4.967   2.165 -0.3030  0.0046  0.4512
 3644SOL    HW113952   3.721   5.000   2.131  0.3225 -0.7868 -1.8943
 3644SOL    HW213953   3.786   4.950   2.258 -1.6195  3.5474  0.9123
 3645SOL     OW13954   2.004   0.948   5.142 -0.0567  0.3647 -0.1045
 3645SOL    HW113955   2.035   0.956   5.052 -0.7427  1.1386 -0.2736
 3645SOL    HW213956   1.929   1.007   5.147 -0.8689 -0.7148  0.5887
 3646SOL     OW13957   3.056   5.033   4.543  0.4648  0.2132  0.1678
 3646SOL    HW113958   2.961   5.033   4.558  0.4248 -1.8508  0.0236
 3646SOL    HW213959   3.066   5.017   4.450  0.9825 -1.3998  0.4934
 3647SOL     OW13960   1.572   4.420   0.225 -0.4405 -0.4592  0.0454
 3647SOL    HW113961   1.611   4.504   0.204 -2.0637  0.3313  0.0919
 3647SOL    HW213962   1.645   4.359   0.227  0.9769  1.2273  1.5226
 3648SOL     OW13963   7.152   4.853   6.427  0.0635 -0.2339 -0.6655
 3648SOL    HW113964   7.167   4.767   6.465 -1.2026  0.2831  1.1093
 3648SOL    HW213965   7.178   4.845   6.336  0.3341 -2.3717 -0.4149
 3649SOL     OW13966   1.041   2.178   4.008 -0.0254 -0.5748 -0.1774
 3649SOL    HW113967   0.975   2.187   3.939 -0.1387  0.2795  0.0398
 3649SOL    HW213968   1.068   2.086   4.003  1.3065 -0.1212 -2.5751
 3650SOL     OW13969   4.022   0.459   6.995  0.5629  0.1069 -0.0298
 3650SOL    HW113970   4.045   0.531   6.936  0.3933 -0.5303 -0.8848
 3650SOL    HW213971   3.982   0.393   6.938  2.0826 -1.3106  0.5004
 3651SOL     OW13972   6.625   4.944   0.720 -0.3664 -0.2303 -0.6734
 3651SOL    HW113973   6.551   4.885   0.734 -0.1886 -0.9120 -2.4903
 3651SOL    HW213974   6.696   4.887   0.691  0.2339  0.6960 -1.0285
 3652SOL     OW13975   1.129   2.476   7.172  0.3482 -0.4090  0.1471
 3652SOL    HW113976   1.157   2.504   7.259  1.0292  1.2390 -0.5881
 3652SOL    HW213977   1.033   2.475   7.177  0.4069 -1.2893  1.2020
 3653SOL     OW13978   9.281   1.049   8.545 -0.0713 -0.2917 -0.3231
 3653SOL    HW113979   9.337   1.044   8.622 -0.1999 -2.0458 -0.3401
 3653SOL    HW213980   9.265   1.143   8.534  0.6433  0.0339  1.2676
 3654SOL     OW13981   4.283   0.954   6.335 -0.2034  0.0728  0.6657
 3654SOL    HW113982   4.327   1.014   6.275  1.8921  0.7535  2.7938
 3654SOL    HW213983   4.202   0.999   6.358 -0.9042 -0.0872 -1.4329
 3655SOL     OW13984   2.094   7.244   2.282 -0.5240  0.3056 -0.2972
 3655SOL    HW113985   2.060   7.296   2.209  1.1836  0.1553 -1.2238
 3655SOL    HW213986   2.101   7.155   2.248  1.9375  0.5610 -0.5477
 3656SOL     OW13987   2.593   6.802   6.731  0.0267  0.3211  0.4818
 3656SOL    HW113988   2.649   6.726   6.748 -0.4025  0.3482  2.1124
 3656SOL    HW213989   2.557   6.786   6.644  2.4713  0.2498 -0.5546
 3657SOL     OW13990   8.326   7.542   1.995  0.4757 -0.4153 -0.2284
 3657SOL    HW113991   8.339   7.637   1.994  2.2286 -0.6285  0.0891
 3657SOL    HW213992   8.413   7.507   2.017 -1.1434 -1.8927  4.4307
 3658SOL     OW13993   5.460   5.316   2.257 -0.0736  0.0817  0.1955
 3658SOL    HW113994   5.543   5.357   2.284  2.1355 -3.2082 -1.3094
 3658SOL    HW213995   5.486   5.234   2.216 -4.1266 -0.9626 -0.4818
 3659SOL     OW13996   8.957   3.696   4.351 -0.3331 -0.0858  0.1947
 3659SOL    HW113997   8.872   3.733   4.327  0.5286  0.7835 -1.6002
 3659SOL    HW213998   8.984   3.647   4.274  0.1220 -1.6159  1.3045
 3660SOL     OW13999   7.581   3.216   4.489 -0.8086  0.0130 -0.4186
 3660SOL    HW114000   7.563   3.156   4.417 -1.8831  0.7084 -0.7261
 3660SOL    HW214001   7.509   3.202   4.551  0.2790 -0.8193  0.6777
 3661SOL     OW14002   3.866   1.874   6.914  0.6846 -0.3448 -0.0794
 3661SOL    HW114003   3.826   1.791   6.939  0.5815  0.2209  1.6996
 3661SOL    HW214004   3.795   1.927   6.878  0.0313  0.2334  2.0066
 3662SOL     OW14005   3.281   5.184   9.332 -0.0728  0.3864  0.1311
 3662SOL    HW114006   3.234   5.158   9.411 -0.1164 -0.1040 -0.0525
 3662SOL    HW214007   3.350   5.119   9.323  0.2657  0.7530  0.0597
 3663SOL     OW14008   6.365   7.891   1.368 -0.2765 -0.4483 -0.0973
 3663SOL    HW114009   6.402   7.839   1.441  0.8191  1.2368  0.5759
 3663SOL    HW214010   6.279   7.918   1.400  0.2380  0.3630  0.6177
 3664SOL     OW14011   8.252   0.208   0.190 -0.2771  0.4798  0.4980
 3664SOL    HW114012   8.173   0.208   0.245 -0.1309 -1.9809  0.7973
 3664SOL    HW214013   8.264   0.299   0.164 -1.5194  1.3788  2.9088
 3665SOL     OW14014   6.820   8.796   3.511 -0.2288 -0.1325 -0.3149
 3665SOL    HW114015   6.847   8.716   3.557  2.3501  1.8111  1.7211
 3665SOL    HW214016   6.895   8.819   3.457 -0.9580  0.8968 -0.8915
 3666SOL     OW14017   4.015   8.051   8.157 -0.0653 -0.1471  0.4537
 3666SOL    HW114018   3.961   8.031   8.081 -2.7132  0.9018  2.0074
 3666SOL    HW214019   4.028   8.146   8.154  1.3487 -0.3311  0.3290
 3667SOL     OW14020   0.466   8.891   5.652 -0.3289  0.0952 -0.1136
 3667SOL    HW114021   0.371   8.895   5.660 -0.2389 -0.1012  1.2892
 3667SOL    HW214022   0.498   8.934   5.731  0.7461 -0.0519 -0.4613
 3668SOL     OW14023   5.792   1.686   8.670  0.1058  0.0091 -0.0673
 3668SOL    HW114024   5.792   1.697   8.575 -0.4924  3.6582  0.2998
 3668SOL    HW214025   5.877   1.647   8.689  0.7331  0.3669 -1.9997
 3669SOL     OW14026   2.828   1.302   3.835  0.4534  0.3566  0.8079
 3669SOL    HW114027   2.755   1.338   3.785  1.6253  1.1995 -0.3247
 3669SOL    HW214028   2.832   1.356   3.914  0.7867  1.2762  0.1699
 3670SOL     OW14029   2.171   3.264   6.559 -0.3769  0.3166 -0.0437
 3670SOL    HW114030   2.231   3.338   6.566 -0.1049 -0.0264  1.3261
 3670SOL    HW214031   2.086   3.299   6.586 -0.2339  0.1191  0.6748
 3671SOL     OW14032   0.767   0.691   0.888  0.2121  0.4463  0.0443
 3671SOL    HW114033   0.815   0.608   0.880  0.6443  0.7432 -0.4536
 3671SOL    HW214034   0.832   0.754   0.919 -0.0763  0.6359  0.2639
 3672SOL     OW14035   0.286   0.553   4.949  0.7081  0.0923  0.3004
 3672SOL    HW114036   0.306   0.460   4.957 -0.4790 -0.1070  1.0723
 3672SOL    HW214037   0.293   0.586   5.039 -0.9109  0.3138  0.3646
 3673SOL     OW14038   5.142   1.843   1.439 -0.5803  0.0205 -0.3692
 3673SOL    HW114039   5.145   1.862   1.533  0.0803 -2.2268  0.1105
 3673SOL    HW214040   5.233   1.846   1.410 -0.5592 -1.2656 -0.4842
 3674SOL     OW14041   5.874   1.644   2.361  0.0745 -0.5695  0.3107
 3674SOL    HW114042   5.965   1.614   2.352 -0.0737 -1.6397  2.3490
 3674SOL    HW214043   5.821   1.571   2.331 -0.1654 -0.5655  0.7246
 3675SOL     OW14044   8.817   0.344   1.975 -0.0198 -0.5075  0.1884
 3675SOL    HW114045   8.897   0.298   2.001  0.1715 -0.7697 -0.8567
 3675SOL    HW214046   8.747   0.281   1.991  0.1189 -0.7392 -0.1197
 3676SOL     OW14047   9.196   1.538   8.720  0.1300 -0.5131 -0.2492
 3676SOL    HW114048   9.127   1.569   8.661 -0.3560  1.4808  1.3027
 3676SOL    HW214049   9.228   1.618   8.763  1.8856 -1.6836  0.6761
 3677SOL     OW14050   5.001   4.975   0.679  0.2840  0.0494  0.1798
 3677SOL    HW114051   5.075   4.991   0.620 -0.2141 -0.2802 -0.5376
 3677SOL    HW214052   4.940   4.922   0.627 -0.5728  0.5467  0.6786
 3678SOL     OW14053   4.040   0.947   9.370 -0.3167 -0.2091  0.1142
 3678SOL    HW114054   4.062   1.028   9.324  0.3558 -0.3335  0.2196
 3678SOL    HW214055   4.029   0.973   9.462 -1.0146 -0.0773 -0.0020
 3679SOL     OW14056   4.852   7.508   5.729 -0.2549  0.0535 -0.3827
 3679SOL    HW114057   4.919   7.471   5.671 -0.1321 -1.4613  0.6771
 3679SOL    HW214058   4.777   7.525   5.672 -0.0849 -1.2948 -1.0318
 3680SOL     OW14059   8.195   1.668   3.810  0.6680  0.0128 -0.3625
 3680SOL    HW114060   8.267   1.608   3.794 -0.5163 -2.2259  2.2480
 3680SOL    HW214061   8.235   1.743   3.854  1.7404 -0.1219 -1.0887
 3681SOL     OW14062   2.792   7.485   5.042  0.3084  0.3366  0.6932
 3681SOL    HW114063   2.746   7.402   5.054  1.4431 -0.4573 -0.3168
 3681SOL    HW214064   2.882   7.460   5.023  0.7917  1.8273  0.9538
 3682SOL     OW14065   8.499   4.678   7.273 -0.6356  0.2256  0.0809
 3682SOL    HW114066   8.442   4.607   7.302 -1.5344  0.5703 -0.8472
 3682SOL    HW214067   8.440   4.746   7.243  0.2308 -0.4204 -3.3483
 3683SOL     OW14068   0.011   5.301   5.422 -0.0350 -0.4431 -0.1674
 3683SOL    HW114069   0.006   5.397   5.415  1.6264 -0.4158 -1.3953
 3683SOL    HW214070  -0.021   5.270   5.337  0.4550 -0.9365 -0.1719
 3684SOL     OW14071   7.994   1.355   4.450 -0.4876 -0.2196  0.4014
 3684SOL    HW114072   8.063   1.297   4.481 -1.0043 -0.7010  0.6642
 3684SOL    HW214073   7.913   1.314   4.480 -0.8936  0.2871  0.0132
 3685SOL     OW14074   4.822   2.648   5.243 -0.1647  0.2417  0.4753
 3685SOL    HW114075   4.764   2.581   5.207  0.0870  0.3636 -0.1606
 3685SOL    HW214076   4.889   2.661   5.176  1.0341 -0.4452  1.5302
 3686SOL     OW14077   2.522   0.295   4.624 -0.0651  0.2147  0.0388
 3686SOL    HW114078   2.599   0.254   4.662 -2.1058 -0.9097  3.1491
 3686SOL    HW214079   2.502   0.242   4.547  2.3897  0.7312 -1.0081
 3687SOL     OW14080   1.992   3.440   4.140 -0.3228 -0.2616 -0.5671
 3687SOL    HW114081   1.961   3.524   4.105  0.9880  0.4683  0.0013
 3687SOL    HW214082   2.070   3.462   4.190  0.5268 -1.9346 -1.1065
 3688SOL     OW14083   4.131   0.985   1.121  0.6495  0.5787 -0.9189
 3688SOL    HW114084   4.050   1.007   1.166  0.5217  2.6310 -2.0997
 3688SOL    HW214085   4.191   0.960   1.192 -0.5723  0.4113  0.0750
 3689SOL     OW14086   9.018   8.169   5.824  0.0378  0.2581  0.1352
 3689SOL    HW114087   9.033   8.237   5.757  1.2434 -1.5098 -1.4362
 3689SOL    HW214088   8.925   8.149   5.817 -0.3504  1.8127  0.6853
 3690SOL     OW14089   0.836   3.688   0.205 -0.7623 -0.2344  0.0174
 3690SOL    HW114090   0.819   3.780   0.188  0.8468  0.1939  0.6634
 3690SOL    HW214091   0.887   3.658   0.129 -2.6595 -1.0457 -1.0017
 3691SOL     OW14092   2.248   4.490   5.243 -0.2446  0.2820 -0.0560
 3691SOL    HW114093   2.204   4.405   5.252 -0.4020  0.5205  1.6160
 3691SOL    HW214094   2.321   4.485   5.304 -0.8019  1.6990  0.7448
 3692SOL     OW14095   4.414   2.177   3.988  0.3047 -0.2515 -0.2852
 3692SOL    HW114096   4.379   2.107   3.933 -0.6538 -1.3088  1.6184
 3692SOL    HW214097   4.345   2.194   4.052  2.2648 -0.6472  1.9942
 3693SOL     OW14098   1.292   8.181   8.104  0.1135 -0.4560  0.1054
 3693SOL    HW114099   1.362   8.133   8.149  0.8845  0.6616  0.1168
 3693SOL    HW214100   1.257   8.118   8.041  2.5421 -0.4063 -1.3766
 3694SOL     OW14101   3.889   0.751   7.161  0.6704  0.6891  0.2152
 3694SOL    HW114102   3.908   0.660   7.186  1.6455  1.4888  2.5152
 3694SOL    HW214103   3.848   0.744   7.074 -0.4902 -2.0262  0.9320
 3695SOL     OW14104   3.423   2.203   9.318 -0.1732 -0.0996 -0.0370
 3695SOL    HW114105   3.358   2.255   9.270  1.5187  1.7792 -0.3382
 3695SOL    HW214106   3.370   2.142   9.369 -2.0914 -0.8352 -2.7575
 3696SOL     OW14107   6.327   0.123   9.043  0.0955 -0.1988 -0.6787
 3696SOL    HW114108   6.301   0.109   9.134 -1.3713  1.1639 -0.8763
 3696SOL    HW214109   6.271   0.194   9.013  1.0873 -0.1472 -2.4311
 3697SOL     OW14110   0.324   8.147   3.823  0.2196  0.0402 -0.0211
 3697SOL    HW114111   0.356   8.139   3.733 -2.0686 -1.4191 -0.7322
 3697SOL    HW214112   0.243   8.196   3.816  1.2261  1.9844  1.5532
 3698SOL     OW14113   2.612   9.324   6.394 -0.4736  0.2426  0.2206
 3698SOL    HW114114   2.581   9.405   6.354  0.1642 -0.2410 -1.2871
 3698SOL    HW214115   2.635   9.267   6.320  1.5327 -0.3491  1.2584
 3699SOL     OW14116   8.284   8.763   0.517  0.2970 -0.5000 -1.0720
 3699SOL    HW114117   8.211   8.781   0.458  0.1351 -1.5363 -1.1970
 3699SOL    HW214118   8.361   8.794   0.471 -0.1695  1.5936 -0.4953
 3700SOL     OW14119   0.806   4.384   8.620  0.8786  0.2833 -0.1624
 3700SOL    HW114120   0.771   4.440   8.552  0.7406 -0.0031 -0.3279
 3700SOL    HW214121   0.757   4.302   8.612  0.8640  0.2469  0.2748
 3701SOL     OW14122   1.561   4.401   6.286 -0.0455  0.4927 -0.3023
 3701SOL    HW114123   1.536   4.444   6.203  1.5183  0.3668 -0.8536
 3701SOL    HW214124   1.614   4.326   6.259 -1.0023 -0.5652  0.7545
 3702SOL     OW14125   7.272   9.282   7.707  0.0285 -0.3219  0.0847
 3702SOL    HW114126   7.216   9.326   7.771  2.2384  0.5234  1.4864
 3702SOL    HW214127   7.211   9.232   7.652 -2.1119  0.8497  1.3312
 3703SOL     OW14128   3.864   8.985   7.210  0.0537 -0.1570 -0.4602
 3703SOL    HW114129   3.944   8.984   7.158  2.1329  2.5773  2.5081
 3703SOL    HW214130   3.859   8.898   7.249  1.9715 -0.1135 -0.0951
 3704SOL     OW14131   6.560   2.425   6.463 -0.1769  0.4704  0.5603
 3704SOL    HW114132   6.645   2.468   6.475  0.0967  0.0972 -0.0459
 3704SOL    HW214133   6.549   2.372   6.542  0.2855  0.3005  0.5127
 3705SOL     OW14134   8.081   4.218   4.076 -0.2453 -0.1143  0.5795
 3705SOL    HW114135   8.009   4.217   4.139 -0.0957 -0.5010  0.7451
 3705SOL    HW214136   8.156   4.254   4.125 -0.5252  1.0228  0.1863
 3706SOL     OW14137   7.555   2.023   7.318  0.1988  1.0036 -0.2137
 3706SOL    HW114138   7.496   1.999   7.389 -0.4204 -2.4021 -1.8157
 3706SOL    HW214139   7.642   2.020   7.358  0.1012 -3.5399 -0.1729
 3707SOL     OW14140   1.999   4.340   4.509 -0.7889 -0.1494  1.0223
 3707SOL    HW114141   2.074   4.377   4.555 -1.8528  2.1981  0.9276
 3707SOL    HW214142   2.028   4.331   4.418 -0.4099  0.0785  1.1206
 3708SOL     OW14143   8.097   2.859   6.156  0.1378  0.2330  0.3669
 3708SOL    HW114144   8.154   2.864   6.080 -0.9285  1.2263 -0.3763
 3708SOL    HW214145   8.008   2.855   6.120 -0.3019 -0.8277  1.5201
 3709SOL     OW14146   0.195   6.171   4.981 -0.0637 -0.0515 -0.2112
 3709SOL    HW114147   0.198   6.216   5.065  0.6514 -0.1433 -0.1832
 3709SOL    HW214148   0.102   6.153   4.967 -0.1862 -0.0455  0.5632
 3710SOL     OW14149   2.570   0.741   8.876  0.0677 -0.2697 -0.4921
 3710SOL    HW114150   2.588   0.806   8.943 -1.6778  0.2829 -0.5376
 3710SOL    HW214151   2.634   0.759   8.807  0.0316  0.9626 -0.2140
 3711SOL     OW14152   2.852   6.708   2.374 -0.3359 -0.5139 -0.3498
 3711SOL    HW114153   2.928   6.767   2.372 -1.0007  0.3734 -0.0806
 3711SOL    HW214154   2.778   6.765   2.353 -1.3417 -0.6867  2.4859
 3712SOL     OW14155   1.605   3.634   1.352 -0.1743  0.1382 -0.1552
 3712SOL    HW114156   1.605   3.665   1.443  0.5905 -1.8013  0.5286
 3712SOL    HW214157   1.524   3.583   1.344 -0.6504  0.9779 -0.8215
 3713SOL     OW14158   7.636   3.288   8.061 -0.9587  0.5664 -0.0328
 3713SOL    HW114159   7.613   3.335   7.981 -0.7960  0.8315  0.0740
 3713SOL    HW214160   7.729   3.269   8.052 -0.8991  0.7498  0.1671
 3714SOL     OW14161   0.738   8.973   7.274  1.0252 -0.0128  0.1000
 3714SOL    HW114162   0.806   8.971   7.342  0.8303 -1.4997  0.2596
 3714SOL    HW214163   0.713   9.065   7.269  2.3114  0.3949  0.7788
 3715SOL     OW14164   3.570   7.634   5.684  0.0151  0.9563  0.4215
 3715SOL    HW114165   3.594   7.656   5.774 -0.2774  2.3361  0.1707
 3715SOL    HW214166   3.616   7.552   5.667 -0.1916  0.5009  1.9377
 3716SOL     OW14167   8.087   2.510   4.101 -0.0248  0.1909  0.4907
 3716SOL    HW114168   8.039   2.436   4.138  1.0561 -0.5480  0.4543
 3716SOL    HW214169   8.171   2.473   4.075  0.1928  1.2477 -0.3597
 3717SOL     OW14170   6.919   4.470   6.418 -0.8062 -0.0227 -0.1285
 3717SOL    HW114171   6.925   4.499   6.509 -0.1344  0.7239 -0.3984
 3717SOL    HW214172   6.973   4.532   6.370 -0.3555 -1.0024 -0.9058
 3718SOL     OW14173   4.909   3.612   8.923  0.1710 -0.5277 -0.3512
 3718SOL    HW114174   4.911   3.631   9.017 -2.3022 -2.1608  0.0914
 3718SOL    HW214175   4.993   3.568   8.906  0.0504 -1.5181  1.4174
 3719SOL     OW14176   8.716   7.593   6.197 -0.0043  0.0425 -0.1816
 3719SOL    HW114177   8.769   7.539   6.139  1.3224  0.6890  0.4055
 3719SOL    HW214178   8.628   7.555   6.191  0.4019 -0.7208 -1.5614
 3720SOL     OW14179   7.674   9.230   1.154 -0.1201 -0.3441  0.0003
 3720SOL    HW114180   7.766   9.248   1.132  0.4369 -2.2049  0.7422
 3720SOL    HW214181   7.667   9.251   1.247 -0.4515 -0.2261 -0.0505
 3721SOL     OW14182   4.041   1.774   0.666 -0.2227 -0.2626 -0.6023
 3721SOL    HW114183   4.043   1.851   0.610  0.3881 -0.8495 -1.4047
 3721SOL    HW214184   3.951   1.743   0.663 -0.3986  0.2465 -0.5200
 3722SOL     OW14185   2.451   4.801   5.711  0.0491  0.1935  0.2034
 3722SOL    HW114186   2.505   4.729   5.678  2.2934  1.4119  1.1418
 3722SOL    HW214187   2.362   4.777   5.686  0.9138 -2.2492 -0.6885
 3723SOL     OW14188   8.711   2.218   4.355 -0.0216 -0.4728  0.5660
 3723SOL    HW114189   8.625   2.245   4.324 -0.8904 -4.7509 -1.0819
 3723SOL    HW214190   8.771   2.239   4.283 -0.1927 -0.3939  0.4475
 3724SOL     OW14191   4.535   9.244   0.582  0.1134 -0.0257  0.3116
 3724SOL    HW114192   4.442   9.229   0.567 -0.4469  0.9309  2.6648
 3724SOL    HW214193   4.563   9.170   0.637  0.8170 -0.4269 -0.5631
 3725SOL     OW14194   2.819   4.574   8.741  0.6575  0.1929 -0.4318
 3725SOL    HW114195   2.886   4.539   8.799  0.4852  0.2539 -0.1955
 3725SOL    HW214196   2.807   4.505   8.675 -0.7517 -0.8635  0.8813
 3726SOL     OW14197   1.784   5.988   1.701  0.2105 -0.1522  0.5780
 3726SOL    HW114198   1.798   6.048   1.628  3.7979 -0.1629  1.1543
 3726SOL    HW214199   1.835   5.910   1.678  1.3358 -0.1947  3.0002
 3727SOL     OW14200   2.705   7.445   2.815  0.1448 -0.2972 -0.1490
 3727SOL    HW114201   2.799   7.465   2.819  0.2467 -0.7506 -0.2175
 3727SOL    HW214202   2.663   7.522   2.853  0.6071 -0.5425  0.9021
 3728SOL     OW14203   4.462   8.666   3.498  0.1572 -0.1918 -0.1381
 3728SOL    HW114204   4.383   8.720   3.497  0.0978 -0.2602  0.8568
 3728SOL    HW214205   4.497   8.676   3.586  1.3742  0.0027 -0.6342
 3729SOL     OW14206   2.957   5.182   0.373 -0.0284  0.4827  0.6849
 3729SOL    HW114207   3.017   5.132   0.429  0.7413 -0.0779 -0.6139
 3729SOL    HW214208   2.873   5.180   0.419  0.6013  0.0842  1.8381
 3730SOL     OW14209   4.660   3.923   1.627  0.2775 -0.0974 -0.1673
 3730SOL    HW114210   4.712   3.866   1.570 -1.3836 -1.5445 -0.2808
 3730SOL    HW214211   4.685   4.012   1.601  3.3189 -0.7333  0.3820
 3731SOL     OW14212   3.187   4.141   7.534 -0.4336  0.2387 -0.5098
 3731SOL    HW114213   3.198   4.140   7.439  1.4013 -0.2911 -0.3135
 3731SOL    HW214214   3.265   4.096   7.568 -2.3282 -1.8824  1.1411
 3732SOL     OW14215   4.619   5.110   8.958 -0.5168 -0.1373  0.0685
 3732SOL    HW114216   4.630   5.030   8.907 -0.4951 -0.4851  0.6186
 3732SOL    HW214217   4.699   5.160   8.943  0.4878 -1.2562  1.5626
 3733SOL     OW14218   4.100   1.883   0.902  0.4105  0.6692  0.2324
 3733SOL    HW114219   4.063   1.834   0.828 -0.4574 -0.5975  1.4908
 3733SOL    HW214220   4.194   1.871   0.894  0.3473  0.8380 -0.8644
 3734SOL     OW14221   6.989   5.047   5.128  0.0367  0.3789  0.4874
 3734SOL    HW114222   6.989   5.136   5.092 -0.2543  1.3105  2.6712
 3734SOL    HW214223   7.080   5.019   5.121  0.2169  1.0217  0.1785
 3735SOL     OW14224   1.282   5.856   4.509  0.0259 -0.6560  0.6455
 3735SOL    HW114225   1.345   5.910   4.463  0.0920 -1.2528  0.0161
 3735SOL    HW214226   1.198   5.902   4.498  0.5073  0.7031  2.4201
 3736SOL     OW14227   7.818   0.887   1.609 -0.6410  0.5153  0.6827
 3736SOL    HW114228   7.880   0.887   1.536 -0.7787  2.5214  0.5220
 3736SOL    HW214229   7.861   0.942   1.675 -1.7544  0.9887  1.0153
 3737SOL     OW14230   7.152   0.996   1.208  0.2403  0.3495  0.5676
 3737SOL    HW114231   7.203   0.942   1.147  0.9712  0.9144  0.6738
 3737SOL    HW214232   7.068   1.008   1.164 -0.3132 -1.7152  0.9905
 3738SOL     OW14233   6.945   9.443   3.332 -0.0910  0.5287  0.3950
 3738SOL    HW114234   6.883   9.396   3.276  1.8515  0.9517 -2.1956
 3738SOL    HW214235   7.007   9.484   3.271  2.6792  0.2220  2.8648
 3739SOL     OW14236   0.394   2.523   1.458  0.1237 -0.1967 -0.4403
 3739SOL    HW114237   0.477   2.561   1.487 -0.8139  2.1143 -0.6943
 3739SOL    HW214238   0.388   2.440   1.506  0.7034  1.4553  2.6343
 3740SOL     OW14239   6.907   0.976   2.739 -0.0542  0.4940 -0.6604
 3740SOL    HW114240   6.884   0.884   2.751  0.7114  0.4514  0.6149
 3740SOL    HW214241   6.853   1.023   2.802  1.9243  0.5675  1.0527
 3741SOL     OW14242   9.227   1.949   5.008 -0.0899  0.2810  0.0867
 3741SOL    HW114243   9.188   2.032   4.979 -0.5863 -0.0187 -0.1013
 3741SOL    HW214244   9.206   1.944   5.101  0.2651  0.5508  0.1790
 3742SOL     OW14245   6.104   1.226   5.871  0.3128 -0.2874 -0.0385
 3742SOL    HW114246   6.088   1.259   5.960 -0.5410  0.0100 -0.3015
 3742SOL    HW214247   6.120   1.304   5.819  2.3005 -0.5588  0.1470
 3743SOL     OW14248   3.891   5.227   5.972 -0.1500 -0.4373 -0.1715
 3743SOL    HW114249   3.873   5.215   6.065  0.4189  0.6137  0.0828
 3743SOL    HW214250   3.981   5.261   5.970 -0.1224 -0.5647 -1.1089
 3744SOL     OW14251   7.502   4.578   1.707  0.0426  0.0085 -0.6150
 3744SOL    HW114252   7.554   4.499   1.722  2.8928  1.9465  0.2097
 3744SOL    HW214253   7.466   4.600   1.793 -0.3138 -0.1138 -0.7336
 3745SOL     OW14254   7.297   0.199   6.604  0.3524 -0.2752 -0.0581
 3745SOL    HW114255   7.379   0.190   6.555  0.0051 -0.5567 -0.5994
 3745SOL    HW214256   7.240   0.132   6.567  0.0929 -0.5106  0.7658
 3746SOL     OW14257   3.381   4.969   3.274 -0.7974 -0.3735 -0.2206
 3746SOL    HW114258   3.303   4.989   3.223  1.1010  2.5549 -2.1237
 3746SOL    HW214259   3.411   5.054   3.307  1.5321 -1.4231  0.5283
 3747SOL     OW14260   5.220   6.613   0.914 -0.0650  0.3988 -0.0174
 3747SOL    HW114261   5.287   6.557   0.953  0.4064  0.4230 -0.8073
 3747SOL    HW214262   5.228   6.696   0.961 -0.1345  0.1147  0.5003
 3748SOL     OW14263   4.863   6.081   2.298 -0.4440  0.4320  0.2107
 3748SOL    HW114264   4.837   6.143   2.231  0.2952  0.9255  0.3639
 3748SOL    HW214265   4.939   6.123   2.341 -1.8138  0.8268  2.3393
 3749SOL     OW14266   1.114   2.175   5.810  0.4062  0.7019  0.0008
 3749SOL    HW114267   1.192   2.182   5.866 -0.1470  1.2447  0.7082
 3749SOL    HW214268   1.145   2.128   5.732  0.9678 -0.8790  1.1586
 3750SOL     OW14269   3.894   3.511   7.592 -0.8491 -0.0581  0.1733
 3750SOL    HW114270   3.957   3.445   7.563 -0.0355  1.8318 -2.5315
 3750SOL    HW214271   3.839   3.465   7.655  1.4645 -2.5300  0.5072
 3751SOL     OW14272   4.924   4.296   7.192  0.4918  0.0056 -0.0804
 3751SOL    HW114273   4.960   4.207   7.194  1.9655  0.6110  1.9159
 3751SOL    HW214274   4.996   4.351   7.163  0.3294  0.8699  1.1192
 3752SOL     OW14275   0.919   2.203   9.412 -0.4111 -0.0114 -0.3772
 3752SOL    HW114276   0.959   2.244   9.489  0.3017  0.4088 -0.9704
 3752SOL    HW214277   0.829   2.238   9.411  0.4447  2.3007 -1.4000
 3753SOL     OW14278   4.088   7.823   6.772 -0.3198  0.0763  0.4711
 3753SOL    HW114279   4.118   7.899   6.822  1.4951  0.7653 -1.5381
 3753SOL    HW214280   4.045   7.861   6.695  0.8266 -0.8749 -0.6800
 3754SOL     OW14281   7.297   7.449   2.897 -0.2781  0.6386  0.1386
 3754SOL    HW114282   7.202   7.434   2.893 -0.4257  0.8176  2.4038
 3754SOL    HW214283   7.307   7.524   2.954  1.3326 -0.3928  1.2601
 3755SOL     OW14284   8.603   9.390   3.309  0.9261 -0.8158  0.5603
 3755SOL    HW114285   8.570   9.340   3.235  2.8515  0.9239 -1.5605
 3755SOL    HW214286   8.533   9.453   3.328  1.8204  1.1075 -2.1731
 3756SOL     OW14287   3.969   7.959   4.016  0.1660 -0.8849  0.1288
 3756SOL    HW114288   3.914   7.923   4.086 -0.3918  0.1810  0.2585
 3756SOL    HW214289   3.906   7.991   3.951  0.6579 -0.7947 -0.3027
 3757SOL     OW14290   9.268   7.765   7.885  0.3868  0.1824  0.2278
 3757SOL    HW114291   9.215   7.731   7.813  1.3711  0.6019 -0.7035
 3757SOL    HW214292   9.218   7.742   7.964 -1.7852  1.6138 -0.6751
 3758SOL     OW14293   1.679   5.646   5.436 -0.5449  0.1514 -0.4315
 3758SOL    HW114294   1.698   5.574   5.376 -1.3574  2.0203 -3.0013
 3758SOL    HW214295   1.699   5.725   5.386 -1.1082  1.7702  1.8270
 3759SOL     OW14296   5.481   6.567   3.292 -0.1527  0.1073 -0.3463
 3759SOL    HW114297   5.462   6.659   3.308  2.4828  1.1085 -2.6424
 3759SOL    HW214298   5.413   6.539   3.231 -1.6303  0.1851  1.2288
 3760SOL     OW14299   8.466   2.957   1.477  0.2022  0.1980  0.1016
 3760SOL    HW114300   8.554   2.962   1.439  0.2856  0.2490  0.2991
 3760SOL    HW214301   8.467   2.878   1.530  0.4644  0.7554  0.9424
 3761SOL     OW14302   5.492   8.163   2.595  0.2387  0.2345 -0.9769
 3761SOL    HW114303   5.422   8.111   2.634  1.8879 -2.1295 -1.1013
 3761SOL    HW214304   5.447   8.219   2.531 -1.9152  1.1064  1.2411
 3762SOL     OW14305   3.770   0.028   8.521  0.7067 -0.4449 -0.4948
 3762SOL    HW114306   3.721   0.093   8.472 -0.5452  0.0929  1.4121
 3762SOL    HW214307   3.751  -0.055   8.477 -0.2351  0.0508 -1.0378
 3763SOL     OW14308   5.687   6.722   6.726 -0.3957  0.4630 -0.6464
 3763SOL    HW114309   5.653   6.633   6.720  1.2000 -0.2854  1.0050
 3763SOL    HW214310   5.644   6.759   6.803 -0.4284  0.8617 -0.8539
 3764SOL     OW14311   4.863   4.242   5.365  0.3286 -0.2706 -0.2024
 3764SOL    HW114312   4.952   4.229   5.330  0.3519 -0.2967 -0.1322
 3764SOL    HW214313   4.876   4.293   5.445  0.5040 -2.2630  1.0784
 3765SOL     OW14314   4.489   1.794   4.986  0.4146  0.2579 -0.4344
 3765SOL    HW114315   4.442   1.755   5.060  0.0439 -1.4514 -1.5306
 3765SOL    HW214316   4.535   1.869   5.024  1.6865 -1.6072  1.9325
 3766SOL     OW14317   7.993   8.472   5.478 -0.5407  0.4062  0.1502
 3766SOL    HW114318   7.913   8.524   5.470 -0.7699  0.1901  1.0262
 3766SOL    HW214319   7.984   8.404   5.412 -1.1900  0.2373  0.4088
 3767SOL     OW14320   8.594   4.072   2.868  0.1300 -0.0299 -0.1086
 3767SOL    HW114321   8.615   3.979   2.855 -0.7969 -0.0781 -1.4132
 3767SOL    HW214322   8.512   4.084   2.820  0.3908  1.5291 -0.1670
 3768SOL     OW14323   5.303   2.811   9.226 -0.2039  0.0778 -0.2187
 3768SOL    HW114324   5.236   2.745   9.244 -0.5018  0.6926  1.0225
 3768SOL    HW214325   5.256   2.883   9.185 -0.0562 -0.0484 -0.6148
 3769SOL     OW14326   1.807   7.420   5.937  0.2686  0.0275 -0.0298
 3769SOL    HW114327   1.747   7.410   6.010  1.9655 -0.9136  1.2902
 3769SOL    HW214328   1.809   7.514   5.920 -2.5767 -0.0642 -1.0060
 3770SOL     OW14329   0.173   7.400   2.069 -0.0325  0.1874 -0.0367
 3770SOL    HW114330   0.231   7.348   2.125 -0.1747 -1.0757 -1.0228
 3770SOL    HW214331   0.102   7.340   2.047 -0.1974  0.8049 -1.2151
 3771SOL     OW14332   5.468   3.707   7.975 -0.6059 -0.2406 -0.0891
 3771SOL    HW114333   5.486   3.800   7.990 -0.5921 -0.2600  0.0136
 3771SOL    HW214334   5.549   3.663   7.998 -0.5898 -0.2729 -0.2045
 3772SOL     OW14335   0.398   6.996   6.092  0.1033 -0.8455  0.2472
 3772SOL    HW114336   0.373   6.986   6.000 -0.1990  0.8788  0.1089
 3772SOL    HW214337   0.482   7.043   6.088  0.6839 -1.8267  0.8324
 3773SOL     OW14338   9.280   2.552   7.209  0.2070  0.2598  0.1470
 3773SOL    HW114339   9.307   2.466   7.241  0.4942  0.2639 -0.0769
 3773SOL    HW214340   9.296   2.611   7.282  1.2757  0.3426 -0.1501
 3774SOL     OW14341   4.662   5.733   7.774 -0.5111  0.2610  0.4005
 3774SOL    HW114342   4.687   5.650   7.816  0.4062  0.0139 -0.6120
 3774SOL    HW214343   4.684   5.720   7.682  0.7476  2.0551  0.4347
 3775SOL     OW14344   9.262   6.991   2.441 -0.3648  0.4098  0.4984
 3775SOL    HW114345   9.278   7.065   2.382 -0.4399 -1.4664 -1.9498
 3775SOL    HW214346   9.327   7.002   2.511  1.7168  1.1066 -1.4616
 3776SOL     OW14347   3.721   0.294   8.351  0.1642 -0.2346 -0.3475
 3776SOL    HW114348   3.647   0.328   8.402  1.4989  0.2931  1.2740
 3776SOL    HW214349   3.772   0.372   8.328  1.0298 -0.7440 -0.1609
 3777SOL     OW14350   4.151   0.563   3.215 -0.0577 -0.0121  0.1605
 3777SOL    HW114351   4.071   0.516   3.191  1.6655 -2.1966 -1.5063
 3777SOL    HW214352   4.181   0.521   3.296 -0.2200  0.3361  0.4020
 3778SOL     OW14353   8.712   0.830   4.250 -0.4821  0.1951  0.0290
 3778SOL    HW114354   8.705   0.902   4.187  0.1202  1.9852  1.9735
 3778SOL    HW214355   8.798   0.791   4.233 -1.0699 -0.5033 -1.4495
 3779SOL     OW14356   0.178   7.546   2.820  0.5596 -0.4085  0.1175
 3779SOL    HW114357   0.256   7.572   2.772 -1.4201  2.8860 -1.5233
 3779SOL    HW214358   0.125   7.498   2.756  1.5135 -3.4433  1.4675
 3780SOL     OW14359   6.181   6.742   8.360  0.3701 -0.4421 -0.2999
 3780SOL    HW114360   6.101   6.706   8.321  0.4855 -1.0366 -0.0011
 3780SOL    HW214361   6.190   6.829   8.321 -0.0009 -0.6754 -0.9156
 3781SOL     OW14362   5.243   7.467   4.824  0.5057 -0.0966 -0.2838
 3781SOL    HW114363   5.175   7.451   4.758 -2.1896  0.1833  2.3110
 3781SOL    HW214364   5.238   7.391   4.882  1.8108  0.3725  0.4557
 3782SOL     OW14365   2.157   6.219   2.461 -0.3950 -0.6135 -0.0287
 3782SOL    HW114366   2.123   6.295   2.509  2.3837  0.7220 -0.0693
 3782SOL    HW214367   2.194   6.255   2.381 -1.3224 -2.3482 -1.2631
 3783SOL     OW14368   1.355   3.616   3.363 -0.4434 -0.6030  0.1845
 3783SOL    HW114369   1.265   3.634   3.334 -1.0199  0.6043  2.5202
 3783SOL    HW214370   1.361   3.660   3.448  1.9296 -1.8630  0.7031
 3784SOL     OW14371   9.085   2.882   2.827 -0.6197  0.0089 -0.2425
 3784SOL    HW114372   9.123   2.967   2.809 -2.5434  0.7994 -0.6999
 3784SOL    HW214373   9.159   2.821   2.821  1.0805  1.7928  1.6235
 3785SOL     OW14374   2.606   3.819   5.317 -0.0060 -0.4663  0.1626
 3785SOL    HW114375   2.697   3.826   5.288  0.0715  0.5155  0.6146
 3785SOL    HW214376   2.611   3.821   5.413 -0.4191 -1.5340  0.2157
 3786SOL     OW14377   6.512   4.435   2.096  0.7824  1.0669 -0.0923
 3786SOL    HW114378   6.455   4.367   2.132  1.8848  0.2886  0.2230
 3786SOL    HW214379   6.492   4.436   2.002  1.0633  0.0109 -0.1651
 3787SOL     OW14380   1.931   3.727   8.247 -0.5242  0.0305  0.2735
 3787SOL    HW114381   1.837   3.720   8.262 -0.1167 -1.4243  2.3916
 3787SOL    HW214382   1.956   3.645   8.205  0.3491 -1.2250  3.1006
 3788SOL     OW14383   3.778   8.161   3.470 -0.0978 -0.2130  0.1059
 3788SOL    HW114384   3.748   8.070   3.463 -0.3092 -0.3160  1.9975
 3788SOL    HW214385   3.850   8.168   3.408 -1.7149 -0.9594 -1.9283
 3789SOL     OW14386   6.122   7.577   5.051  0.3707  0.3698  0.3714
 3789SOL    HW114387   6.154   7.487   5.038 -1.4197 -0.0822 -1.0673
 3789SOL    HW214388   6.026   7.568   5.053  0.2265  1.9287  2.7299
 3790SOL     OW14389   0.467   3.349   7.635 -0.1403  0.2038 -0.0343
 3790SOL    HW114390   0.448   3.259   7.611 -2.2237  0.9149 -1.1868
 3790SOL    HW214391   0.523   3.381   7.565  1.0024 -0.3317  0.6289
 3791SOL     OW14392   8.719   6.499   3.561 -0.4818 -0.0312  0.1065
 3791SOL    HW114393   8.812   6.479   3.553 -0.4512  0.1115  0.1155
 3791SOL    HW214394   8.712   6.558   3.636 -0.6439 -0.4883  0.4581
 3792SOL     OW14395   5.880   8.420   2.624  0.3936 -0.3012 -0.2579
 3792SOL    HW114396   5.792   8.425   2.586  0.7610 -1.8569 -1.3513
 3792SOL    HW214397   5.866   8.434   2.718 -0.8066  1.1140 -0.6138
 3793SOL     OW14398   7.525   1.845   8.960 -0.1098  0.0438 -0.1928
 3793SOL    HW114399   7.559   1.799   9.036  0.5513  0.8711  0.0215
 3793SOL    HW214400   7.551   1.937   8.974 -0.9769  0.3975 -0.8441
 3794SOL     OW14401   9.231   6.265   8.080  0.1794 -0.1095  0.3295
 3794SOL    HW114402   9.207   6.176   8.054 -2.0207  0.7707 -0.7625
 3794SOL    HW214403   9.225   6.265   8.175  0.5487 -1.2208  0.3571
 3795SOL     OW14404   8.841   1.341   7.127 -0.4975 -0.3367 -0.0609
 3795SOL    HW114405   8.894   1.303   7.197 -2.1913  1.2290  2.1689
 3795SOL    HW214406   8.773   1.276   7.110 -0.1669 -0.6565 -0.1749
 3796SOL     OW14407   8.783   1.240   7.528 -0.1483 -0.2856 -0.0921
 3796SOL    HW114408   8.790   1.190   7.447  0.2769  0.0690 -0.2745
 3796SOL    HW214409   8.869   1.230   7.570  0.2805  1.1398 -0.6277
 3797SOL     OW14410   4.360   3.782   0.034 -0.2101 -0.3406 -0.0195
 3797SOL    HW114411   4.359   3.863   0.087 -2.1953  0.2139 -0.8482
 3797SOL    HW214412   4.291   3.728   0.073 -2.0198  0.2541 -2.2379
 3798SOL     OW14413   5.219   1.510   0.134  0.3218  0.1469 -0.1505
 3798SOL    HW114414   5.292   1.558   0.173 -1.3414  0.1955  3.0900
 3798SOL    HW214415   5.231   1.419   0.163 -1.7930  0.4715  1.9417
 3799SOL     OW14416   2.996   5.387   2.952 -0.3351 -0.2888 -0.3036
 3799SOL    HW114417   3.066   5.343   2.999 -0.6865 -0.2807  0.2292
 3799SOL    HW214418   2.970   5.324   2.884 -1.3500 -1.2183  0.9305
 3800SOL     OW14419   7.168   8.270   9.142  1.1632  0.6738  0.0475
 3800SOL    HW114420   7.244   8.275   9.084  1.1974 -0.5931 -0.0111
 3800SOL    HW214421   7.092   8.267   9.084  1.1076  0.9923  0.0985
 3801SOL     OW14422   7.302   1.547   7.125  0.6488  0.0662  0.3796
 3801SOL    HW114423   7.266   1.613   7.185 -0.1861  0.3967 -0.4687
 3801SOL    HW214424   7.255   1.467   7.147  0.3280  0.1916  0.1471
 3802SOL     OW14425   3.725   2.351   5.453  0.4873  0.3489 -0.3635
 3802SOL    HW114426   3.644   2.301   5.439  0.8070 -0.1139 -0.5790
 3802SOL    HW214427   3.744   2.389   5.367  1.0291 -0.3441 -0.5509
 3803SOL     OW14428   6.303   4.723   3.382  0.6233 -0.3469 -0.1470
 3803SOL    HW114429   6.251   4.785   3.434  1.3521  0.0959  0.0605
 3803SOL    HW214430   6.389   4.765   3.373  1.4797 -1.8274  0.9237
 3804SOL     OW14431   3.255   8.920   6.044  0.1461  0.3004 -0.0358
 3804SOL    HW114432   3.274   9.014   6.043 -0.8136  0.4906 -0.4175
 3804SOL    HW214433   3.332   8.881   6.086  0.9591  1.1619 -0.7069
 3805SOL     OW14434   2.822   0.285   5.752  0.2259 -0.0809  0.2775
 3805SOL    HW114435   2.738   0.252   5.783  1.6209 -2.1299  1.9966
 3805SOL    HW214436   2.865   0.322   5.829  0.9333  0.9055 -0.5670
 3806SOL     OW14437   1.429   6.983   7.668  0.2761 -0.1654 -0.0142
 3806SOL    HW114438   1.503   6.938   7.710 -1.0108 -0.8700  1.5240
 3806SOL    HW214439   1.417   6.937   7.585  0.5677 -1.0295  0.4190
 3807SOL     OW14440   0.791   5.101   0.118  0.3298  0.1893  0.1880
 3807SOL    HW114441   0.820   5.162   0.051  1.0810  0.8459  1.1051
 3807SOL    HW214442   0.853   5.112   0.190 -1.9347  1.3037  2.0210
 3808SOL     OW14443   8.784   3.895   7.022  0.4568  0.5069 -0.2777
 3808SOL    HW114444   8.759   3.981   7.055 -0.1197  0.4170 -0.4875
 3808SOL    HW214445   8.783   3.904   6.927  2.0204  0.7359 -0.2952
 3809SOL     OW14446   6.127   4.036   5.436 -0.1702  0.1626  0.4902
 3809SOL    HW114447   6.122   4.118   5.387 -1.0024 -0.1143  0.1005
 3809SOL    HW214448   6.121   4.062   5.528 -1.2068  0.4738  0.3331
 3810SOL     OW14449   1.864   1.211   6.795 -0.1351  0.7971 -0.3146
 3810SOL    HW114450   1.923   1.273   6.838 -0.9319 -0.0616  2.0505
 3810SOL    HW214451   1.792   1.265   6.763  0.4472  1.4253 -0.5888
 3811SOL     OW14452   8.672   2.811   4.738 -0.2016 -0.2934 -0.4182
 3811SOL    HW114453   8.758   2.844   4.762  0.8552 -2.2370 -1.3825
 3811SOL    HW214454   8.634   2.778   4.819 -0.2674  1.0244  0.0980
 3812SOL     OW14455   0.985   1.587   5.722  0.0177 -0.3563 -0.3912
 3812SOL    HW114456   1.038   1.565   5.799 -1.9139  0.2178  1.1628
 3812SOL    HW214457   0.956   1.503   5.688  0.5474 -0.6059 -0.2212
 3813SOL     OW14458   6.481   2.881   2.456 -0.4229 -0.4266  0.0621
 3813SOL    HW114459   6.391   2.904   2.476 -0.1407  1.6980 -1.0490
 3813SOL    HW214460   6.534   2.950   2.496  0.7998 -2.0654  1.4042
 3814SOL     OW14461   3.962   1.860   8.679 -0.5417 -0.2559  0.5332
 3814SOL    HW114462   3.883   1.814   8.706 -0.5922 -0.0112  0.8026
 3814SOL    HW214463   4.032   1.821   8.731 -0.0856 -2.1599 -1.4337
 3815SOL     OW14464   8.087   7.912   6.797  0.0005  0.5939  0.0324
 3815SOL    HW114465   8.065   7.963   6.875 -3.3549 -2.1751  1.0200
 3815SOL    HW214466   8.174   7.877   6.814 -0.5444  0.3277  2.4235
 3816SOL     OW14467   7.776   2.233   2.022 -0.2937  0.7833  0.4451
 3816SOL    HW114468   7.728   2.203   2.100 -1.1094 -0.7551 -0.6165
 3816SOL    HW214469   7.746   2.323   2.009 -2.7364 -0.0432 -0.0206
 3817SOL     OW14470   8.416   1.410   3.012  0.5487  0.1364 -0.3748
 3817SOL    HW114471   8.441   1.330   2.966 -1.2676 -0.3669 -0.5227
 3817SOL    HW214472   8.451   1.399   3.101  1.2397 -0.3285 -0.7004
 3818SOL     OW14473   6.583   4.072   3.543 -0.0387 -0.4012 -0.2928
 3818SOL    HW114474   6.652   4.062   3.609  0.9105  0.5891 -1.0970
 3818SOL    HW214475   6.524   4.138   3.580  1.8519  2.0327 -1.4761
 3819SOL     OW14476   1.550   8.251   2.363  0.0121  0.0301 -0.3402
 3819SOL    HW114477   1.576   8.335   2.401  0.0365 -0.6156  1.1040
 3819SOL    HW214478   1.633   8.209   2.339  0.1609 -0.5887  1.1613
 3820SOL     OW14479   4.416   4.490   2.532  0.5183 -0.0323  0.1597
 3820SOL    HW114480   4.392   4.503   2.440 -0.5790  1.9624  0.7010
 3820SOL    HW214481   4.485   4.554   2.548  1.3746 -1.0262  0.4902
 3821SOL     OW14482   8.735   0.578   1.604 -0.2014 -0.7664  0.3323
 3821SOL    HW114483   8.734   0.523   1.526  0.1234 -0.3719  0.0447
 3821SOL    HW214484   8.649   0.622   1.603 -0.3190 -0.9930  0.3680
 3822SOL     OW14485   2.959   3.006   1.857  0.1347 -0.6097 -0.3837
 3822SOL    HW114486   2.913   2.927   1.828 -1.8941 -0.1656  1.5482
 3822SOL    HW214487   2.924   3.024   1.944  0.9682  2.1146 -0.5705
 3823SOL     OW14488   0.451   4.714   8.645  0.2811 -0.6485  0.1965
 3823SOL    HW114489   0.408   4.798   8.629  0.8014 -0.3613  0.3018
 3823SOL    HW214490   0.449   4.670   8.560 -0.0071 -0.5404  0.1455
 3824SOL     OW14491   5.958   5.711   6.126  0.7691 -0.2469  0.4220
 3824SOL    HW114492   5.876   5.742   6.163  0.6108 -0.2975  0.1195
 3824SOL    HW214493   6.014   5.692   6.201  0.9346  0.9507  0.6078
 3825SOL     OW14494   8.248   3.346   5.191 -0.3873 -0.1938  0.3681
 3825SOL    HW114495   8.297   3.366   5.271 -0.8716  1.3135  0.2988
 3825SOL    HW214496   8.197   3.425   5.173 -0.0889 -0.4082 -1.5794
 3826SOL     OW14497   7.603   8.778   4.720  0.7061 -0.6475  0.0700
 3826SOL    HW114498   7.638   8.690   4.706 -1.1648 -1.4037  0.0084
 3826SOL    HW214499   7.584   8.810   4.632 -1.2615 -1.3081  0.2325
 3827SOL     OW14500   4.580   5.310   5.261 -0.9749  0.2606  0.0776
 3827SOL    HW114501   4.515   5.325   5.192  0.5030  0.3533 -1.3353
 3827SOL    HW214502   4.550   5.364   5.334 -2.0686  0.8924 -0.8050
 3828SOL     OW14503   8.593   8.520   2.442 -0.1883  0.0587 -0.0101
 3828SOL    HW114504   8.517   8.567   2.409 -0.6955 -0.6709  0.1086
 3828SOL    HW214505   8.588   8.434   2.401  0.6500  0.0532 -0.1121
 3829SOL     OW14506   1.661   8.619   5.208  0.5180 -0.2349  0.8079
 3829SOL    HW114507   1.673   8.638   5.114 -1.9502 -1.4080  0.2090
 3829SOL    HW214508   1.641   8.704   5.247  2.0269  0.3381  0.3662
 3830SOL     OW14509   3.608   4.613   8.806 -0.3946 -0.1691 -0.5140
 3830SOL    HW114510   3.573   4.642   8.722 -2.0161 -0.8926 -0.0976
 3830SOL    HW214511   3.536   4.624   8.868  1.0995  1.3626  1.0256
 3831SOL     OW14512   7.111   7.010   7.506 -0.4673 -0.2273  0.1623
 3831SOL    HW114513   7.086   6.942   7.443  0.3496 -0.5635  0.1949
 3831SOL    HW214514   7.197   6.983   7.538 -0.8982 -0.0926  1.4713
 3832SOL     OW14515   0.930   1.764   0.937  0.2440  0.5549 -0.5223
 3832SOL    HW114516   0.839   1.790   0.923  0.1930 -0.0718 -1.4278
 3832SOL    HW214517   0.981   1.832   0.892  0.1700  0.1025 -1.2993
 3833SOL     OW14518   0.874   7.463   6.871  0.3876  1.1146 -0.1604
 3833SOL    HW114519   0.781   7.473   6.853 -0.7007 -1.0218  3.5747
 3833SOL    HW214520   0.903   7.395   6.810 -0.7621  1.0113 -0.6131
 3834SOL     OW14521   0.655   1.429   0.060 -0.3801  0.0300  0.3430
 3834SOL    HW114522   0.562   1.417   0.045  0.0176 -0.7549 -1.6999
 3834SOL    HW214523   0.682   1.351   0.109 -0.2710 -1.1897 -1.5959
 3835SOL     OW14524   1.230   2.938   3.996  0.4912  0.0111  0.0972
 3835SOL    HW114525   1.301   2.875   4.003 -1.1736 -1.8716  0.6940
 3835SOL    HW214526   1.194   2.943   4.085  0.2605  1.4198 -0.0590
 3836SOL     OW14527   2.375   1.497   1.343 -0.3069 -0.5782 -0.1245
 3836SOL    HW114528   2.462   1.458   1.334 -0.0622  0.2686 -1.6585
 3836SOL    HW214529   2.391   1.591   1.341 -1.0700 -0.3846  1.7089
 3837SOL     OW14530   5.931   8.813   4.698  0.2306 -0.4300 -0.0571
 3837SOL    HW114531   6.015   8.770   4.687  0.5942  0.2405  0.0672
 3837SOL    HW214532   5.948   8.885   4.759  0.1080  1.1742 -1.8533
 3838SOL     OW14533   9.388   7.910   8.756  0.1955  0.1321 -0.6799
 3838SOL    HW114534   9.311   7.953   8.792  0.0649  0.6869 -1.5949
 3838SOL    HW214535   9.430   7.868   8.831 -0.8837 -0.0064 -0.1366
 3839SOL     OW14536   6.039   1.297   6.546  0.2777  0.2276  0.2567
 3839SOL    HW114537   6.036   1.290   6.642  2.9635  2.7893  0.6308
 3839SOL    HW214538   5.973   1.364   6.525  0.3468  0.3495  0.4263
 3840SOL     OW14539   6.095   4.571   2.901 -0.3704  0.0150 -0.2488
 3840SOL    HW114540   6.067   4.588   2.991 -2.3783 -2.9183 -0.2436
 3840SOL    HW214541   6.019   4.593   2.848  0.2695  0.2298 -1.0815
 3841SOL     OW14542   2.266   1.979   5.089 -0.1221 -0.3046 -0.2361
 3841SOL    HW114543   2.293   1.900   5.135  3.3366  1.6328  1.2965
 3841SOL    HW214544   2.314   1.976   5.006  2.4543  1.5919  1.1197
 3842SOL     OW14545   2.078   1.145   1.740  0.1605 -0.3546 -0.1512
 3842SOL    HW114546   2.066   1.096   1.659  0.8534  0.0664 -0.5150
 3842SOL    HW214547   2.165   1.120   1.771 -0.4779 -1.2434  0.9751
 3843SOL     OW14548   5.799   6.903   8.633 -0.2609  0.3059  0.1253
 3843SOL    HW114549   5.721   6.951   8.605  1.5278  4.1300  1.3817
 3843SOL    HW214550   5.846   6.884   8.552 -0.5863  1.4406 -0.3407
 3844SOL     OW14551   6.142   0.590   8.187  0.8683 -0.9953  0.1342
 3844SOL    HW114552   6.167   0.635   8.268 -0.6943 -0.3487  0.2810
 3844SOL    HW214553   6.201   0.625   8.121  1.9557 -1.2995  0.9240
 3845SOL     OW14554   2.631   7.156   5.828 -0.0360  0.1802 -0.1298
 3845SOL    HW114555   2.617   7.088   5.894  2.9995  0.6764  1.1168
 3845SOL    HW214556   2.688   7.115   5.763 -0.3870  0.7268 -0.7974
 3846SOL     OW14557   8.345   0.313   4.175  0.5436  0.4923  0.1869
 3846SOL    HW114558   8.373   0.273   4.092 -1.0380 -1.4448  0.5433
 3846SOL    HW214559   8.276   0.374   4.149 -1.1351 -1.3371  0.1880
 3847SOL     OW14560   5.891   6.890   1.735  0.3645  0.2267  0.5502
 3847SOL    HW114561   5.881   6.883   1.830  0.1905 -0.1393  0.5034
 3847SOL    HW214562   5.817   6.944   1.707 -1.0133 -1.7602  0.3090
 3848SOL     OW14563   2.374   1.235   4.605 -0.7688  0.3917  0.1081
 3848SOL    HW114564   2.451   1.192   4.567  1.4933  2.0264  2.7126
 3848SOL    HW214565   2.304   1.171   4.595  1.3936 -1.9570 -0.4972
 3849SOL     OW14566   7.064   2.205   5.927  0.3822  0.1281  0.0066
 3849SOL    HW114567   7.008   2.184   5.852  0.0234 -0.5209  0.4523
 3849SOL    HW214568   7.048   2.134   5.990 -1.8358  2.4238  2.1240
 3850SOL     OW14569   5.931   9.296   8.079 -0.3759 -0.1037  0.2603
 3850SOL    HW114570   5.990   9.300   8.004 -0.8303 -1.0109 -0.1476
 3850SOL    HW214571   5.927   9.386   8.111  0.7885  0.0740 -0.0448
 3851SOL     OW14572   4.697   3.799   1.943  0.3717 -0.0547 -0.6421
 3851SOL    HW114573   4.736   3.764   2.023  0.0704 -0.2304 -0.5732
 3851SOL    HW214574   4.672   3.889   1.966  0.1954 -0.1380 -0.5116
 3852SOL     OW14575   2.678   7.321   2.546 -0.1935 -0.6260 -0.5540
 3852SOL    HW114576   2.707   7.374   2.471  1.9485  0.8678  1.2563
 3852SOL    HW214577   2.704   7.372   2.622 -3.3529 -1.6042  1.2349
 3853SOL     OW14578   5.593   2.073   9.405  0.5387  0.8352  0.3430
 3853SOL    HW114579   5.499   2.088   9.398  0.6210  1.5962  0.8375
 3853SOL    HW214580   5.626   2.081   9.315  0.3146  1.8227  0.3490
 3854SOL     OW14581   6.995   8.748   2.281  0.2490 -0.4273  0.3811
 3854SOL    HW114582   7.065   8.794   2.328  1.2174  0.7186 -2.0757
 3854SOL    HW214583   6.937   8.818   2.251  0.2482 -1.0392 -1.0608
 3855SOL     OW14584   7.078   1.393   9.127  0.5379 -0.1291  0.8040
 3855SOL    HW114585   7.031   1.343   9.061  1.9251  0.6467 -0.8104
 3855SOL    HW214586   7.017   1.463   9.151  0.5187  0.3618 -0.6367
 3856SOL     OW14587   2.182   7.066   7.797 -0.2820  0.3207 -0.2148
 3856SOL    HW114588   2.215   7.101   7.879 -2.6752  0.9035  0.5485
 3856SOL    HW214589   2.162   7.143   7.744  1.4060 -0.0545 -1.4408
 3857SOL     OW14590   8.333   1.616   0.180 -0.2812  0.2265  0.2167
 3857SOL    HW114591   8.282   1.652   0.108 -1.0611  0.3544  0.8153
 3857SOL    HW214592   8.374   1.537   0.144 -0.3072  0.5340 -0.4828
 3858SOL     OW14593   0.239   6.014   3.283 -0.0839 -0.1992  0.3320
 3858SOL    HW114594   0.250   5.974   3.369  0.0484 -0.3845  0.2286
 3858SOL    HW214595   0.324   6.002   3.240 -0.8151 -2.0068 -0.6268
 3859SOL     OW14596   1.201   3.471   7.066  0.6048 -0.2116 -0.0707
 3859SOL    HW114597   1.293   3.462   7.042  0.4930  1.6660 -1.3039
 3859SOL    HW214598   1.202   3.496   7.159  1.3598  0.3299 -0.2224
 3860SOL     OW14599   5.130   2.292   3.405  0.1054 -0.4222 -0.0966
 3860SOL    HW114600   5.204   2.290   3.465 -0.6674 -0.7603  0.8490
 3860SOL    HW214601   5.117   2.385   3.386  1.1202 -0.3932 -0.7166
 3861SOL     OW14602   6.809   7.471   5.559  0.7413  0.5140 -0.4650
 3861SOL    HW114603   6.887   7.423   5.588 -0.3035 -0.7160  0.3530
 3861SOL    HW214604   6.739   7.407   5.563 -0.7435  2.1699  0.9027
 3862SOL     OW14605   3.093   7.884   2.547 -0.1129 -0.2416 -0.0602
 3862SOL    HW114606   3.167   7.823   2.537 -1.6449 -2.5089  1.9774
 3862SOL    HW214607   3.117   7.938   2.622  0.5172  0.6256 -0.8712
 3863SOL     OW14608   3.736   8.691   1.327 -0.0947  0.3448  0.0347
 3863SOL    HW114609   3.803   8.629   1.299  0.9205  1.7310 -0.5931
 3863SOL    HW214610   3.684   8.708   1.249  0.0234  0.7795  0.0484
 3864SOL     OW14611   0.012   0.619   1.179  0.3355  1.3357  0.0587
 3864SOL    HW114612   0.032   0.712   1.167  0.8257  0.9871 -2.2112
 3864SOL    HW214613  -0.037   0.596   1.100  1.0635 -0.5568  0.1436
 3865SOL     OW14614   2.074   3.268   5.589 -0.6085  0.7449  0.2716
 3865SOL    HW114615   2.056   3.184   5.630  0.1612 -0.2187 -1.3172
 3865SOL    HW214616   2.004   3.325   5.621 -1.3141 -0.5651  1.1342
 3866SOL     OW14617   5.049   0.256   1.111  0.1973  0.2497  0.0408
 3866SOL    HW114618   4.964   0.243   1.153 -0.2880  0.0407 -0.9912
 3866SOL    HW214619   5.110   0.202   1.162 -0.4794 -0.4291  0.1291
 3867SOL     OW14620   2.186   5.266   1.538  0.2126  0.2191 -0.0629
 3867SOL    HW114621   2.151   5.270   1.449 -0.3769 -0.7227  0.1271
 3867SOL    HW214622   2.256   5.201   1.533  0.8309  0.8777 -0.0587
 3868SOL     OW14623   0.230   9.168   3.879 -0.6002 -0.2858 -0.3583
 3868SOL    HW114624   0.226   9.072   3.886 -0.6212 -0.1982  1.1660
 3868SOL    HW214625   0.209   9.186   3.788 -1.5830 -1.6906 -0.4395
 3869SOL     OW14626   8.349   6.982   4.827 -0.3438 -0.5022 -0.0841
 3869SOL    HW114627   8.347   7.076   4.842  0.5677  0.1304 -3.5168
 3869SOL    HW214628   8.423   6.968   4.767 -0.4994 -3.3725  0.2961
 3870SOL     OW14629   6.437   2.494   2.811  0.2892 -0.6572 -0.7545
 3870SOL    HW114630   6.418   2.528   2.898  2.0105  2.4735 -1.5487
 3870SOL    HW214631   6.354   2.456   2.782 -0.6780 -0.5164  1.6592
 3871SOL     OW14632   1.940   6.398   4.806  0.3414 -0.0798 -0.4016
 3871SOL    HW114633   2.012   6.453   4.837 -0.2073  0.6198 -0.3462
 3871SOL    HW214634   1.947   6.402   4.711 -0.7173  1.4674 -0.4230
 3872SOL     OW14635   4.925   3.400   4.546  0.0370  0.2127 -0.1725
 3872SOL    HW114636   4.912   3.337   4.617 -1.6957 -1.0537 -1.5492
 3872SOL    HW214637   4.985   3.357   4.486 -1.1781 -0.1810 -1.1347
 3873SOL     OW14638   9.242   8.463   0.959 -0.1010  0.3088  0.8834
 3873SOL    HW114639   9.335   8.448   0.941  0.0946 -0.4583  2.4862
 3873SOL    HW214640   9.199   8.385   0.923  0.1961 -0.7622  2.7458
 3874SOL     OW14641   1.601   6.935   5.899  0.0138 -0.6638 -0.0190
 3874SOL    HW114642   1.678   6.985   5.927 -0.3792 -0.7393  1.2011
 3874SOL    HW214643   1.623   6.844   5.917 -1.4090 -0.4823  2.9379
 3875SOL     OW14644   8.631   5.506   3.160  0.5745  0.1960 -0.6587
 3875SOL    HW114645   8.607   5.444   3.229 -0.4286  1.9294  0.6196
 3875SOL    HW214646   8.672   5.453   3.092  0.0520 -1.7967  0.5430
 3876SOL     OW14647   8.022   4.636   0.315  0.8434  0.3071  0.2029
 3876SOL    HW114648   8.057   4.711   0.268  0.3470  0.5128  0.1593
 3876SOL    HW214649   7.927   4.639   0.298  0.6530  0.4192  1.2506
 3877SOL     OW14650   3.391   1.479   3.722  0.2358  0.4669  0.0837
 3877SOL    HW114651   3.386   1.385   3.707  0.3239  0.6106 -0.9192
 3877SOL    HW214652   3.485   1.499   3.719  0.3611  0.2960  2.2541
 3878SOL     OW14653   7.614   5.473   8.442  0.5125  0.3775  0.2670
 3878SOL    HW114654   7.580   5.390   8.477 -0.0560  0.1070 -0.9038
 3878SOL    HW214655   7.681   5.446   8.379  1.2070  0.8529  0.7918
 3879SOL     OW14656   1.871   9.044   5.264 -0.8005 -0.6047  0.1276
 3879SOL    HW114657   1.909   9.122   5.224 -0.0300 -1.3747 -0.6705
 3879SOL    HW214658   1.942   9.007   5.316 -1.6732  0.1514  1.8788
 3880SOL     OW14659   5.950   7.931   4.005  0.6357 -0.0575  0.7231
 3880SOL    HW114660   5.865   7.973   4.019  0.4049 -0.6871  1.2545
 3880SOL    HW214661   5.938   7.878   3.926  1.0424  1.1684 -0.1707
 3881SOL     OW14662   5.594   4.244   0.985 -0.3692  0.1160  0.6039
 3881SOL    HW114663   5.537   4.235   1.061  0.2982 -0.0105  1.0913
 3881SOL    HW214664   5.637   4.159   0.977 -0.8623 -0.0657 -0.2658
 3882SOL     OW14665   1.786   2.730   0.955  0.4558  0.0132 -0.0942
 3882SOL    HW114666   1.832   2.669   1.013 -0.7439  0.4767  1.3729
 3882SOL    HW214667   1.848   2.803   0.944  0.4446  0.2402  1.1750
 3883SOL     OW14668   3.011   4.127   2.872  0.1012 -0.5368 -0.3045
 3883SOL    HW114669   3.062   4.205   2.897  0.5879 -0.9281 -0.0551
 3883SOL    HW214670   2.922   4.147   2.899  0.2510 -0.1152 -0.1160
 3884SOL     OW14671   8.583   5.716   3.564  0.3189 -0.4156  0.3659
 3884SOL    HW114672   8.531   5.651   3.612 -1.4296 -0.7807 -1.9458
 3884SOL    HW214673   8.638   5.757   3.632  0.3043 -3.1490  2.1390
 3885SOL     OW14674   1.738   5.223   6.092 -0.1987 -0.3846  0.1837
 3885SOL    HW114675   1.820   5.180   6.117 -0.0030 -0.8893 -1.2665
 3885SOL    HW214676   1.718   5.281   6.165 -0.5936 -3.1017  2.2942
 3886SOL     OW14677   2.525   8.550   2.263 -0.2020 -0.1145 -0.1654
 3886SOL    HW114678   2.548   8.527   2.173 -0.2658  0.0393 -0.2216
 3886SOL    HW214679   2.606   8.540   2.312  0.4760  2.3107 -0.7125
 3887SOL     OW14680   0.311   2.980   8.240  0.1714 -0.1442 -0.5571
 3887SOL    HW114681   0.271   2.953   8.158  0.8055 -1.9479 -0.2916
 3887SOL    HW214682   0.343   2.899   8.279  0.6440  0.7979  1.0623
 3888SOL     OW14683   5.919   0.030   3.892  0.4509 -0.1698  0.1346
 3888SOL    HW114684   5.914  -0.056   3.850  0.0415 -0.0488 -0.0653
 3888SOL    HW214685   5.828   0.053   3.909  0.5473  0.3655 -0.0936
 3889SOL     OW14686   3.036   8.018   4.343 -0.4063 -0.3440 -0.0461
 3889SOL    HW114687   2.948   7.981   4.350 -0.4613 -0.1269  0.4556
 3889SOL    HW214688   3.088   7.950   4.301 -0.5240 -0.9533  0.7903
 3890SOL     OW14689   7.926   8.853   7.480 -0.1520  0.1349  0.0742
 3890SOL    HW114690   8.020   8.837   7.481 -0.5342 -2.5786 -0.8929
 3890SOL    HW214691   7.893   8.811   7.560 -0.6466  0.1783 -0.1014
 3891SOL     OW14692   8.053   5.920   0.328  0.2700 -0.1989 -0.2181
 3891SOL    HW114693   8.129   5.900   0.274  0.0401  0.8087 -0.9360
 3891SOL    HW214694   8.086   5.977   0.398  0.2344  0.0159 -0.3738
 3892SOL     OW14695   4.820   6.883   4.521 -0.1903 -0.0661  0.5402
 3892SOL    HW114696   4.763   6.867   4.446  0.4288  1.9417 -0.3841
 3892SOL    HW214697   4.885   6.946   4.490  1.5254 -0.9994  2.0671
 3893SOL     OW14698   4.124   4.178   0.215  0.0686  0.3210 -0.2970
 3893SOL    HW114699   4.083   4.196   0.299 -1.5408 -1.8605 -0.5618
 3893SOL    HW214700   4.115   4.259   0.165 -1.8606  0.6237  0.5014
 3894SOL     OW14701   1.514   1.616   0.494 -0.1894  0.0691  0.6184
 3894SOL    HW114702   1.420   1.630   0.509  0.0096  0.2287  1.7452
 3894SOL    HW214703   1.527   1.638   0.402 -1.4605 -1.0450  0.1553
 3895SOL     OW14704   4.559   3.153   7.832 -0.3430 -0.4603 -0.1133
 3895SOL    HW114705   4.600   3.159   7.746 -1.8379  0.9524 -0.7659
 3895SOL    HW214706   4.529   3.063   7.838 -0.5997 -0.4620 -1.2651
 3896SOL     OW14707   6.524   0.432   9.119 -0.0577  0.2220  0.0117
 3896SOL    HW114708   6.521   0.527   9.127  0.7779  0.1960  0.6867
 3896SOL    HW214709   6.597   0.415   9.061  0.6063 -0.0530  0.9076
 3897SOL     OW14710   0.209   2.273   1.522 -0.0798 -0.0886 -0.2393
 3897SOL    HW114711   0.234   2.264   1.614  1.6376  0.1995 -0.6666
 3897SOL    HW214712   0.114   2.276   1.524 -0.1850 -2.6952  1.3125
 3898SOL     OW14713   7.358   4.187   1.740 -0.4995  0.3387 -0.2806
 3898SOL    HW114714   7.413   4.201   1.817 -1.2183 -0.2424  0.3480
 3898SOL    HW214715   7.290   4.254   1.746 -0.6045  0.2409 -0.3675
 3899SOL     OW14716   4.861   9.333   1.077  0.8222  0.1940  0.4952
 3899SOL    HW114717   4.837   9.244   1.103 -1.7425  0.3453 -1.1139
 3899SOL    HW214718   4.950   9.325   1.044  0.3374 -1.9580 -0.3884
 3900SOL     OW14719   1.333   5.850   8.675  0.0479 -0.1233 -0.2367
 3900SOL    HW114720   1.246   5.890   8.673  0.4641  1.0084  2.3625
 3900SOL    HW214721   1.393   5.924   8.677  1.0712 -0.9076 -1.8210
 3901SOL     OW14722   6.916   6.420   4.274  0.1333  0.2520  0.1718
 3901SOL    HW114723   6.885   6.508   4.255  0.5229  0.7424  1.7263
 3901SOL    HW214724   6.848   6.362   4.240  0.2121  1.1234 -1.4884
 3902SOL     OW14725   6.174   2.648   8.693  0.0509 -0.2867 -0.1918
 3902SOL    HW114726   6.249   2.589   8.701  0.1459 -0.2830 -1.0231
 3902SOL    HW214727   6.199   2.709   8.623  0.0765  0.9252  0.8599
 3903SOL     OW14728   8.416   4.902   2.511 -0.7580 -0.1347 -1.0172
 3903SOL    HW114729   8.476   4.956   2.460 -1.4050  0.5909 -1.0132
 3903SOL    HW214730   8.461   4.818   2.520  0.1788  0.3525 -1.1531
 3904SOL     OW14731   2.885   8.456   6.176  0.0027  0.6717 -0.5498
 3904SOL    HW114732   2.875   8.486   6.266 -1.1492  1.7193 -1.0151
 3904SOL    HW214733   2.874   8.535   6.123 -1.4207 -0.2773 -1.6984
 3905SOL     OW14734   6.869   8.868   8.561 -0.0851  0.5983 -0.3955
 3905SOL    HW114735   6.863   8.901   8.651 -0.0593  0.7019 -0.4306
 3905SOL    HW214736   6.805   8.797   8.557  1.3963 -0.8049  0.3117
 3906SOL     OW14737   0.789   0.031   9.032  0.4573 -0.2695  0.3262
 3906SOL    HW114738   0.777   0.076   8.948  2.4730  2.1397  1.2546
 3906SOL    HW214739   0.714  -0.028   9.038 -0.9147  1.1064 -2.1499
 3907SOL     OW14740   7.936   5.911   1.068 -0.4587  0.3905 -0.2717
 3907SOL    HW114741   7.971   5.992   1.105  1.7670 -0.3396 -0.6984
 3907SOL    HW214742   7.975   5.841   1.120 -0.1748 -0.5000 -1.6405
 3908SOL     OW14743   6.889   4.523   7.544 -0.4030 -0.3507 -0.3126
 3908SOL    HW114744   6.882   4.500   7.636  0.5423 -0.2734 -0.2200
 3908SOL    HW214745   6.974   4.488   7.516 -0.1904  0.5955 -0.8719
 3909SOL     OW14746   3.271   1.071   1.126 -0.4248  0.2975  0.2339
 3909SOL    HW114747   3.300   1.126   1.198  2.4419  1.5502 -1.8007
 3909SOL    HW214748   3.231   1.132   1.064  1.0546 -0.1553 -1.1810
 3910SOL     OW14749   9.296   4.130   0.933  0.4366 -0.2393  0.1863
 3910SOL    HW114750   9.209   4.146   0.897  0.7820 -0.0004 -0.5393
 3910SOL    HW214751   9.306   4.035   0.929  1.5010 -0.0358 -2.7599
 3911SOL     OW14752   0.302   0.625   8.127 -0.4284  0.3592  0.5253
 3911SOL    HW114753   0.369   0.689   8.102 -0.2370 -0.6059 -1.4895
 3911SOL    HW214754   0.221   0.658   8.088 -0.2326 -0.8863 -0.9375
 3912SOL     OW14755   0.887   4.919   1.875  0.1292 -0.1046  0.4247
 3912SOL    HW114756   0.915   4.987   1.936  0.1060  0.7985 -0.5504
 3912SOL    HW214757   0.863   4.967   1.795  0.7479 -1.3067 -0.4987
 3913SOL     OW14758   5.973   6.238   5.317 -0.2827  0.5823  0.1903
 3913SOL    HW114759   6.066   6.215   5.311  0.0037  1.6277  0.3316
 3913SOL    HW214760   5.926   6.156   5.305  0.6833 -0.0694  0.7911
 3914SOL     OW14761   4.507   1.954   7.207  0.1156 -0.4897  0.3977
 3914SOL    HW114762   4.520   1.982   7.298  0.8381 -0.7199  0.3654
 3914SOL    HW214763   4.537   2.028   7.155 -1.2406  0.0413  0.3512
 3915SOL     OW14764   5.473   6.451   9.154 -0.6248  0.0058  0.1265
 3915SOL    HW114765   5.477   6.425   9.246  0.6725 -1.3059 -0.2755
 3915SOL    HW214766   5.459   6.369   9.107 -1.2185  0.6654 -0.8413
 3916SOL     OW14767   1.077   7.814   0.020  0.2076  0.1734 -0.0787
 3916SOL    HW114768   1.136   7.741   0.001  0.2550  0.2220 -0.1191
 3916SOL    HW214769   1.097   7.839   0.111  1.0278  0.9086 -0.4506
 3917SOL     OW14770   5.279   4.738   5.093  0.7083 -0.3459  0.3030
 3917SOL    HW114771   5.361   4.761   5.137  1.0046  0.8958 -0.8596
 3917SOL    HW214772   5.214   4.799   5.128  1.1801  1.3906 -1.7185
 3918SOL     OW14773   0.423   3.307   6.012  0.2086 -0.4539  0.3731
 3918SOL    HW114774   0.438   3.309   6.106 -1.2598  1.4458  0.5981
 3918SOL    HW214775   0.336   3.343   6.001  0.8050  0.3915 -1.8052
 3919SOL     OW14776   3.978   1.244   6.656 -0.2722 -0.2996 -0.0172
 3919SOL    HW114777   3.893   1.251   6.612 -0.7380 -2.4720  0.4450
 3919SOL    HW214778   4.042   1.254   6.587 -0.9428  0.1086 -0.5802
 3920SOL     OW14779   7.568   9.032   4.006 -0.3408 -0.0710  0.3286
 3920SOL    HW114780   7.637   9.059   3.946  1.5340 -0.3681  2.2787
 3920SOL    HW214781   7.565   9.101   4.072  0.5378 -1.7804  2.1957
 3921SOL     OW14782   4.570   0.320   3.043 -0.1363  0.5644 -0.0977
 3921SOL    HW114783   4.617   0.316   3.126  1.0529  1.9532 -0.6824
 3921SOL    HW214784   4.508   0.392   3.054  1.0946  1.7888 -0.9174
 3922SOL     OW14785   4.674   1.362   7.857 -0.1425  0.2355 -0.3720
 3922SOL    HW114786   4.658   1.273   7.888 -0.1349 -0.1823 -1.5488
 3922SOL    HW214787   4.699   1.352   7.766  1.2011  1.3499 -0.1377
 3923SOL     OW14788   0.788   5.363   8.298  0.0108 -0.1398  0.0397
 3923SOL    HW114789   0.758   5.356   8.207 -1.8800  1.3931  0.4979
 3923SOL    HW214790   0.836   5.446   8.301  1.1781 -0.8112  0.1598
 3924SOL     OW14791   8.695   1.012   7.024  0.2374 -0.2987 -0.3448
 3924SOL    HW114792   8.661   1.081   6.967  3.0462  1.2698 -0.2462
 3924SOL    HW214793   8.645   0.934   7.000 -0.3080  0.8696 -3.2835
 3925SOL     OW14794   7.921   9.341   1.370  0.1498 -0.1121 -0.4773
 3925SOL    HW114795   7.839   9.334   1.419  0.1615  1.8339 -0.1309
 3925SOL    HW214796   7.948   9.433   1.381  1.6200 -0.3599 -1.7876
 3926SOL     OW14797   3.404   6.730   3.002  0.6163 -0.5267 -0.6160
 3926SOL    HW114798   3.346   6.774   2.939 -0.4364 -0.1767  0.5721
 3926SOL    HW214799   3.400   6.637   2.976 -1.3856 -0.6825  0.1117
 3927SOL     OW14800   1.691   6.024   3.993 -0.2170  0.0555 -0.2194
 3927SOL    HW114801   1.672   5.951   4.053 -0.9023  1.2227  1.0205
 3927SOL    HW214802   1.786   6.028   3.991 -0.1837  0.3956  1.3042
 3928SOL     OW14803   1.330   0.367   2.835  0.0784 -0.9357 -0.3464
 3928SOL    HW114804   1.279   0.395   2.760 -1.3383 -1.1117  0.5332
 3928SOL    HW214805   1.412   0.333   2.798  0.0822  0.4789 -1.6797
 3929SOL     OW14806   7.859   6.222   7.149 -0.4104  0.3508 -0.2331
 3929SOL    HW114807   7.883   6.135   7.180  1.1012  1.0735  0.6410
 3929SOL    HW214808   7.793   6.253   7.211  0.9988  0.8994  1.0065
 3930SOL     OW14809   0.404   1.162   7.751  0.1094 -0.6462  0.1535
 3930SOL    HW114810   0.457   1.170   7.830  0.1280 -4.0610  0.5517
 3930SOL    HW214811   0.319   1.198   7.775 -0.1533 -2.4829  2.0415
 3931SOL     OW14812   1.279   0.078   0.464  0.3835 -0.0014  0.1395
 3931SOL    HW114813   1.250   0.090   0.373  0.6227 -1.3626 -0.1328
 3931SOL    HW214814   1.365   0.035   0.456  0.6094  0.2801  1.0039
 3932SOL     OW14815   5.997   0.533   0.614  0.2519  0.5129  0.5365
 3932SOL    HW114816   6.007   0.545   0.520  0.9648  0.0700  0.5502
 3932SOL    HW214817   6.009   0.439   0.627 -1.3070  0.3403  0.8964
 3933SOL     OW14818   8.090   6.986   3.287  0.1936  0.2735 -0.2821
 3933SOL    HW114819   7.998   6.978   3.310  0.7792 -1.0957  1.7922
 3933SOL    HW214820   8.127   7.042   3.357  1.2203 -0.4745 -0.2161
 3934SOL     OW14821   6.009   8.932   0.366  0.1167  0.4963  0.0594
 3934SOL    HW114822   6.048   8.947   0.452  1.1111  0.2481 -0.3418
 3934SOL    HW214823   5.958   8.851   0.376  0.2381  0.4653  0.4145
 3935SOL     OW14824   2.321   0.671   3.161  0.2172 -0.2181  0.3434
 3935SOL    HW114825   2.393   0.686   3.222  0.2974  0.4018  0.1018
 3935SOL    HW214826   2.361   0.676   3.074 -0.0903  0.0041  0.2116
 3936SOL     OW14827   0.169   6.545   4.928 -0.3455 -0.5640 -0.0712
 3936SOL    HW114828   0.097   6.573   4.983 -0.9063 -0.9336 -0.6066
 3936SOL    HW214829   0.246   6.587   4.965 -1.0774  1.1966 -0.5048
 3937SOL     OW14830   5.197   2.316   1.931  0.2785 -0.1596  0.1319
 3937SOL    HW114831   5.283   2.348   1.958  0.6928 -0.1578 -1.1485
 3937SOL    HW214832   5.213   2.230   1.893 -0.5118 -0.8565  1.3482
 3938SOL     OW14833   3.998   8.822   8.878  0.1700  0.5532 -0.4472
 3938SOL    HW114834   4.002   8.823   8.974  0.3341  2.1205 -0.4640
 3938SOL    HW214835   4.089   8.816   8.850  0.1254  0.1466 -0.5056
 3939SOL     OW14836   0.465   8.620   4.903  0.0961  0.2432  0.3649
 3939SOL    HW114837   0.378   8.646   4.874  0.5528 -0.3081 -1.5632
 3939SOL    HW214838   0.451   8.579   4.988 -1.3801  1.1809  0.5793
 3940SOL     OW14839   3.764   1.714   5.552  0.2020 -0.0819  0.2549
 3940SOL    HW114840   3.812   1.653   5.496 -0.5883  0.6333 -1.2536
 3940SOL    HW214841   3.829   1.776   5.583  0.4607  0.1728 -0.7954
 3941SOL     OW14842   0.773   3.404   8.948  0.3331 -0.1045 -0.1644
 3941SOL    HW114843   0.833   3.479   8.954  0.8393 -0.5335  0.1406
 3941SOL    HW214844   0.731   3.401   9.035 -0.8837  0.8151 -0.6995
 3942SOL     OW14845   1.479   5.089   0.178 -0.4698  0.4393  0.7333
 3942SOL    HW114846   1.473   4.994   0.186  1.2336  0.1096 -1.2911
 3942SOL    HW214847   1.510   5.119   0.264  0.6760 -1.0398  0.8591
 3943SOL     OW14848   8.867   4.625   3.910 -0.0627 -0.1781 -0.7750
 3943SOL    HW114849   8.863   4.655   4.000  0.4508 -0.2524 -0.7259
 3943SOL    HW214850   8.830   4.537   3.912  0.7756 -0.5267 -0.4814
 3944SOL     OW14851   4.330   1.213   2.691 -0.3005  0.1388  0.4392
 3944SOL    HW114852   4.369   1.289   2.648 -1.1328 -1.0149 -2.5187
 3944SOL    HW214853   4.239   1.239   2.708 -0.8040 -0.4215 -1.2845
 3945SOL     OW14854   9.338   8.344   6.700  0.0206  0.0597 -0.1138
 3945SOL    HW114855   9.324   8.339   6.794 -0.5938 -0.9270 -0.2534
 3945SOL    HW214856   9.354   8.437   6.683 -1.1234  0.4337  0.7794
 3946SOL     OW14857   9.125   6.630   4.651 -0.0305  0.0163  0.6627
 3946SOL    HW114858   9.057   6.686   4.689 -0.7361  0.5070 -1.2759
 3946SOL    HW214859   9.085   6.543   4.650  0.6606 -0.3633  2.6519
 3947SOL     OW14860   2.594   0.085   7.548 -0.4346 -0.1071 -0.0933
 3947SOL    HW114861   2.651   0.013   7.523 -0.7751 -0.7940  1.0652
 3947SOL    HW214862   2.531   0.092   7.476 -1.0900 -1.7078  0.3144
 3948SOL     OW14863   7.638   1.329   6.731  0.6482  0.4950  0.1193
 3948SOL    HW114864   7.668   1.239   6.740 -0.0404  0.2164 -0.3416
 3948SOL    HW214865   7.604   1.334   6.642 -1.9847  0.4176  1.1053
 3949SOL     OW14866   3.001   3.302   9.282  0.0161 -0.4136 -0.4870
 3949SOL    HW114867   2.974   3.349   9.203 -0.3067  1.2524  0.5700
 3949SOL    HW214868   3.059   3.363   9.327  1.8280 -2.1469 -0.4327
 3950SOL     OW14869   9.011   7.182   4.801  0.4358  0.0408 -0.5614
 3950SOL    HW114870   9.069   7.217   4.734  1.4170 -0.1622  0.1762
 3950SOL    HW214871   8.936   7.148   4.752  0.4509  1.2551 -1.4367
 3951SOL     OW14872   1.469   2.926   6.458 -0.1436 -0.5569 -0.3976
 3951SOL    HW114873   1.447   3.006   6.410  0.3853  1.9097  3.2635
 3951SOL    HW214874   1.384   2.887   6.479 -0.3906 -1.3531 -2.7143
 3952SOL     OW14875   2.810   2.801   1.713 -0.3516  0.2953 -0.0632
 3952SOL    HW114876   2.759   2.724   1.687  0.0093  0.6041 -1.7357
 3952SOL    HW214877   2.793   2.865   1.644  1.2489  0.8586  0.0471
 3953SOL     OW14878   7.166   0.956   5.182 -0.4989  0.0855 -0.5889
 3953SOL    HW114879   7.224   0.883   5.162  0.0566  0.5789 -0.7951
 3953SOL    HW214880   7.136   0.987   5.096 -0.2095  0.5120 -0.5429
 3954SOL     OW14881   5.083   9.241   5.286 -0.1754  0.1635 -0.3176
 3954SOL    HW114882   5.017   9.200   5.342  1.1696 -0.6126  0.7335
 3954SOL    HW214883   5.165   9.230   5.334  0.8816  0.2249 -2.0796
 3955SOL     OW14884   8.893   2.796   2.001 -0.2435 -0.3557  0.0679
 3955SOL    HW114885   8.862   2.792   2.092 -0.8780  0.5268 -0.1085
 3955SOL    HW214886   8.819   2.767   1.949 -0.1172 -0.1648 -0.2206
 3956SOL     OW14887   2.354   1.433   3.957 -0.3405 -0.3109 -0.2952
 3956SOL    HW114888   2.389   1.345   3.947 -1.1910 -0.7007  0.0691
 3956SOL    HW214889   2.282   1.423   4.020  1.0610  1.0472  1.5645
 3957SOL     OW14890   2.240   8.462   7.038  0.3664 -0.1901 -0.0540
 3957SOL    HW114891   2.239   8.421   6.951 -1.5441  0.7607 -0.5028
 3957SOL    HW214892   2.311   8.526   7.033  0.5776 -0.4679 -0.7561
 3958SOL     OW14893   1.163   5.667   7.967  0.2320 -0.0316 -0.0572
 3958SOL    HW114894   1.079   5.676   8.013  0.2984 -1.1446  0.2941
 3958SOL    HW214895   1.226   5.713   8.022 -0.2020  1.0940 -0.4876
 3959SOL     OW14896   3.659   9.246   8.812 -0.5642 -0.4098  0.0101
 3959SOL    HW114897   3.607   9.229   8.890  0.2951  1.6709  1.0848
 3959SOL    HW214898   3.720   9.173   8.807 -0.6775 -0.6040  1.2498
 3960SOL     OW14899   0.136   1.029   9.057 -0.4118  0.3726  0.3573
 3960SOL    HW114900   0.059   1.058   9.106 -2.6067 -1.2289 -1.9772
 3960SOL    HW214901   0.123   0.935   9.047  0.7165  0.4416 -2.0196
 3961SOL     OW14902   1.469   7.162   7.268  0.1300  0.2783  0.0599
 3961SOL    HW114903   1.416   7.209   7.332  0.1669 -0.5393  0.6900
 3961SOL    HW214904   1.469   7.071   7.298  4.3408  0.7435  1.7815
 3962SOL     OW14905   0.348   7.786   1.168  0.1781  0.0931 -0.6926
 3962SOL    HW114906   0.322   7.878   1.179  0.2419  0.2657 -1.9179
 3962SOL    HW214907   0.269   7.736   1.189 -0.1460  0.4699 -1.0164
 3963SOL     OW14908   5.543   2.449   8.119 -0.1753  0.0893  0.0728
 3963SOL    HW114909   5.634   2.417   8.124 -0.3382 -0.5420 -0.8556
 3963SOL    HW214910   5.506   2.403   8.044 -0.9751  1.1024 -0.1526
 3964SOL     OW14911   0.847   0.291   4.236 -0.2451 -0.3295 -0.3781
 3964SOL    HW114912   0.893   0.265   4.315 -0.5287 -1.0585 -0.4486
 3964SOL    HW214913   0.828   0.384   4.249 -1.3747 -0.7236  0.9546
 3965SOL     OW14914   6.368   5.133   7.046 -0.0157 -0.6399  0.2181
 3965SOL    HW114915   6.308   5.179   7.105  1.9724  0.3077  1.5418
 3965SOL    HW214916   6.314   5.113   6.969 -2.3432 -0.8906  1.8528
 3966SOL     OW14917   9.257   5.067   7.163 -0.3069  0.0650  0.5634
 3966SOL    HW114918   9.330   5.108   7.116  1.0477 -0.1629  2.4080
 3966SOL    HW214919   9.208   5.141   7.200  1.3191  0.1426  2.6832
 3967SOL     OW14920   7.106   3.773   2.365  0.0992 -0.0892  0.3342
 3967SOL    HW114921   7.130   3.717   2.439  1.8245  0.2107  0.0083
 3967SOL    HW214922   7.063   3.714   2.304 -1.5743 -0.3008  1.6562
 3968SOL     OW14923   2.226   8.988   1.994 -0.0753 -0.2284  0.3736
 3968SOL    HW114924   2.278   9.020   1.921  0.3332  0.5577  1.0092
 3968SOL    HW214925   2.234   9.055   2.062  1.7976 -2.1835  2.1969
 3969SOL     OW14926   2.000   7.551   2.996  0.3580  0.0405 -0.4263
 3969SOL    HW114927   1.993   7.462   3.032  0.5571  0.2474  0.1232
 3969SOL    HW214928   2.029   7.538   2.906 -1.3545 -0.5489 -0.9279
 3970SOL     OW14929   8.919   3.693   6.660 -0.0266 -0.6063 -0.6086
 3970SOL    HW114930   8.874   3.776   6.669  0.9277  0.1239 -2.2062
 3970SOL    HW214931   9.012   3.716   6.666  0.2006 -1.7737  0.4841
 3971SOL     OW14932   0.445   3.239   1.730  0.9754 -0.3627 -0.1402
 3971SOL    HW114933   0.469   3.156   1.769 -0.4112 -0.6677  0.1086
 3971SOL    HW214934   0.392   3.282   1.797 -0.5124 -0.4206 -1.2490
 3972SOL     OW14935   4.217   2.510   5.031 -0.8804  0.2691  0.4602
 3972SOL    HW114936   4.202   2.597   4.993 -2.6749  0.2094  0.9978
 3972SOL    HW214937   4.281   2.470   4.973 -3.7068  0.1054 -2.6772
 3973SOL     OW14938   6.128   3.002   5.454  0.0675 -0.0673 -0.0197
 3973SOL    HW114939   6.113   2.940   5.525  0.9745 -2.5535 -1.8776
 3973SOL    HW214940   6.203   3.054   5.482 -1.4417  1.0215  2.0840
 3974SOL     OW14941   7.559   6.691   7.940 -0.4429 -0.2883  0.3777
 3974SOL    HW114942   7.528   6.775   7.975 -2.2641 -0.1589 -1.4305
 3974SOL    HW214943   7.638   6.672   7.990 -0.4123  2.1432  1.3362
 3975SOL     OW14944   4.832   5.878   6.638  0.1449  0.1229  0.1816
 3975SOL    HW114945   4.923   5.873   6.609 -0.1455 -0.0884 -0.7074
 3975SOL    HW214946   4.781   5.861   6.560 -0.6628 -0.0749  0.7449
 3976SOL     OW14947   2.102   6.019   4.811  0.3851  0.4155  0.3724
 3976SOL    HW114948   2.154   6.091   4.846  0.4620 -0.0769  1.2863
 3976SOL    HW214949   2.160   5.977   4.748  0.0567  1.6313 -0.7633
 3977SOL     OW14950   2.345   5.181   0.856  0.2114  0.3786  0.6049
 3977SOL    HW114951   2.400   5.259   0.865 -0.6926  0.9663  1.0587
 3977SOL    HW214952   2.292   5.179   0.935 -0.2650 -0.3147  0.2749
 3978SOL     OW14953   4.522   6.311   1.869 -0.2348 -0.3251  0.1875
 3978SOL    HW114954   4.571   6.386   1.903 -0.6949  0.7711 -1.4773
 3978SOL    HW214955   4.563   6.235   1.909  1.3060  0.7312  0.6503
 3979SOL     OW14956   2.208   1.920   1.275  0.6031 -0.0473  0.2145
 3979SOL    HW114957   2.143   1.941   1.208  0.7450 -0.8170 -0.1740
 3979SOL    HW214958   2.183   1.973   1.350 -0.7543 -0.6723  0.2213
 3980SOL     OW14959   1.937   3.301   5.212  0.2209 -0.6351  0.2892
 3980SOL    HW114960   1.940   3.308   5.117 -0.1726 -1.1061  0.2405
 3980SOL    HW214961   1.867   3.361   5.238  0.4640 -0.3533  0.3011
 3981SOL     OW14962   5.706   7.120   4.165  0.3744 -0.3038  0.0964
 3981SOL    HW114963   5.652   7.046   4.138  1.2673 -0.2342 -1.9114
 3981SOL    HW214964   5.795   7.085   4.171  0.4666  0.0971  1.2918
 3982SOL     OW14965   0.033   2.622   9.028  0.3615 -0.1570 -0.4738
 3982SOL    HW114966   0.011   2.712   9.055 -0.7193 -0.9885  1.5259
 3982SOL    HW214967  -0.033   2.601   8.962 -1.0643 -0.4229  1.0129
 3983SOL     OW14968   8.537   1.161   3.789  0.5186 -0.4620  0.3134
 3983SOL    HW114969   8.523   1.219   3.863  0.8642  2.5989 -1.9366
 3983SOL    HW214970   8.456   1.165   3.739  0.2462 -2.5975  0.5348
 3984SOL     OW14971   1.856   7.137   8.242 -0.4032 -0.1049  0.0425
 3984SOL    HW114972   1.880   7.184   8.162 -3.3791 -0.0942 -0.8981
 3984SOL    HW214973   1.922   7.069   8.251  0.5453  0.5402 -1.8524
 3985SOL     OW14974   4.385   7.161   3.441  0.2566 -0.5596 -0.1711
 3985SOL    HW114975   4.301   7.132   3.477  0.6622 -0.2705  1.0268
 3985SOL    HW214976   4.415   7.229   3.501  1.8608 -1.4198  0.0290
 3986SOL     OW14977   2.689   8.403   2.949  0.1551 -0.0367 -0.2134
 3986SOL    HW114978   2.642   8.321   2.962 -0.5937  0.2707 -0.9595
 3986SOL    HW214979   2.734   8.392   2.865 -0.9414  0.7670 -0.9300
 3987SOL     OW14980   9.396   2.397   7.878 -0.5631  0.2773  0.0462
 3987SOL    HW114981   9.319   2.443   7.844  0.2295 -0.5746 -3.0693
 3987SOL    HW214982   9.361   2.337   7.944 -2.4397  0.5480 -0.6775
 3988SOL     OW14983   9.023   0.590   0.784  0.4983  0.4266 -0.2451
 3988SOL    HW114984   8.970   0.526   0.830 -2.3307  1.5843 -1.7864
 3988SOL    HW214985   9.088   0.538   0.737  0.1060 -1.0856  0.8675
 3989SOL     OW14986   7.466   1.996   8.641  0.5796  0.4651 -0.6549
 3989SOL    HW114987   7.547   1.957   8.672 -0.1793 -0.5133  0.1276
 3989SOL    HW214988   7.453   2.073   8.696 -0.0280 -0.4689  0.5105
 3990SOL     OW14989   1.669   7.738   0.794  0.1908 -0.1037  0.4003
 3990SOL    HW114990   1.644   7.704   0.709  2.3623 -0.5958 -0.0838
 3990SOL    HW214991   1.697   7.828   0.777 -1.0645  0.3938  0.9028
 3991SOL     OW14992   5.371   7.373   3.296  0.4296 -0.8215 -0.2773
 3991SOL    HW114993   5.282   7.343   3.276 -0.0350 -0.6453  1.4486
 3991SOL    HW214994   5.427   7.319   3.241 -0.5752 -2.9435  0.7124
 3992SOL     OW14995   9.193   0.645   8.800 -0.5148  0.1227  0.0407
 3992SOL    HW114996   9.256   0.693   8.746 -0.2139  1.2552  1.3881
 3992SOL    HW214997   9.247   0.588   8.855 -0.7807 -0.3370 -0.1642
 3993SOL     OW14998   8.033   9.309   7.947 -0.0672  0.7113 -1.1598
 3993SOL    HW114999   8.074   9.287   7.863  0.4136 -0.4403 -0.6389
 3993SOL    HW215000   7.982   9.388   7.929 -1.9393 -0.8855 -3.1309
 3994SOL     OW15001   8.292   3.275   4.447 -0.0703 -0.0652 -0.3385
 3994SOL    HW115002   8.200   3.278   4.475  0.4948  0.5074  1.5320
 3994SOL    HW215003   8.309   3.182   4.433 -1.1517 -0.1066 -1.5027
 3995SOL     OW15004   3.128   4.205   1.948 -0.1976  0.1677  0.1837
 3995SOL    HW115005   3.062   4.138   1.963  0.8594 -1.4584 -2.0164
 3995SOL    HW215006   3.160   4.187   1.859  0.8830  2.9244 -0.0358
 3996SOL     OW15007   8.994   2.733   0.560  0.3232  0.2858 -0.0558
 3996SOL    HW115008   8.920   2.757   0.505  0.4456  1.4333  0.2681
 3996SOL    HW215009   8.980   2.640   0.580 -0.4760  0.2321 -0.8340
 3997SOL     OW15010   4.262   3.421   7.325  0.2351  0.3454  0.1267
 3997SOL    HW115011   4.174   3.457   7.310  0.3058  0.7009  0.5515
 3997SOL    HW215012   4.261   3.394   7.417 -0.5833 -2.8658 -0.7520
 3998SOL     OW15013   4.908   4.303   0.681 -0.1253  0.4429  0.1315
 3998SOL    HW115014   4.983   4.353   0.712  0.3514 -0.5394  0.5783
 3998SOL    HW215015   4.863   4.362   0.621  0.0989  1.6181  1.1020
 3999SOL     OW15016   3.498   3.353   6.684  0.6477  0.2072 -0.2034
 3999SOL    HW115017   3.583   3.384   6.715  0.8847  0.5416 -1.1751
 3999SOL    HW215018   3.473   3.284   6.746  1.4350  0.3909  0.3167
 4000SOL     OW15019   1.025   8.824   8.917  0.0797  0.2461  0.3085
 4000SOL    HW115020   0.947   8.831   8.971 -1.0983 -0.6164 -1.2540
 4000SOL    HW215021   1.055   8.734   8.929  0.4505  0.3710  0.3565
 4001SOL     OW15022   5.508   0.053   8.913 -0.2031  0.3219 -0.2696
 4001SOL    HW115023   5.599   0.030   8.933 -0.0751  0.2040 -0.9675
 4001SOL    HW215024   5.501   0.041   8.818 -0.9722  0.2548 -0.2038
 4002SOL     OW15025   2.629   1.873   3.335 -0.2206 -0.2385  0.3658
 4002SOL    HW115026   2.547   1.923   3.332 -0.4186 -0.6894 -3.1985
 4002SOL    HW215027   2.604   1.784   3.308  1.2233 -0.7002  0.5379
 4003SOL     OW15028   4.588   1.453   8.319  0.3090 -0.2583 -0.0059
 4003SOL    HW115029   4.580   1.445   8.224 -0.8380 -0.0712  0.0777
 4003SOL    HW215030   4.597   1.547   8.335 -2.7522  0.0218  0.3086
 4004SOL     OW15031   2.713   5.044   0.017 -0.4081  0.7202  0.1483
 4004SOL    HW115032   2.806   5.034   0.039 -1.1483 -3.1863  2.0457
 4004SOL    HW215033   2.692   5.134   0.041  2.7053  1.4819  0.2719
 4005SOL     OW15034   8.412   5.765   6.218 -0.0138  0.1097 -0.9274
 4005SOL    HW115035   8.483   5.787   6.158 -1.3343  0.8370 -2.2449
 4005SOL    HW215036   8.422   5.825   6.292  1.5591 -0.7212 -0.4465
 4006SOL     OW15037   5.801   0.502   0.831 -0.5967 -0.0980  0.4825
 4006SOL    HW115038   5.881   0.469   0.790 -0.6076 -0.7291  0.9676
 4006SOL    HW215039   5.789   0.589   0.792  0.5758  0.1956  0.7603
 4007SOL     OW15040   0.452   8.774   1.481 -0.9520  0.2705  0.0896
 4007SOL    HW115041   0.438   8.680   1.492 -0.6502  0.2489  0.3011
 4007SOL    HW215042   0.371   8.814   1.511 -0.6488  0.1368  1.0950
 4008SOL     OW15043   2.378   5.095   7.477 -0.5117  0.0371  0.5193
 4008SOL    HW115044   2.356   5.178   7.435  0.5406 -0.1219 -0.3636
 4008SOL    HW215045   2.313   5.033   7.443 -0.2007  0.1046 -0.2057
 4009SOL     OW15046   4.754   5.221   4.096  0.7807 -0.2914  0.4593
 4009SOL    HW115047   4.824   5.158   4.105  1.4356  0.4434  0.5556
 4009SOL    HW215048   4.710   5.197   4.014  0.8876 -0.9932  0.6061
 4010SOL     OW15049   8.449   7.266   2.769  0.4824 -0.1644 -0.3037
 4010SOL    HW115050   8.402   7.325   2.828  4.6334  0.2840  2.7761
 4010SOL    HW215051   8.467   7.319   2.691 -0.9251  0.7448 -0.0249
 4011SOL     OW15052   3.974   6.295   1.621 -0.3292  0.3233 -0.5391
 4011SOL    HW115053   4.066   6.281   1.643 -1.0816  0.3330  2.8815
 4011SOL    HW215054   3.967   6.388   1.603  0.2220  0.4389 -0.1629
 4012SOL     OW15055   8.985   8.988   5.985 -0.2892 -0.0725 -0.0358
 4012SOL    HW115056   8.988   9.079   6.013 -0.1529 -0.8030  2.4847
 4012SOL    HW215057   8.892   8.971   5.968 -0.3017  0.5568 -0.6108
 4013SOL     OW15058   8.888   2.880   5.788 -0.3125 -0.5251 -0.1112
 4013SOL    HW115059   8.823   2.843   5.728 -1.5932 -1.5763  1.8747
 4013SOL    HW215060   8.954   2.811   5.795 -0.3934 -0.5885  0.0313
 4014SOL     OW15061   7.353   5.333   6.438 -0.1072 -0.3075 -0.4302
 4014SOL    HW115062   7.375   5.300   6.351 -0.8065  0.2656 -0.8267
 4014SOL    HW215063   7.263   5.364   6.430 -0.0297  0.1458  0.3893
 4015SOL     OW15064   0.441   4.341   5.313  0.0864  0.1159  0.2053
 4015SOL    HW115065   0.444   4.324   5.407  0.2091  1.6680  0.4852
 4015SOL    HW215066   0.358   4.302   5.285  0.6945 -1.5635  0.7020
 4016SOL     OW15067   4.319   0.167   3.602 -0.4974 -0.2391  0.3826
 4016SOL    HW115068   4.376   0.243   3.594 -0.4149 -0.3728 -0.3152
 4016SOL    HW215069   4.281   0.175   3.689  0.3566  0.0055  0.7376
 4017SOL     OW15070   9.441   5.932   8.412 -0.0853  0.0019  0.2666
 4017SOL    HW115071   9.534   5.953   8.401 -0.2466  0.0662 -1.0602
 4017SOL    HW215072   9.403   6.010   8.452  0.0730  0.7172 -0.9618
 4018SOL     OW15073   4.450   4.266   6.817  0.3658  0.0246  0.3016
 4018SOL    HW115074   4.410   4.182   6.839  0.5754  0.2040  1.3933
 4018SOL    HW215075   4.417   4.286   6.730  0.0666 -1.0398  0.1626
 4019SOL     OW15076   9.372   0.678   4.592 -0.1631  0.2939  0.7661
 4019SOL    HW115077   9.411   0.661   4.506 -0.2061 -0.6726  0.9382
 4019SOL    HW215078   9.417   0.618   4.651  0.4799  1.5450  1.5922
 4020SOL     OW15079   3.147   1.204   6.354  0.3393 -0.1305  0.1530
 4020SOL    HW115080   3.087   1.256   6.409  1.4575  1.2729  0.0788
 4020SOL    HW215081   3.108   1.207   6.267 -0.6817 -1.1562  0.5602
 4021SOL     OW15082   3.537   3.101   1.078  0.2539  0.2780 -0.4616
 4021SOL    HW115083   3.510   3.056   1.158  2.2826  0.3750  0.3117
 4021SOL    HW215084   3.514   3.040   1.008 -1.2806  0.0688  0.1968
 4022SOL     OW15085   1.572   9.427   4.388 -0.9538 -0.1457 -0.6347
 4022SOL    HW115086   1.525   9.491   4.442 -0.2877  0.5433 -0.8723
 4022SOL    HW215087   1.617   9.371   4.451 -0.4653  0.4385 -0.4601
 4023SOL     OW15088   8.791   1.063   0.174  0.0947 -0.4169 -0.6079
 4023SOL    HW115089   8.836   1.085   0.256 -0.1928 -5.2291  1.0328
 4023SOL    HW215090   8.721   1.127   0.166  0.9197  0.9129  2.2230
 4024SOL     OW15091   0.558   5.225   4.949  0.1512 -0.4640  0.1387
 4024SOL    HW115092   0.537   5.241   4.857  1.8059  2.2670  0.1702
 4024SOL    HW215093   0.633   5.283   4.966 -1.8969  1.2227  3.9392
 4025SOL     OW15094   0.297   0.770   8.386 -0.3570  0.0850 -0.1073
 4025SOL    HW115095   0.348   0.691   8.404 -1.5160 -0.7045 -0.2434
 4025SOL    HW215096   0.317   0.792   8.295 -0.6770 -0.5343 -0.3285
 4026SOL     OW15097   0.073   7.090   3.976 -0.4562  0.4552 -0.0052
 4026SOL    HW115098   0.074   7.138   4.059 -2.1557 -0.7502  0.7486
 4026SOL    HW215099  -0.018   7.094   3.947 -1.0747 -3.6719  0.9389
 4027SOL     OW15100   0.367   5.546   7.826  0.1061 -0.4246 -0.0407
 4027SOL    HW115101   0.299   5.613   7.826  0.4287 -0.0872  0.4851
 4027SOL    HW215102   0.441   5.586   7.782  0.3275 -0.4060  0.3470
 4028SOL     OW15103   6.714   2.989   5.522  0.5170  0.1524  0.3172
 4028SOL    HW115104   6.756   3.003   5.437  0.2076 -1.1640 -0.0698
 4028SOL    HW215105   6.620   2.999   5.504  0.3078 -1.9981  0.0818
 4029SOL     OW15106   7.585   4.121   5.721 -0.5287 -0.1215  0.2169
 4029SOL    HW115107   7.495   4.091   5.710 -1.1717  1.1044  1.8996
 4029SOL    HW215108   7.611   4.152   5.634 -1.7032 -0.5306 -0.2856
 4030SOL     OW15109   9.026   0.237   4.170 -0.2458 -0.5309 -0.4361
 4030SOL    HW115110   9.063   0.297   4.234  1.0372  0.4942 -2.0907
 4030SOL    HW215111   8.958   0.287   4.125  0.0692 -0.6668 -1.0742
 4031SOL     OW15112   3.654   5.501   3.615 -0.0769 -0.4763 -0.0285
 4031SOL    HW115113   3.561   5.523   3.605 -0.2389 -1.1401 -0.0578
 4031SOL    HW215114   3.699   5.556   3.551 -0.5095 -0.5113 -0.3695
 4032SOL     OW15115   3.614   8.186   0.084 -0.3019 -0.2645 -0.2846
 4032SOL    HW115116   3.583   8.168  -0.004 -0.4820 -1.2686 -0.0303
 4032SOL    HW215117   3.647   8.101   0.115  0.8306  0.3403  0.1793
 4033SOL     OW15118   7.841   1.144   9.166  0.4492 -0.2940 -0.3415
 4033SOL    HW115119   7.905   1.215   9.163  0.0848  0.0782  0.7028
 4033SOL    HW215120   7.765   1.178   9.119  0.5050 -0.2312 -0.3856
 4034SOL     OW15121   2.694   3.221   2.008  0.8614  0.2976  0.5195
 4034SOL    HW115122   2.674   3.152   1.944  1.0237 -0.3125  1.1225
 4034SOL    HW215123   2.773   3.263   1.974 -1.3268  2.6674 -1.8362
 4035SOL     OW15124   0.398   9.403   8.005 -0.0895  0.1867 -0.3757
 4035SOL    HW115125   0.461   9.391   8.075  0.6285 -0.5684 -1.1381
 4035SOL    HW215126   0.449   9.438   7.932 -1.0382  2.0323 -0.1673
 4036SOL     OW15127   4.957   7.466   3.188  0.2329  0.3188 -0.4435
 4036SOL    HW115128   5.017   7.534   3.220  1.3623 -0.3291 -1.1437
 4036SOL    HW215129   5.009   7.385   3.192 -0.9561 -0.4357 -0.0380
 4037SOL     OW15130   0.282   2.746   5.393 -0.3206  0.2692 -0.0766
 4037SOL    HW115131   0.283   2.814   5.326 -0.5233 -0.9882 -1.4020
 4037SOL    HW215132   0.277   2.664   5.343 -0.6341 -0.6892  1.4872
 4038SOL     OW15133   6.870   4.032   0.775  0.4298  0.2750 -0.5033
 4038SOL    HW115134   6.958   4.069   0.770  0.9367 -0.8501 -0.0761
 4038SOL    HW215135   6.871   3.978   0.854 -0.0511 -1.2309 -1.4968
 4039SOL     OW15136   6.241   2.881   2.732 -0.7668  0.2306  0.3977
 4039SOL    HW115137   6.224   2.968   2.698  0.4157  0.8347  1.3142
 4039SOL    HW215138   6.324   2.889   2.779 -0.9209 -1.2534  0.9601
 4040SOL     OW15139   2.247   1.500   4.945 -0.7652  0.4656  0.7557
 4040SOL    HW115140   2.207   1.565   4.887 -0.4110  0.6045  0.6634
 4040SOL    HW215141   2.324   1.469   4.896  0.7172  2.0775  2.0013
 4041SOL     OW15142   1.015   3.726   7.421  0.5360 -0.2131  0.1445
 4041SOL    HW115143   1.001   3.804   7.367  0.8515  0.5236  1.0993
 4041SOL    HW215144   1.031   3.761   7.509  0.0817 -1.3867  0.7018
 4042SOL     OW15145   6.330   2.604   3.530  0.0580  0.2210 -0.2704
 4042SOL    HW115146   6.316   2.518   3.491 -2.1588  1.0062 -1.3095
 4042SOL    HW215147   6.256   2.616   3.589  1.6199  0.4524  1.6979
 4043SOL     OW15148   7.766   4.972   1.147 -0.0851  0.0968 -0.2203
 4043SOL    HW115149   7.811   4.896   1.111 -0.2165  0.1316 -0.4554
 4043SOL    HW215150   7.815   5.047   1.113  0.6704  0.1052  0.8232
 4044SOL     OW15151   0.037   6.835   0.529  0.1417  0.3874 -0.1212
 4044SOL    HW115152  -0.011   6.753   0.545  0.4085  0.0447 -1.0787
 4044SOL    HW215153   0.102   6.838   0.599  0.8370 -0.7628 -0.7172
 4045SOL     OW15154   4.394   9.367   3.788 -0.1716 -0.3534 -0.8528
 4045SOL    HW115155   4.407   9.448   3.836 -0.1165 -0.7362 -0.2191
 4045SOL    HW215156   4.299   9.351   3.793 -0.0279 -0.9752  0.0913
 4046SOL     OW15157   0.302   3.490   0.863 -0.5999 -0.4439 -0.3104
 4046SOL    HW115158   0.334   3.540   0.788 -1.6300  0.0691 -0.4278
 4046SOL    HW215159   0.297   3.555   0.934  0.8797 -1.0415  0.3561
 4047SOL     OW15160   5.486   0.878   4.718 -0.3063  0.4301 -0.3014
 4047SOL    HW115161   5.392   0.861   4.724 -0.1134 -0.3925  0.5620
 4047SOL    HW215162   5.493   0.961   4.670 -1.4340  0.0701 -1.1120
 4048SOL     OW15163   2.238   5.257   1.163 -0.3927  0.0943  0.1493
 4048SOL    HW115164   2.212   5.181   1.215 -0.9964  1.2855  1.6316
 4048SOL    HW215165   2.164   5.317   1.170  0.5441  1.2901 -0.0708
 4049SOL     OW15166   1.093   6.592   3.724 -0.5455 -0.6047 -0.2720
 4049SOL    HW115167   1.125   6.615   3.637 -1.3070 -0.5060 -0.5297
 4049SOL    HW215168   1.020   6.532   3.709 -0.2246 -1.1545  0.3218
 4050SOL     OW15169   1.390   6.094   3.505 -0.2731  0.2034  0.3776
 4050SOL    HW115170   1.376   6.187   3.522 -1.9963 -0.1322  0.9967
 4050SOL    HW215171   1.427   6.060   3.587 -0.1973  0.2444  0.3598
 4051SOL     OW15172   3.891   7.700   2.914 -0.0247  0.2631  0.3101
 4051SOL    HW115173   3.872   7.676   3.004 -1.8490  1.8451  0.3837
 4051SOL    HW215174   3.915   7.618   2.872 -1.9321 -0.9875  1.5704
 4052SOL     OW15175   4.302   8.828   6.348 -0.0045 -0.1728  0.1945
 4052SOL    HW115176   4.216   8.863   6.371 -0.5193 -0.8577 -0.6450
 4052SOL    HW215177   4.364   8.880   6.399 -0.7495  1.7755 -0.8250
 4053SOL     OW15178   4.415   1.704   9.153  0.3343 -0.2732 -0.0365
 4053SOL    HW115179   4.390   1.791   9.185  1.4897 -0.1723  0.6204
 4053SOL    HW215180   4.428   1.653   9.232 -3.2818 -1.9502 -0.3928
 4054SOL     OW15181   8.570   6.579   5.017 -0.5850  0.1301 -0.1457
 4054SOL    HW115182   8.589   6.660   5.064 -1.0770  0.9842 -1.3888
 4054SOL    HW215183   8.483   6.553   5.048 -0.4245  0.0683  0.2577
 4055SOL     OW15184   3.830   2.811   1.460 -0.6647 -0.1977 -0.1325
 4055SOL    HW115185   3.843   2.881   1.396 -1.5542 -0.5057 -0.6681
 4055SOL    HW215186   3.798   2.856   1.539  1.8871  0.3559  0.6238
 4056SOL     OW15187   8.202   0.961   8.236  0.6696  0.4206  0.3307
 4056SOL    HW115188   8.119   1.001   8.261  0.3644 -1.0723  1.8410
 4056SOL    HW215189   8.267   1.004   8.293  0.8885  1.3813 -0.6440
 4057SOL     OW15190   0.176   5.677   5.840  0.0236  0.5177 -0.0764
 4057SOL    HW115191   0.088   5.646   5.861  1.0323 -3.4445 -1.1872
 4057SOL    HW215192   0.168   5.712   5.751 -0.1645 -1.2163 -0.7639
 4058SOL     OW15193   6.427   8.426   5.484  0.2319 -0.5406 -0.1391
 4058SOL    HW115194   6.508   8.386   5.452  1.6920  1.6122  0.7669
 4058SOL    HW215195   6.428   8.413   5.579 -0.1710  0.0063 -0.0497
 4059SOL     OW15196   2.160   2.718   1.246  0.0225  0.1417  0.6735
 4059SOL    HW115197   2.234   2.729   1.186 -0.3227 -1.0906  0.0019
 4059SOL    HW215198   2.127   2.807   1.259  1.3138  0.6416  0.5984
 4060SOL     OW15199   8.164   5.721   9.199  0.1895  0.3901  0.1284
 4060SOL    HW115200   8.239   5.737   9.141 -0.2977 -0.2841 -0.6946
 4060SOL    HW215201   8.200   5.728   9.287  1.2927 -0.2154 -0.2674
 4061SOL     OW15202   1.622   8.467   0.222  0.0930 -0.1407 -0.4357
 4061SOL    HW115203   1.694   8.432   0.274 -0.4469  0.1139  0.4860
 4061SOL    HW215204   1.637   8.562   0.219 -0.3076 -0.0659 -0.0829
 4062SOL     OW15205   8.668   5.036   7.509 -0.0740 -0.0633 -0.1737
 4062SOL    HW115206   8.673   4.941   7.499 -1.7243 -0.3985  1.7441
 4062SOL    HW215207   8.642   5.069   7.423 -0.0684 -1.4214 -0.6975
 4063SOL     OW15208   8.103   4.863   9.250 -0.0121  0.0867  0.4384
 4063SOL    HW115209   8.037   4.801   9.218  0.9478 -1.3340  1.1381
 4063SOL    HW215210   8.166   4.870   9.179  1.6366 -2.3585  1.5983
 4064SOL     OW15211   3.227   2.735   0.254  0.2009 -0.2208 -0.5333
 4064SOL    HW115212   3.228   2.641   0.237  0.3363 -0.8814  2.7773
 4064SOL    HW215213   3.225   2.775   0.167  2.1529 -3.2283 -2.0763
 4065SOL     OW15214   3.179   0.364   0.260  0.4994 -0.2364  0.4711
 4065SOL    HW115215   3.245   0.411   0.208 -0.1870 -0.7087 -0.8430
 4065SOL    HW215216   3.228   0.331   0.336  1.7110 -0.3023 -0.3243
 4066SOL     OW15217   7.575   2.218   8.100  0.0112  0.1645  0.2844
 4066SOL    HW115218   7.663   2.191   8.127 -0.0724 -0.2820  0.1011
 4066SOL    HW215219   7.591   2.281   8.030  0.1799 -0.0654  0.1143
 4067SOL     OW15220   2.823   2.441   4.842  0.3009  0.0347  0.0597
 4067SOL    HW115221   2.828   2.348   4.862  1.2950  0.2776  0.9586
 4067SOL    HW215222   2.819   2.445   4.746 -0.9834 -0.9800  0.0599
 4068SOL     OW15223   4.663   4.238   0.807 -0.5814  0.0251  0.2871
 4068SOL    HW115224   4.745   4.269   0.766  0.3761  0.1396  2.2495
 4068SOL    HW215225   4.673   4.143   0.809 -0.8102 -0.0087 -0.1040
 4069SOL     OW15226   3.296   3.691   2.323 -0.0671 -0.5010 -0.6064
 4069SOL    HW115227   3.244   3.651   2.254 -0.4029 -0.2419 -0.5080
 4069SOL    HW215228   3.232   3.742   2.374  0.4395  0.5770 -1.0477
 4070SOL     OW15229   3.268   8.901   1.820 -0.5207 -0.2810  0.4598
 4070SOL    HW115230   3.333   8.877   1.754  1.7965  0.0328  2.5936
 4070SOL    HW215231   3.303   8.980   1.862 -3.1232  0.9250  0.4859
 4071SOL     OW15232   4.611   1.935   3.462 -0.3039 -0.5096  0.0514
 4071SOL    HW115233   4.529   1.975   3.433 -0.1735  0.4302  0.9753
 4071SOL    HW215234   4.650   1.998   3.522  0.8239 -1.2017  0.0755
 4072SOL     OW15235   1.876   6.678   8.926  0.6102  0.1750 -0.5116
 4072SOL    HW115236   1.806   6.739   8.905  0.3550 -0.4953 -1.6421
 4072SOL    HW215237   1.845   6.631   9.004  0.2451  0.5625 -0.4204
 4073SOL     OW15238   0.433   0.602   2.403 -0.1560  0.3019  0.0746
 4073SOL    HW115239   0.394   0.660   2.337 -0.9800 -0.9117 -0.5411
 4073SOL    HW215240   0.518   0.579   2.367 -0.4864 -0.1303 -0.4575
 4074SOL     OW15241   7.540   5.648   3.795 -0.0522 -0.2791  0.5184
 4074SOL    HW115242   7.524   5.695   3.713 -2.6397 -0.2063  1.0355
 4074SOL    HW215243   7.566   5.716   3.857 -0.1565 -0.0415  0.3002
 4075SOL     OW15244   3.733   9.112   3.941 -0.1630  0.9183  0.0599
 4075SOL    HW115245   3.821   9.111   3.978  0.3664  0.6225 -1.1870
 4075SOL    HW215246   3.682   9.055   3.999  0.7699  0.0494  0.0245
 4076SOL     OW15247   4.569   0.272   5.915  0.4236  0.1741  0.1781
 4076SOL    HW115248   4.478   0.245   5.929  0.9648 -1.1526  1.2178
 4076SOL    HW215249   4.610   0.197   5.871  1.1516  0.5294  0.2377
 4077SOL     OW15250   3.231   3.256   0.205 -0.3475 -0.3702 -0.0307
 4077SOL    HW115251   3.254   3.348   0.191 -0.0561 -0.3936  0.2761
 4077SOL    HW215252   3.298   3.207   0.158 -0.4423 -0.4271 -0.1062
 4078SOL     OW15253   5.482   8.592   0.042  0.1054 -0.2885  0.0758
 4078SOL    HW115254   5.513   8.587   0.132  0.6482  0.0609 -0.0887
 4078SOL    HW215255   5.478   8.686   0.024 -0.5676 -0.3424 -0.0720
 4079SOL     OW15256   6.749   3.964   8.372  0.3641 -0.5655  0.2406
 4079SOL    HW115257   6.697   3.887   8.395 -0.2054  0.0427  1.0117
 4079SOL    HW215258   6.701   4.038   8.411  1.8140 -0.0023  0.9769
 4080SOL     OW15259   2.318   1.905   1.612 -0.1433 -0.0990  0.2167
 4080SOL    HW115260   2.269   1.981   1.579  0.9520  1.3083  1.7230
 4080SOL    HW215261   2.280   1.888   1.698  0.2404 -0.6686  0.2772
 4081SOL     OW15262   3.825   8.666   5.521  0.0150  0.4058  0.4479
 4081SOL    HW115263   3.731   8.646   5.526 -0.6605  2.6936 -2.0308
 4081SOL    HW215264   3.858   8.608   5.453  0.1706  0.3887  0.5393
 4082SOL     OW15265   2.424   2.102   1.228  0.2014  0.2135  0.7025
 4082SOL    HW115266   2.354   2.037   1.220  0.4049  0.3325 -3.5269
 4082SOL    HW215267   2.503   2.050   1.243  0.2234 -0.5056 -1.6976
 4083SOL     OW15268   6.446   1.914   2.248  0.0515 -0.1022  0.0532
 4083SOL    HW115269   6.419   1.851   2.314 -1.1298  0.2167 -0.1157
 4083SOL    HW215270   6.391   1.895   2.172  1.2404 -0.3158 -0.7710
 4084SOL     OW15271   5.092   9.022   2.333 -0.0573 -0.6363 -0.4306
 4084SOL    HW115272   5.150   9.031   2.408  1.6465  0.5881 -1.8423
 4084SOL    HW215273   5.120   9.091   2.273 -2.2127 -0.7894 -1.6536
 4085SOL     OW15274   8.988   8.538   5.275 -0.0350 -0.5773  0.1825
 4085SOL    HW115275   9.032   8.573   5.197 -0.7143 -1.3834 -0.5637
 4085SOL    HW215276   8.931   8.610   5.303  0.1371 -0.3205 -0.1119
 4086SOL     OW15277   7.229   6.769   1.966  0.0113 -0.5251 -0.4547
 4086SOL    HW115278   7.282   6.848   1.957  1.0360 -1.0667  0.6087
 4086SOL    HW215279   7.140   6.801   1.982  0.4443  0.4254  0.1339
 4087SOL     OW15280   9.406   0.747   3.166 -0.0167 -0.4974  0.0317
 4087SOL    HW115281   9.475   0.809   3.189 -0.1065 -0.4352  0.1345
 4087SOL    HW215282   9.453   0.670   3.132  0.1372 -0.7768  0.8606
 4088SOL     OW15283   0.540   8.910   8.485  0.0119  0.4786  0.1213
 4088SOL    HW115284   0.456   8.931   8.445 -0.0223  0.7288  0.3161
 4088SOL    HW215285   0.571   8.994   8.520 -0.7310 -0.0322  2.0604
 4089SOL     OW15286   5.358   6.883   4.824  0.3490 -0.5477  0.5541
 4089SOL    HW115287   5.431   6.854   4.770 -0.2686 -1.1544  0.0608
 4089SOL    HW215288   5.340   6.972   4.794 -1.5046 -1.6972 -1.8150
 4090SOL     OW15289   2.995   2.975   4.371  0.2171 -0.1641  0.1165
 4090SOL    HW115290   2.931   2.996   4.438 -0.8626  0.8684 -1.2136
 4090SOL    HW215291   3.033   2.892   4.400  0.2409  0.5779  2.3120
 4091SOL     OW15292   4.531   0.112   6.559  0.2176 -0.3961  0.4207
 4091SOL    HW115293   4.472   0.187   6.574 -1.6008 -1.7467  0.2556
 4091SOL    HW215294   4.601   0.124   6.623  1.4799  2.9325 -1.4235
 4092SOL     OW15295   5.375   0.395   4.951 -0.1104  0.2568  0.0014
 4092SOL    HW115296   5.470   0.403   4.940 -0.4022  0.8213 -2.4030
 4092SOL    HW215297   5.353   0.459   5.019  0.9180  1.8968 -1.1678
 4093SOL     OW15298   2.284   2.587   7.320 -0.0639  0.7349 -0.3922
 4093SOL    HW115299   2.366   2.542   7.340 -0.1072  0.7446 -0.1930
 4093SOL    HW215300   2.258   2.552   7.235 -0.8266 -0.6434  0.3911
 4094SOL     OW15301   3.430   8.886   7.652 -0.1200  0.0004 -0.8827
 4094SOL    HW115302   3.460   8.890   7.561  1.9371  1.7815 -0.1509
 4094SOL    HW215303   3.464   8.803   7.685  2.6462  1.2135 -0.5705
 4095SOL     OW15304   8.031   4.577   6.314 -0.0752  0.2021  0.7595
 4095SOL    HW115305   8.104   4.536   6.267 -0.3258 -0.0477  0.5807
 4095SOL    HW215306   8.071   4.649   6.364  0.5055 -0.7426  1.6912
 4096SOL     OW15307   7.021   0.711   2.267  0.5469  0.1387 -0.2921
 4096SOL    HW115308   7.053   0.791   2.225  0.0125  1.2277  1.3319
 4096SOL    HW215309   6.927   0.710   2.249  0.2177  0.8883  1.2564
 4097SOL     OW15310   4.179   1.744   2.153  0.0757  0.5764 -0.0679
 4097SOL    HW115311   4.126   1.814   2.192  0.4831  0.7901  0.1042
 4097SOL    HW215312   4.145   1.736   2.064 -0.2534  0.7098  0.0437
 4098SOL     OW15313   3.508   5.041   1.688  0.3330 -0.0645  0.0444
 4098SOL    HW115314   3.499   4.953   1.652  0.1496 -0.1346  0.2634
 4098SOL    HW215315   3.438   5.049   1.752 -0.6568  0.8092 -1.1026
 4099SOL     OW15316   2.443   6.092   1.878 -0.0402  0.1508  0.2618
 4099SOL    HW115317   2.394   6.174   1.882  0.0786  0.2822 -0.9135
 4099SOL    HW215318   2.423   6.055   1.792  1.1806 -0.2511  0.1311
 4100SOL     OW15319   8.058   4.805   7.929 -0.1788  0.2805  0.2573
 4100SOL    HW115320   8.133   4.759   7.891  0.5086 -0.6593  2.6430
 4100SOL    HW215321   8.053   4.887   7.880  2.1335  0.1605 -0.2497
 4101SOL     OW15322   8.090   7.243   8.550  0.2447 -0.1679 -0.0983
 4101SOL    HW115323   8.079   7.275   8.461 -0.0874  1.3561  0.4758
 4101SOL    HW215324   8.007   7.262   8.594  0.9752  0.6222  0.9874
 4102SOL     OW15325   1.978   3.004   4.437  0.4641  0.3395  0.3547
 4102SOL    HW115326   2.004   3.080   4.385 -1.1016  1.0852  0.6365
 4102SOL    HW215327   2.016   3.019   4.523 -2.2040  2.2395  1.2501
 4103SOL     OW15328   0.182   0.785   8.978 -0.5363  0.5628  0.7294
 4103SOL    HW115329   0.263   0.787   8.928 -0.1721  0.5052  1.3112
 4103SOL    HW215330   0.116   0.757   8.915  0.1250 -0.6670  0.5673
 4104SOL     OW15331   2.009   1.414   5.476 -0.0404 -0.0192 -0.1646
 4104SOL    HW115332   1.991   1.495   5.525 -0.2565 -0.2288  0.1047
 4104SOL    HW215333   2.009   1.345   5.543 -0.6414 -0.3500 -0.5027
 4105SOL     OW15334   0.373   0.174   9.178  0.1068  0.2855 -0.2361
 4105SOL    HW115335   0.381   0.136   9.265  1.2932  1.5309  0.2185
 4105SOL    HW215336   0.291   0.224   9.181  0.1549  0.3410  0.1672
 4106SOL     OW15337   5.201   3.085   2.945 -0.3761 -0.3701 -0.3742
 4106SOL    HW115338   5.106   3.085   2.958 -0.4298  1.3461 -0.6546
 4106SOL    HW215339   5.212   3.071   2.851 -0.5127  3.3864 -1.0232
 4107SOL     OW15340   6.937   2.261   5.046 -0.7220 -0.0412  0.1646
 4107SOL    HW115341   7.016   2.277   5.098 -0.2319  0.7495 -0.8032
 4107SOL    HW215342   6.941   2.168   5.025 -0.2008 -0.0675  0.3756
 4108SOL     OW15343   7.575   5.364   4.098 -0.0188  0.4544 -0.2016
 4108SOL    HW115344   7.601   5.321   4.016 -0.2724 -0.3302  0.1289
 4108SOL    HW215345   7.543   5.293   4.154 -1.6069  1.2198 -0.1039
 4109SOL     OW15346   7.328   0.580   8.710 -0.2427  0.3176 -0.7769
 4109SOL    HW115347   7.384   0.550   8.638  0.2999 -1.5391  0.3767
 4109SOL    HW215348   7.240   0.554   8.684 -0.0608 -0.2598 -0.8404
 4110SOL     OW15349   6.908   9.399   3.758  0.2951 -0.1757  0.2744
 4110SOL    HW115350   6.994   9.440   3.748 -0.1168  0.9907  1.3984
 4110SOL    HW215351   6.927   9.313   3.794  0.8890  0.7998  2.3395
 4111SOL     OW15352   2.725   6.605   2.581  0.0108  0.1890 -0.3742
 4111SOL    HW115353   2.789   6.675   2.592 -0.0198  0.0943  0.4089
 4111SOL    HW215354   2.721   6.591   2.486  0.1637  1.1067 -0.5215
 4112SOL     OW15355   2.534   0.128   0.732 -0.0027 -0.3326  0.0069
 4112SOL    HW115356   2.535   0.222   0.720  1.2881 -0.5714 -1.8007
 4112SOL    HW215357   2.444   0.102   0.712 -0.0254  0.3467 -0.7534
 4113SOL     OW15358   7.536   1.385   3.703 -0.7389  0.0100 -0.3155
 4113SOL    HW115359   7.595   1.452   3.738 -0.9116  0.3411 -0.6630
 4113SOL    HW215360   7.489   1.428   3.632 -1.4928 -0.2215  0.0367
 4114SOL     OW15361   3.085   1.934   1.789 -0.0065  0.0302  0.5367
 4114SOL    HW115362   3.150   1.875   1.828  2.4622  2.8546  0.9041
 4114SOL    HW215363   3.069   1.899   1.702 -0.1544 -2.2927  1.4553
 4115SOL     OW15364   7.246   4.922   5.052 -0.2833  0.0570  0.3226
 4115SOL    HW115365   7.283   4.994   5.103 -0.5804  1.1473 -0.9660
 4115SOL    HW215366   7.232   4.852   5.115  0.1886  1.0719  1.5648
 4116SOL     OW15367   5.573   4.092   1.619 -0.1100 -0.2607 -0.1100
 4116SOL    HW115368   5.664   4.123   1.625 -0.8043  2.0174 -0.6996
 4116SOL    HW215369   5.559   4.079   1.525 -0.7225  0.5069 -0.1302
 4117SOL     OW15370   6.403   6.194   4.802  0.0986 -0.2614  0.3375
 4117SOL    HW115371   6.319   6.189   4.756  0.2526  0.3371 -0.0151
 4117SOL    HW215372   6.397   6.274   4.855  0.1787 -0.5874  0.8394
 4118SOL     OW15373   0.470   9.149   4.012 -0.3675 -0.2733  0.3130
 4118SOL    HW115374   0.536   9.134   3.944  0.2060  1.0305  0.5556
 4118SOL    HW215375   0.390   9.171   3.964 -0.4979 -1.3453  0.0278
 4119SOL     OW15376   2.502   2.470   1.560 -0.6485  0.3653  0.4495
 4119SOL    HW115377   2.478   2.406   1.493 -0.8563  1.5671 -0.6319
 4119SOL    HW215378   2.420   2.492   1.604 -0.2421 -1.9003  2.4657
 4120SOL     OW15379   1.747   3.811   9.324 -0.2522  0.0607 -0.2143
 4120SOL    HW115380   1.830   3.853   9.300  0.4096 -1.0321  0.1045
 4120SOL    HW215381   1.763   3.717   9.310 -1.1436 -0.2381  0.6936
 4121SOL     OW15382   3.583   1.859   7.342  0.1414  0.3411  0.2439
 4121SOL    HW115383   3.671   1.892   7.364  1.3882 -1.3203 -1.9559
 4121SOL    HW215384   3.544   1.838   7.426  2.1481  0.4278  1.2455
 4122SOL     OW15385   7.733   1.516   6.175  0.3725  0.0911  0.2112
 4122SOL    HW115386   7.760   1.426   6.192 -0.9494 -0.2797  0.4447
 4122SOL    HW215387   7.814   1.567   6.177  1.0345 -0.9737  0.8739
 4123SOL     OW15388   7.327   3.259   6.725  0.0229 -0.1927 -0.3315
 4123SOL    HW115389   7.382   3.183   6.745 -1.9827 -0.9487  2.5701
 4123SOL    HW215390   7.350   3.324   6.792 -3.0905 -0.8015  1.3923
 4124SOL     OW15391   7.935   2.784   3.130 -0.3391  0.0273  0.0668
 4124SOL    HW115392   7.859   2.836   3.159  3.3164  5.0273  1.4270
 4124SOL    HW215393   7.984   2.768   3.211  1.2954 -1.0240 -1.1236
 4125SOL     OW15394   7.404   7.269   0.442 -0.0655 -0.3158  0.4871
 4125SOL    HW115395   7.352   7.252   0.520 -1.0897  1.6256  0.2575
 4125SOL    HW215396   7.341   7.296   0.376  0.9371 -0.6011 -0.6042
 4126SOL     OW15397   3.804   4.810   2.798 -0.2979  0.3619  0.6590
 4126SOL    HW115398   3.838   4.802   2.887 -0.6613 -0.2806  0.7426
 4126SOL    HW215399   3.867   4.763   2.744 -0.6552 -0.2035  0.7232
 4127SOL     OW15400   0.094   0.126   6.328  0.2795 -0.0794 -0.1506
 4127SOL    HW115401   0.140   0.191   6.381 -0.3349  0.6761 -0.5376
 4127SOL    HW215402   0.134   0.042   6.352 -1.2468 -0.0061  2.9633
 4128SOL     OW15403   4.200   7.679   8.599 -0.1213 -0.0158 -0.8002
 4128SOL    HW115404   4.156   7.755   8.561  1.8941  1.2991 -0.5793
 4128SOL    HW215405   4.267   7.717   8.656 -0.2692 -1.9618  0.7198
 4129SOL     OW15406   6.083   3.757   6.420 -0.0202  0.1322 -0.5183
 4129SOL    HW115407   6.071   3.770   6.514 -0.6991 -0.0770 -0.5722
 4129SOL    HW215408   6.077   3.845   6.383 -1.0509  0.0758 -0.5006
 4130SOL     OW15409   6.704   0.555   0.594  0.1298 -0.1730 -0.0126
 4130SOL    HW115410   6.794   0.587   0.598  0.1625 -0.4206  1.6226
 4130SOL    HW215411   6.658   0.617   0.538  0.6749  1.5496  1.3978
 4131SOL     OW15412   0.356   2.124   3.709  0.3596 -0.0029 -0.0834
 4131SOL    HW115413   0.303   2.186   3.659  1.1925  1.7934  1.2430
 4131SOL    HW215414   0.346   2.151   3.800  3.8529  0.6068  0.1561
 4132SOL     OW15415   7.358   8.246   6.721 -0.4523  0.2786 -0.0095
 4132SOL    HW115416   7.306   8.171   6.693 -0.4824  0.0125  0.7364
 4132SOL    HW215417   7.359   8.239   6.817 -0.2637  1.0990  0.0479
 4133SOL     OW15418   6.897   3.706   0.132  0.1945  0.8714  0.2145
 4133SOL    HW115419   6.843   3.636   0.169  0.1798  0.8173  0.0905
 4133SOL    HW215420   6.961   3.726   0.200  1.7137 -0.9006 -0.6566
 4134SOL     OW15421   6.539   0.722   7.398  0.2494 -0.1174 -0.5616
 4134SOL    HW115422   6.628   0.753   7.414 -0.1388  0.7150 -0.0263
 4134SOL    HW215423   6.502   0.708   7.485 -0.2212 -0.2426 -0.7784
 4135SOL     OW15424   8.543   4.374   9.205  0.2869  0.4859  0.4942
 4135SOL    HW115425   8.507   4.442   9.149  1.6441 -1.4851 -2.9043
 4135SOL    HW215426   8.470   4.314   9.221 -0.0276  0.9034  0.6407
 4136SOL     OW15427   5.092   1.924   8.688  0.5050 -0.0941 -0.2957
 4136SOL    HW115428   5.038   1.994   8.724  0.9692  0.1475 -0.0601
 4136SOL    HW215429   5.117   1.872   8.764 -1.3231 -1.5883 -0.6694
 4137SOL     OW15430   4.799   8.150   3.828  0.4236 -0.1370 -0.6160
 4137SOL    HW115431   4.795   8.074   3.887 -0.9807 -0.2539 -0.8237
 4137SOL    HW215432   4.781   8.225   3.885 -0.1784 -0.1739 -0.7492
 4138SOL     OW15433   0.074   0.618   3.546  0.1400  0.2715 -0.4473
 4138SOL    HW115434   0.053   0.525   3.558 -0.3321  0.3055 -0.9879
 4138SOL    HW215435   0.059   0.658   3.632 -3.3242  0.5534 -1.1186
 4139SOL     OW15436   6.112   2.917   3.416  0.1457  0.1488 -0.4594
 4139SOL    HW115437   6.147   2.830   3.435  0.5933  0.1264 -1.3854
 4139SOL    HW215438   6.071   2.909   3.330 -1.4680  0.3745  0.2559
 4140SOL     OW15439   2.941   3.192   5.654 -0.2599  0.4660  0.2050
 4140SOL    HW115440   2.945   3.129   5.726 -0.1709  0.1704 -0.0544
 4140SOL    HW215441   2.847   3.209   5.643 -0.1765  1.8054  1.4886
 4141SOL     OW15442   1.340   9.338   8.057 -0.1216  0.2151  0.2247
 4141SOL    HW115443   1.423   9.300   8.087  1.7077  0.7519 -3.7337
 4141SOL    HW215444   1.364   9.426   8.028 -1.6515 -0.2496 -2.6295
 4142SOL     OW15445   3.904   3.177   2.681  0.0901 -0.5200 -1.0429
 4142SOL    HW115446   3.881   3.106   2.622 -1.6082 -0.1699 -0.8375
 4142SOL    HW215447   3.874   3.148   2.767  0.1206  0.1061 -0.8143
 4143SOL     OW15448   0.274   9.334   1.774 -0.3026  0.1495  0.3718
 4143SOL    HW115449   0.231   9.392   1.711 -0.5969  0.5841  0.9687
 4143SOL    HW215450   0.202   9.293   1.821 -0.1287 -1.5016 -0.7449
 4144SOL     OW15451   1.120   6.122   8.192 -0.0876  0.3630  0.0866
 4144SOL    HW115452   1.108   6.124   8.097  0.1904 -0.5138  0.0332
 4144SOL    HW215453   1.205   6.079   8.204 -0.7322 -0.7058  0.7951
 4145SOL     OW15454   1.132   5.833   0.472 -0.4090  0.6297 -0.4200
 4145SOL    HW115455   1.070   5.905   0.459  0.2370  1.0474 -1.1992
 4145SOL    HW215456   1.087   5.756   0.436 -0.2867  1.0225 -1.4169
 4146SOL     OW15457   3.609   3.044   8.408 -0.1093  0.0827 -0.0081
 4146SOL    HW115458   3.641   3.079   8.491  0.2852 -0.5275  0.0997
 4146SOL    HW215459   3.570   2.960   8.430 -2.1846  0.9995 -0.0814
 4147SOL     OW15460   4.570   3.266   2.814  0.4300  0.3776 -0.5155
 4147SOL    HW115461   4.565   3.276   2.909  0.4778 -1.1238 -0.3362
 4147SOL    HW215462   4.604   3.350   2.782 -1.6057  1.6437  0.5887
 4148SOL     OW15463   0.103   0.557   8.659 -0.3337 -0.2243 -0.2428
 4148SOL    HW115464   0.086   0.495   8.730 -0.2520 -0.2835 -0.2741
 4148SOL    HW215465   0.104   0.503   8.580 -0.7061 -0.1193 -0.3202
 4149SOL     OW15466   6.366   2.128   1.019 -0.0603 -0.2486  0.6048
 4149SOL    HW115467   6.277   2.126   1.052  0.0276  3.1140  1.1706
 4149SOL    HW215468   6.419   2.153   1.095  1.2136 -0.8324 -0.0702
 4150SOL     OW15469   3.269   5.550   0.022 -0.3112  0.5533  0.6025
 4150SOL    HW115470   3.243   5.561  -0.070  1.9391  1.7622  0.0727
 4150SOL    HW215471   3.364   5.541   0.019 -0.2311  0.4006  2.8158
 4151SOL     OW15472   6.095   9.233   1.495 -0.4295 -0.7379  0.1211
 4151SOL    HW115473   6.128   9.288   1.425 -4.1207  0.5862 -0.7103
 4151SOL    HW215474   6.131   9.271   1.575 -0.8027  1.2937 -0.6451
 4152SOL     OW15475   4.318   3.948   8.147 -0.5583 -0.3870 -0.4320
 4152SOL    HW115476   4.264   4.025   8.129  1.5428  1.2058 -0.0910
 4152SOL    HW215477   4.352   3.961   8.235 -0.2472 -1.7510 -0.3292
 4153SOL     OW15478   6.283   3.692   8.828 -0.2609 -0.0263  0.0455
 4153SOL    HW115479   6.292   3.787   8.834 -1.6527  0.2677 -1.8696
 4153SOL    HW215480   6.320   3.671   8.742 -0.6184 -1.1276  0.1569
 4154SOL     OW15481   4.190   3.882   0.448 -0.0287 -0.0831  0.0819
 4154SOL    HW115482   4.179   3.912   0.357 -0.0945  0.0179  0.1222
 4154SOL    HW215483   4.199   3.963   0.498  2.7029 -0.1840 -0.1542
 4155SOL     OW15484   7.627   2.871   5.667 -0.1749 -0.2983  0.0385
 4155SOL    HW115485   7.666   2.921   5.739  1.3077 -1.1132 -0.1727
 4155SOL    HW215486   7.612   2.784   5.703 -2.2727  0.1267  0.2494
 4156SOL     OW15487   3.648   2.143   4.891 -0.1351  0.0844  0.2507
 4156SOL    HW115488   3.624   2.072   4.831  0.7221  1.0962 -1.3153
 4156SOL    HW215489   3.580   2.141   4.958 -1.1448 -1.0306 -0.7822
 4157SOL     OW15490   1.866   7.652   9.367 -0.3172  0.1121 -0.2233
 4157SOL    HW115491   1.960   7.640   9.352  0.0260  0.4731  1.5916
 4157SOL    HW215492   1.826   7.572   9.333  0.7731 -0.6491  0.2722
 4158SOL     OW15493   6.326   1.931   8.199 -0.3532  0.5823  0.3626
 4158SOL    HW115494   6.368   2.011   8.167 -0.6235  0.8970  0.7864
 4158SOL    HW215495   6.254   1.915   8.139 -0.9135  1.2228  0.8565
 4159SOL     OW15496   3.475   7.159   2.052 -0.1484 -0.2601  0.1254
 4159SOL    HW115497   3.487   7.162   2.147 -0.2650 -0.2251  0.1399
 4159SOL    HW215498   3.463   7.251   2.027 -1.0770 -0.3494  0.2056
 4160SOL     OW15499   3.038   7.367   3.492 -0.3271 -0.2814 -0.2505
 4160SOL    HW115500   3.100   7.397   3.426  0.0637 -0.0758  0.2133
 4160SOL    HW215501   2.952   7.379   3.451  0.0041 -2.3289 -1.6161
 4161SOL     OW15502   8.455   8.049   6.061 -0.1388 -0.2038 -0.7221
 4161SOL    HW115503   8.396   8.125   6.059 -0.1883 -0.2064  0.2927
 4161SOL    HW215504   8.541   8.086   6.080 -0.2921 -0.4576  0.5499
 4162SOL     OW15505   5.750   5.058   1.848 -0.1809  0.5088 -0.7685
 4162SOL    HW115506   5.655   5.064   1.848 -0.2837 -0.8183 -0.5316
 4162SOL    HW215507   5.770   4.990   1.784  0.5656  0.4113 -0.4433
 4163SOL     OW15508   5.064   0.479   3.241 -0.5976 -0.5270  0.0584
 4163SOL    HW115509   5.126   0.417   3.280  1.1341 -0.6236 -2.6992
 4163SOL    HW215510   5.049   0.445   3.153 -1.7166  1.5237 -0.5695
 4164SOL     OW15511   1.016   8.758   1.054 -0.5189  0.3179 -0.0285
 4164SOL    HW115512   0.981   8.841   1.087 -1.7049 -1.0043  2.2005
 4164SOL    HW215513   1.078   8.729   1.122  0.6628 -0.1131 -1.2797
 4165SOL     OW15514   5.098   2.272   7.634 -0.5410  0.1461  0.1462
 4165SOL    HW115515   5.089   2.335   7.562  1.8601 -0.0395 -0.3689
 4165SOL    HW215516   5.096   2.187   7.591  0.1877  0.0102  0.3817
 4166SOL     OW15517   2.480   6.217   9.205 -0.2798 -0.5264  0.3961
 4166SOL    HW115518   2.459   6.124   9.202 -0.0252 -0.6136  1.1683
 4166SOL    HW215519   2.517   6.237   9.119  1.9457 -1.6878  1.0447
 4167SOL     OW15520   4.708   0.294   7.307  0.8071 -0.3173 -0.3299
 4167SOL    HW115521   4.740   0.303   7.217  0.4062 -1.2691 -0.5771
 4167SOL    HW215522   4.615   0.316   7.301  0.8123 -0.2487 -0.1281
 4168SOL     OW15523   3.493   0.294   9.213 -0.6335  0.2278  0.0441
 4168SOL    HW115524   3.570   0.274   9.266 -0.9023  0.5921  0.5775
 4168SOL    HW215525   3.512   0.256   9.127  1.3946  2.7917 -0.7105
 4169SOL     OW15526   6.815   0.010   5.500 -0.1803 -0.4641  0.2041
 4169SOL    HW115527   6.732  -0.032   5.525 -0.5440 -0.4193 -0.9120
 4169SOL    HW215528   6.872  -0.003   5.576 -0.8595 -1.4199  0.5602
 4170SOL     OW15529   0.409   2.340   0.247  0.3176  0.1513 -0.6673
 4170SOL    HW115530   0.331   2.375   0.205  1.1712  1.1172 -1.4842
 4170SOL    HW215531   0.421   2.253   0.209 -2.0166 -1.2241  1.6223
 4171SOL     OW15532   7.690   6.178   5.685 -0.5926  0.7013  0.0365
 4171SOL    HW115533   7.741   6.175   5.766 -1.2411  0.3824  0.4337
 4171SOL    HW215534   7.713   6.097   5.639 -1.9106 -0.1914  0.9304
 4172SOL     OW15535   8.071   7.708   9.059 -0.1401 -0.5429 -0.1955
 4172SOL    HW115536   8.162   7.707   9.031 -0.1902  0.0076 -0.3780
 4172SOL    HW215537   8.029   7.774   9.004 -0.9274 -1.6698 -0.9900
 4173SOL     OW15538   0.520   2.332   4.214  0.4549  0.9640  0.1194
 4173SOL    HW115539   0.593   2.272   4.196 -0.5806 -0.0378 -0.9068
 4173SOL    HW215540   0.542   2.412   4.166  0.5071  0.3757 -0.8526
 4174SOL     OW15541   3.584   4.517   2.182 -0.4640  0.4579 -0.5490
 4174SOL    HW115542   3.506   4.511   2.237 -0.4319  1.8437 -0.3291
 4174SOL    HW215543   3.657   4.503   2.242 -0.4916  0.5336 -0.4968
 4175SOL     OW15544   5.392   3.275   5.510 -0.1860  0.0035 -0.6208
 4175SOL    HW115545   5.394   3.320   5.426  1.1521  3.1552  0.9844
 4175SOL    HW215546   5.301   3.285   5.540  0.0575  1.5527 -0.3603
 4176SOL     OW15547   3.949   6.211   1.976  0.4921  0.0893 -0.0922
 4176SOL    HW115548   3.885   6.254   1.919 -0.2437  1.1629  1.4819
 4176SOL    HW215549   3.895   6.159   2.036  1.2738 -1.3920 -0.6522
 4177SOL     OW15550   4.024   3.630   4.618 -0.0060  0.4101  0.9755
 4177SOL    HW115551   4.058   3.704   4.568 -0.0527  0.1031  0.4867
 4177SOL    HW215552   4.081   3.557   4.596  1.0592  0.6742  2.7343
 4178SOL     OW15553   6.217   1.954   4.253  0.1305  0.5052  0.0234
 4178SOL    HW115554   6.188   1.911   4.172  0.0236 -0.1382  0.4052
 4178SOL    HW215555   6.306   1.984   4.233 -0.0300  0.6698 -0.4543
 4179SOL     OW15556   1.740   4.423   2.070 -0.5478 -0.0200 -0.1021
 4179SOL    HW115557   1.697   4.375   1.999 -0.1682 -1.6520  0.7340
 4179SOL    HW215558   1.700   4.387   2.150  1.4469 -0.6424  0.6272
 4180SOL     OW15559   3.041   7.652   3.242  0.1776 -0.4746 -0.1490
 4180SOL    HW115560   3.054   7.558   3.225 -1.0855 -0.7021  0.0952
 4180SOL    HW215561   2.951   7.669   3.214 -0.7700 -0.0909  2.9978
 4181SOL     OW15562   0.306   4.926   3.318  0.1794 -0.1726  0.2312
 4181SOL    HW115563   0.254   4.846   3.328 -2.5204  1.2103 -2.1060
 4181SOL    HW215564   0.395   4.894   3.304 -1.0988 -2.8757 -2.2522
 4182SOL     OW15565   1.170   3.810   0.236 -0.2951  0.3183  0.1586
 4182SOL    HW115566   1.154   3.822   0.142  1.4350 -1.0992 -0.3555
 4182SOL    HW215567   1.226   3.884   0.260 -1.1340  0.9483  0.1927
 4183SOL     OW15568   1.400   4.649   2.934  0.4493 -0.0400  0.4844
 4183SOL    HW115569   1.395   4.638   3.029  0.0153  2.3116  0.7562
 4183SOL    HW215570   1.493   4.641   2.913  0.4958 -1.0158  1.0402
 4184SOL     OW15571   3.041   1.648   0.238 -0.1694  0.2825  0.1786
 4184SOL    HW115572   3.072   1.557   0.238  0.6410  0.5513 -0.8610
 4184SOL    HW215573   2.967   1.647   0.176 -0.4882  0.2267  0.5582
 4185SOL     OW15574   6.309   1.057   3.866 -0.8556  0.0036  0.0146
 4185SOL    HW115575   6.359   0.981   3.897 -0.0824  0.7328  0.5855
 4185SOL    HW215576   6.258   1.024   3.792 -0.7840 -1.1528  0.4675
 4186SOL     OW15577   2.349   1.500   2.523 -0.0624  0.3420  0.1456
 4186SOL    HW115578   2.355   1.439   2.597  0.1590  0.0770 -0.0882
 4186SOL    HW215579   2.288   1.568   2.552 -1.7059 -0.9187 -0.2429
 4187SOL     OW15580   2.773   4.386   5.823 -0.0085  0.2597  0.3676
 4187SOL    HW115581   2.833   4.423   5.889  1.2955 -2.0483  0.5054
 4187SOL    HW215582   2.817   4.307   5.793 -2.7694 -1.2046  0.0913
 4188SOL     OW15583   0.836   1.464   4.833 -0.6413 -1.0411  0.0882
 4188SOL    HW115584   0.799   1.552   4.822  1.3925 -0.2228 -0.3624
 4188SOL    HW215585   0.784   1.425   4.904 -0.7267  1.0035  1.1913
 4189SOL     OW15586   4.317   5.851   2.931  0.1069 -0.2110 -0.2588
 4189SOL    HW115587   4.316   5.756   2.937 -1.1508 -0.2563 -1.0834
 4189SOL    HW215588   4.379   5.879   2.998 -2.8893 -1.3795  3.1195
 4190SOL     OW15589   6.528   3.791   8.334 -0.2539  0.3599  0.0502
 4190SOL    HW115590   6.506   3.731   8.405 -0.1695 -0.7066 -0.8123
 4190SOL    HW215591   6.462   3.861   8.340  1.3717  1.7249  2.8358
 4191SOL     OW15592   2.779   1.868   7.631  0.5105 -0.1004 -0.9703
 4191SOL    HW115593   2.849   1.802   7.639  1.4017  0.9339  0.1647
 4191SOL    HW215594   2.800   1.915   7.551  1.2352  0.3037 -0.5585
 4192SOL     OW15595   5.128   5.365   9.030  0.1587  0.8708 -0.2820
 4192SOL    HW115596   5.202   5.311   9.004 -0.3369  0.3557 -0.6451
 4192SOL    HW215597   5.053   5.306   9.027  0.2423  0.4144  3.6016
 4193SOL     OW15598   6.349   2.091   4.989 -0.1645 -0.4666  0.0757
 4193SOL    HW115599   6.302   2.008   5.000  1.0110 -1.0485  0.8467
 4193SOL    HW215600   6.441   2.065   4.985  0.1072  0.6591 -1.3437
 4194SOL     OW15601   1.517   5.354   8.768 -0.1932 -0.6598  0.1561
 4194SOL    HW115602   1.453   5.293   8.805  1.4798 -2.1621  0.6496
 4194SOL    HW215603   1.502   5.349   8.673 -0.2061 -1.6919  0.2029
 4195SOL     OW15604   6.727   3.224   0.184  0.6580  0.0351  0.2530
 4195SOL    HW115605   6.820   3.217   0.162  0.8616 -1.0278  1.4055
 4195SOL    HW215606   6.720   3.184   0.270 -1.0714 -1.0416 -0.3607
 4196SOL     OW15607   0.413   7.562   7.742 -0.2408 -0.1680 -0.7319
 4196SOL    HW115608   0.354   7.489   7.722  0.5836 -0.4714 -2.0877
 4196SOL    HW215609   0.392   7.629   7.678 -0.3080  0.4071 -0.1148
 4197SOL     OW15610   3.085   7.533   7.751  0.5239  0.1899  0.4609
 4197SOL    HW115611   3.078   7.443   7.718  1.9320  0.0265  0.5964
 4197SOL    HW215612   2.998   7.570   7.736  0.0976 -1.0063 -0.1349
 4198SOL     OW15613   2.362   4.011   6.151  0.3444 -0.0319 -0.7300
 4198SOL    HW115614   2.405   4.080   6.200  0.8667 -1.3212  0.6915
 4198SOL    HW215615   2.353   4.045   6.062 -0.5959  2.3440  0.2546
 4199SOL     OW15616   4.223   5.244   2.140 -0.6492  0.0630 -0.3348
 4199SOL    HW115617   4.176   5.201   2.068 -0.8448  1.0566 -0.8195
 4199SOL    HW215618   4.172   5.324   2.157 -1.4311 -0.8657  1.8943
 4200SOL     OW15619   2.447   3.013   4.117 -0.0333  0.1584  0.2016
 4200SOL    HW115620   2.492   3.097   4.126  0.3613  0.0396 -0.6034
 4200SOL    HW215621   2.500   2.964   4.053 -0.3619 -0.6300  0.5205
 4201SOL     OW15622   2.015   4.972   1.174  0.1575 -0.3172  0.0866
 4201SOL    HW115623   1.938   4.969   1.230  1.3389  1.3738  1.8565
 4201SOL    HW215624   2.018   5.062   1.142 -0.2443 -1.1349 -2.3887
 4202SOL     OW15625   2.342   1.145   4.269  0.1842  0.0810 -0.6693
 4202SOL    HW115626   2.325   1.157   4.175 -0.1608  1.2538 -0.4592
 4202SOL    HW215627   2.364   1.052   4.277 -0.3542 -0.1618 -1.8326
 4203SOL     OW15628   6.182   7.596   6.552  0.1222  0.1285 -0.3751
 4203SOL    HW115629   6.125   7.525   6.581  0.2550  0.3414  0.4172
 4203SOL    HW215630   6.135   7.676   6.573 -0.4545  0.2847 -2.1440
 4204SOL     OW15631   5.603   0.518   8.614 -0.1563 -0.7307  0.1576
 4204SOL    HW115632   5.524   0.465   8.600  0.1170 -0.7915 -1.1995
 4204SOL    HW215633   5.569   0.607   8.628 -0.5932 -1.1766  2.1329
 4205SOL     OW15634   6.414   8.477   5.808  0.0878 -0.0561  0.0081
 4205SOL    HW115635   6.349   8.454   5.874 -0.0513  1.5194  0.4410
 4205SOL    HW215636   6.463   8.396   5.793 -2.7355 -1.6322 -1.2282
 4206SOL     OW15637   6.458   8.841   1.619  0.2847 -0.6247  0.0030
 4206SOL    HW115638   6.409   8.918   1.650 -0.0681 -0.7759 -0.1671
 4206SOL    HW215639   6.511   8.814   1.694 -1.1105 -1.4319  0.7238
 4207SOL     OW15640   2.781   3.465   2.297 -0.2720 -0.1873 -0.1211
 4207SOL    HW115641   2.790   3.556   2.325 -1.8701 -0.2098  0.5649
 4207SOL    HW215642   2.730   3.470   2.216  1.8666 -0.3158 -1.5003
 4208SOL     OW15643   3.606   0.974   7.877 -0.1362  0.3765  0.3433
 4208SOL    HW115644   3.551   0.897   7.888 -0.8205  0.5835 -1.4312
 4208SOL    HW215645   3.611   1.012   7.964 -0.0414 -1.5009  1.1709
 4209SOL     OW15646   6.650   3.510   9.023 -0.0368  0.0090 -0.0174
 4209SOL    HW115647   6.727   3.560   9.053  0.2903  0.4446 -1.5375
 4209SOL    HW215648   6.584   3.577   9.006 -0.1168 -0.2026 -0.5504
 4210SOL     OW15649   8.692   7.537   7.811  0.1693 -0.0905  0.6529
 4210SOL    HW115650   8.670   7.510   7.722  0.6173  0.3504  0.4027
 4210SOL    HW215651   8.656   7.626   7.818 -1.8922 -0.9829  1.6929
 4211SOL     OW15652   2.805   4.251   4.233  0.2594  0.3045 -0.1759
 4211SOL    HW115653   2.890   4.229   4.195  0.5221 -0.8682  1.0086
 4211SOL    HW215654   2.821   4.250   4.328 -0.9330  0.6533  0.0375
 4212SOL     OW15655   7.114   6.751   2.698  0.0836 -0.2213 -0.1886
 4212SOL    HW115656   7.199   6.721   2.667  1.2953  2.4452  0.3622
 4212SOL    HW215657   7.070   6.787   2.621  1.0085  1.7565  0.1691
 4213SOL     OW15658   5.768   0.618   2.869  0.3708 -0.2497  0.2317
 4213SOL    HW115659   5.740   0.548   2.927 -1.6892  1.5679  1.5014
 4213SOL    HW215660   5.863   0.616   2.874  0.3040 -1.9238  1.4675
 4214SOL     OW15661   8.736   5.971   2.933  0.3488 -0.2621 -0.1958
 4214SOL    HW115662   8.726   6.025   3.012 -1.6175 -1.0188  0.1084
 4214SOL    HW215663   8.685   5.892   2.952  2.7805 -2.0360 -0.8245
 4215SOL     OW15664   5.964   4.523   5.264  0.0453  0.1585 -0.0017
 4215SOL    HW115665   5.948   4.617   5.261 -1.2875 -0.0672 -0.1493
 4215SOL    HW215666   5.877   4.483   5.263  0.6052 -1.0903 -0.4176
 4216SOL     OW15667   0.490   6.517   1.552  0.4450  0.3234  0.1688
 4216SOL    HW115668   0.495   6.523   1.648 -0.4280  0.5347  0.2034
 4216SOL    HW215669   0.579   6.532   1.522  0.9190 -0.7549  1.0128
 4217SOL     OW15670   4.645   7.543   4.861 -0.3899  0.3551 -0.2102
 4217SOL    HW115671   4.645   7.553   4.956  0.2820 -0.2275 -0.1434
 4217SOL    HW215672   4.557   7.568   4.834 -1.0832 -1.0158  0.7380
 4218SOL     OW15673   7.599   0.455   0.937 -0.2625 -0.0786  0.1019
 4218SOL    HW115674   7.551   0.512   0.997  2.8502  1.1112  1.5697
 4218SOL    HW215675   7.660   0.407   0.993  0.3476 -1.4707 -1.7087
 4219SOL     OW15676   5.771   3.960   8.798 -0.0438  0.1126 -0.3575
 4219SOL    HW115677   5.686   4.004   8.795  0.6997  1.5724 -0.2571
 4219SOL    HW215678   5.751   3.870   8.773 -1.7822  0.1836  0.6310
 4220SOL     OW15679   9.017   0.765   2.167 -0.2078 -0.1728 -0.2571
 4220SOL    HW115680   9.078   0.691   2.165 -1.1117 -0.9592  0.2240
 4220SOL    HW215681   9.046   0.817   2.242  1.3446  0.7732 -1.5076
 4221SOL     OW15682   7.334   7.948   0.619  0.2953  0.4882 -0.0463
 4221SOL    HW115683   7.375   7.985   0.698 -0.2960  0.8316  0.1078
 4221SOL    HW215684   7.243   7.979   0.623  0.6202  1.7296 -1.6287
 4222SOL     OW15685   0.049   0.807   5.080  0.0301 -0.2667  0.4587
 4222SOL    HW115686   0.096   0.828   5.000 -0.4522 -0.3562  0.1498
 4222SOL    HW215687   0.117   0.775   5.140  0.4625  0.2701  0.2579
 4223SOL     OW15688   5.136   3.368   2.865 -0.6507 -0.0851 -0.3403
 4223SOL    HW115689   5.167   3.294   2.918 -0.1546  0.4590  0.1362
 4223SOL    HW215690   5.130   3.441   2.927 -0.7681  0.3715 -0.8907
 4224SOL     OW15691   2.347   2.800   1.031 -0.2183  0.2138  0.5415
 4224SOL    HW115692   2.305   2.861   0.969 -1.4865 -1.3773 -0.2329
 4224SOL    HW215693   2.440   2.814   1.019 -0.4357  0.1171 -1.6190
 4225SOL     OW15694   4.710   0.131   6.784  0.6975 -0.3728 -0.2074
 4225SOL    HW115695   4.754   0.108   6.865 -0.1323 -1.4169 -0.0398
 4225SOL    HW215696   4.623   0.090   6.792 -1.0513  3.2399  0.3529
 4226SOL     OW15697   3.345   1.466   7.111 -0.0110 -0.4800  0.3847
 4226SOL    HW115698   3.280   1.520   7.155  0.3065 -0.2765  0.5974
 4226SOL    HW215699   3.423   1.470   7.167  0.5637  0.1950 -0.4508
 4227SOL     OW15700   4.895   5.854   4.791 -0.1676  0.4253  0.4272
 4227SOL    HW115701   4.913   5.924   4.853  1.2594  0.2748  0.2017
 4227SOL    HW215702   4.869   5.780   4.845  0.2948  0.5341  0.7991
 4228SOL     OW15703   2.248   7.732   6.701 -0.1634  0.4093  0.1386
 4228SOL    HW115704   2.228   7.766   6.614  0.6508 -1.8044 -0.9581
 4228SOL    HW215705   2.194   7.653   6.709  1.4228 -0.6531  0.6864
 4229SOL     OW15706   7.973   2.394   4.834 -0.3230 -0.3693 -0.6725
 4229SOL    HW115707   7.967   2.299   4.820 -1.5541 -0.2008 -1.3294
 4229SOL    HW215708   7.936   2.408   4.921 -2.4637 -0.2090 -1.6003
 4230SOL     OW15709   8.286   4.254   5.669 -0.0633 -0.1761 -0.6531
 4230SOL    HW115710   8.276   4.187   5.602 -2.4440 -0.5569  0.0302
 4230SOL    HW215711   8.203   4.254   5.715  0.7771  1.5724  0.9302
 4231SOL     OW15712   8.876   2.161   0.886 -0.1313 -0.5056  0.4819
 4231SOL    HW115713   8.814   2.232   0.869 -0.0124 -0.6989 -0.8345
 4231SOL    HW215714   8.920   2.148   0.802  1.2954 -0.7494  1.2599
 4232SOL     OW15715   2.109   5.217   7.140  0.0017 -0.2974  0.1885
 4232SOL    HW115716   2.115   5.135   7.190  0.3061 -0.3471  0.0759
 4232SOL    HW215717   2.020   5.218   7.105  0.0831 -0.7112 -0.0296
 4233SOL     OW15718   3.546   2.726   3.389 -0.2856 -0.5175 -0.6855
 4233SOL    HW115719   3.617   2.667   3.365  0.3569  0.5167 -1.3641
 4233SOL    HW215720   3.554   2.800   3.328 -0.1995  0.9575  1.0740
 4234SOL     OW15721   5.619   0.852   3.304 -0.3144 -0.0245  0.1811
 4234SOL    HW115722   5.673   0.922   3.340  0.1708 -0.5361  0.4610
 4234SOL    HW215723   5.618   0.867   3.210 -0.4703  0.5425  0.2765
 4235SOL     OW15724   1.728   1.147   2.114 -0.5109 -0.5270  0.4357
 4235SOL    HW115725   1.773   1.152   2.030  2.4931  1.3295  2.0210
 4235SOL    HW215726   1.656   1.210   2.107 -0.5744 -0.7381 -0.8775
 4236SOL     OW15727   4.384   0.877   8.452  0.2449 -0.6974 -0.4909
 4236SOL    HW115728   4.333   0.799   8.432 -1.9576  0.0181  2.0576
 4236SOL    HW215729   4.339   0.948   8.406  0.6291 -0.4953 -0.5554
 4237SOL     OW15730   6.494   1.903   0.580 -0.2346 -0.0122 -0.3704
 4237SOL    HW115731   6.516   1.840   0.648  1.6968  0.3388 -0.6296
 4237SOL    HW215732   6.448   1.852   0.513 -1.9427 -0.3915  1.0735
 4238SOL     OW15733   8.630   9.023   2.301  0.0615 -0.1491  0.1406
 4238SOL    HW115734   8.589   8.983   2.378 -0.7469 -1.2698 -0.8499
 4238SOL    HW215735   8.626   9.117   2.317 -1.8603 -0.3012  0.5829
 4239SOL     OW15736   6.419   6.574   3.412  0.6577 -0.0191  0.0664
 4239SOL    HW115737   6.333   6.571   3.369  0.9342  2.9807 -0.8188
 4239SOL    HW215738   6.422   6.660   3.454  3.0244 -0.3063  0.5811
 4240SOL     OW15739   7.353   4.557   1.181  0.2968 -0.2801 -0.0034
 4240SOL    HW115740   7.377   4.565   1.273  0.2799 -0.5456  0.0229
 4240SOL    HW215741   7.385   4.638   1.141  1.8744 -0.9246 -0.0993
 4241SOL     OW15742   6.331   7.380   5.086  0.5849 -0.3865  0.1049
 4241SOL    HW115743   6.369   7.420   5.163 -0.3545  1.8217 -0.5497
 4241SOL    HW215744   6.307   7.291   5.115 -1.2712  0.9309  2.8524
 4242SOL     OW15745   7.991   6.378   7.953  0.1030  0.4471 -0.5243
 4242SOL    HW115746   8.049   6.452   7.968  0.1874  0.2943 -0.0571
 4242SOL    HW215747   7.974   6.343   8.041  0.3940 -0.3343 -0.7698
 4243SOL     OW15748   0.045   0.688   5.719  0.7032  0.2000  0.1479
 4243SOL    HW115749   0.047   0.597   5.749  0.4511  0.1097 -0.1046
 4243SOL    HW215750   0.108   0.691   5.646  1.8245  0.5787  1.1182
 4244SOL     OW15751   7.664   3.500   6.157  0.3121  0.1416  0.2424
 4244SOL    HW115752   7.641   3.573   6.214  1.0973  0.1226  0.5922
 4244SOL    HW215753   7.755   3.518   6.130 -0.0092  0.1009 -0.9183
 4245SOL     OW15754   0.950   9.096   8.875  0.0672  0.3625  0.1173
 4245SOL    HW115755   1.010   9.023   8.885 -0.4583 -0.1831 -0.6176
 4245SOL    HW215756   0.907   9.081   8.791  0.3806  1.8353 -0.3229
 4246SOL     OW15757   0.509   4.550   5.100  0.5276  0.1375  0.0473
 4246SOL    HW115758   0.555   4.552   5.016  0.7953  0.5725  0.2004
 4246SOL    HW215759   0.533   4.467   5.139  0.1041 -0.2309 -0.4734
 4247SOL     OW15760   3.502   0.316   1.808 -0.5119  0.5919 -0.0730
 4247SOL    HW115761   3.416   0.318   1.767  1.1909  1.2900 -3.7950
 4247SOL    HW215762   3.528   0.223   1.805 -0.0044  0.7658 -1.5170
 4248SOL     OW15763   2.955   5.430   1.971 -0.1661 -0.7924 -0.1742
 4248SOL    HW115764   2.921   5.386   1.893 -1.2151  0.3002 -0.3444
 4248SOL    HW215765   2.893   5.407   2.040 -1.2003  1.0604 -0.4463
 4249SOL     OW15766   7.966   1.534   4.229 -0.1494  0.3309  0.3747
 4249SOL    HW115767   7.883   1.488   4.220 -0.4365  1.2050 -1.7705
 4249SOL    HW215768   8.009   1.492   4.304 -1.5320 -1.6190  0.1078
 4250SOL     OW15769   6.881   2.387   6.889 -0.3615  0.1055 -0.4436
 4250SOL    HW115770   6.841   2.310   6.929 -0.3520 -0.0945 -0.8170
 4250SOL    HW215771   6.938   2.351   6.821 -1.6385  0.5154 -1.7563
 4251SOL     OW15772   9.179   6.609   2.337 -0.1227  0.1178  0.3077
 4251SOL    HW115773   9.159   6.653   2.420 -3.0456  0.3155 -0.4352
 4251SOL    HW215774   9.182   6.516   2.360  1.2149  0.3126  0.9956
 4252SOL     OW15775   6.491   3.844   4.765  0.0445 -0.1579 -0.1270
 4252SOL    HW115776   6.509   3.752   4.747  3.3959 -0.0040  2.0581
 4252SOL    HW215777   6.468   3.881   4.680 -2.6376 -3.2461 -0.8266
 4253SOL     OW15778   9.363   1.420   4.622 -0.2263 -0.4389 -0.0148
 4253SOL    HW115779   9.366   1.403   4.716  0.4222 -0.0721  0.0312
 4253SOL    HW215780   9.309   1.499   4.614  1.0138  0.4437  0.1821
 4254SOL     OW15781   4.350   9.043   2.699 -0.0097 -0.3902 -0.3920
 4254SOL    HW115782   4.344   8.963   2.751  0.2727  1.9039  3.3550
 4254SOL    HW215783   4.265   9.049   2.655 -1.5132 -0.7864  2.3655
 4255SOL     OW15784   7.498   9.311   2.955 -0.3152  0.0058  0.3742
 4255SOL    HW115785   7.413   9.351   2.936  0.1300  1.3446  1.1288
 4255SOL    HW215786   7.561   9.383   2.948  0.4372 -0.4281  2.2862
 4256SOL     OW15787   7.724   0.366   8.008  0.2739  0.3066 -0.3896
 4256SOL    HW115788   7.665   0.430   7.969  0.2948  0.6972  0.2127
 4256SOL    HW215789   7.809   0.386   7.971  0.3103  0.7338 -0.0847
 4257SOL     OW15790   6.060   9.171   7.046  0.4285 -0.3970 -0.4111
 4257SOL    HW115791   6.138   9.220   7.020  0.8285 -0.2650  1.0023
 4257SOL    HW215792   5.990   9.236   7.046  0.8063  0.0182  0.7039
 4258SOL     OW15793   7.680   1.979   6.617  0.0344 -0.3251 -0.5645
 4258SOL    HW115794   7.739   1.999   6.690 -1.3809 -2.5154  1.2574
 4258SOL    HW215795   7.726   1.911   6.567 -0.5438 -1.4389  0.3881
 4259SOL     OW15796   4.162   2.170   5.527  0.2800  0.3654  0.1390
 4259SOL    HW115797   4.240   2.142   5.576  0.2764 -0.5598 -0.3701
 4259SOL    HW215798   4.195   2.190   5.440 -0.3635 -2.1628 -0.7382
 4260SOL     OW15799   8.263   3.890   3.473  0.2302 -0.2935 -0.3906
 4260SOL    HW115800   8.177   3.918   3.504 -0.1487 -0.8504 -0.9086
 4260SOL    HW215801   8.245   3.851   3.387  0.7291 -2.0658  0.2836
 4261SOL     OW15802   5.023   1.595   3.541  0.1126 -0.6468 -0.4939
 4261SOL    HW115803   5.101   1.646   3.562 -0.2978  0.2471 -1.1340
 4261SOL    HW215804   4.949   1.653   3.561 -0.3498 -0.7878 -1.7559
 4262SOL     OW15805   7.516   4.498   8.887 -0.1336 -0.2059 -0.1152
 4262SOL    HW115806   7.467   4.515   8.806 -0.5704 -1.0570 -0.0397
 4262SOL    HW215807   7.507   4.579   8.938 -0.6911 -0.0255 -0.4950
 4263SOL     OW15808   8.439   1.949   4.742  0.1997  0.0444  0.3272
 4263SOL    HW115809   8.491   1.874   4.770  0.0676 -0.6165 -1.1221
 4263SOL    HW215810   8.466   1.964   4.651  0.4825  1.9870  0.7097
 4264SOL     OW15811   3.835   1.629   0.125 -0.2343 -0.0484  0.3016
 4264SOL    HW115812   3.786   1.572   0.184  0.4171  0.7898  1.6677
 4264SOL    HW215813   3.863   1.702   0.180  0.5526  0.6402 -1.0010
 4265SOL     OW15814   0.955   1.357   1.524 -0.3731  0.2032 -0.0505
 4265SOL    HW115815   0.887   1.413   1.485  0.5893  0.5780 -1.2213
 4265SOL    HW215816   0.954   1.380   1.617 -1.6878  0.3716 -0.0922
 4266SOL     OW15817   5.234   5.221   6.336 -0.1106  0.2145  0.2672
 4266SOL    HW115818   5.202   5.156   6.399  0.3115  0.7388  1.0465
 4266SOL    HW215819   5.310   5.260   6.380  0.3328  0.4284 -0.6774
 4267SOL     OW15820   2.778   2.990   0.828  0.2107  0.4011  0.1158
 4267SOL    HW115821   2.838   3.058   0.857 -0.2121  1.5088 -1.5912
 4267SOL    HW215822   2.763   3.008   0.736 -0.9231 -1.2422 -0.0406
 4268SOL     OW15823   9.234   5.241   6.859 -0.3339 -0.2109 -0.1464
 4268SOL    HW115824   9.289   5.300   6.911 -1.5796 -0.3446  1.3415
 4268SOL    HW215825   9.257   5.261   6.768 -0.0083  1.8319  0.3682
 4269SOL     OW15826   6.637   5.982   0.484 -0.7560  0.1600  0.4568
 4269SOL    HW115827   6.612   5.902   0.438 -0.5068 -0.5212  1.4707
 4269SOL    HW215828   6.618   5.963   0.576 -1.0129  1.3932  0.6700
 4270SOL     OW15829   5.882   7.160   3.087 -0.5408 -0.0674  0.0159
 4270SOL    HW115830   5.962   7.167   3.138 -0.6907 -1.0954  0.3946
 4270SOL    HW215831   5.872   7.247   3.046  0.9556 -0.0547 -0.3443
 4271SOL     OW15832   0.745   4.827   4.726 -0.5715 -0.2947  0.5795
 4271SOL    HW115833   0.828   4.832   4.774  0.4959 -0.4644 -1.2090
 4271SOL    HW215834   0.746   4.741   4.684 -2.0893 -0.6802  1.3028
 4272SOL     OW15835   8.011   7.450   2.981 -0.0603  0.1436  0.0470
 4272SOL    HW115836   7.972   7.387   3.042  1.6290  0.6802  1.6968
 4272SOL    HW215837   8.015   7.532   3.029 -0.6193  1.1032 -1.5044
 4273SOL     OW15838   0.156   4.439   0.940 -0.5085 -0.7304  0.1522
 4273SOL    HW115839   0.126   4.496   1.011 -1.8560 -1.4674  0.1853
 4273SOL    HW215840   0.078   4.424   0.887 -0.2859 -2.9834  0.4352
 4274SOL     OW15841   7.476   8.615   9.381 -0.0915  0.4802 -0.5278
 4274SOL    HW115842   7.564   8.647   9.359  1.0261 -0.1841  2.7076
 4274SOL    HW215843   7.487   8.522   9.397 -0.5399  1.0098  3.5664
 4275SOL     OW15844   7.583   1.057   5.733  0.1548 -0.4870  0.0561
 4275SOL    HW115845   7.609   1.115   5.661  0.9211 -1.3453 -0.3630
 4275SOL    HW215846   7.500   1.093   5.763 -0.1192 -0.0405 -1.1808
 4276SOL     OW15847   7.759   8.037   3.506  0.3971 -0.0831  0.0237
 4276SOL    HW115848   7.752   7.986   3.587  1.1829 -1.4537 -0.7617
 4276SOL    HW215849   7.701   8.112   3.520  1.7512  0.5650  2.5140
 4277SOL     OW15850   5.330   0.847   2.669  1.0019 -0.8185 -0.0780
 4277SOL    HW115851   5.317   0.922   2.727  1.7553 -2.4621  2.2967
 4277SOL    HW215852   5.420   0.855   2.638  0.7651 -0.2105 -0.5954
 4278SOL     OW15853   8.822   5.308   6.010 -0.0036  0.3151 -0.7387
 4278SOL    HW115854   8.902   5.354   5.986  0.8831 -0.7368  0.1179
 4278SOL    HW215855   8.847   5.215   6.011 -0.8618  0.0859  0.8718
 4279SOL     OW15856   8.293   2.669   4.557  0.0704  0.0730  0.4348
 4279SOL    HW115857   8.228   2.662   4.487 -1.3891 -0.7816  1.8327
 4279SOL    HW215858   8.241   2.688   4.636  1.2886 -2.5375  1.9530
 4280SOL     OW15859   4.101   8.071   7.312  0.0256  0.2509  0.7242
 4280SOL    HW115860   4.134   8.052   7.400 -1.5405  1.1226  1.5154
 4280SOL    HW215861   4.040   8.144   7.324 -0.2775  0.3287 -1.0796
 4281SOL     OW15862   1.009   1.317   1.781  0.2448 -0.4993 -0.1624
 4281SOL    HW115863   1.014   1.373   1.858  1.2142  2.4599 -2.2586
 4281SOL    HW215864   0.936   1.258   1.798 -0.8633  1.4543  2.1372
 4282SOL     OW15865   4.273   0.641   4.598 -0.1598  0.0998  0.2109
 4282SOL    HW115866   4.323   0.664   4.520 -0.9635  1.0320 -0.0437
 4282SOL    HW215867   4.191   0.606   4.564  0.3210 -1.4916  0.6244
 4283SOL     OW15868   3.311   5.475   1.226 -0.0523  0.3328  0.2542
 4283SOL    HW115869   3.406   5.489   1.227 -0.1980  1.3543  1.6112
 4283SOL    HW215870   3.280   5.530   1.153  0.3457  0.3595  0.1036
 4284SOL     OW15871   4.412   2.878   0.410 -0.2658  0.2472  0.1069
 4284SOL    HW115872   4.503   2.880   0.381  0.2371  0.0101  1.6063
 4284SOL    HW215873   4.369   2.816   0.351  0.9074 -0.8753  0.4072
 4285SOL     OW15874   1.350   7.354   2.961  0.1914  0.1747  0.1223
 4285SOL    HW115875   1.341   7.383   2.870  0.3320  0.4477  0.1949
 4285SOL    HW215876   1.276   7.295   2.975  0.8715 -0.8562 -0.5550
 4286SOL     OW15877   7.201   5.858   1.165 -0.1183  0.1721 -0.4804
 4286SOL    HW115878   7.238   5.891   1.083  1.1388 -0.5631 -0.2290
 4286SOL    HW215879   7.278   5.836   1.218 -0.9332 -0.7662  0.3199
 4287SOL     OW15880   0.430   1.541   1.539  0.3237 -0.4629  0.5985
 4287SOL    HW115881   0.454   1.471   1.601 -1.8570 -0.3969  1.5706
 4287SOL    HW215882   0.358   1.504   1.488  0.7674  0.2198 -0.5313
 4288SOL     OW15883   0.004   7.427   5.493  0.0640  0.0886  0.2342
 4288SOL    HW115884  -0.071   7.454   5.546  0.2572  0.7719  0.1591
 4288SOL    HW215885   0.080   7.449   5.547  0.2705  0.9966 -0.4178
 4289SOL     OW15886   9.437   2.480   3.576 -0.2569  0.2866 -0.5111
 4289SOL    HW115887   9.521   2.526   3.587 -0.1498 -0.4835  2.3985
 4289SOL    HW215888   9.376   2.528   3.632 -0.7657 -1.5264  0.5412
 4290SOL     OW15889   6.847   1.742   3.548  0.3331  0.0248  0.0226
 4290SOL    HW115890   6.887   1.655   3.546  0.7829  0.2088  0.8143
 4290SOL    HW215891   6.783   1.737   3.619  1.9224  1.0048  1.5511
 4291SOL     OW15892   1.177   4.933   3.544 -0.2001  0.3982 -0.1703
 4291SOL    HW115893   1.128   4.959   3.621 -0.1695 -0.8227  0.2731
 4291SOL    HW215894   1.111   4.907   3.480 -0.1324 -1.5249  0.5294
 4292SOL     OW15895   7.379   4.261   3.071 -0.3255  0.0444  0.1675
 4292SOL    HW115896   7.472   4.277   3.055 -0.7001  0.4998 -1.8175
 4292SOL    HW215897   7.358   4.185   3.016 -1.6332  1.4455 -1.3312
 4293SOL     OW15898   3.869   1.537   3.881  0.4663  0.2859  0.1777
 4293SOL    HW115899   3.807   1.538   3.807 -1.1871 -1.5650  1.4616
 4293SOL    HW215900   3.955   1.542   3.840 -0.4504  0.4325 -1.8260
 4294SOL     OW15901   6.185   3.929   1.227 -0.6036  0.3986 -0.0107
 4294SOL    HW115902   6.240   3.970   1.160 -0.2726  0.1091  0.0818
 4294SOL    HW215903   6.095   3.952   1.202 -0.4581  0.6304 -0.3246
 4295SOL     OW15904   2.543   5.663   0.488 -0.4829 -0.2537 -0.4019
 4295SOL    HW115905   2.599   5.665   0.566 -1.4569  0.8901  0.2902
 4295SOL    HW215906   2.586   5.720   0.425 -0.7412  0.4510  0.0521
 4296SOL     OW15907   6.028   1.563   2.879  0.3340 -0.0225 -0.0208
 4296SOL    HW115908   5.991   1.559   2.791  1.2247  0.8346 -0.4530
 4296SOL    HW215909   5.967   1.515   2.934 -0.5980  0.0478 -0.9901
 4297SOL     OW15910   5.886   1.470   5.937 -0.3622 -0.6286  0.0293
 4297SOL    HW115911   5.837   1.527   5.996  0.8863  1.3701 -0.8126
 4297SOL    HW215912   5.939   1.416   5.995 -0.4792  0.0674  0.7959
 4298SOL     OW15913   4.403   0.263   4.137 -0.1928 -0.5769 -0.4989
 4298SOL    HW115914   4.420   0.196   4.203 -1.3074 -0.4676 -0.0942
 4298SOL    HW215915   4.393   0.344   4.187  0.0229 -0.3053 -0.8924
 4299SOL     OW15916   9.275   0.181   3.333  0.4859  0.4989 -0.3661
 4299SOL    HW115917   9.294   0.200   3.241  0.1642  1.5438 -0.2166
 4299SOL    HW215918   9.351   0.212   3.381  0.4103  0.4646 -0.2228
 4300SOL     OW15919   1.510   1.330   2.821 -0.2603 -0.1019 -0.3314
 4300SOL    HW115920   1.425   1.285   2.824 -0.3008 -0.0418 -0.5857
 4300SOL    HW215921   1.553   1.295   2.744 -1.3236  2.1347 -2.0165
 4301SOL     OW15922   6.712   1.378   0.982  0.2325 -0.1466  0.3099
 4301SOL    HW115923   6.778   1.345   1.044  0.5341 -1.2344 -0.5757
 4301SOL    HW215924   6.762   1.423   0.915  0.0121 -0.1498  0.1427
 4302SOL     OW15925   9.337   3.475   5.971 -0.3574 -0.4869  1.0392
 4302SOL    HW115926   9.256   3.461   6.020 -1.5637 -1.4277 -1.1742
 4302SOL    HW215927   9.319   3.440   5.884  2.4028 -0.6216  0.4788
 4303SOL     OW15928   7.692   5.609   3.133 -0.1385 -0.5501  0.8990
 4303SOL    HW115929   7.659   5.663   3.061 -1.5495 -1.6345  0.7034
 4303SOL    HW215930   7.787   5.619   3.129 -0.3169  0.9989  0.1610
 4304SOL     OW15931   4.549   1.122   2.492  0.2192 -0.2382  0.2377
 4304SOL    HW115932   4.528   1.206   2.451  1.4774 -0.0975 -0.1379
 4304SOL    HW215933   4.599   1.145   2.570 -1.6061 -0.5405  1.5465
 4305SOL     OW15934   0.203   1.479   8.202  0.0670  0.2511  0.2592
 4305SOL    HW115935   0.274   1.445   8.256 -1.1092 -0.3690  1.4740
 4305SOL    HW215936   0.157   1.400   8.171 -0.5312  0.6504  0.1114
 4306SOL     OW15937   6.009   4.768   5.151  0.2205  0.4582  0.0424
 4306SOL    HW115938   5.962   4.797   5.073  0.8688 -1.4507 -1.0928
 4306SOL    HW215939   6.100   4.762   5.123  0.7856  1.6987  1.5257
 4307SOL     OW15940   5.440   0.393   5.716  0.3635  0.1119  0.9502
 4307SOL    HW115941   5.449   0.487   5.728  0.5915  0.0584  1.2011
 4307SOL    HW215942   5.351   0.373   5.746 -0.1781  0.4553 -0.4010
 4308SOL     OW15943   7.316   0.827   9.363  0.3430 -0.3942  0.5424
 4308SOL    HW115944   7.342   0.751   9.415  2.4713  0.5760  0.9572
 4308SOL    HW215945   7.385   0.892   9.379 -0.6110  1.0520 -1.0309
 4309SOL     OW15946   2.574   5.108   1.130  0.1248 -0.7054  0.5931
 4309SOL    HW115947   2.636   5.057   1.078  0.1705 -0.4656  0.4132
 4309SOL    HW215948   2.617   5.121   1.214  0.9474  0.7586 -0.0434
 4310SOL     OW15949   4.810   0.284   2.367 -0.6736  0.8738  0.3099
 4310SOL    HW115950   4.820   0.368   2.412 -1.8216  1.0460  0.2424
 4310SOL    HW215951   4.798   0.307   2.275  1.2411  0.5364 -0.0595
 4311SOL     OW15952   4.661   8.830   2.761  0.1030  0.0075 -0.5160
 4311SOL    HW115953   4.741   8.841   2.710 -0.7892  0.2918 -1.8818
 4311SOL    HW215954   4.619   8.915   2.759  0.7337  0.4127  1.9227
 4312SOL     OW15955   7.389   7.485   3.838  0.6889  0.4735 -0.2599
 4312SOL    HW115956   7.449   7.424   3.881  0.5206  0.5115  0.0304
 4312SOL    HW215957   7.304   7.469   3.880  0.5614  0.6300 -0.4585
 4313SOL     OW15958   0.946   4.270   4.823 -0.1064 -0.5016 -0.5607
 4313SOL    HW115959   0.958   4.285   4.917  1.9442  3.1737 -1.3199
 4313SOL    HW215960   0.984   4.183   4.808 -0.3505 -1.0776  1.9691
 4314SOL     OW15961   5.573   5.166   7.077 -0.3476  0.1776  0.0439
 4314SOL    HW115962   5.609   5.209   7.154  2.6107 -1.4416 -0.3430
 4314SOL    HW215963   5.592   5.073   7.091 -0.3815 -0.2108 -2.3002
 4315SOL     OW15964   5.490   1.297   6.167  0.1316 -0.1083  0.6748
 4315SOL    HW115965   5.559   1.252   6.217  0.1097 -1.7309 -0.7431
 4315SOL    HW215966   5.536   1.337   6.093 -0.2996 -0.3424  0.2782
 4316SOL     OW15967   6.609   6.637   2.261  0.2345 -0.0450  0.0025
 4316SOL    HW115968   6.675   6.644   2.192 -1.3233 -0.7890 -1.5959
 4316SOL    HW215969   6.572   6.549   2.250  0.3136 -0.3737  2.1270
 4317SOL     OW15970   0.357   1.147   8.500 -0.3337 -0.0218  0.4293
 4317SOL    HW115971   0.399   1.120   8.582 -1.1752 -0.0374  0.8611
 4317SOL    HW215972   0.405   1.100   8.432 -1.2332 -1.9801  1.0974
 4318SOL     OW15973   0.675   1.919   5.395 -0.2563  0.0861  0.3143
 4318SOL    HW115974   0.699   1.927   5.303  3.5315 -0.8204  1.1188
 4318SOL    HW215975   0.659   2.009   5.423 -0.3728  0.4825 -0.9718
 4319SOL     OW15976   0.173   3.634   4.936 -0.3469 -0.4207  0.0072
 4319SOL    HW115977   0.087   3.675   4.932 -0.8938 -1.6730 -1.3670
 4319SOL    HW215978   0.160   3.555   4.989  0.2189  0.0071  0.7948
 4320SOL     OW15979   0.417   4.334   3.742 -0.3086  0.2465 -0.1385
 4320SOL    HW115980   0.444   4.409   3.795  0.6223 -0.3034  0.1782
 4320SOL    HW215981   0.490   4.273   3.748 -0.6075 -0.2350 -1.2780
 4321SOL     OW15982   3.370   0.705   1.145  0.0347 -0.4788  0.2970
 4321SOL    HW115983   3.430   0.642   1.183  0.7180 -0.4897 -0.7689
 4321SOL    HW215984   3.397   0.790   1.181 -0.3969 -0.6968  1.1337
 4322SOL     OW15985   7.233   2.472   2.267  0.4572 -0.0486  0.0673
 4322SOL    HW115986   7.186   2.410   2.323 -1.4464  2.4980  1.4124
 4322SOL    HW215987   7.176   2.482   2.191  2.1752 -2.1284 -1.5365
 4323SOL     OW15988   2.747   8.397   4.363 -0.2034  0.4860 -0.1587
 4323SOL    HW115989   2.737   8.489   4.385  0.0097  0.1584  1.3774
 4323SOL    HW215990   2.841   8.386   4.347 -0.3712  0.7454 -1.4071
 4324SOL     OW15991   0.987   8.841   3.977 -0.0391  0.0739  0.0530
 4324SOL    HW115992   1.035   8.761   3.997 -0.9122 -1.0077 -1.9745
 4324SOL    HW215993   1.002   8.898   4.052  2.4479 -1.1313  0.5298
 4325SOL     OW15994   4.809   5.833   6.086  0.1739  0.3095  0.5901
 4325SOL    HW115995   4.751   5.757   6.093 -1.5753  1.5222 -0.3413
 4325SOL    HW215996   4.816   5.866   6.175 -3.2216  2.0359  0.2937
 4326SOL     OW15997   4.267   6.013   4.761  0.2764  0.5032 -0.3886
 4326SOL    HW115998   4.207   5.940   4.747 -1.0116  1.4034  0.3230
 4326SOL    HW215999   4.212   6.091   4.760  1.4882  1.3876 -0.1205
 4327SOL     OW16000   1.984   0.528   1.710 -0.3741  0.0464  0.4398
 4327SOL    HW116001   1.978   0.559   1.800 -0.2459  1.3118  0.0213
 4327SOL    HW216002   1.967   0.434   1.716 -2.2511  0.4276  1.5536
 4328SOL     OW16003   1.094   0.959   5.298 -0.1683 -0.0391 -0.2319
 4328SOL    HW116004   1.005   0.928   5.279 -0.0952 -0.9352  0.8528
 4328SOL    HW216005   1.090   0.992   5.387  0.2307  1.3560 -0.7107
 4329SOL     OW16006   4.049   2.125   2.403 -0.0740 -0.7962  0.3671
 4329SOL    HW116007   4.077   2.211   2.432 -1.2021 -0.3476  0.1573
 4329SOL    HW216008   3.965   2.110   2.447 -0.9453 -0.8496 -1.2345
 4330SOL     OW16009   3.045   5.707   8.811 -0.0854 -0.6175  0.0391
 4330SOL    HW116010   2.979   5.655   8.857  1.1123  0.2234  2.8080
 4330SOL    HW216011   3.023   5.798   8.831  1.4213 -0.2989  0.3337
 4331SOL     OW16012   5.105   7.672   6.893  0.0515  0.0478 -0.5960
 4331SOL    HW116013   5.081   7.648   6.982 -1.5983 -0.9705 -1.3042
 4331SOL    HW216014   5.156   7.753   6.903 -0.7415  0.3445  1.2007
 4332SOL     OW16015   0.516   7.251   1.946  0.0280 -0.5172  0.1064
 4332SOL    HW116016   0.606   7.282   1.930 -0.1508  0.6165  1.2014
 4332SOL    HW216017   0.511   7.168   1.900  2.6064 -2.1179  2.5666
 4333SOL     OW16018   1.321   9.039   3.818  0.4014 -0.3451  0.1860
 4333SOL    HW116019   1.295   9.025   3.909  0.2703 -0.7920  0.0822
 4333SOL    HW216020   1.243   9.076   3.776 -0.0946 -1.6804 -0.1236
 4334SOL     OW16021   2.423   3.254   3.719  0.0705  0.5067  0.6909
 4334SOL    HW116022   2.401   3.163   3.738  0.6415  0.3982  0.8495
 4334SOL    HW216023   2.507   3.249   3.673 -1.0622  0.7913 -1.4807
 4335SOL     OW16024   7.392   0.329   0.819  0.5039  0.3419  0.2495
 4335SOL    HW116025   7.422   0.339   0.728  0.4300 -0.3611  0.1436
 4335SOL    HW216026   7.465   0.358   0.872  0.6819  0.4100 -0.0297
 4336SOL     OW16027   1.593   6.312   2.661 -0.3481 -0.0089  0.5628
 4336SOL    HW116028   1.636   6.255   2.725 -0.1208 -0.4106  0.0493
 4336SOL    HW216029   1.520   6.260   2.627  0.4361 -0.3402 -0.6096
 4337SOL     OW16030   5.745   3.696   2.882 -0.5280  0.6300  0.2837
 4337SOL    HW116031   5.690   3.642   2.939  0.4947 -0.0733  0.6117
 4337SOL    HW216032   5.824   3.713   2.934  0.3651  0.0825 -0.8870
 4338SOL     OW16033   8.859   8.596   2.460  0.2355 -0.0416 -0.1715
 4338SOL    HW116034   8.767   8.605   2.484  0.6416 -0.0148  1.4429
 4338SOL    HW216035   8.888   8.686   2.444 -0.3018 -0.1492 -1.8099
 4339SOL     OW16036   1.123   7.369   0.547 -0.3606 -0.6063  0.0314
 4339SOL    HW116037   1.077   7.386   0.629 -1.9695  0.5461 -1.0709
 4339SOL    HW216038   1.205   7.326   0.573 -0.5081  0.4165  2.2770
 4340SOL     OW16039   2.390   0.369   1.002 -0.0396 -0.3472  0.4086
 4340SOL    HW116040   2.347   0.454   0.993  2.6847  1.0056 -0.2425
 4340SOL    HW216041   2.391   0.333   0.913  1.2205  0.1766  0.1977
 4341SOL     OW16042   1.393   6.393   3.867 -0.7699  0.3172 -0.2359
 4341SOL    HW116043   1.421   6.330   3.934 -1.8741 -0.8323 -0.8368
 4341SOL    HW216044   1.309   6.426   3.898 -0.0290  1.7853  0.2493
 4342SOL     OW16045   3.125   0.477   2.611 -0.0133 -0.0665 -0.7605
 4342SOL    HW116046   3.185   0.424   2.559 -0.8889 -0.7104 -1.1274
 4342SOL    HW216047   3.150   0.458   2.702 -0.5334 -1.3797 -0.8732
 4343SOL     OW16048   5.229   0.422   7.654  0.1381 -0.4512  0.2047
 4343SOL    HW116049   5.142   0.386   7.638  0.8936 -1.3701 -1.9452
 4343SOL    HW216050   5.216   0.484   7.726 -2.0025 -1.6666  0.9034
 4344SOL     OW16051   9.439   1.381   8.391  0.3422 -0.0578  0.1990
 4344SOL    HW116052   9.347   1.359   8.402  0.2447  0.9296  1.3924
 4344SOL    HW216053   9.439   1.470   8.356  0.8547  0.5198  1.6126
 4345SOL     OW16054   8.175   1.010   4.827 -0.0783  0.0574  0.1941
 4345SOL    HW116055   8.198   0.918   4.838 -0.0468  0.1003  0.4817
 4345SOL    HW216056   8.157   1.019   4.734 -1.1050 -0.4760  0.3382
 4346SOL     OW16057   4.538   1.646   0.956  0.1130  0.0085  0.0202
 4346SOL    HW116058   4.617   1.676   1.001  0.8226 -1.7038 -0.0464
 4346SOL    HW216059   4.568   1.622   0.868 -0.6404  0.1369 -0.2766
 4347SOL     OW16060   4.803   2.836   8.370 -0.2249 -0.4385  0.2900
 4347SOL    HW116061   4.750   2.869   8.298 -2.4629 -2.5427  0.8817
 4347SOL    HW216062   4.805   2.741   8.356  2.5079 -0.5051  0.9043
 4348SOL     OW16063   3.971   4.426   9.247  0.2042  0.2146 -0.1929
 4348SOL    HW116064   3.913   4.448   9.174 -0.3365 -0.1383  0.1322
 4348SOL    HW216065   4.048   4.387   9.206 -1.0746 -2.0986 -0.4330
 4349SOL     OW16066   5.328   4.895   6.474 -0.2811  0.3889  0.4448
 4349SOL    HW116067   5.399   4.851   6.427 -0.7684  0.2639 -0.1874
 4349SOL    HW216068   5.256   4.897   6.411 -0.9965  0.0907  1.2462
 4350SOL     OW16069   1.708   8.742   3.727  0.3498 -0.9030  0.1587
 4350SOL    HW116070   1.695   8.653   3.760  1.2165 -1.2976 -0.5430
 4350SOL    HW216071   1.620   8.774   3.709 -0.0296 -1.2624  1.3448
 4351SOL     OW16072   0.993   0.757   7.891 -1.1694 -0.4145  0.5030
 4351SOL    HW116073   1.063   0.694   7.909 -0.6644  0.0403  0.1849
 4351SOL    HW216074   1.014   0.832   7.948 -1.4505 -0.3135  0.4752
 4352SOL     OW16075   1.380   3.314   5.302 -0.1715  0.2432 -0.1734
 4352SOL    HW116076   1.351   3.223   5.291 -0.8452  0.6481 -1.9925
 4352SOL    HW216077   1.438   3.330   5.228  0.9049  0.9378  0.8054
 4353SOL     OW16078   8.531   0.946   0.502  0.0347  0.3591  0.4472
 4353SOL    HW116079   8.627   0.946   0.507 -0.0751 -0.8812  3.5011
 4353SOL    HW216080   8.509   0.858   0.473 -0.2387 -0.1023  2.0146
 4354SOL     OW16081   2.724   2.302   1.615  0.0561 -0.3015 -0.5790
 4354SOL    HW116082   2.633   2.327   1.631 -0.0786 -1.5969  0.7928
 4354SOL    HW216083   2.763   2.379   1.573 -1.2062  0.9311  0.4661
 4355SOL     OW16084   7.665   8.494   7.333 -0.5314  0.4166 -0.3107
 4355SOL    HW116085   7.760   8.497   7.343 -0.4477  0.0082 -0.9489
 4355SOL    HW216086   7.632   8.481   7.421  0.0702 -0.6604 -0.2336
 4356SOL     OW16087   1.956   8.118   7.206 -0.2357 -0.2168 -0.5111
 4356SOL    HW116088   1.889   8.050   7.209 -0.0053 -0.3967  1.6792
 4356SOL    HW216089   1.951   8.153   7.117 -2.9270 -0.5288 -0.5210
 4357SOL     OW16090   3.380   2.288   5.826 -0.7688  0.3291 -0.3991
 4357SOL    HW116091   3.409   2.378   5.843 -0.3318  0.8996 -3.8175
 4357SOL    HW216092   3.285   2.296   5.814 -1.0589 -0.0513  1.5357
 4358SOL     OW16093   3.302   6.443   1.550  0.2607  0.2268  0.3890
 4358SOL    HW116094   3.312   6.405   1.463  3.3226  2.4523 -0.3279
 4358SOL    HW216095   3.245   6.518   1.537  1.6726  1.2608  0.0326
 4359SOL     OW16096   6.925   9.016   6.740  0.5883 -0.1870 -0.4192
 4359SOL    HW116097   6.951   8.947   6.801  1.0961 -0.1977 -0.6457
 4359SOL    HW216098   6.876   9.079   6.794 -2.1845 -2.0064 -0.7087
 4360SOL     OW16099   3.367   0.717   8.640 -0.1746  0.4064  0.0495
 4360SOL    HW116100   3.309   0.793   8.635  0.2653  0.7111 -0.4207
 4360SOL    HW216101   3.399   0.717   8.730 -0.5649  0.4898  0.1876
 4361SOL     OW16102   9.254   5.134   5.762  0.2452 -0.3680 -0.3845
 4361SOL    HW116103   9.195   5.060   5.774 -0.9542  0.7643  0.9874
 4361SOL    HW216104   9.196   5.210   5.755  1.4699  0.5209 -1.1336
 4362SOL     OW16105   7.865   4.896   4.586 -0.1637 -0.0106  0.0973
 4362SOL    HW116106   7.814   4.967   4.625 -1.5353 -0.1555 -1.4157
 4362SOL    HW216107   7.856   4.908   4.492  1.5217 -0.8267 -0.1938
 4363SOL     OW16108   1.163   4.972   4.187 -0.8486  0.5535 -0.0051
 4363SOL    HW116109   1.222   4.973   4.112 -0.1537  3.2238  0.5181
 4363SOL    HW216110   1.081   4.938   4.152  0.0081  0.0005 -1.5338
 4364SOL     OW16111   5.211   3.572   8.068 -0.2345 -0.2665  0.1000
 4364SOL    HW116112   5.138   3.517   8.041 -1.3545  0.9056  0.7050
 4364SOL    HW216113   5.231   3.625   7.990  0.0745 -0.7022 -0.1155
 4365SOL     OW16114   0.236   0.911   4.847 -0.3429 -0.2548  0.0300
 4365SOL    HW116115   0.291   0.986   4.870 -1.3115  0.6594 -0.5651
 4365SOL    HW216116   0.295   0.850   4.803  0.1046  0.8997 -0.9828
 4366SOL     OW16117   2.538   9.423   9.341  0.5335  0.5392 -0.7842
 4366SOL    HW116118   2.548   9.351   9.404  1.6197 -0.9290 -2.5641
 4366SOL    HW216119   2.450   9.457   9.356 -0.4513 -1.9696 -0.7078
 4367SOL     OW16120   2.160   8.590   4.730  0.3100  0.4469  0.4116
 4367SOL    HW116121   2.208   8.654   4.678  2.5467  0.1136  1.9920
 4367SOL    HW216122   2.226   8.526   4.755 -1.8110 -2.3696 -0.8918
 4368SOL     OW16123   2.143   3.314   3.010 -0.1134  0.1052  0.0009
 4368SOL    HW116124   2.150   3.276   2.922 -2.3702 -0.6198  0.1019
 4368SOL    HW216125   2.109   3.242   3.064 -0.7050  1.1379  1.0092
 4369SOL     OW16126   6.536   5.513   1.919  0.4291 -0.2152  0.2672
 4369SOL    HW116127   6.500   5.442   1.972  0.5710 -0.0009  0.6582
 4369SOL    HW216128   6.461   5.570   1.900 -0.0612 -1.4995 -1.7213
 4370SOL     OW16129   1.467   3.182   0.262 -0.5620 -0.5237  0.8458
 4370SOL    HW116130   1.410   3.163   0.188 -2.0933  2.1755  1.2551
 4370SOL    HW216131   1.409   3.176   0.338 -0.0791  1.1957  1.3648
 4371SOL     OW16132   8.819   7.199   7.598  0.5024 -0.4502  0.5212
 4371SOL    HW116133   8.743   7.142   7.610  1.1086 -1.4479 -0.2873
 4371SOL    HW216134   8.880   7.146   7.546  2.2285 -0.1077  2.1602
 4372SOL     OW16135   2.938   2.350   2.071 -0.3305 -0.4187  0.1557
 4372SOL    HW116136   2.978   2.345   2.157  0.8955 -0.0739 -0.3794
 4372SOL    HW216137   2.981   2.281   2.020 -1.3522 -0.9001 -0.0558
 4373SOL     OW16138   0.081   8.015   6.461 -0.0404  0.0288 -0.2480
 4373SOL    HW116139   0.118   8.042   6.377  2.0332  1.0062  0.9433
 4373SOL    HW216140   0.038   8.093   6.495  0.4586  0.0685  0.3006
 4374SOL     OW16141   5.659   5.536   5.343  0.1406  0.5410  0.1499
 4374SOL    HW116142   5.688   5.466   5.402 -0.8045  0.7006  0.8111
 4374SOL    HW216143   5.584   5.576   5.388 -0.3873  0.8747 -1.0067
 4375SOL     OW16144   7.540   4.193   4.524  0.6167 -0.2191  0.1659
 4375SOL    HW116145   7.514   4.278   4.488  1.3927 -0.6743 -1.5158
 4375SOL    HW216146   7.625   4.210   4.564  0.8780 -0.2334 -0.3697
 4376SOL     OW16147   3.808   4.223   8.421 -0.3070  0.1105  0.2943
 4376SOL    HW116148   3.837   4.313   8.406  0.2495  0.0153  0.7532
 4376SOL    HW216149   3.723   4.217   8.378 -0.3930  0.8884  0.3500
 4377SOL     OW16150   2.764   8.306   1.803  0.0473  0.0490  0.1537
 4377SOL    HW116151   2.681   8.266   1.775 -0.2567  0.0361  1.0666
 4377SOL    HW216152   2.830   8.269   1.744 -0.6208  0.1825 -0.6829
 4378SOL     OW16153   3.062   1.005   7.396  0.0954  0.3907  0.1167
 4378SOL    HW116154   3.060   1.070   7.326  0.0187  0.0594 -0.1891
 4378SOL    HW216155   3.155   0.990   7.414  0.1295 -0.1328 -0.4812
 4379SOL     OW16156   3.656   4.273   6.930  0.1500 -0.1625 -0.3231
 4379SOL    HW116157   3.658   4.369   6.931 -0.3456 -0.1181  2.7386
 4379SOL    HW216158   3.579   4.251   6.982  2.0985 -2.2155  1.8070
 4380SOL     OW16159   0.270   5.219   4.002 -0.0747 -0.7562  0.2387
 4380SOL    HW116160   0.185   5.194   3.965 -0.5523  1.4533 -0.2704
 4380SOL    HW216161   0.247   5.281   4.072  1.1927  1.6818 -1.4518
 4381SOL     OW16162   8.005   6.678   9.392 -0.6017  0.1804 -0.0458
 4381SOL    HW116163   7.930   6.628   9.360 -0.5554 -0.7894  1.2931
 4381SOL    HW216164   7.974   6.721   9.472 -0.0681  0.6837 -0.1084
 4382SOL     OW16165   2.504   5.967   6.360 -0.1365  0.2238  0.2426
 4382SOL    HW116166   2.428   6.012   6.398 -1.8178 -0.9007 -1.6748
 4382SOL    HW216167   2.469   5.886   6.324  1.2991  1.1617 -3.5931
 4383SOL     OW16168   3.969   5.509   4.047  0.4757  0.1923 -0.1982
 4383SOL    HW116169   4.043   5.566   4.028  0.9341 -0.4259 -0.2757
 4383SOL    HW216170   3.893   5.555   4.011  1.4374 -1.3871 -4.4666
 4384SOL     OW16171   4.482   2.954   3.688  0.4800 -0.1152  0.1086
 4384SOL    HW116172   4.450   2.873   3.728 -0.9187  0.2034 -0.3390
 4384SOL    HW216173   4.533   2.996   3.758 -0.4155 -0.4421  0.9789
 4385SOL     OW16174   4.251   6.146   5.321 -0.7625 -0.0739  0.3211
 4385SOL    HW116175   4.325   6.157   5.381 -0.3090  2.0148 -0.5726
 4385SOL    HW216176   4.257   6.222   5.262 -1.3079 -1.9617 -2.2344
 4386SOL     OW16177   5.252   5.575   5.261 -0.0536  0.0344 -0.3047
 4386SOL    HW116178   5.328   5.517   5.264  0.0858  0.1864 -0.7975
 4386SOL    HW216179   5.196   5.537   5.193 -1.0775 -0.8818  1.0256
 4387SOL     OW16180   1.982   6.722   4.791 -0.7080  0.3607  0.2612
 4387SOL    HW116181   1.905   6.676   4.759 -0.7389  1.6935 -1.6588
 4387SOL    HW216182   1.953   6.813   4.803  0.4538  0.7834 -0.0911
 4388SOL     OW16183   0.947   0.991   2.938  0.2361  0.0692  0.4449
 4388SOL    HW116184   1.033   0.969   2.972 -0.0681 -0.7340  0.7072
 4388SOL    HW216185   0.962   1.066   2.880  1.0253  0.2595  0.8991
 4389SOL     OW16186   1.631   3.927   5.654 -0.3299 -0.1169  0.2502
 4389SOL    HW116187   1.540   3.943   5.681 -0.8514 -3.4401  0.6558
 4389SOL    HW216188   1.623   3.873   5.575  1.3135  1.4065 -0.9848
 4390SOL     OW16189   2.898   3.594   9.405 -0.3261  0.3398  0.3923
 4390SOL    HW116190   2.887   3.664   9.340 -0.3143  0.3028  0.3504
 4390SOL    HW216191   2.991   3.572   9.400 -0.7798 -1.3345 -1.3081
 4391SOL     OW16192   2.769   9.088   1.180 -0.1292  0.8840 -0.1126
 4391SOL    HW116193   2.789   9.171   1.138  1.5818  0.9574  0.8177
 4391SOL    HW216194   2.712   9.042   1.118 -1.2458  2.8061 -0.5605
 4392SOL     OW16195   4.318   1.422   0.235 -0.5530 -0.6259  0.0250
 4392SOL    HW116196   4.251   1.451   0.297 -1.5713  1.5134 -1.9772
 4392SOL    HW216197   4.375   1.498   0.224 -0.5704 -0.8545 -1.8569
 4393SOL     OW16198   0.247   1.305   5.328 -0.4314 -0.0523 -0.1996
 4393SOL    HW116199   0.268   1.387   5.373 -1.9882  0.7736 -0.9374
 4393SOL    HW216200   0.157   1.286   5.354 -0.2607 -1.2528 -0.4650
 4394SOL     OW16201   0.860   5.853   7.562 -0.3196 -0.3575 -0.0713
 4394SOL    HW116202   0.949   5.823   7.547 -0.2205 -0.8200  1.3923
 4394SOL    HW216203   0.832   5.887   7.478  0.2935 -2.6395 -1.2326
 4395SOL     OW16204   2.260   3.642   5.126  0.4043  0.0811 -0.2938
 4395SOL    HW116205   2.264   3.646   5.222 -0.0895  0.3781 -0.2832
 4395SOL    HW216206   2.166   3.647   5.106  0.5317  0.3847 -0.8131
 4396SOL     OW16207   3.734   9.368   1.438 -0.1314 -0.2392 -0.2947
 4396SOL    HW116208   3.686   9.449   1.454 -0.4490 -0.9637  2.6137
 4396SOL    HW216209   3.825   9.396   1.428 -0.2689  0.5099  0.4985
 4397SOL     OW16210   2.813   7.279   0.331  0.4917 -0.3272  0.3415
 4397SOL    HW116211   2.884   7.254   0.271 -0.6974  0.1085 -1.2527
 4397SOL    HW216212   2.733   7.253   0.286 -0.4734  1.0308  1.2631
 4398SOL     OW16213   6.408   4.512   0.086  0.1686  0.1274 -0.1034
 4398SOL    HW116214   6.367   4.505   0.172  0.1466 -0.7691 -0.1821
 4398SOL    HW216215   6.488   4.562   0.102 -1.6050  3.1281 -0.1849
 4399SOL     OW16216   4.245   4.418   5.724  0.1401 -0.1595  0.0421
 4399SOL    HW116217   4.203   4.332   5.723  0.9695 -0.5741  0.5084
 4399SOL    HW216218   4.240   4.448   5.634  0.3972 -0.9734 -0.2512
 4400SOL     OW16219   9.274   1.131   6.710 -0.2035 -0.2818 -1.0139
 4400SOL    HW116220   9.341   1.127   6.641 -1.4338 -1.6024 -2.1558
 4400SOL    HW216221   9.196   1.162   6.665 -0.3470  1.3820  0.3514
 4401SOL     OW16222   2.481   6.245   5.426  0.0132 -0.3241 -0.0691
 4401SOL    HW116223   2.441   6.164   5.460 -0.5063 -0.9521 -2.1098
 4401SOL    HW216224   2.560   6.215   5.381 -0.4004  0.2402 -1.1850
 4402SOL     OW16225   8.696   8.371   8.037  0.5397  0.5221 -0.7531
 4402SOL    HW116226   8.656   8.439   7.983  0.6940  0.3377 -1.1035
 4402SOL    HW216227   8.779   8.409   8.065 -0.2771  1.2553  0.7222
 4403SOL     OW16228   0.712   9.168   2.396 -0.1549 -0.2703  0.6066
 4403SOL    HW116229   0.660   9.231   2.347  0.3735 -0.2198  0.1033
 4403SOL    HW216230   0.803   9.192   2.376  0.1606  1.7032  4.0201
 4404SOL     OW16231   3.668   3.591   0.022 -0.2746  0.0765  0.1591
 4404SOL    HW116232   3.701   3.587   0.111  1.8061  0.0168 -0.5960
 4404SOL    HW216233   3.708   3.670  -0.016 -0.6827 -0.2096 -0.9010
 4405SOL     OW16234   7.002   5.161   3.861 -0.1009 -0.2097  0.2788
 4405SOL    HW116235   7.045   5.176   3.777  0.8262  1.6073  1.0560
 4405SOL    HW216236   6.909   5.179   3.845  0.1154  0.3849 -0.2744
 4406SOL     OW16237   2.158   0.869   1.280 -0.3840  0.5064 -0.6234
 4406SOL    HW116238   2.234   0.828   1.320 -0.1658  0.3842 -1.1609
 4406SOL    HW216239   2.126   0.930   1.347 -1.7898 -1.7997  0.8771
 4407SOL     OW16240   8.864   4.246   2.297 -0.1625  0.3017 -0.2358
 4407SOL    HW116241   8.862   4.187   2.222 -1.2461  0.5736 -0.4196
 4407SOL    HW216242   8.842   4.190   2.372  0.9074  0.0329 -0.1026
 4408SOL     OW16243   0.641   0.803   3.438  0.4180  0.0104 -0.0081
 4408SOL    HW116244   0.559   0.803   3.487  0.7495 -0.6834  0.5649
 4408SOL    HW216245   0.627   0.865   3.367  0.4807  2.2550  1.8725
 4409SOL     OW16246   4.141   1.399   2.200 -0.8553 -0.1092 -0.1525
 4409SOL    HW116247   4.149   1.304   2.212 -0.3348 -0.6328 -3.9814
 4409SOL    HW216248   4.225   1.434   2.229 -1.0634 -0.7687  1.3213
 4410SOL     OW16249   4.466   7.323   7.071 -0.2021  0.3194  0.5303
 4410SOL    HW116250   4.459   7.296   7.163 -1.3319  2.0816  1.0050
 4410SOL    HW216251   4.538   7.386   7.070  0.9889 -1.0328 -0.1466
 4411SOL     OW16252   8.286   6.207   4.569 -0.1733 -0.1844 -0.6059
 4411SOL    HW116253   8.238   6.163   4.499 -1.2315 -2.2318  1.3535
 4411SOL    HW216254   8.219   6.232   4.633  0.8754  0.9022  0.0958
 4412SOL     OW16255   1.747   2.299   7.556  0.8007 -0.4904  0.2978
 4412SOL    HW116256   1.701   2.368   7.507  0.3528 -0.7959  0.2789
 4412SOL    HW216257   1.820   2.274   7.499 -1.0415 -2.4661 -1.2939
 4413SOL     OW16258   3.608   8.416   6.440 -0.2541  0.1045 -0.1657
 4413SOL    HW116259   3.525   8.462   6.457  0.5276  1.3163  0.4843
 4413SOL    HW216260   3.623   8.364   6.519  0.3528  1.0520  0.3478
 4414SOL     OW16261   6.633   3.471   1.706 -0.2155 -0.4237 -0.1638
 4414SOL    HW116262   6.579   3.399   1.673 -0.1545 -0.5925  0.1109
 4414SOL    HW216263   6.635   3.459   1.801  1.2107 -1.0462 -0.2678
 4415SOL     OW16264   7.394   7.360   1.192  0.0141 -0.1092  0.4308
 4415SOL    HW116265   7.433   7.273   1.178 -0.3092 -0.4956  1.9097
 4415SOL    HW216266   7.356   7.382   1.107  0.4476 -1.2470 -0.0726
 4416SOL     OW16267   4.221   2.278   0.244 -0.6761  0.6235 -0.3837
 4416SOL    HW116268   4.211   2.188   0.212 -0.5690  0.1322  0.9213
 4416SOL    HW216269   4.242   2.329   0.166 -0.4388 -0.5353 -1.0941
 4417SOL     OW16270   8.909   8.132   6.565  0.6381  0.1327 -0.4876
 4417SOL    HW116271   8.947   8.202   6.618 -0.1527  0.5703 -0.4869
 4417SOL    HW216272   8.846   8.177   6.508 -0.7636 -0.7315  0.3489
 4418SOL     OW16273   3.920   8.500   5.326 -0.5049  0.4152 -0.7415
 4418SOL    HW116274   3.856   8.441   5.288 -1.0867  1.3837 -1.2922
 4418SOL    HW216275   3.935   8.566   5.259  0.5317  0.5934 -0.3374
 4419SOL     OW16276   8.105   4.897   3.371 -0.6563 -0.0226 -0.3448
 4419SOL    HW116277   8.155   4.816   3.367 -1.0259 -0.2177 -1.2031
 4419SOL    HW216278   8.091   4.912   3.465  0.0760 -0.5370 -0.1513
 4420SOL     OW16279   8.684   5.162   5.144 -0.2966 -0.4875  0.2512
 4420SOL    HW116280   8.655   5.194   5.230 -2.9760  1.3452 -1.2605
 4420SOL    HW216281   8.775   5.136   5.158 -0.3519  0.7531  3.3996
 4421SOL     OW16282   7.526   4.757   9.025 -0.0568 -0.8599  0.5426
 4421SOL    HW116283   7.541   4.769   9.118  3.3238 -0.4584  0.0002
 4421SOL    HW216284   7.477   4.835   8.998  1.4287  0.4258  1.4616
 4422SOL     OW16285   0.018   7.732   8.492 -0.3901  0.6211 -0.5953
 4422SOL    HW116286  -0.022   7.796   8.551  0.5964 -0.2660  1.0811
 4422SOL    HW216287   0.078   7.784   8.438  0.2678  1.1650  0.6221
 4423SOL     OW16288   2.849   4.821   0.330 -0.4418  0.4795 -0.4335
 4423SOL    HW116289   2.860   4.743   0.276 -0.4809 -0.5081  0.9397
 4423SOL    HW216290   2.899   4.888   0.286  1.1396 -0.8200 -0.6677
 4424SOL     OW16291   4.332   2.670   0.614 -0.0350  0.2445  0.0399
 4424SOL    HW116292   4.299   2.661   0.704 -1.3690  0.6395 -0.3920
 4424SOL    HW216293   4.288   2.749   0.581  1.5262  0.9002 -0.4916
 4425SOL     OW16294   8.516   3.881   3.574 -0.4447 -0.4836  0.1676
 4425SOL    HW116295   8.439   3.854   3.525 -0.1863 -1.3062  0.2036
 4425SOL    HW216296   8.485   3.952   3.631 -0.4843  1.3413 -2.0489
 4426SOL     OW16297   1.457   4.952   3.394  0.5810  0.2694  0.1737
 4426SOL    HW116298   1.422   5.006   3.323 -0.9718  1.5327  1.8574
 4426SOL    HW216299   1.540   4.918   3.359  0.4562  1.8503 -1.7805
 4427SOL     OW16300   2.429   5.921   2.208 -0.6317  0.5470 -0.0717
 4427SOL    HW116301   2.452   5.969   2.129  0.8276 -0.1854 -0.1134
 4427SOL    HW216302   2.466   5.973   2.280 -1.5596  0.9753  0.1056
 4428SOL     OW16303   4.772   3.556   7.723 -0.1902 -0.2283  0.3096
 4428SOL    HW116304   4.703   3.499   7.689 -0.8677  0.3122  0.7737
 4428SOL    HW216305   4.765   3.550   7.818  0.8358 -0.6841  0.3666
 4429SOL     OW16306   0.216   7.268   0.128 -0.7398 -0.0427 -0.0221
 4429SOL    HW116307   0.295   7.214   0.121  0.3241  1.2599  1.5714
 4429SOL    HW216308   0.144   7.206   0.124  0.3482 -1.2543 -1.5865
 4430SOL     OW16309   4.133   5.691   6.662  0.0315 -0.4113  0.3409
 4430SOL    HW116310   4.145   5.651   6.576  1.5143 -0.7558  0.7022
 4430SOL    HW216311   4.106   5.619   6.719 -1.5132 -0.0752  0.0455
 4431SOL     OW16312   1.751   3.604   6.487  0.2404  0.4219  0.0235
 4431SOL    HW116313   1.707   3.524   6.517 -1.3226  1.5400  0.8065
 4431SOL    HW216314   1.816   3.623   6.555  0.2537  0.1005  0.0989
 4432SOL     OW16315   3.061   2.438   7.695  0.1274  0.3054  0.2261
 4432SOL    HW116316   2.998   2.375   7.731  0.0920  0.0395 -0.3046
 4432SOL    HW216317   3.007   2.501   7.647  0.2963 -0.1021 -0.4957
 4433SOL     OW16318   8.332   6.337   9.258  0.0044  0.0712 -0.2309
 4433SOL    HW116319   8.284   6.254   9.260  0.9810 -0.4910  0.3499
 4433SOL    HW216320   8.301   6.385   9.334  0.5639 -0.4141  0.3105
 4434SOL     OW16321   7.486   7.715   9.101 -0.1736 -0.2579 -0.3633
 4434SOL    HW116322   7.545   7.642   9.120 -0.3203  0.0230  1.1962
 4434SOL    HW216323   7.437   7.686   9.023  2.5065 -0.1873 -2.1404
 4435SOL     OW16324   7.196   0.795   8.103 -0.4591  0.2188  0.0726
 4435SOL    HW116325   7.111   0.811   8.063 -0.7243 -0.5513  0.3094
 4435SOL    HW216326   7.223   0.880   8.137 -1.8997  0.1396  1.4681
 4436SOL     OW16327   4.877   2.264   7.801 -0.3607 -1.0127 -0.4394
 4436SOL    HW116328   4.881   2.358   7.820  0.5242 -1.5740  2.4604
 4436SOL    HW216329   4.941   2.250   7.731  0.5406  0.3343  0.1067
 4437SOL     OW16330   3.701   7.541   7.813  0.0643  0.3826 -0.0909
 4437SOL    HW116331   3.635   7.480   7.782  0.5998 -0.2299 -0.0249
 4437SOL    HW216332   3.713   7.519   7.905  0.4553  0.4025 -0.1358
 4438SOL     OW16333   5.850   3.560   2.333 -0.2796  1.0475  0.3991
 4438SOL    HW116334   5.808   3.636   2.374 -1.6207  0.5420 -0.0081
 4438SOL    HW216335   5.796   3.485   2.359  1.6675  0.0542  1.7005
 4439SOL     OW16336   8.190   2.178   6.415  0.4537 -0.2385  0.1249
 4439SOL    HW116337   8.240   2.196   6.495 -0.1140 -0.7264  0.5879
 4439SOL    HW216338   8.118   2.241   6.417  0.2120 -0.5184  0.1976
 4440SOL     OW16339   4.145   4.059   1.812 -0.0629 -0.3299 -0.0558
 4440SOL    HW116340   4.169   4.143   1.852 -0.5343  0.2863 -1.0606
 4440SOL    HW216341   4.184   3.993   1.870  0.0021  0.5750  0.9373
 4441SOL     OW16342   4.880   5.239   8.588  0.0146  0.2614  0.1920
 4441SOL    HW116343   4.845   5.150   8.579 -0.0212  0.3553 -0.7165
 4441SOL    HW216344   4.974   5.230   8.570  0.1389  0.2951  0.8207
 4442SOL     OW16345   0.732   8.965   6.860  0.1013 -0.6319  0.2915
 4442SOL    HW116346   0.651   8.946   6.813  1.4536 -0.5596 -2.1225
 4442SOL    HW216347   0.750   9.058   6.841  1.1419 -0.8478  0.1868
 4443SOL     OW16348   2.534   5.553   3.033 -0.2682 -0.1204 -0.1631
 4443SOL    HW116349   2.505   5.563   3.123  1.7683  2.2022  0.2971
 4443SOL    HW216350   2.529   5.459   3.016  0.4065 -0.7144  2.7529
 4444SOL     OW16351   8.144   7.591   6.719  0.1723 -0.1874 -0.0648
 4444SOL    HW116352   8.058   7.556   6.740 -0.2153 -0.3726 -1.9051
 4444SOL    HW216353   8.176   7.626   6.803 -1.5493 -0.3822  0.7065
 4445SOL     OW16354   6.334   2.710   5.131 -0.2613  0.4122  0.3937
 4445SOL    HW116355   6.314   2.656   5.207  3.4724 -0.6203  0.7361
 4445SOL    HW216356   6.331   2.649   5.057  2.0802  0.0709  0.5398
 4446SOL     OW16357   5.036   4.654   1.569  0.0867  0.1501  0.0219
 4446SOL    HW116358   5.027   4.569   1.526  0.7366 -1.0507  2.1562
 4446SOL    HW216359   5.127   4.657   1.598 -0.7669  0.0033  2.9908
 4447SOL     OW16360   6.906   2.878   2.455 -0.1981 -0.0540  0.0711
 4447SOL    HW116361   6.882   2.796   2.499  2.1654 -0.3470  0.8630
 4447SOL    HW216362   6.877   2.947   2.515  0.0380 -0.3725  0.5515
 4448SOL     OW16363   0.192   3.146   4.734 -0.4479 -0.6603 -0.1731
 4448SOL    HW116364   0.199   3.231   4.691  1.5227 -0.3726  0.6733
 4448SOL    HW216365   0.142   3.164   4.814  1.3292  0.0399  0.8097
 4449SOL     OW16366   1.852   2.291   0.283  0.4211 -0.5308  0.4002
 4449SOL    HW116367   1.893   2.361   0.333  0.2654  0.5381 -0.9124
 4449SOL    HW216368   1.924   2.234   0.256  0.5734 -0.7728  1.3057
 4450SOL     OW16369   1.886   4.714   6.084  0.1160  0.7496 -0.4546
 4450SOL    HW116370   1.804   4.753   6.113  0.3036  0.4454  0.5048
 4450SOL    HW216371   1.868   4.620   6.082  0.3415  0.7090 -0.5728
 4451SOL     OW16372   7.511   9.054   5.512  0.2918  0.1824 -0.6130
 4451SOL    HW116373   7.590   9.060   5.566 -0.3257 -0.0028  0.3197
 4451SOL    HW216374   7.529   8.984   5.450  0.4681 -0.5421  0.2533
 4452SOL     OW16375   9.194   4.826   2.680 -0.0236  0.5899 -0.0021
 4452SOL    HW116376   9.267   4.885   2.661 -0.1399  0.0229 -2.4435
 4452SOL    HW216377   9.130   4.844   2.611 -0.8316 -1.0990  0.2750
 4453SOL     OW16378   4.981   6.369   5.648  0.2216  0.3672  0.6773
 4453SOL    HW116379   5.049   6.420   5.691  1.9130  0.2882 -1.7987
 4453SOL    HW216380   5.014   6.280   5.647 -1.2488 -0.2172  2.0476
 4454SOL     OW16381   2.081   8.295   2.308  0.1373  0.0855 -0.1458
 4454SOL    HW116382   2.025   8.290   2.231  1.8927  0.1761 -1.4744
 4454SOL    HW216383   2.167   8.321   2.273  0.5113  1.9886  2.0432
 4455SOL     OW16384   8.971   5.560   4.890 -1.4875 -0.2015 -0.0898
 4455SOL    HW116385   9.021   5.640   4.907 -0.3807 -0.9382  0.1224
 4455SOL    HW216386   9.024   5.511   4.828 -2.7943 -0.1764 -1.2667
 4456SOL     OW16387   7.305   6.536   1.197 -0.1949  0.2685  0.6353
 4456SOL    HW116388   7.297   6.611   1.137 -2.4870  0.7379  1.4786
 4456SOL    HW216389   7.319   6.461   1.140 -0.8757  0.9162 -0.4054
 4457SOL     OW16390   8.573   4.061   8.773  0.0261  0.3855 -0.3828
 4457SOL    HW116391   8.557   4.040   8.681 -0.3427  0.4908 -0.3429
 4457SOL    HW216392   8.604   3.979   8.812  0.0340  0.3033 -0.5668
 4458SOL     OW16393   8.857   7.367   0.972  0.0302 -0.7547 -0.4180
 4458SOL    HW116394   8.902   7.440   1.015  2.6373 -2.3151 -0.4132
 4458SOL    HW216395   8.781   7.349   1.028 -1.2567  2.6062 -0.9831
 4459SOL     OW16396   7.639   6.783   4.097  0.4277  0.2777 -0.3038
 4459SOL    HW116397   7.619   6.710   4.156 -0.3923  0.4845 -0.3186
 4459SOL    HW216398   7.653   6.858   4.156  2.6775 -0.1797 -0.2000
 4460SOL     OW16399   3.265   8.589   5.079 -0.2068  0.6424 -0.1942
 4460SOL    HW116400   3.288   8.594   5.172 -0.2924  1.5343 -0.2162
 4460SOL    HW216401   3.194   8.526   5.075 -0.5053  0.9369  0.4070
 4461SOL     OW16402   5.999   4.005   6.321 -0.4490  0.4804  0.5019
 4461SOL    HW116403   6.045   4.046   6.394 -0.6188  0.3772  0.6676
 4461SOL    HW216404   5.907   4.018   6.340 -0.4917  0.6649  0.1817
 4462SOL     OW16405   4.115   3.494   3.228 -0.6399  0.3351  0.0482
 4462SOL    HW116406   4.105   3.507   3.323 -1.0209  1.2015 -0.1067
 4462SOL    HW216407   4.200   3.451   3.218 -1.6484 -1.9703  0.9711
 4463SOL     OW16408   3.563   3.906   9.328  0.1866 -0.4820 -0.4117
 4463SOL    HW116409   3.651   3.874   9.348  0.9327 -0.0959 -2.8784
 4463SOL    HW216410   3.551   3.980   9.388  1.5467 -0.5343 -0.0498
 4464SOL     OW16411   1.295   9.089   1.912  0.3876 -0.0195  0.0634
 4464SOL    HW116412   1.285   9.154   1.982 -0.3682 -0.5240  0.4349
 4464SOL    HW216413   1.366   9.122   1.858  1.9190 -0.2907  1.8560
 4465SOL     OW16414   0.362   1.652   7.813  0.4498  0.0409 -0.3301
 4465SOL    HW116415   0.291   1.607   7.858  0.8920 -3.5320 -3.0016
 4465SOL    HW216416   0.441   1.626   7.860  0.4879  0.0034 -0.4157
 4466SOL     OW16417   6.781   2.339   8.135 -0.1533  0.4230  0.1541
 4466SOL    HW116418   6.694   2.330   8.175 -1.0060  0.9609 -1.5363
 4466SOL    HW216419   6.765   2.383   8.051  1.3958 -2.1942 -1.5876
 4467SOL     OW16420   0.821   7.912   8.275  0.3030 -0.2932 -0.2268
 4467SOL    HW116421   0.730   7.942   8.269  0.6741  0.5852 -1.6836
 4467SOL    HW216422   0.825   7.838   8.215 -0.2592 -2.4759  2.3238
 4468SOL     OW16423   5.961   0.813   5.284 -0.1867  0.0321  0.2361
 4468SOL    HW116424   6.011   0.820   5.365 -0.9381 -0.3915  0.7469
 4468SOL    HW216425   5.926   0.901   5.270  1.5046  0.5906 -0.6709
 4469SOL     OW16426   4.093   0.500   7.674 -0.1113 -0.0657 -0.1050
 4469SOL    HW116427   4.084   0.562   7.601  0.7707  1.2152  0.8652
 4469SOL    HW216428   4.035   0.534   7.742 -0.0805 -0.6392  0.2120
 4470SOL     OW16429   7.274   4.881   2.002  0.3584  0.3968 -0.5368
 4470SOL    HW116430   7.272   4.871   1.907 -0.0491 -2.1726 -0.3040
 4470SOL    HW216431   7.219   4.809   2.034  0.0378  1.5758  1.6140
 4471SOL     OW16432   5.494   4.653   6.348 -0.1785  0.0576  0.3488
 4471SOL    HW116433   5.434   4.607   6.407 -0.7483 -0.7527 -0.8404
 4471SOL    HW216434   5.551   4.584   6.313  0.7088  0.6574  0.6006
 4472SOL     OW16435   0.071   3.249   3.727  0.7289 -0.2400 -1.0124
 4472SOL    HW116436   0.005   3.180   3.735  2.1970 -1.7405 -1.5671
 4472SOL    HW216437   0.021   3.330   3.736 -0.7971 -1.3654  1.5033
 4473SOL     OW16438   5.234   2.679   8.971  0.3403 -0.3414 -0.0146
 4473SOL    HW116439   5.207   2.672   8.880 -0.9773 -0.0634  0.3488
 4473SOL    HW216440   5.210   2.767   8.998 -1.4530 -1.1741  1.2725
 4474SOL     OW16441   5.540   2.540   8.804 -0.4805  0.3690 -0.3676
 4474SOL    HW116442   5.605   2.472   8.788 -0.0184  0.5209  0.8391
 4474SOL    HW216443   5.515   2.528   8.896  1.0681  3.0683  0.4508
 4475SOL     OW16444   0.332   7.695   7.436 -0.3300 -0.1408 -0.3445
 4475SOL    HW116445   0.297   7.781   7.417 -1.4330 -0.0817  1.8520
 4475SOL    HW216446   0.272   7.658   7.501  0.2992 -2.4368 -1.0125
 4476SOL     OW16447   6.613   1.100   7.811 -0.3602  0.7396 -0.1457
 4476SOL    HW116448   6.601   1.133   7.900 -1.3067 -0.2966  0.1363
 4476SOL    HW216449   6.550   1.150   7.759 -1.3333 -0.1305  0.1650
 4477SOL     OW16450   4.872   7.167   1.962 -0.0458 -0.2388  0.0229
 4477SOL    HW116451   4.808   7.238   1.974  0.7759  0.5964 -0.4201
 4477SOL    HW216452   4.836   7.114   1.891 -1.1176 -0.8044  0.9606
 4478SOL     OW16453   5.584   8.345   4.229 -0.1365 -0.4763 -0.6175
 4478SOL    HW116454   5.582   8.440   4.243 -0.0103 -0.6295  0.4755
 4478SOL    HW216455   5.579   8.335   4.134  0.3844  0.6387 -0.7731
 4479SOL     OW16456   5.026   0.649   9.255  0.7022  0.0768 -0.2501
 4479SOL    HW116457   4.988   0.610   9.333  1.2839 -0.8858 -0.4478
 4479SOL    HW216458   4.994   0.739   9.256 -0.2962 -0.2741  0.4351
 4480SOL     OW16459   3.701   9.085   1.950 -0.1791  0.2377  0.8694
 4480SOL    HW116460   3.673   8.996   1.970  0.6282  0.0508  1.1600
 4480SOL    HW216461   3.709   9.128   2.035  2.6687 -0.3895  0.9822
 4481SOL     OW16462   2.576   2.344   2.493 -0.2036  0.2065 -0.4077
 4481SOL    HW116463   2.623   2.354   2.410  0.6226 -1.4413 -0.1685
 4481SOL    HW216464   2.642   2.309   2.553 -1.0549  0.4426  0.6679
 4482SOL     OW16465   9.425   2.163   3.836  0.4949  0.4169  0.2044
 4482SOL    HW116466   9.365   2.237   3.843 -0.0013  0.1475 -1.0950
 4482SOL    HW216467   9.417   2.133   3.745  1.4929 -0.5521  0.4161
 4483SOL     OW16468   3.842   4.867   4.945 -0.4166  0.3055 -0.3756
 4483SOL    HW116469   3.881   4.892   4.862 -3.1130 -1.0425 -2.1065
 4483SOL    HW216470   3.852   4.772   4.949 -1.1506  0.2568  0.3916
 4484SOL     OW16471   5.814   2.327   3.209  0.0830  0.0289 -0.7382
 4484SOL    HW116472   5.769   2.393   3.158 -0.7396 -0.3230 -0.4693
 4484SOL    HW216473   5.869   2.377   3.269  0.2399  0.4525 -1.2287
 4485SOL     OW16474   7.612   0.405   8.951 -0.9138 -0.2883 -0.1091
 4485SOL    HW116475   7.673   0.461   9.000 -0.2331 -0.9496 -0.1847
 4485SOL    HW216476   7.536   0.396   9.008 -2.4354  3.3989 -1.4542
 4486SOL     OW16477   0.602   6.682   4.291  0.2526 -0.0556 -0.7058
 4486SOL    HW116478   0.620   6.768   4.328  1.2336 -1.7655  3.0294
 4486SOL    HW216479   0.506   6.675   4.291  0.1734  0.9545 -0.9367
 4487SOL     OW16480   8.385   2.925   0.663  0.4380 -0.3984 -0.2149
 4487SOL    HW116481   8.470   2.892   0.691  0.1921 -1.9668 -1.2348
 4487SOL    HW216482   8.401   2.960   0.575  0.2160  0.1249 -0.0489
 4488SOL     OW16483   5.644   6.160   2.101 -0.2058  0.2887  0.1517
 4488SOL    HW116484   5.686   6.220   2.040 -0.0445  1.5631  1.4905
 4488SOL    HW216485   5.582   6.214   2.149  1.7561 -0.0084  3.1616
 4489SOL     OW16486   1.441   4.355   2.765 -0.6912  0.0233  1.0242
 4489SOL    HW116487   1.424   4.430   2.822 -0.2610  0.8086  0.1348
 4489SOL    HW216488   1.533   4.332   2.783  0.3729  2.1271 -1.4473
 4490SOL     OW16489   5.170   4.256   1.615 -0.4198  0.2097 -0.3322
 4490SOL    HW116490   5.085   4.252   1.657 -0.7456  1.2783 -0.8625
 4490SOL    HW216491   5.232   4.232   1.684 -1.1641 -0.8744 -0.0282
 4491SOL     OW16492   4.267   5.395   6.512 -0.1350 -0.1988 -0.0765
 4491SOL    HW116493   4.232   5.328   6.570 -0.4685  0.0883  0.0614
 4491SOL    HW216494   4.327   5.446   6.567 -1.1159  0.6104  0.2507
 4492SOL     OW16495   0.413   1.859   3.844 -0.2441 -0.5922  0.2930
 4492SOL    HW116496   0.508   1.844   3.850  0.0035  1.0208  0.5843
 4492SOL    HW216497   0.401   1.903   3.760 -0.6725 -0.2975  0.5061
 4493SOL     OW16498   7.648   7.183   5.210 -0.1844 -0.2621 -0.7695
 4493SOL    HW116499   7.733   7.139   5.213 -0.1391 -0.1202  0.3072
 4493SOL    HW216500   7.605   7.158   5.292 -2.0021 -1.9340 -2.1729
 4494SOL     OW16501   8.056   7.372   4.982  0.4221 -0.0263  0.0894
 4494SOL    HW116502   8.030   7.444   5.038 -0.0198  1.1945 -1.6526
 4494SOL    HW216503   8.098   7.414   4.907 -1.7029 -1.4157 -1.9566
 4495SOL     OW16504   3.856   8.164   7.009  0.3033  0.1081  0.0530
 4495SOL    HW116505   3.843   8.121   6.925 -0.0164 -0.1323  0.2227
 4495SOL    HW216506   3.915   8.106   7.057  0.2090  0.0713  0.1237
 4496SOL     OW16507   3.513   6.647   1.941  0.0792 -0.1829  0.8498
 4496SOL    HW116508   3.452   6.581   1.974  0.1779 -0.5087  0.3970
 4496SOL    HW216509   3.465   6.729   1.945  0.0339 -0.2397  1.6495
 4497SOL     OW16510   3.736   1.138   2.230 -0.1322 -0.5083  0.0913
 4497SOL    HW116511   3.652   1.109   2.266 -0.8786  0.7790 -0.5688
 4497SOL    HW216512   3.760   1.069   2.169 -2.0001  0.2892 -1.6191
 4498SOL     OW16513   1.985   3.067   8.719  0.3646 -1.1156  0.6178
 4498SOL    HW116514   1.916   3.132   8.716  0.1642 -1.3878 -1.4490
 4498SOL    HW216515   1.961   3.010   8.792 -0.6838 -0.2395  0.9743
 4499SOL     OW16516   7.929   4.530   3.376 -0.3802 -0.6290  0.0126
 4499SOL    HW116517   7.896   4.447   3.410  0.0553 -0.1121  1.7760
 4499SOL    HW216518   7.882   4.596   3.428 -0.0723  0.2019 -0.7662
 4500SOL     OW16519   6.794   5.437   2.913  0.0771 -0.6862 -0.8081
 4500SOL    HW116520   6.845   5.358   2.894  1.3251 -0.0232 -0.2163
 4500SOL    HW216521   6.853   5.510   2.895 -1.5899  0.2086 -2.9748
 4501SOL     OW16522   7.706   1.531   8.816  0.2003  0.1070 -0.2762
 4501SOL    HW116523   7.732   1.542   8.907  0.2335  1.3322 -0.4146
 4501SOL    HW216524   7.620   1.489   8.820  0.5077 -0.4676  0.2993
 4502SOL     OW16525   5.747   3.203   1.939 -0.3347  0.8007  0.2589
 4502SOL    HW116526   5.654   3.185   1.951 -0.1567  0.5533  1.3370
 4502SOL    HW216527   5.786   3.118   1.920  0.1957  0.3057  3.3236
 4503SOL     OW16528   2.575   8.310   7.051 -0.1299 -0.5416 -0.1353
 4503SOL    HW116529   2.601   8.342   7.138  0.3324 -1.2375 -0.0154
 4503SOL    HW216530   2.596   8.382   6.992  0.1272 -0.3017  0.2446
 4504SOL     OW16531   1.976   6.915   7.997  0.5806  0.3478 -0.0211
 4504SOL    HW116532   2.032   6.925   7.920  0.0451  1.7321 -0.2326
 4504SOL    HW216533   2.032   6.937   8.071  0.6820  0.4653 -0.1333
 4505SOL     OW16534   8.024   1.580   0.234 -0.4476  0.2168 -0.1207
 4505SOL    HW116535   8.082   1.624   0.296 -0.1587  0.2367 -0.4005
 4505SOL    HW216536   7.937   1.589   0.272 -0.1407 -0.7451  0.8420
 4506SOL     OW16537   2.750   4.515   5.105 -0.4592  0.3631  0.0501
 4506SOL    HW116538   2.666   4.483   5.072  0.2581 -1.9035  0.3788
 4506SOL    HW216539   2.800   4.537   5.026 -1.5917  2.4607 -0.1358
 4507SOL     OW16540   6.561   3.769   6.414 -0.0811 -0.1127 -0.0610
 4507SOL    HW116541   6.470   3.740   6.413  0.1560 -0.8612  0.5312
 4507SOL    HW216542   6.559   3.851   6.364 -1.2254  0.3277  0.6789
 4508SOL     OW16543   5.096   3.452   8.796  0.2348  0.3828  0.1889
 4508SOL    HW116544   5.041   3.402   8.736  1.2522  0.3821 -0.7650
 4508SOL    HW216545   5.105   3.538   8.755  2.0708 -0.0550 -0.3812
 4509SOL     OW16546   3.924   3.356   8.822  0.4155 -0.2405 -0.1072
 4509SOL    HW116547   3.936   3.394   8.909  3.1820 -0.9718 -0.1141
 4509SOL    HW216548   3.918   3.262   8.838 -1.8472 -0.1735 -0.4840
 4510SOL     OW16549   6.808   8.325   5.142  0.0142  0.2327  0.2628
 4510SOL    HW116550   6.811   8.394   5.076  1.6580  1.0992  1.2245
 4510SOL    HW216551   6.722   8.284   5.129  1.0752 -0.9671 -3.7826
 4511SOL     OW16552   0.355   3.173   5.200  0.1994  0.2504 -0.5222
 4511SOL    HW116553   0.373   3.259   5.238  1.4712 -0.4767  0.5512
 4511SOL    HW216554   0.404   3.173   5.118  0.4488  0.4338 -0.3768
 4512SOL     OW16555   9.301   1.688   3.809  0.3144 -0.2067  0.1479
 4512SOL    HW116556   9.374   1.734   3.768 -0.6016  1.5918  0.4379
 4512SOL    HW216557   9.226   1.747   3.797 -1.2382 -2.3073 -0.7184
 4513SOL     OW16558   1.908   9.425   4.729 -0.3508 -0.0660 -0.9699
 4513SOL    HW116559   1.891   9.345   4.780  0.9824 -1.5297 -2.7356
 4513SOL    HW216560   2.003   9.425   4.716 -0.4206  1.4743 -1.5278
 4514SOL     OW16561   2.058   2.193   6.639 -0.0188 -0.4156 -0.4386
 4514SOL    HW116562   2.095   2.105   6.642  1.3696  0.1544 -0.2973
 4514SOL    HW216563   2.108   2.242   6.704  2.3107  1.5832 -3.5768
 4515SOL     OW16564   7.609   6.703   6.952  0.7519 -0.4511 -0.1764
 4515SOL    HW116565   7.630   6.792   6.979 -1.4293 -0.3891  1.4367
 4515SOL    HW216566   7.661   6.647   7.010 -0.3422 -0.2593  0.9912
 4516SOL     OW16567   5.843   9.251   0.729  0.5751  0.6986  0.0735
 4516SOL    HW116568   5.856   9.156   0.726 -0.3176  0.5510  0.6178
 4516SOL    HW216569   5.755   9.261   0.764  0.4047  1.7221 -0.6427
 4517SOL     OW16570   5.644   4.118   8.387 -0.6491  0.4028 -0.3364
 4517SOL    HW116571   5.591   4.126   8.466 -1.1063  1.9848 -0.7707
 4517SOL    HW216572   5.708   4.050   8.407 -0.5413  1.0242  1.5190
 4518SOL     OW16573   4.721   7.518   3.079  0.2528  0.1119 -0.2197
 4518SOL    HW116574   4.812   7.511   3.110  0.2024 -1.3971 -0.4052
 4518SOL    HW216575   4.698   7.430   3.050 -1.4860  0.3391  0.4105
 4519SOL     OW16576   6.947   8.288   1.560  0.0565  0.7036 -0.2028
 4519SOL    HW116577   7.023   8.233   1.575  0.7651  2.3566  2.6432
 4519SOL    HW216578   6.981   8.364   1.512  0.2145  1.3986  0.9894
 4520SOL     OW16579   2.830   2.325   6.518 -0.4922 -0.4282  0.4544
 4520SOL    HW116580   2.890   2.316   6.443 -1.1539  0.2784 -0.1672
 4520SOL    HW216581   2.888   2.329   6.594  0.4253  2.5905 -0.3181
 4521SOL     OW16582   7.410   2.088   2.460  0.4866  0.1454 -0.5287
 4521SOL    HW116583   7.395   2.124   2.372 -0.6970 -0.7458 -0.7011
 4521SOL    HW216584   7.503   2.064   2.459  0.5618  0.4214 -1.4398
 4522SOL     OW16585   1.133   4.824   1.497 -0.6672 -0.7780 -0.4475
 4522SOL    HW116586   1.061   4.782   1.544  0.0043 -0.3439  1.0019
 4522SOL    HW216587   1.108   4.916   1.491 -1.1244 -0.9739 -1.6777
 4523SOL     OW16588   2.451   1.561   6.603  0.0497  0.7709 -0.2739
 4523SOL    HW116589   2.374   1.551   6.547  0.4720 -0.6351 -0.6199
 4523SOL    HW216590   2.510   1.617   6.552  0.3903 -0.4185 -1.2393
 4524SOL     OW16591   2.282   7.347   1.493 -0.1965  0.1338  0.5879
 4524SOL    HW116592   2.208   7.376   1.546 -0.4923 -0.5698  0.5681
 4524SOL    HW216593   2.251   7.268   1.449  0.5255 -0.1070  0.4935
 4525SOL     OW16594   3.276   4.701   9.106 -0.2377 -0.5377  0.3736
 4525SOL    HW116595   3.213   4.697   9.034  1.4844 -0.4521 -1.1689
 4525SOL    HW216596   3.305   4.611   9.118  0.7211 -0.3003 -0.1614
 4526SOL     OW16597   2.606   1.164   6.449 -0.1185  0.4460  0.1085
 4526SOL    HW116598   2.555   1.102   6.502 -1.2837 -1.0851 -2.7017
 4526SOL    HW216599   2.692   1.122   6.439  0.4382  1.1939  1.5300
 4527SOL     OW16600   8.492   9.033   2.938 -0.1928  0.0859  0.5870
 4527SOL    HW116601   8.509   9.125   2.921  1.4138 -0.2797  0.1085
 4527SOL    HW216602   8.451   9.031   3.025  0.0997  1.2144  0.7498
 4528SOL     OW16603   1.238   6.087   2.771  0.4002  0.0371 -0.2409
 4528SOL    HW116604   1.167   6.049   2.822  0.7774  1.3351  1.3324
 4528SOL    HW216605   1.261   6.167   2.819  0.3064  1.6783 -2.8565
 4529SOL     OW16606   0.492   2.400   2.321 -0.1466  0.0060  0.4696
 4529SOL    HW116607   0.478   2.490   2.291  0.5264 -0.4616 -1.2844
 4529SOL    HW216608   0.557   2.364   2.260 -1.7385 -2.2602  0.0519
 4530SOL     OW16609   4.023   6.335   8.655 -0.2042 -0.3953  0.7240
 4530SOL    HW116610   4.117   6.314   8.660 -0.2019 -0.3422  0.8897
 4530SOL    HW216611   4.020   6.430   8.645 -0.2018 -0.5178 -0.5144
 4531SOL     OW16612   2.115   7.275   0.100  0.2555  0.0067  0.1871
 4531SOL    HW116613   2.026   7.256   0.070 -0.2852 -0.0166  1.7872
 4531SOL    HW216614   2.105   7.354   0.154  0.9614 -0.8641  1.6055
 4532SOL     OW16615   2.724   4.732   6.826  0.0245  0.1144 -0.0186
 4532SOL    HW116616   2.724   4.770   6.738 -0.0961  0.0223 -0.0591
 4532SOL    HW216617   2.714   4.638   6.812 -0.5806  0.1518  0.1113
 4533SOL     OW16618   0.586   5.619   5.932 -0.1414  0.1268 -0.6239
 4533SOL    HW116619   0.639   5.613   5.853  1.0740  0.9606  0.1071
 4533SOL    HW216620   0.632   5.565   5.996 -1.9976 -1.8707 -0.9322
 4534SOL     OW16621   2.281   2.403   6.020 -0.4166  0.0153 -0.2838
 4534SOL    HW116622   2.266   2.457   5.942 -4.7267 -0.7191 -0.0990
 4534SOL    HW216623   2.293   2.314   5.986  2.9412  0.4238 -0.3475
 4535SOL     OW16624   6.138   9.175   2.008  0.0375 -0.1372 -0.1889
 4535SOL    HW116625   6.184   9.093   1.991 -0.3024 -0.0768 -1.4833
 4535SOL    HW216626   6.046   9.150   2.016 -0.0610  0.1062 -0.5463
 4536SOL     OW16627   5.197   5.065   2.278 -0.5951 -0.0724 -0.1914
 4536SOL    HW116628   5.135   5.138   2.273 -0.9447 -0.4603 -1.9424
 4536SOL    HW216629   5.276   5.104   2.316 -1.2895  0.8457  0.3646
 4537SOL     OW16630   3.343   7.953   4.466  0.3338 -0.0425 -0.1687
 4537SOL    HW116631   3.412   7.919   4.522 -1.1837 -0.1059  1.7339
 4537SOL    HW216632   3.284   8.000   4.526 -0.5286  1.2086 -1.9321
 4538SOL     OW16633   3.358   1.530   0.255  0.3308 -0.0338 -0.1065
 4538SOL    HW116634   3.286   1.467   0.264  2.1959 -2.0913  0.8178
 4538SOL    HW216635   3.420   1.488   0.195  0.8527  1.6599 -0.7923
 4539SOL     OW16636   6.749   5.942   3.207 -0.0579 -0.0011 -0.6150
 4539SOL    HW116637   6.759   5.870   3.269 -1.1422  0.4725  0.1323
 4539SOL    HW216638   6.839   5.973   3.192  0.1722  0.3368  1.2919
 4540SOL     OW16639   8.694   7.966   7.920  0.0244  0.3178  0.6151
 4540SOL    HW116640   8.728   8.024   7.989  2.4798 -0.4740  0.1129
 4540SOL    HW216641   8.677   7.883   7.965  2.2123 -0.3931  0.2041
 4541SOL     OW16642   9.419   7.690   3.253  0.1815  0.0232 -0.4103
 4541SOL    HW116643   9.484   7.625   3.224  0.6131  0.8946 -1.4259
 4541SOL    HW216644   9.384   7.726   3.171 -1.5422 -0.3984  0.1319
 4542SOL     OW16645   5.096   2.226   4.247  0.1261  0.0461  0.6886
 4542SOL    HW116646   5.136   2.284   4.312 -0.9145  0.1271  1.2626
 4542SOL    HW216647   5.087   2.280   4.169  0.3165  0.2871  0.8305
 4543SOL     OW16648   4.264   0.067   5.228  0.2708 -0.7086  0.2056
 4543SOL    HW116649   4.218   0.151   5.223 -0.8573 -1.2671  0.8646
 4543SOL    HW216650   4.198   0.002   5.202  1.1043 -1.3980 -0.2206
 4544SOL     OW16651   1.661   4.766   8.082  0.1838 -0.2500  0.3571
 4544SOL    HW116652   1.628   4.854   8.064  1.7190 -0.0511 -1.5999
 4544SOL    HW216653   1.668   4.762   8.178 -1.9275  0.9711  0.5983
 4545SOL     OW16654   1.853   2.893   3.231 -0.4102 -0.2041  0.3922
 4545SOL    HW116655   1.878   2.960   3.294  1.6379 -0.1178 -0.4762
 4545SOL    HW216656   1.889   2.812   3.266  0.5220 -0.1979 -0.5317
 4546SOL     OW16657   3.434   1.004   0.274  0.0273 -0.1151  0.5593
 4546SOL    HW116658   3.485   0.935   0.231 -0.6396 -0.0627 -0.3229
 4546SOL    HW216659   3.498   1.073   0.291  0.4982 -0.5438  0.5687
 4547SOL     OW16660   1.071   6.540   0.497 -0.1053  0.2403  0.0931
 4547SOL    HW116661   1.159   6.554   0.464 -0.1506  0.8883  0.2512
 4547SOL    HW216662   1.033   6.627   0.502  0.5491  0.3737  3.7026
 4548SOL     OW16663   3.612   0.831   1.702  0.8556  0.3424 -0.7672
 4548SOL    HW116664   3.584   0.783   1.624  0.7361 -2.4049  0.8840
 4548SOL    HW216665   3.705   0.848   1.687  1.0873 -1.1321 -1.0401
 4549SOL     OW16666   6.854   6.730   1.610  0.4644 -1.1407 -0.4611
 4549SOL    HW116667   6.827   6.693   1.694  1.1951  0.2592  0.4234
 4549SOL    HW216668   6.927   6.788   1.632  1.2178 -1.3870 -2.1825
 4550SOL     OW16669   5.045   4.947   0.040  0.3701 -0.5626 -0.1185
 4550SOL    HW116670   4.958   4.981   0.062  0.3213 -0.1836 -0.8820
 4550SOL    HW216671   5.031   4.854   0.023 -0.3665 -0.0267 -2.7627
 4551SOL     OW16672   7.075   9.118   8.733 -0.2317  0.0759  0.2917
 4551SOL    HW116673   7.156   9.077   8.761 -0.2779  1.9845  3.4110
 4551SOL    HW216674   7.029   9.139   8.814 -2.9082  0.9209 -1.3681
 4552SOL     OW16675   8.272   7.558   5.094  0.8898 -0.1511 -0.2446
 4552SOL    HW116676   8.285   7.603   5.010  1.5925  0.3547  0.1266
 4552SOL    HW216677   8.332   7.483   5.090  0.6720 -0.3209 -0.3334
 4553SOL     OW16678   2.985   9.089   9.397 -0.3685 -0.6619  0.3049
 4553SOL    HW116679   3.056   9.138   9.438 -1.8341  1.6084  0.2286
 4553SOL    HW216680   3.025   9.050   9.319  1.1098 -0.5727  1.0034
 4554SOL     OW16681   5.921   0.067   0.245  0.0245 -0.2645 -0.1035
 4554SOL    HW116682   5.874   0.139   0.288 -0.4623 -1.4675  1.4141
 4554SOL    HW216683   6.011   0.099   0.236 -0.1328  0.4356  0.7842
 4555SOL     OW16684   2.821   4.079   5.849  0.0346  0.4060 -0.1109
 4555SOL    HW116685   2.760   4.007   5.859 -0.1386  0.4712 -0.7102
 4555SOL    HW216686   2.848   4.100   5.939  0.3352 -0.6086  0.0434
 4556SOL     OW16687   0.103   1.160   7.798  0.4173 -0.4510 -0.0244
 4556SOL    HW116688   0.062   1.155   7.712 -2.1785 -0.2839  1.1549
 4556SOL    HW216689   0.124   1.069   7.819  1.1467 -0.4814 -0.8611
 4557SOL     OW16690   7.052   2.340   0.030 -0.4502  0.1650 -0.0332
 4557SOL    HW116691   6.978   2.280   0.041  1.1986 -1.4994  2.5985
 4557SOL    HW216692   7.046   2.399   0.105  0.5069  0.4429 -0.1641
 4558SOL     OW16693   8.764   2.289   3.774  0.4268 -0.2481  0.2718
 4558SOL    HW116694   8.752   2.225   3.704 -1.4220  1.5022 -1.0842
 4558SOL    HW216695   8.831   2.251   3.831  1.8304 -1.8113 -2.3284
 4559SOL     OW16696   0.550   2.081   5.603  0.0333 -0.1383 -0.2267
 4559SOL    HW116697   0.522   1.990   5.609  1.2214 -0.4748  0.2422
 4559SOL    HW216698   0.519   2.122   5.684  0.3989 -0.3733  0.0314
 4560SOL     OW16699   6.539   5.993   3.820 -0.3939  0.4149 -0.3332
 4560SOL    HW116700   6.627   5.955   3.814 -0.0111  1.2434 -0.1426
 4560SOL    HW216701   6.480   5.921   3.798  0.3864  0.1127 -1.5215
 4561SOL     OW16702   1.847   4.669   2.184 -0.1316 -0.7300  0.1439
 4561SOL    HW116703   1.778   4.628   2.130  0.2370 -0.0461 -0.8580
 4561SOL    HW216704   1.847   4.761   2.157  1.9038 -0.9341 -0.6533
 4562SOL     OW16705   6.988   5.713   6.494 -0.5200 -0.5414 -0.3378
 4562SOL    HW116706   7.059   5.673   6.444 -0.0385  0.5161 -0.5026
 4562SOL    HW216707   6.927   5.745   6.428 -0.7684 -0.7589 -0.2126
 4563SOL     OW16708   6.481   1.767   1.594  0.0405 -0.1859  0.4367
 4563SOL    HW116709   6.485   1.834   1.526 -1.4193  0.3187  0.8269
 4563SOL    HW216710   6.560   1.715   1.581 -0.5606 -0.5562 -2.1212
 4564SOL     OW16711   1.037   0.720   6.047 -0.5318 -0.3043 -0.4488
 4564SOL    HW116712   1.106   0.660   6.019 -0.9823 -0.9686 -0.1644
 4564SOL    HW216713   1.084   0.793   6.086  0.0062 -1.5929  1.4267
 4565SOL     OW16714   0.185   6.542   7.247  0.3859 -0.2006  0.0661
 4565SOL    HW116715   0.187   6.637   7.241 -0.7394 -0.2924 -2.4975
 4565SOL    HW216716   0.268   6.513   7.209 -0.9751 -0.3391 -2.9077
 4566SOL     OW16717   3.502   9.251   3.226 -0.2792  1.1107 -0.2380
 4566SOL    HW116718   3.527   9.338   3.195  0.2187  1.9155  2.2579
 4566SOL    HW216719   3.576   9.194   3.204  0.6799  1.9665  0.7213
 4567SOL     OW16720   2.854   5.798   6.297 -0.4302  0.0030  0.4246
 4567SOL    HW116721   2.903   5.847   6.363 -0.4295 -0.9121  1.1240
 4567SOL    HW216722   2.791   5.746   6.348 -2.0381  1.0344 -0.4402
 4568SOL     OW16723   6.273   2.054   7.760  0.0340 -0.0752  0.5031
 4568SOL    HW116724   6.349   2.046   7.703  1.2556  0.7910  1.9463
 4568SOL    HW216725   6.216   2.117   7.716  0.6811  0.1371 -0.0409
 4569SOL     OW16726   8.667   3.639   7.004  0.7453 -0.3381  0.2634
 4569SOL    HW116727   8.607   3.608   7.071 -0.1575  0.6668 -0.0611
 4569SOL    HW216728   8.693   3.726   7.033  2.3177 -0.8862  0.5610
 4570SOL     OW16729   2.158   6.075   6.767 -0.4043  0.0358 -0.3741
 4570SOL    HW116730   2.071   6.037   6.758 -0.5562  0.2566  0.1299
 4570SOL    HW216731   2.152   6.129   6.846 -0.0004  0.5736 -0.7098
 4571SOL     OW16732   2.979   8.604   3.700  0.3612  0.1199 -0.0774
 4571SOL    HW116733   3.017   8.614   3.788 -0.1214  2.0635 -0.0566
 4571SOL    HW216734   3.045   8.556   3.651  1.1810  0.1097  1.0088
 4572SOL     OW16735   9.407   6.015   2.667 -0.0968  0.4665 -0.5070
 4572SOL    HW116736   9.349   5.998   2.593  0.1120  0.5127 -0.6781
 4572SOL    HW216737   9.372   5.960   2.737  0.1329 -0.1089 -0.8447
 4573SOL     OW16738   9.377   0.068   1.984 -0.1455 -0.3925  0.2027
 4573SOL    HW116739   9.353  -0.003   2.044 -2.5108 -1.4165 -1.8689
 4573SOL    HW216740   9.378   0.146   2.039 -0.2493 -1.6115  1.9839
 4574SOL     OW16741   6.117   8.328   3.436  0.3117 -0.1232 -0.0636
 4574SOL    HW116742   6.025   8.304   3.435  0.6880 -1.9583  2.8561
 4574SOL    HW216743   6.164   8.244   3.435  1.8919  0.7207  0.9701
 4575SOL     OW16744   1.453   7.832   1.349  0.2297  0.3920 -0.2171
 4575SOL    HW116745   1.443   7.849   1.443 -0.7539  0.6091 -0.3492
 4575SOL    HW216746   1.547   7.821   1.336  0.4551  1.2365  0.6516
 4576SOL     OW16747   7.818   1.525   6.580 -0.5668 -0.2981  0.1152
 4576SOL    HW116748   7.758   1.568   6.519  0.1176  1.3256  0.5487
 4576SOL    HW216749   7.774   1.444   6.605 -1.8465  0.1050 -0.8089
 4577SOL     OW16750   8.435   0.668   4.544 -0.8176 -0.1040 -0.6698
 4577SOL    HW116751   8.512   0.715   4.514  1.1402 -2.3270  0.6966
 4577SOL    HW216752   8.425   0.596   4.483  1.0466 -2.5487  1.7723
 4578SOL     OW16753   0.794   2.375   2.793 -0.2525 -0.2791  0.2041
 4578SOL    HW116754   0.849   2.310   2.839  0.7550  0.9420  0.7612
 4578SOL    HW216755   0.704   2.350   2.816  0.1480 -1.0488  1.0133
 4579SOL     OW16756   1.507   4.590   3.207  0.0052 -0.5748  0.4202
 4579SOL    HW116757   1.595   4.626   3.193  0.0854 -0.8445  0.2135
 4579SOL    HW216758   1.515   4.498   3.183 -0.1990 -0.7310  0.9506
 4580SOL     OW16759   3.161   3.513   9.382 -0.2185  0.2567  0.0314
 4580SOL    HW116760   3.202   3.578   9.325  0.2725 -0.2466 -0.2015
 4580SOL    HW216761   3.233   3.480   9.436 -0.7349  0.9194  1.1283
 4581SOL     OW16762   4.682   4.207   1.536  0.4439  0.0644 -0.5533
 4581SOL    HW116763   4.722   4.289   1.506 -1.3111  1.0179 -0.3303
 4581SOL    HW216764   4.600   4.201   1.488 -0.2541 -0.6979  0.7103
 4582SOL     OW16765   2.981   2.038   6.741  0.4054  0.3913 -0.2769
 4582SOL    HW116766   2.974   2.132   6.758  3.2599  0.6952 -0.6584
 4582SOL    HW216767   2.899   2.002   6.776  0.0223  2.7747  1.4145
 4583SOL     OW16768   8.815   9.147   3.751 -0.3856  0.7519 -0.5683
 4583SOL    HW116769   8.804   9.068   3.804 -1.4836  1.9154  0.9985
 4583SOL    HW216770   8.756   9.135   3.676 -0.5560  0.0991 -0.3253
 4584SOL     OW16771   9.238   0.240   7.717  0.1102 -0.2190  0.5320
 4584SOL    HW116772   9.332   0.235   7.696  0.1493 -1.2244  0.9421
 4584SOL    HW216773   9.218   0.334   7.711  0.6326 -0.2244 -1.7261
 4585SOL     OW16774   2.690   2.061   8.967  0.2112  0.0225  0.0827
 4585SOL    HW116775   2.783   2.084   8.958  0.6804 -2.1381 -0.8793
 4585SOL    HW216776   2.644   2.142   8.944  1.8365  0.8402 -0.4127
 4586SOL     OW16777   5.994   5.528   5.680 -0.5283 -0.1347 -0.2490
 4586SOL    HW116778   5.959   5.444   5.709 -0.3430  0.3644  1.4682
 4586SOL    HW216779   5.976   5.530   5.586 -2.7719 -1.0023  0.1350
 4587SOL     OW16780   0.392   8.282   7.497 -0.1313  0.3739  0.1929
 4587SOL    HW116781   0.377   8.375   7.515 -0.0796 -0.0510  2.6473
 4587SOL    HW216782   0.487   8.272   7.498 -0.1246  0.3603 -0.4547
 4588SOL     OW16783   6.706   2.903   3.764 -0.0114  0.7485  0.0676
 4588SOL    HW116784   6.644   2.971   3.790 -1.2899  0.2053 -1.5051
 4588SOL    HW216785   6.710   2.909   3.669  0.6046 -0.7284 -0.0096
 4589SOL     OW16786   0.520   1.338   1.976  0.2162  0.5482 -0.0781
 4589SOL    HW116787   0.503   1.257   2.024  0.3792 -0.4544 -1.6943
 4589SOL    HW216788   0.497   1.407   2.038  2.2107 -0.6900  2.1177
 4590SOL     OW16789   4.843   4.590   2.532  0.1664  0.1862 -0.5272
 4590SOL    HW116790   4.927   4.559   2.496 -0.8077  0.0355 -2.7436
 4590SOL    HW216791   4.814   4.519   2.589  1.6644  0.3614  0.5076
 4591SOL     OW16792   7.829   0.011   6.568 -0.0822 -0.5091 -0.0734
 4591SOL    HW116793   7.915  -0.024   6.594  0.4434  0.2626 -0.7414
 4591SOL    HW216794   7.845   0.050   6.481 -1.1524 -0.5339 -0.2823
 4592SOL     OW16795   4.012   7.622   6.442 -0.0125 -0.5139 -0.4118
 4592SOL    HW116796   4.015   7.534   6.404 -0.7292 -0.0418 -1.5901
 4592SOL    HW216797   3.926   7.656   6.418 -1.0180 -0.6736  2.7771
 4593SOL     OW16798   6.157   9.313   0.148 -0.1575  0.6445  0.1099
 4593SOL    HW116799   6.142   9.408   0.148  1.2460  0.8753  0.1398
 4593SOL    HW216800   6.236   9.301   0.095  0.6002 -0.3560  1.4386
 4594SOL     OW16801   8.348   6.173   5.579  0.0009  1.0379  0.6730
 4594SOL    HW116802   8.414   6.238   5.555  0.1111  0.6710 -0.0520
 4594SOL    HW216803   8.338   6.181   5.674  0.8455  1.3236  0.7374
 4595SOL     OW16804   4.293   9.144   0.660 -0.1206  0.2397  0.0210
 4595SOL    HW116805   4.308   9.124   0.753 -0.3192  0.5503  0.1245
 4595SOL    HW216806   4.218   9.090   0.636 -0.4760  0.6427  0.2198
 4596SOL     OW16807   5.421   4.001   7.746  0.4664  0.2381 -0.5050
 4596SOL    HW116808   5.432   4.069   7.680 -0.8151 -0.0745 -1.0532
 4596SOL    HW216809   5.363   3.936   7.705  1.4695 -1.0676  0.0927
 4597SOL     OW16810   2.683   6.139   1.981  0.2535  0.0368  0.1884
 4597SOL    HW116811   2.601   6.118   1.937 -0.1623 -1.7839  1.7850
 4597SOL    HW216812   2.724   6.054   1.998  1.7001  0.8500  0.8637
 4598SOL     OW16813   7.407   0.768   2.283 -0.9670 -0.4629 -0.1039
 4598SOL    HW116814   7.394   0.770   2.378 -0.5487 -0.5564 -0.0430
 4598SOL    HW216815   7.490   0.722   2.272 -1.3122 -0.9812 -0.5477
 4599SOL     OW16816   8.852   6.363   0.969 -0.3624 -0.2394 -0.1785
 4599SOL    HW116817   8.854   6.298   1.039 -0.6818  0.6968  0.7116
 4599SOL    HW216818   8.945   6.378   0.949 -0.3122 -1.7030 -1.0918
 4600SOL     OW16819   9.209   6.993   5.484 -0.1147 -0.0125  0.0074
 4600SOL    HW116820   9.196   6.941   5.405  0.3810  1.0414 -0.7738
 4600SOL    HW216821   9.164   7.076   5.466 -1.6533 -0.4720  1.5818
 4601SOL     OW16822   0.722   8.016   5.750 -0.2929  0.1658 -0.2583
 4601SOL    HW116823   0.705   8.005   5.657 -0.1509  0.8709 -0.3742
 4601SOL    HW216824   0.816   8.030   5.756 -0.2585 -0.1774  0.0219
 4602SOL     OW16825   3.564   2.259   6.577 -0.5842  0.6298 -0.1192
 4602SOL    HW116826   3.556   2.198   6.504 -0.4000  2.5180 -1.7363
 4602SOL    HW216827   3.658   2.263   6.595 -0.7075 -0.6240  0.9524
 4603SOL     OW16828   8.726   8.522   6.628  0.3574 -0.1598 -0.2213
 4603SOL    HW116829   8.685   8.593   6.578  1.9476  0.3503 -0.8127
 4603SOL    HW216830   8.798   8.563   6.674 -1.0077 -0.6568  2.4419
 4604SOL     OW16831   1.258   0.741   5.251  0.0802  0.4357 -0.2572
 4604SOL    HW116832   1.216   0.825   5.266  1.7021  1.3084 -0.4652
 4604SOL    HW216833   1.186   0.678   5.243 -1.1230  1.7388  0.2648
 4605SOL     OW16834   1.477   7.261   3.272  0.2846 -0.3382 -0.2400
 4605SOL    HW116835   1.501   7.272   3.180 -1.8656  0.9724 -0.6902
 4605SOL    HW216836   1.552   7.217   3.311  1.6078 -0.1331 -2.4304
 4606SOL     OW16837   1.587   2.370   8.546  0.2892 -0.1178 -0.0067
 4606SOL    HW116838   1.565   2.460   8.522 -0.0515 -0.5993 -1.6176
 4606SOL    HW216839   1.638   2.338   8.471 -0.1928 -1.4744  0.2357
 4607SOL     OW16840   4.940   2.176   8.421  0.1611 -0.0845 -0.1922
 4607SOL    HW116841   4.897   2.172   8.336 -0.7446  0.8896  0.2165
 4607SOL    HW216842   4.874   2.145   8.483  0.3300  0.6019  0.3369
 4608SOL     OW16843   7.391   6.743   5.106  0.1759  0.1547  0.0648
 4608SOL    HW116844   7.314   6.713   5.058 -0.0390 -0.0763  0.5419
 4608SOL    HW216845   7.373   6.718   5.197  2.2016 -2.7305 -0.2410
 4609SOL     OW16846   3.302   3.225   0.983  0.0802  0.0792 -0.6887
 4609SOL    HW116847   3.346   3.238   0.899 -1.1276  3.7613 -0.8689
 4609SOL    HW216848   3.374   3.219   1.046  0.9575 -0.5232 -1.7154
 4610SOL     OW16849   3.273   6.652   8.813 -0.4643  0.0669 -0.1207
 4610SOL    HW116850   3.307   6.647   8.724 -1.5628  1.9234 -0.6745
 4610SOL    HW216851   3.191   6.701   8.805 -1.7062 -1.6170  1.6081
 4611SOL     OW16852   8.211   8.618   1.628 -0.2457  0.2089  0.0938
 4611SOL    HW116853   8.167   8.551   1.576 -1.6862 -0.1702  1.7681
 4611SOL    HW216854   8.283   8.572   1.671  2.2366  0.9292 -3.0392
 4612SOL     OW16855   3.205   0.978   3.369 -0.1357 -0.1769 -0.4513
 4612SOL    HW116856   3.231   0.992   3.278  0.8883 -0.0469 -0.1417
 4612SOL    HW216857   3.127   1.032   3.380 -0.0806  0.0512 -1.1589
 4613SOL     OW16858   2.616   6.211   0.421  0.0523 -0.0552  0.2656
 4613SOL    HW116859   2.526   6.241   0.422  0.2757  0.6179  1.3601
 4613SOL    HW216860   2.620   6.146   0.351 -1.5955 -1.0323  1.0497
 4614SOL     OW16861   7.495   3.064   8.152  0.4610  0.0597  0.6895
 4614SOL    HW116862   7.533   3.151   8.144  0.4702 -0.1024 -1.0274
 4614SOL    HW216863   7.570   3.007   8.172  0.4694  0.3999  1.6990
 4615SOL     OW16864   7.881   3.185   8.034  0.1939  0.1810  0.4386
 4615SOL    HW116865   7.965   3.224   8.007  0.7853 -0.8807  0.7386
 4615SOL    HW216866   7.888   3.093   8.010 -0.5719 -0.0847  1.2168
 4616SOL     OW16867   5.924   5.403   3.061  0.4189 -0.2617 -0.4042
 4616SOL    HW116868   5.883   5.484   3.093 -0.2847 -0.4301 -0.8579
 4616SOL    HW216869   5.919   5.343   3.134  1.1914  0.1865  0.0272
 4617SOL     OW16870   7.649   3.252   5.909  0.2961  0.5118 -0.3223
 4617SOL    HW116871   7.600   3.261   5.991  0.9263 -1.1063  0.2473
 4617SOL    HW216872   7.637   3.160   5.884 -0.2040  1.0799 -2.2484
 4618SOL     OW16873   7.860   3.877   1.350  0.0485 -0.2168  0.4651
 4618SOL    HW116874   7.859   3.781   1.345  0.9090 -0.2198  0.3326
 4618SOL    HW216875   7.952   3.900   1.344 -0.2919  0.7113 -1.3716
 4619SOL     OW16876   2.667   4.347   7.317 -0.2826 -0.4642  0.2522
 4619SOL    HW116877   2.637   4.372   7.229  0.3817  0.0972  0.1760
 4619SOL    HW216878   2.594   4.300   7.355 -0.3898 -1.1569 -0.7960
 4620SOL     OW16879   5.595   6.550   3.771  0.4375  0.3464 -0.2698
 4620SOL    HW116880   5.665   6.543   3.706  1.0138  1.2257  0.2564
 4620SOL    HW216881   5.596   6.642   3.798 -1.1593  0.4613 -0.5232
 4621SOL     OW16882   6.505   1.229   8.678  0.3148  0.2509  0.3132
 4621SOL    HW116883   6.451   1.292   8.726 -0.7733 -0.0890 -0.4522
 4621SOL    HW216884   6.465   1.144   8.696  0.9163 -0.0594  0.1822
 4622SOL     OW16885   9.076   3.882   2.169 -0.1495  0.2701  0.6486
 4622SOL    HW116886   9.152   3.938   2.151  0.1972 -0.5901 -0.6189
 4622SOL    HW216887   9.102   3.830   2.246  0.3709  0.2972  0.4931
 4623SOL     OW16888   1.014   6.015   1.820  0.6416 -0.3563 -0.2732
 4623SOL    HW116889   0.998   6.083   1.885 -1.2271 -1.1891  0.1874
 4623SOL    HW216890   1.058   6.060   1.748 -2.1586  1.7605 -0.7397
 4624SOL     OW16891   3.546   2.472   4.187 -0.4416  0.7282 -0.2880
 4624SOL    HW116892   3.486   2.427   4.127  1.1902 -0.4959 -1.0596
 4624SOL    HW216893   3.614   2.407   4.205  0.3738  1.9148  0.9714
 4625SOL     OW16894   3.662   5.353   3.244  0.5545  0.0176 -0.7403
 4625SOL    HW116895   3.568   5.361   3.254  0.6465 -0.3058  0.3889
 4625SOL    HW216896   3.675   5.343   3.149 -0.7745 -2.8974 -0.6780
 4626SOL     OW16897   0.417   0.597   8.610 -0.5277 -0.7437  0.1144
 4626SOL    HW116898   0.348   0.541   8.645 -0.2158 -1.2355 -0.0469
 4626SOL    HW216899   0.415   0.675   8.665 -0.3697 -1.2937  0.9087
 4627SOL     OW16900   4.727   5.054   2.969 -0.1821  0.4878 -0.3578
 4627SOL    HW116901   4.752   4.966   2.998 -0.1730  1.0443  1.3827
 4627SOL    HW216902   4.645   5.041   2.920  0.2670 -0.5796 -0.8402
 4628SOL     OW16903   3.411   7.732   5.341  0.0459 -0.0565 -0.3050
 4628SOL    HW116904   3.394   7.745   5.434 -0.2985 -0.5476 -0.2977
 4628SOL    HW216905   3.343   7.783   5.297  0.4103  0.4508 -0.2968
 4629SOL     OW16906   1.787   5.906   8.017  0.1709 -0.2334  0.4059
 4629SOL    HW116907   1.732   5.835   8.049 -1.1850  0.6575  0.0867
 4629SOL    HW216908   1.774   5.977   8.080  4.2996 -1.4267  2.7778
 4630SOL     OW16909   6.770   6.545   5.632  0.0149 -0.2099 -0.4501
 4630SOL    HW116910   6.736   6.634   5.646  0.6560  0.0579 -0.6011
 4630SOL    HW216911   6.844   6.557   5.572 -1.2537 -1.0960 -2.2324
 4631SOL     OW16912   2.120   0.182   9.118 -0.1185  0.0694 -0.0514
 4631SOL    HW116913   2.065   0.133   9.057  1.4597 -1.5058 -0.2622
 4631SOL    HW216914   2.205   0.187   9.075  0.2958  1.2548  0.8738
 4632SOL     OW16915   6.692   6.466   1.285 -0.0698  0.2389  0.2975
 4632SOL    HW116916   6.714   6.543   1.337 -2.5622  1.1420  0.1021
 4632SOL    HW216917   6.606   6.486   1.247 -0.1389 -2.0625 -0.8895
 4633SOL     OW16918   1.455   2.024   5.198  0.4500  0.8463  0.6409
 4633SOL    HW116919   1.441   2.082   5.123 -0.1808 -1.1832 -0.8747
 4633SOL    HW216920   1.463   2.082   5.273 -0.6394  2.8528 -0.7586
 4634SOL     OW16921   6.471   9.001   6.747  0.5793 -0.2313  0.1881
 4634SOL    HW116922   6.386   8.970   6.779 -0.7072  2.0706 -0.8668
 4634SOL    HW216923   6.522   9.015   6.826 -0.6151  0.0032  0.9374
 4635SOL     OW16924   3.030   4.131   2.359 -0.2751  0.0521  0.2575
 4635SOL    HW116925   2.970   4.070   2.316  0.7137 -0.9162  0.2009
 4635SOL    HW216926   3.116   4.111   2.320  0.1593  1.1065  0.6432
 4636SOL     OW16927   8.078   2.955   0.153  0.0447 -0.0568 -0.2647
 4636SOL    HW116928   8.014   2.960   0.223  1.1126  2.2149  0.6147
 4636SOL    HW216929   8.122   2.871   0.166  0.7929  0.6911  2.3253
 4637SOL     OW16930   5.809   8.315   3.990  0.2537 -0.4795  0.0445
 4637SOL    HW116931   5.718   8.342   3.981  0.2386 -0.6627 -0.3753
 4637SOL    HW216932   5.857   8.371   3.929  0.4544 -0.2288  0.4291
 4638SOL     OW16933   3.782   6.296   1.169 -0.4864  0.2710  0.3781
 4638SOL    HW116934   3.745   6.208   1.178 -1.2242  0.1210 -3.3104
 4638SOL    HW216935   3.712   6.354   1.197 -1.1087 -0.2356 -0.1083
 4639SOL     OW16936   5.756   6.398   4.836 -0.2284  0.0222  0.3821
 4639SOL    HW116937   5.835   6.344   4.844  0.7148  1.5714  1.9621
 4639SOL    HW216938   5.717   6.371   4.752  1.1306 -1.8572  0.3151
 4640SOL     OW16939   5.885   5.504   8.264 -0.1945 -0.1310  0.3052
 4640SOL    HW116940   5.934   5.581   8.233 -0.8442  0.2301  0.1631
 4640SOL    HW216941   5.902   5.437   8.199 -0.3082  0.1553 -0.0237
 4641SOL     OW16942   7.436   5.703   0.070 -0.3548 -0.4118  0.2948
 4641SOL    HW116943   7.454   5.610   0.086 -1.5264 -0.5344  0.9205
 4641SOL    HW216944   7.487   5.749   0.137 -1.4793 -0.7045  1.3551
 4642SOL     OW16945   5.032   8.887   6.792 -0.0732  0.4146 -0.3220
 4642SOL    HW116946   5.082   8.894   6.710 -1.3500 -0.2918 -1.1759
 4642SOL    HW216947   5.091   8.922   6.859  2.1448 -1.7033 -1.0859
 4643SOL     OW16948   7.080   5.667   1.536 -0.2364  0.2234  0.3414
 4643SOL    HW116949   7.158   5.719   1.554  0.6254 -1.0047  0.1863
 4643SOL    HW216950   7.073   5.665   1.441  1.2406 -2.1139  0.2422
 4644SOL     OW16951   8.463   0.712   4.267  0.0457 -0.4148 -0.7499
 4644SOL    HW116952   8.439   0.704   4.175  1.5500 -0.2641 -1.1723
 4644SOL    HW216953   8.550   0.751   4.266  0.3547 -1.0147  0.7173
 4645SOL     OW16954   7.885   7.950   5.283  0.3428 -0.2395  0.0810
 4645SOL    HW116955   7.936   7.908   5.214  1.5955  0.8719  0.3062
 4645SOL    HW216956   7.946   7.961   5.355 -0.8982 -1.1828  1.3115
 4646SOL     OW16957   5.729   7.083   3.848 -0.0799 -0.7452 -0.1553
 4646SOL    HW116958   5.662   7.119   3.906  1.5503 -1.3231  2.1505
 4646SOL    HW216959   5.762   7.159   3.800  1.6528  0.5522  2.9308
 4647SOL     OW16960   1.099   8.603   4.807  0.3903 -0.5186 -0.2490
 4647SOL    HW116961   1.050   8.673   4.764  0.7069  0.3642  0.8153
 4647SOL    HW216962   1.107   8.631   4.898  0.8467 -1.7630  0.1066
 4648SOL     OW16963   3.789   0.882   9.318 -0.2253  0.6295  0.0398
 4648SOL    HW116964   3.743   0.957   9.356  0.7665  1.0492  0.4354
 4648SOL    HW216965   3.881   0.906   9.322 -0.0054 -0.0073 -1.1903
 4649SOL     OW16966   4.623   3.839   4.769  0.1373  0.3411  0.2061
 4649SOL    HW116967   4.676   3.773   4.725 -0.1686  0.8234 -0.9033
 4649SOL    HW216968   4.668   3.922   4.753 -0.5420  0.6567 -0.1140
 4650SOL     OW16969   0.013   5.785   3.490 -0.1506  0.2952 -0.3655
 4650SOL    HW116970  -0.061   5.761   3.546 -1.7901  2.8784 -1.3062
 4650SOL    HW216971   0.004   5.729   3.414 -1.3209  0.7628 -0.5873
 4651SOL     OW16972   3.523   1.417   2.376 -0.4121  0.1268 -0.3587
 4651SOL    HW116973   3.494   1.416   2.467 -0.4524  0.2515 -0.3695
 4651SOL    HW216974   3.443   1.403   2.325 -0.6251  1.4980 -0.4232
 4652SOL     OW16975   7.031   0.227   6.255  0.0265 -0.4375  0.0614
 4652SOL    HW116976   7.041   0.154   6.316  0.1954 -0.3761  0.1078
 4652SOL    HW216977   7.112   0.277   6.264 -0.4122  0.1874  0.6010
 4653SOL     OW16978   5.286   5.804   5.080 -0.1268 -0.0502 -0.1349
 4653SOL    HW116979   5.273   5.778   4.989 -0.5912 -1.1484  0.2420
 4653SOL    HW216980   5.237   5.739   5.131  0.1186  0.5659  0.8968
 4654SOL     OW16981   7.999   6.937   4.014  0.4794  0.0218  0.6446
 4654SOL    HW116982   8.013   6.902   4.102  0.2901  0.5036  0.8671
 4654SOL    HW216983   7.950   6.868   3.969  1.7928 -0.8156  0.4852
 4655SOL     OW16984   2.974   1.710   9.075 -0.6174  0.6056 -0.3033
 4655SOL    HW116985   2.996   1.620   9.100  1.2163  0.7771 -1.2379
 4655SOL    HW216986   2.996   1.762   9.153  0.7325  0.5568 -0.6442
 4656SOL     OW16987   2.028   0.880   4.379  0.2630  0.3342 -0.4634
 4656SOL    HW116988   2.058   0.797   4.416  0.7084  1.2044  1.1694
 4656SOL    HW216989   1.937   0.887   4.407  0.6016  0.9944  0.5252
 4657SOL     OW16990   2.782   0.338   2.048 -0.6288 -0.5023  0.0342
 4657SOL    HW116991   2.865   0.299   2.021 -0.3014  0.6309 -0.6175
 4657SOL    HW216992   2.796   0.364   2.139  0.7826  2.4405 -0.9550
 4658SOL     OW16993   9.277   8.633   2.036  0.0981  0.2539 -0.5862
 4658SOL    HW116994   9.371   8.639   2.055  0.4398  0.3767 -2.2865
 4658SOL    HW216995   9.235   8.664   2.117  1.5401  2.3199 -0.5776
 4659SOL     OW16996   5.302   1.497   8.685  0.1008 -0.2292 -0.1573
 4659SOL    HW116997   5.287   1.405   8.665  0.8012 -0.7427  1.5831
 4659SOL    HW216998   5.391   1.500   8.721  0.1417  1.1400 -0.3325
 4660SOL     OW16999   8.111   0.991   3.162  0.0542  0.3357 -0.0259
 4660SOL    HW117000   8.128   0.940   3.083 -1.5584  0.8088 -0.6978
 4660SOL    HW217001   8.195   1.032   3.183  1.0626 -1.6228 -0.1504
 4661SOL     OW17002   8.239   6.814   4.587 -0.7590 -0.3178  0.5626
 4661SOL    HW117003   8.322   6.797   4.633 -1.1694  0.2841  1.5549
 4661SOL    HW217004   8.184   6.739   4.608 -1.5502  0.7551  2.5349
 4662SOL     OW17005   2.509   8.314   8.181  0.0277  0.4444 -0.1752
 4662SOL    HW117006   2.579   8.276   8.235  0.4898  1.6509  0.0899
 4662SOL    HW217007   2.433   8.317   8.239  0.7018  2.3483  0.6194
 4663SOL     OW17008   5.283   0.095   9.067 -0.2909 -0.4098 -0.8716
 4663SOL    HW117009   5.344   0.058   9.003  1.3159  1.1839 -0.2996
 4663SOL    HW217010   5.267   0.023   9.128  1.6882 -0.6232 -0.5573
 4664SOL     OW17011   9.328   8.886   7.955 -0.1452  0.5722 -0.1868
 4664SOL    HW117012   9.239   8.850   7.958 -0.2233  0.5462 -2.1003
 4664SOL    HW217013   9.353   8.896   8.047 -2.9199  2.5405  0.4051
 4665SOL     OW17014   1.127   5.454   8.236  0.0283 -0.4174 -0.4377
 4665SOL    HW117015   1.060   5.522   8.244  1.5925  0.9868  0.8059
 4665SOL    HW217016   1.105   5.391   8.305  2.0835  1.8917  2.4434
 4666SOL     OW17017   1.050   9.063   1.992 -0.1502  0.0445  0.3207
 4666SOL    HW117018   1.014   8.975   2.006 -0.4827 -0.1172 -1.4006
 4666SOL    HW217019   1.141   9.048   1.965 -0.2758  0.2010 -0.2063
 4667SOL     OW17020   3.230   9.011   6.795 -0.7252  0.9125 -0.5731
 4667SOL    HW117021   3.207   9.046   6.881 -1.0445  0.2183 -0.3640
 4667SOL    HW217022   3.303   8.951   6.812 -1.6438 -0.2322 -0.5747
 4668SOL     OW17023   1.373   7.324   8.438  0.1947  0.0771  0.3457
 4668SOL    HW117024   1.334   7.237   8.436  1.9092 -0.6978 -2.2813
 4668SOL    HW217025   1.308   7.379   8.393 -0.7886  0.1286  1.8072
 4669SOL     OW17026   2.239   1.696   6.894 -0.2244 -0.2831  0.4524
 4669SOL    HW117027   2.220   1.737   6.978  0.4255  0.6089  0.1718
 4669SOL    HW217028   2.183   1.743   6.832 -1.0329 -1.2393  0.4528
 4670SOL     OW17029   7.015   0.645   3.393 -0.2782 -0.3935  0.1658
 4670SOL    HW117030   7.071   0.570   3.373  1.2764  0.7174  0.2781
 4670SOL    HW217031   7.023   0.656   3.488 -1.9139 -1.1749  0.4073
 4671SOL     OW17032   1.251   4.927   5.409 -0.7248  0.6315  0.4019
 4671SOL    HW117033   1.268   4.949   5.318 -0.2317 -0.4841  0.2205
 4671SOL    HW217034   1.191   4.853   5.406 -0.5883  0.4914  0.9808
 4672SOL     OW17035   6.168   7.201   2.518 -0.1330  0.7638 -0.5120
 4672SOL    HW117036   6.129   7.201   2.430 -1.5335 -0.3256  0.0780
 4672SOL    HW217037   6.167   7.108   2.544  5.4511  0.2387 -1.5633
 4673SOL     OW17038   5.159   5.303   4.243  0.3875  0.1063  0.1055
 4673SOL    HW117039   5.163   5.396   4.268  0.2197 -0.1983  1.2700
 4673SOL    HW217040   5.174   5.256   4.325 -0.2667 -0.9035 -0.3593
 4674SOL     OW17041   6.258   6.846   4.689  0.5365  0.8802 -0.0538
 4674SOL    HW117042   6.228   6.762   4.653  1.7893  0.2062  0.4494
 4674SOL    HW217043   6.182   6.879   4.738  0.7516 -1.0561  1.6512
 4675SOL     OW17044   5.569   4.637   5.423  0.7323 -0.2826 -0.1656
 4675SOL    HW117045   5.539   4.703   5.361 -1.1066  0.4901  1.4822
 4675SOL    HW217046   5.498   4.632   5.488  1.9171 -2.1666  1.0158
 4676SOL     OW17047   3.076   5.913   6.000  0.7711  0.3032  0.1641
 4676SOL    HW117048   3.117   5.855   5.935 -0.4855  1.0529 -1.3150
 4676SOL    HW217049   3.060   5.994   5.953 -2.1754  0.1092  0.7813
 4677SOL     OW17050   8.788   3.206   8.795 -0.1618  0.4688  0.0497
 4677SOL    HW117051   8.788   3.188   8.889 -1.1973  1.2001  0.1946
 4677SOL    HW217052   8.774   3.120   8.754 -0.7739  0.3064  0.5931
 4678SOL     OW17053   5.311   0.775   1.809 -0.2489 -0.4699 -0.1592
 4678SOL    HW117054   5.264   0.830   1.745 -0.0126 -0.7721 -0.5951
 4678SOL    HW217055   5.360   0.837   1.862 -0.0692 -0.2466 -0.5791
 4679SOL     OW17056   8.153   3.445   6.982  0.7416 -0.4752  0.4838
 4679SOL    HW117057   8.233   3.437   6.931  0.6378  1.4528 -0.0565
 4679SOL    HW217058   8.113   3.359   6.978  0.5461 -0.3092 -3.0448
 4680SOL     OW17059   0.746   0.120   7.520 -0.4311  0.3143 -0.1419
 4680SOL    HW117060   0.722   0.027   7.526  1.3316 -0.2215 -1.1139
 4680SOL    HW217061   0.680   0.158   7.462 -0.9320 -0.4020 -0.0584
 4681SOL     OW17062   6.057   8.990   4.891  0.3673  0.4533 -0.0554
 4681SOL    HW117063   6.144   9.023   4.911  1.4246 -1.2131 -1.7317
 4681SOL    HW217064   6.035   8.933   4.965  1.9148 -1.3318 -0.9317
 4682SOL     OW17065   7.014   7.326   6.581  0.4488 -0.6324  0.2555
 4682SOL    HW117066   6.974   7.327   6.669  0.0363 -2.1516  0.0866
 4682SOL    HW217067   7.097   7.373   6.593 -0.4289  0.7765  1.0539
 4683SOL     OW17068   3.824   4.855   2.425 -0.7255 -0.2616 -1.0353
 4683SOL    HW117069   3.877   4.891   2.496 -0.8812  1.1999 -1.6389
 4683SOL    HW217070   3.875   4.781   2.391 -0.2643 -0.4430  0.0415
 4684SOL     OW17071   0.815   2.137   3.201  0.3101 -0.0077  0.4117
 4684SOL    HW117072   0.786   2.227   3.192 -1.0815 -0.3509  1.3706
 4684SOL    HW217073   0.873   2.123   3.125  0.2686  1.5653  0.0775
 4685SOL     OW17074   2.573   0.625   9.204 -0.1707 -0.2655 -0.3848
 4685SOL    HW117075   2.591   0.560   9.271  0.0292 -1.1266 -1.2626
 4685SOL    HW217076   2.651   0.680   9.202 -1.5946  2.0105  2.5864
 4686SOL     OW17077   3.680   0.381   3.371 -0.0771 -0.2942 -0.2305
 4686SOL    HW117078   3.696   0.408   3.280 -1.5156 -1.4503 -0.8462
 4686SOL    HW217079   3.678   0.463   3.420  0.6643  0.3522 -1.2431
 4687SOL     OW17080   7.223   7.064   5.647 -0.3672  0.1163  0.1112
 4687SOL    HW117081   7.289   7.133   5.648 -2.0549  1.8037 -1.4919
 4687SOL    HW217082   7.237   7.016   5.729  1.5290  1.6805  0.7381
 4688SOL     OW17083   7.993   5.999   2.450 -0.1732  0.0686  0.0866
 4688SOL    HW117084   7.946   5.921   2.478  0.7905 -0.1325  1.2003
 4688SOL    HW217085   8.078   5.993   2.494 -0.1759  1.8546  0.3940
 4689SOL     OW17086   4.571   3.554   4.186  0.1430  0.3711  0.0463
 4689SOL    HW117087   4.590   3.521   4.098  0.1814  4.0919 -1.4218
 4689SOL    HW217088   4.479   3.579   4.183 -0.0261 -0.0769  1.2806
 4690SOL     OW17089   9.297   6.952   6.866 -0.4098  0.1666  0.2418
 4690SOL    HW117090   9.240   6.878   6.890 -0.0706  0.1282  0.9281
 4690SOL    HW217091   9.271   6.973   6.776  0.1492 -1.4055 -0.3081
 4691SOL     OW17092   4.050   9.125   6.753 -0.0533 -0.5653 -0.0964
 4691SOL    HW117093   4.085   9.121   6.665 -0.5312 -2.0465 -0.2264
 4691SOL    HW217094   3.963   9.085   6.746 -1.0887  1.4876  0.5570
 4692SOL     OW17095   0.956   9.236   8.195  0.1404  0.1636 -0.1640
 4692SOL    HW117096   0.904   9.177   8.140  1.4028 -0.2547 -0.9544
 4692SOL    HW217097   0.985   9.182   8.268 -0.0887  0.2459 -0.0132
 4693SOL     OW17098   0.423   1.211   7.414  0.0929 -0.1729  0.3368
 4693SOL    HW117099   0.486   1.169   7.354  1.3718 -0.2611  1.7054
 4693SOL    HW217100   0.458   1.300   7.426 -0.4331  0.0049  0.5692
 4694SOL     OW17101   8.729   5.509   4.519 -0.4544 -0.1027 -0.5360
 4694SOL    HW117102   8.769   5.595   4.515  0.6742 -0.5885  0.1783
 4694SOL    HW217103   8.635   5.527   4.528 -0.2941  1.0347 -0.9964
 4695SOL     OW17104   3.575   0.326   6.460 -0.0765 -0.4368 -0.0765
 4695SOL    HW117105   3.515   0.282   6.400 -0.5635  0.2567 -0.1183
 4695SOL    HW217106   3.535   0.412   6.474 -0.3767 -0.8674  1.8505
 4696SOL     OW17107   4.067   4.969   1.198  0.1201 -0.4034  0.6298
 4696SOL    HW117108   4.148   4.999   1.239  0.3390 -1.7080  1.1841
 4696SOL    HW217109   4.031   5.047   1.156  1.7125  0.1684  0.2937
 4697SOL     OW17110   8.882   2.574   4.331 -0.1969  0.6010  0.2619
 4697SOL    HW117111   8.808   2.566   4.391 -1.0743 -0.0215 -0.8832
 4697SOL    HW217112   8.959   2.563   4.387 -1.0439 -2.3143  0.9563
 4698SOL     OW17113   8.067   7.479   1.701  0.6602  0.0288  0.4527
 4698SOL    HW117114   8.021   7.447   1.624  3.1659  0.2260 -1.1989
 4698SOL    HW217115   8.021   7.559   1.725  0.7371  0.7982 -1.8087
 4699SOL     OW17116   3.573   7.128   5.959  0.0304 -0.0278 -0.2322
 4699SOL    HW117117   3.662   7.095   5.973  0.2693  0.6449 -0.1522
 4699SOL    HW217118   3.535   7.133   6.047 -0.0991 -0.3404 -0.2688
 4700SOL     OW17119   0.894   4.305   0.051 -0.2067 -0.3781  0.1156
 4700SOL    HW117120   0.814   4.262   0.021 -0.9508  0.1752  1.2871
 4700SOL    HW217121   0.906   4.273   0.141  1.1357 -0.8016 -0.2005
 4701SOL     OW17122   1.813   7.838   5.943  0.4747  0.2745 -0.2704
 4701SOL    HW117123   1.892   7.802   5.982 -0.4524 -2.4550 -0.8536
 4701SOL    HW217124   1.840   7.866   5.856  0.8826 -0.3259 -0.3385
 4702SOL     OW17125   0.454   3.259   1.026 -0.4413 -0.3133 -0.8403
 4702SOL    HW117126   0.377   3.211   0.996 -0.4054  0.3196 -1.9597
 4702SOL    HW217127   0.451   3.342   0.979 -0.7169  0.9726  1.3718
 4703SOL     OW17128   2.700   7.581   6.811  0.4767  0.0609  0.4361
 4703SOL    HW117129   2.641   7.649   6.843  0.3902 -0.0088  0.4237
 4703SOL    HW217130   2.727   7.534   6.889  1.0044  0.4846  0.5128
 4704SOL     OW17131   1.893   1.525   4.074  0.4909 -0.0943 -0.5824
 4704SOL    HW117132   1.929   1.607   4.106  0.0940 -0.4982  0.9519
 4704SOL    HW217133   1.813   1.550   4.028  0.1122  0.3389  0.3007
 4705SOL     OW17134   2.146   7.134   7.350 -0.0422 -0.2860 -0.0153
 4705SOL    HW117135   2.143   7.054   7.299  2.6569 -0.2269 -0.3353
 4705SOL    HW217136   2.160   7.105   7.440  0.5291 -0.2005 -0.0742
 4706SOL     OW17137   1.867   3.978   4.666  0.2560  0.4462  0.3984
 4706SOL    HW117138   1.958   3.954   4.678  0.7005  1.4433 -0.8428
 4706SOL    HW217139   1.848   4.040   4.736  0.6775  0.6012  0.3758
 4707SOL     OW17140   1.351   2.874   9.404  0.3425  0.6661  0.3505
 4707SOL    HW117141   1.378   2.864   9.495  0.5144 -1.7965  0.0533
 4707SOL    HW217142   1.420   2.830   9.354 -1.1035 -0.3394 -0.7923
 4708SOL     OW17143   3.544   8.503   2.634 -0.6393 -0.2277 -0.1703
 4708SOL    HW117144   3.476   8.514   2.568  0.7674  1.6127 -1.3594
 4708SOL    HW217145   3.625   8.491   2.584 -0.0413 -2.3185  1.2176
 4709SOL     OW17146   7.166   0.745   2.633  0.1550  0.0412  0.8162
 4709SOL    HW117147   7.078   0.734   2.597  0.4426  0.2795  0.0096
 4709SOL    HW217148   7.196   0.829   2.598  0.3757  0.3727  1.7903
 4710SOL     OW17149   6.826   2.777   9.198  0.0206 -0.2006  0.6143
 4710SOL    HW117150   6.833   2.769   9.103  1.2998  0.2218  0.6531
 4710SOL    HW217151   6.878   2.703   9.232 -0.2309 -0.2112  0.9741
 4711SOL     OW17152   1.357   4.772   8.620 -0.4721  0.8016  0.1428
 4711SOL    HW117153   1.268   4.806   8.628 -0.9645 -0.6012  0.9312
 4711SOL    HW217154   1.357   4.724   8.537 -0.9474 -0.5264  0.8801
 4712SOL     OW17155   0.364   3.704   5.140 -0.0207 -0.5194  0.5635
 4712SOL    HW117156   0.407   3.780   5.100 -0.5873 -0.4135  0.1492
 4712SOL    HW217157   0.295   3.741   5.195 -2.0268 -0.7934 -1.6671
 4713SOL     OW17158   3.712   1.019   5.653 -0.1249 -0.1440  0.2889
 4713SOL    HW117159   3.624   0.982   5.663 -0.8515  1.3151 -0.5170
 4713SOL    HW217160   3.717   1.043   5.560  1.4877 -1.1092  0.1141
 4714SOL     OW17161   7.501   2.950   8.968 -0.5402 -0.7478  0.0498
 4714SOL    HW117162   7.546   2.919   9.047 -2.3332  0.8305  1.7492
 4714SOL    HW217163   7.438   3.014   9.000 -0.1940  1.1440 -2.8536
 4715SOL     OW17164   9.223   0.205   8.894 -0.1433 -0.7811  0.1535
 4715SOL    HW117165   9.262   0.174   8.975  0.1655 -0.9649 -0.0642
 4715SOL    HW217166   9.133   0.173   8.896 -1.4745  2.7759  2.4182
 4716SOL     OW17167   9.268   0.548   6.059  0.5147  1.1273 -0.2766
 4716SOL    HW117168   9.295   0.632   6.023  0.5068  1.5769  0.7449
 4716SOL    HW217169   9.223   0.570   6.140 -1.3035  0.2644 -1.0292
 4717SOL     OW17170   0.860   0.827   5.233  0.1344 -0.0266  0.5579
 4717SOL    HW117171   0.856   0.732   5.217 -0.2696  0.2804 -1.2725
 4717SOL    HW217172   0.769   0.853   5.248  0.1852  0.1688  0.5286
 4718SOL     OW17173   4.059   4.389   2.442 -0.2176 -0.1439 -0.8742
 4718SOL    HW117174   4.058   4.358   2.532  0.4806  1.6556 -0.2429
 4718SOL    HW217175   4.029   4.313   2.391 -1.1264 -1.0056  0.8996
 4719SOL     OW17176   2.699   2.938   4.788 -0.3490 -0.2201 -0.4429
 4719SOL    HW117177   2.714   2.858   4.737  1.6059 -0.9104  1.1001
 4719SOL    HW217178   2.605   2.941   4.801 -0.3999 -2.6825  0.0314
 4720SOL     OW17179   1.342   7.625   6.468 -0.2057 -0.1673 -0.7445
 4720SOL    HW117180   1.403   7.629   6.394 -0.8238 -1.1777 -1.3388
 4720SOL    HW217181   1.345   7.533   6.496 -0.1019  0.1743  0.3815
 4721SOL     OW17182   7.212   7.880   2.528  0.1578 -0.3103 -0.3713
 4721SOL    HW117183   7.299   7.901   2.495  0.2102 -0.5444 -0.3842
 4721SOL    HW217184   7.215   7.786   2.546  0.0373 -0.2429  0.0135
 4722SOL     OW17185   5.216   2.122   8.458  0.2699  0.0999 -0.4037
 4722SOL    HW117186   5.160   2.194   8.428  0.3331  0.4199  0.2241
 4722SOL    HW217187   5.175   2.043   8.423 -0.9850  0.2720  0.6242
 4723SOL     OW17188   2.291   5.682   3.920 -0.5965 -0.4725 -0.0460
 4723SOL    HW117189   2.367   5.737   3.899  0.4250 -2.2151 -1.0211
 4723SOL    HW217190   2.219   5.723   3.872 -0.2005  0.9807  0.5766
 4724SOL     OW17191   6.188   5.326   0.603  0.6089 -0.4560 -0.1111
 4724SOL    HW117192   6.133   5.380   0.660 -0.0182  0.6433 -1.7193
 4724SOL    HW217193   6.127   5.289   0.539  1.3942 -1.1499 -0.4648
 4725SOL     OW17194   2.070   0.667   4.878  0.1346  0.0755 -0.9564
 4725SOL    HW117195   1.986   0.646   4.838 -0.7905  1.1747  0.3539
 4725SOL    HW217196   2.062   0.758   4.904  0.8855 -0.4431  1.2299
 4726SOL     OW17197   4.636   1.575   5.692  0.1719 -0.1652 -0.2618
 4726SOL    HW117198   4.581   1.497   5.687  0.0819 -0.0965 -0.3427
 4726SOL    HW217199   4.685   1.565   5.774 -1.0915  0.5209  0.5890
 4727SOL     OW17200   7.446   8.832   3.838  0.0680 -0.4529  0.4769
 4727SOL    HW117201   7.385   8.897   3.805  2.0425 -0.2045 -2.8726
 4727SOL    HW217202   7.496   8.878   3.906 -0.5736  0.6039  0.2295
 4728SOL     OW17203   5.370   0.183   7.558 -0.0748 -0.4591 -0.1321
 4728SOL    HW117204   5.375   0.243   7.483 -2.8373  0.4842  0.3914
 4728SOL    HW217205   5.346   0.239   7.632 -1.3362 -1.9902  0.6341
 4729SOL     OW17206   4.829   5.093   0.135 -0.4704 -0.1783  0.4368
 4729SOL    HW117207   4.814   5.178   0.094 -0.3964 -0.3457  0.0546
 4729SOL    HW217208   4.778   5.032   0.081  2.0684 -0.8493 -1.2601
 4730SOL     OW17209   2.922   2.200   4.934 -0.7827  0.2662  0.2643
 4730SOL    HW117210   2.906   2.203   5.028 -0.6244  0.9021  0.2710
 4730SOL    HW217211   3.017   2.204   4.926 -0.7808 -0.1062  0.0874
 4731SOL     OW17212   3.085   5.311   8.652 -0.0394 -0.5632 -0.0599
 4731SOL    HW117213   3.137   5.381   8.612  1.7656 -1.7279  0.1872
 4731SOL    HW217214   3.034   5.274   8.580  0.7171 -0.4811 -0.6396
 4732SOL     OW17215   3.857   4.080   4.215 -0.0984  0.0179 -0.0026
 4732SOL    HW117216   3.873   4.077   4.120  1.0340 -0.1604  0.1770
 4732SOL    HW217217   3.883   3.993   4.246 -1.2108 -0.1907  0.3730
 4733SOL     OW17218   7.638   0.788   0.981 -0.8175 -0.4408 -0.3219
 4733SOL    HW117219   7.618   0.771   1.073 -1.2197 -0.1286 -0.3504
 4733SOL    HW217220   7.553   0.780   0.937 -0.7177 -0.0557 -0.5850
 4734SOL     OW17221   4.041   9.054   4.299 -0.0069  0.0779 -0.5552
 4734SOL    HW117222   4.039   9.023   4.389  0.2076 -0.7857 -0.8399
 4734SOL    HW217223   4.079   8.982   4.250 -2.9846 -0.6762 -1.8353
 4735SOL     OW17224   1.490   2.838   3.241  0.2472 -0.2123 -0.2972
 4735SOL    HW117225   1.491   2.933   3.228  1.4422 -0.2530 -0.5286
 4735SOL    HW217226   1.522   2.825   3.330  0.3076 -0.4111 -0.3462
 4736SOL     OW17227   1.702   9.221   7.438 -0.0986 -0.4350  0.4469
 4736SOL    HW117228   1.791   9.199   7.468  1.0441  1.6913 -1.2390
 4736SOL    HW217229   1.663   9.269   7.511  1.7779  2.5637 -0.4689
 4737SOL     OW17230   0.760   5.346   6.833 -0.2053 -0.0399  0.1930
 4737SOL    HW117231   0.792   5.414   6.774 -1.4864 -0.5714 -1.1357
 4737SOL    HW217232   0.833   5.332   6.894  0.2536  2.1561  0.1924
 4738SOL     OW17233   5.285   9.217   7.117 -0.6061  0.0001 -0.0983
 4738SOL    HW117234   5.335   9.185   7.192 -2.1759 -2.6482 -0.1169
 4738SOL    HW217235   5.316   9.307   7.103  1.3407 -0.2760  2.2654
 4739SOL     OW17236   3.522   5.599   1.461 -0.1136 -0.4504 -0.1992
 4739SOL    HW117237   3.555   5.566   1.544 -0.4415 -1.0233 -0.2900
 4739SOL    HW217238   3.577   5.557   1.395 -0.3211 -0.5642 -0.3015
 4740SOL     OW17239   7.009   5.431   3.531  0.1075  0.2574 -0.8900
 4740SOL    HW117240   6.940   5.493   3.556  0.1860  0.4183 -1.0826
 4740SOL    HW217241   7.079   5.446   3.594 -0.2316 -0.2509 -0.3798
 4741SOL     OW17242   5.217   4.547   2.709  0.2736 -0.6444 -0.2151
 4741SOL    HW117243   5.159   4.615   2.742  1.1605 -0.0724  0.1714
 4741SOL    HW217244   5.225   4.485   2.781 -0.1584 -0.9244 -0.4035
 4742SOL     OW17245   2.464   3.191   7.092  0.6408  0.0210  0.1871
 4742SOL    HW117246   2.380   3.145   7.087  1.1850 -0.8176 -1.5808
 4742SOL    HW217247   2.444   3.272   7.140 -1.1374 -0.2533 -0.0592
 4743SOL     OW17248   0.162   6.340   4.507  0.4751 -0.0344  0.0506
 4743SOL    HW117249   0.176   6.343   4.601  0.9194 -1.9410  0.0826
 4743SOL    HW217250   0.117   6.256   4.492  1.0022 -0.0708 -1.4752
 4744SOL     OW17251   2.029   5.064   5.187  0.3992  0.4993  0.2170
 4744SOL    HW117252   2.063   5.130   5.248  1.9788  1.0186 -1.1776
 4744SOL    HW217253   2.106   5.012   5.163 -0.7176 -1.4480  0.7871
 4745SOL     OW17254   6.813   9.077   5.332 -0.2317  0.6528 -0.3660
 4745SOL    HW117255   6.822   9.044   5.422 -1.0528 -0.0299 -0.5301
 4745SOL    HW217256   6.876   9.027   5.282 -2.2049 -1.4613 -0.8123
 4746SOL     OW17257   7.543   6.401   0.488 -0.4868 -0.2481  0.5278
 4746SOL    HW117258   7.579   6.367   0.406 -0.9794 -1.4229  0.7903
 4746SOL    HW217259   7.604   6.471   0.513  0.4111 -0.7644 -0.1511
 4747SOL     OW17260   3.986   8.882   6.096 -0.2188  0.0707 -0.3006
 4747SOL    HW117261   3.929   8.926   6.033  0.0746  0.5778 -0.2134
 4747SOL    HW217262   4.040   8.824   6.042 -2.3383 -2.1240 -0.1810
 4748SOL     OW17263   4.634   5.609   6.139  0.3021 -0.0311 -0.6248
 4748SOL    HW117264   4.693   5.599   6.214 -0.8585 -2.0664  0.0376
 4748SOL    HW217265   4.547   5.610   6.178 -0.3602 -1.9554 -2.0043
 4749SOL     OW17266   3.262   1.751   3.732 -0.0128  0.4504 -0.6690
 4749SOL    HW117267   3.233   1.781   3.819  0.4850  0.5890 -0.5496
 4749SOL    HW217268   3.324   1.681   3.751 -2.1104 -1.5329 -0.9711
 4750SOL     OW17269   3.368   6.006   1.078 -0.0272  0.1031  0.5139
 4750SOL    HW117270   3.420   5.977   1.003  1.0214  0.7678  0.9740
 4750SOL    HW217271   3.314   5.930   1.101 -0.5418 -0.0299 -1.0641
 4751SOL     OW17272   0.952   2.149   6.084  0.4289  0.1575  0.8654
 4751SOL    HW117273   0.934   2.243   6.082  0.0681  0.1255  2.1993
 4751SOL    HW217274   1.036   2.142   6.129 -0.2486 -0.2493  2.0931
 4752SOL     OW17275   5.270   9.224   0.614  0.4275 -0.3800 -0.1262
 4752SOL    HW117276   5.362   9.246   0.598  0.7501 -1.1216  0.6934
 4752SOL    HW217277   5.234   9.302   0.656  0.9636 -0.5047  0.5764
 4753SOL     OW17278   1.691   1.621   5.275 -0.3056 -0.2902 -0.2190
 4753SOL    HW117279   1.784   1.609   5.255 -0.6356 -1.7952 -0.8860
 4753SOL    HW217280   1.690   1.680   5.350  1.2197 -0.8515  0.2520
 4754SOL     OW17281   9.223   7.473   6.482 -0.0803  0.0073 -0.0673
 4754SOL    HW117282   9.199   7.444   6.395 -0.5229  0.0459  0.0417
 4754SOL    HW217283   9.207   7.568   6.481  1.2828  0.2554 -0.3995
 4755SOL     OW17284   4.207   2.671   2.628 -0.4135  0.0130  0.3888
 4755SOL    HW117285   4.280   2.635   2.678 -0.3229 -0.9453 -0.4345
 4755SOL    HW217286   4.248   2.715   2.554 -0.5137  1.8835  1.3965
 4756SOL     OW17287   8.038   9.080   9.268  0.0749  0.3145  0.2044
 4756SOL    HW117288   8.084   9.050   9.189 -0.4576  1.2919 -0.4911
 4756SOL    HW217289   7.992   9.159   9.240 -0.8649  0.1541  1.2630
 4757SOL     OW17290   2.906   4.456   7.464 -0.0801  0.2201 -0.0080
 4757SOL    HW117291   2.859   4.399   7.402 -0.1401  1.6123 -1.2886
 4757SOL    HW217292   2.872   4.432   7.550 -0.7500 -1.0501 -0.6180
 4758SOL     OW17293   0.202   2.296   1.211  0.4010 -0.2409 -0.0262
 4758SOL    HW117294   0.206   2.324   1.303  1.6202  1.3299 -0.5289
 4758SOL    HW217295   0.109   2.279   1.195  0.0225  0.5730  1.2032
 4759SOL     OW17296   4.636   3.536   2.696 -0.1451  0.2625  0.1855
 4759SOL    HW117297   4.702   3.575   2.639  0.4894  0.9528  1.3551
 4759SOL    HW217298   4.583   3.610   2.725  0.6020  0.1911  1.8308
 4760SOL     OW17299   6.443   6.709   1.431  0.2253  0.0187  0.0628
 4760SOL    HW117300   6.421   6.621   1.459 -0.5736  0.3130  0.3812
 4760SOL    HW217301   6.360   6.747   1.402  0.9392 -0.1247 -2.3132
 4761SOL     OW17302   3.248   3.048   4.964  0.0033  0.1748  0.4294
 4761SOL    HW117303   3.230   3.071   5.056 -1.4032  1.9139 -0.2425
 4761SOL    HW217304   3.164   3.016   4.931  0.0529  1.1561 -0.6965
 4762SOL     OW17305   7.975   4.640   4.559 -0.2744 -0.4316  0.4023
 4762SOL    HW117306   7.929   4.722   4.539  2.3307  0.5560 -1.9386
 4762SOL    HW217307   7.918   4.571   4.527 -1.5060  0.5766  0.3831
 4763SOL     OW17308   9.002   3.239   3.543 -0.2244 -0.4613  0.5728
 4763SOL    HW117309   9.060   3.237   3.619 -0.2805 -1.6357  0.5939
 4763SOL    HW217310   9.015   3.154   3.501 -0.5548 -0.0056 -0.4591
 4764SOL     OW17311   7.282   0.529   2.769  0.3028 -0.3080  0.2662
 4764SOL    HW117312   7.276   0.624   2.763  0.9223 -0.2051  1.2168
 4764SOL    HW217313   7.192   0.499   2.761  0.2221  0.2712 -1.3398
 4765SOL     OW17314   6.077   6.842   1.550 -0.4434  0.2851  0.1473
 4765SOL    HW117315   6.118   6.879   1.628 -0.1513 -3.0642  1.6649
 4765SOL    HW217316   5.983   6.843   1.569 -0.4217  0.0532  0.2640
 4766SOL     OW17317   6.427   3.509   4.220 -0.0564  0.4566 -0.2200
 4766SOL    HW117318   6.431   3.605   4.222  0.4866  0.4158  0.5151
 4766SOL    HW217319   6.371   3.486   4.294 -2.7665  0.3392 -2.2059
 4767SOL     OW17320   1.668   6.539   3.728 -0.5913 -0.0262 -0.0297
 4767SOL    HW117321   1.594   6.580   3.773  0.0143  1.1930 -0.1235
 4767SOL    HW217322   1.652   6.445   3.736 -2.0579  0.2262  0.0966
 4768SOL     OW17323   3.272   8.540   1.721 -0.3349 -0.0686  0.7277
 4768SOL    HW117324   3.193   8.572   1.765 -0.0752  2.4006 -0.5024
 4768SOL    HW217325   3.242   8.510   1.636 -0.2108 -0.7721  0.9346
 4769SOL     OW17326   0.391   0.732   4.724  0.2039  0.4396 -0.0471
 4769SOL    HW117327   0.382   0.648   4.768  0.7274  0.2067 -0.3789
 4769SOL    HW217328   0.410   0.709   4.633 -1.2301  0.9109 -0.4803
 4770SOL     OW17329   7.865   7.903   7.721 -0.0794 -0.1440  0.5501
 4770SOL    HW117330   7.849   7.851   7.800 -2.2822 -1.0955 -0.5005
 4770SOL    HW217331   7.898   7.987   7.754 -2.6691  0.1288  2.6056
 4771SOL     OW17332   5.122   5.581   1.272 -0.3125  0.1782 -0.8024
 4771SOL    HW117333   5.155   5.662   1.312 -1.4501  0.1094  0.3267
 4771SOL    HW217334   5.173   5.572   1.191  1.7539  0.5649  0.3981
 4772SOL     OW17335   0.633   2.621   1.178 -0.3074  0.2225  0.6814
 4772SOL    HW117336   0.551   2.582   1.148  0.3163 -0.9310  0.4509
 4772SOL    HW217337   0.661   2.677   1.106 -1.8831  2.1670  1.5394
 4773SOL     OW17338   2.496   8.271   2.097 -0.4932 -0.2853 -0.0033
 4773SOL    HW117339   2.432   8.257   2.167 -0.5892 -0.0161 -0.0343
 4773SOL    HW217340   2.455   8.338   2.041 -1.2112 -1.7388 -1.2822
 4774SOL     OW17341   8.377   0.646   4.014  0.4792 -0.2215  0.1321
 4774SOL    HW117342   8.334   0.710   3.958  0.4175 -1.0784 -0.8065
 4774SOL    HW217343   8.306   0.594   4.051  0.5911 -0.5034 -0.0404
 4775SOL     OW17344   5.758   4.743   0.625 -0.1940  0.4736  0.6768
 4775SOL    HW117345   5.795   4.812   0.569 -1.6378  0.9445  0.2676
 4775SOL    HW217346   5.769   4.776   0.714  0.8216  0.3773  0.5884
 4776SOL     OW17347   4.714   5.736   3.861 -0.0210  0.0007  0.3133
 4776SOL    HW117348   4.697   5.750   3.768  0.6428  1.1095  0.3449
 4776SOL    HW217349   4.643   5.782   3.905 -0.5614 -0.8712  0.3444
 4777SOL     OW17350   7.466   4.721   6.423 -0.2649 -0.2624 -0.2298
 4777SOL    HW117351   7.453   4.672   6.341  1.2886 -1.0424 -0.0413
 4777SOL    HW217352   7.436   4.661   6.491  0.7854 -0.6034 -0.0617
 4778SOL     OW17353   2.013   8.273   8.316 -0.0042 -0.0370  0.2395
 4778SOL    HW117354   1.951   8.234   8.378  1.6057 -1.0853  1.2288
 4778SOL    HW217355   2.006   8.367   8.329  2.7956 -0.3031  4.5566
 4779SOL     OW17356   5.953   1.416   8.396  0.1924  0.3878 -0.0765
 4779SOL    HW117357   5.973   1.509   8.409 -0.5625  0.6159 -0.5599
 4779SOL    HW217358   6.001   1.393   8.316 -0.2775  0.5690 -0.4136
 4780SOL     OW17359   9.223   5.118   0.112  0.5640 -0.4580 -0.7334
 4780SOL    HW117360   9.215   5.034   0.067 -1.3600 -0.1090 -1.1111
 4780SOL    HW217361   9.218   5.097   0.205  2.9504 -1.0271 -0.7126
 4781SOL     OW17362   9.053   2.406   6.094 -0.1009  0.1080  0.2807
 4781SOL    HW117363   9.006   2.336   6.048 -1.2726  1.4268 -0.5505
 4781SOL    HW217364   8.986   2.449   6.147  0.1499  1.9508 -0.8399
 4782SOL     OW17365   1.363   5.645   6.033  0.2825  0.0956  0.2364
 4782SOL    HW117366   1.345   5.569   6.087  0.5001  0.1922  0.4392
 4782SOL    HW217367   1.277   5.668   5.996  0.1727 -0.0897  0.3752
 4783SOL     OW17368   0.231   4.057   1.852 -0.6070 -0.3129 -0.4170
 4783SOL    HW117369   0.217   3.963   1.847 -0.9039 -0.2319 -1.1355
 4783SOL    HW217370   0.289   4.078   1.780  0.6690 -0.1554  0.6379
 4784SOL     OW17371   2.427   5.137   3.439  0.1509 -0.6598  0.0878
 4784SOL    HW117372   2.451   5.051   3.474  0.2360 -1.1848 -1.2336
 4784SOL    HW217373   2.342   5.123   3.397 -0.6316  0.2899  1.3056
 4785SOL     OW17374   5.657   2.617   3.829  0.7954 -0.7131  0.0089
 4785SOL    HW117375   5.627   2.642   3.916 -1.3074 -1.2721 -0.5046
 4785SOL    HW217376   5.683   2.699   3.787 -1.8091  0.0799 -0.1378
 4786SOL     OW17377   7.218   0.172   2.417  0.0430  0.0112  0.8110
 4786SOL    HW117378   7.222   0.078   2.400  1.7962 -0.0449  1.4546
 4786SOL    HW217379   7.250   0.183   2.506 -0.9015  1.1530  1.0325
 4787SOL     OW17380   3.982   9.110   8.501 -0.2234 -0.4831 -0.2845
 4787SOL    HW117381   4.031   9.193   8.502  0.2189 -0.6002 -3.7181
 4787SOL    HW217382   4.047   9.045   8.473 -0.4566 -2.1176  2.8399
 4788SOL     OW17383   6.098   1.941   8.476 -0.6698  0.2201 -0.3490
 4788SOL    HW117384   6.067   1.985   8.396 -0.4239 -0.3172 -0.7438
 4788SOL    HW217385   6.020   1.935   8.531 -0.8798  0.4454 -0.6183
 4789SOL     OW17386   3.137   4.243   6.874  0.0012 -0.4284 -0.3537
 4789SOL    HW117387   3.203   4.253   6.942 -0.0845 -1.0925 -0.1739
 4789SOL    HW217388   3.178   4.186   6.809  0.1754  0.4029 -0.9820
 4790SOL     OW17389   2.314   7.924   1.139 -0.0316  0.0995  0.3160
 4790SOL    HW117390   2.224   7.893   1.128 -0.2470  0.2371  1.5357
 4790SOL    HW217391   2.347   7.874   1.214  1.0793 -0.3203 -0.4503
 4791SOL     OW17392   0.858   5.562   3.415  0.0742 -0.0032 -0.1101
 4791SOL    HW117393   0.897   5.516   3.490 -1.9050 -0.9798  0.3763
 4791SOL    HW217394   0.870   5.655   3.435 -0.3492 -0.2544  1.4025
 4792SOL     OW17395   3.900   0.634   1.779 -0.2947 -0.0168  0.4446
 4792SOL    HW117396   3.845   0.569   1.735  1.0341 -0.8805  0.0292
 4792SOL    HW217397   3.858   0.647   1.864 -1.5328 -0.1376 -0.1346
 4793SOL     OW17398   4.259   1.303   3.743  0.4852 -0.0610 -0.0340
 4793SOL    HW117399   4.297   1.374   3.795  0.6251 -1.1877  1.4442
 4793SOL    HW217400   4.333   1.248   3.720  0.4281  0.4428 -1.5000
 4794SOL     OW17401   1.527   8.729   3.519  0.4806  0.1881  0.6476
 4794SOL    HW117402   1.539   8.784   3.441 -0.8626 -1.5954 -0.8692
 4794SOL    HW217403   1.436   8.742   3.544  0.1081 -1.3800  0.2009
 4795SOL     OW17404   7.172   9.190   3.100  0.0570  0.1087 -0.7775
 4795SOL    HW117405   7.079   9.168   3.093  0.1516  0.1701 -2.3595
 4795SOL    HW217406   7.202   9.140   3.176 -1.2192 -0.0730 -0.3751
 4796SOL     OW17407   7.342   0.590   0.047 -0.0619  0.2701 -0.3553
 4796SOL    HW117408   7.354   0.496   0.063  0.4809  0.5247  0.8036
 4796SOL    HW217409   7.250   0.607   0.065 -0.1888 -0.0634 -0.6892
 4797SOL     OW17410   0.277   5.398   2.173  0.5200  0.6404 -0.1057
 4797SOL    HW117411   0.234   5.368   2.253 -1.2414 -1.4776 -1.7805
 4797SOL    HW217412   0.296   5.490   2.189 -1.9551  0.8574  1.8659
 4798SOL     OW17413   2.635   8.089   7.971  0.2107  0.3010 -0.2260
 4798SOL    HW117414   2.604   8.167   7.925  0.3767  0.6635  0.2704
 4798SOL    HW217415   2.558   8.032   7.977  0.6724 -0.6936 -2.8404
 4799SOL     OW17416   3.963   0.681   6.101  0.4688  0.2549  0.3198
 4799SOL    HW117417   3.956   0.625   6.024 -2.0966  1.0986 -0.0883
 4799SOL    HW217418   3.910   0.638   6.168 -0.0208  1.2351  0.5776
 4800SOL     OW17419   7.066   1.751   6.012 -0.3315  0.2972  0.3197
 4800SOL    HW117420   6.981   1.724   5.976  0.7358 -1.5222 -0.9465
 4800SOL    HW217421   7.086   1.683   6.077 -0.0007  0.9049  0.8513
 4801SOL     OW17422   2.837   2.693   0.917 -0.2606 -0.3114 -0.5295
 4801SOL    HW117423   2.930   2.706   0.934 -0.2668 -0.1443 -0.6274
 4801SOL    HW217424   2.793   2.762   0.967 -0.2492  0.5125 -1.6398
 4802SOL     OW17425   4.112   0.339   7.908 -0.0680  0.1095 -0.2931
 4802SOL    HW117426   4.190   0.394   7.911 -0.8829  1.2764 -0.0873
 4802SOL    HW217427   4.070   0.361   7.824 -0.6471  0.1578  0.0053
 4803SOL     OW17428   7.775   6.893   9.261  0.3449 -0.4631 -0.1821
 4803SOL    HW117429   7.737   6.807   9.279  0.7723 -0.3424  1.3032
 4803SOL    HW217430   7.767   6.902   9.166 -0.2264 -1.8945 -0.2908
 4804SOL     OW17431   8.430   1.979   1.491 -0.2540 -0.2205  0.3762
 4804SOL    HW117432   8.336   1.978   1.506 -0.1563 -2.4011  1.1279
 4804SOL    HW217433   8.441   2.021   1.406 -1.8486  0.5274  0.5222
 4805SOL     OW17434   4.543   5.429   5.503 -0.1312 -0.0221  0.1150
 4805SOL    HW117435   4.614   5.377   5.540 -1.4538 -1.2375  0.9932
 4805SOL    HW217436   4.547   5.512   5.550  0.6912 -0.0998  0.1855
 4806SOL     OW17437   5.022   3.303   0.561 -0.0612 -0.5995 -0.1590
 4806SOL    HW117438   4.994   3.378   0.615  0.9741  0.6254 -1.3108
 4806SOL    HW217439   5.083   3.255   0.617 -1.1139 -0.9010  0.7736
 4807SOL     OW17440   3.446   3.115   6.827 -0.0520 -0.2684 -0.1800
 4807SOL    HW117441   3.505   3.091   6.898  0.3106 -0.0836 -0.4183
 4807SOL    HW217442   3.390   3.038   6.815  1.9558 -1.5087 -1.8130
 4808SOL     OW17443   1.451   8.507   1.338 -0.4315 -0.1804  0.0211
 4808SOL    HW117444   1.400   8.519   1.418 -0.2821 -0.8039  0.2176
 4808SOL    HW217445   1.445   8.413   1.320  0.1856 -0.1732 -0.2556
 4809SOL     OW17446   4.312   6.008   4.263 -0.0395 -0.4235  0.6800
 4809SOL    HW117447   4.339   6.096   4.236 -0.2317 -0.1008  1.5246
 4809SOL    HW217448   4.386   5.974   4.313  0.2236 -0.9315 -0.0437
 4810SOL     OW17449   8.088   4.422   1.237 -0.3247 -0.1026 -0.2756
 4810SOL    HW117450   8.020   4.372   1.282 -0.5691 -0.2650 -0.8296
 4810SOL    HW217451   8.079   4.511   1.274 -0.6454 -0.1885 -0.1362
 4811SOL     OW17452   0.428   3.742   3.867  0.3110 -0.4522  0.2660
 4811SOL    HW117453   0.501   3.795   3.833 -0.8626  1.0527  0.0419
 4811SOL    HW217454   0.394   3.791   3.941 -2.1336  0.2009 -1.2226
 4812SOL     OW17455   7.047   8.904   4.257 -0.4139 -0.1294  0.2322
 4812SOL    HW117456   7.009   8.977   4.306 -2.7816  0.3235 -2.1311
 4812SOL    HW217457   7.099   8.945   4.188  0.2636 -0.7000  0.3949
 4813SOL     OW17458   2.829   4.807   1.477 -0.3226 -0.4691 -0.0459
 4813SOL    HW117459   2.816   4.727   1.426  1.0222 -0.6336 -0.1622
 4813SOL    HW217460   2.855   4.873   1.412 -0.9584 -0.0504  0.1126
 4814SOL     OW17461   3.365   6.337   6.590 -0.4792 -0.0542  0.1840
 4814SOL    HW117462   3.335   6.251   6.620  0.6770  0.0661  1.7699
 4814SOL    HW217463   3.302   6.399   6.627 -1.0306 -0.1787 -0.5453
 4815SOL     OW17464   7.566   0.453   5.626 -0.0350  0.0652 -0.8046
 4815SOL    HW117465   7.475   0.444   5.655  0.7922  1.3399  2.4383
 4815SOL    HW217466   7.570   0.540   5.588 -0.4748 -0.5213 -2.2111
 4816SOL     OW17467   1.045   5.394   7.038  0.4451  0.2851  0.3730
 4816SOL    HW117468   1.076   5.329   7.101 -0.8367 -0.8465 -0.1549
 4816SOL    HW217469   1.118   5.403   6.976  0.5233 -0.8332  0.2976
 4817SOL     OW17470   6.325   2.417   5.894 -0.7810  0.1358  0.2333
 4817SOL    HW117471   6.238   2.433   5.931 -0.3564  1.0100  0.8752
 4817SOL    HW217472   6.377   2.493   5.920 -0.2087  0.3074 -1.3758
 4818SOL     OW17473   4.685   7.563   1.792 -0.2284 -0.5384 -0.1077
 4818SOL    HW117474   4.609   7.529   1.745 -0.4073 -0.5321  0.1747
 4818SOL    HW217475   4.663   7.654   1.811 -0.4424 -0.7334  0.5857
 4819SOL     OW17476   7.229   2.193   9.106  0.1281  0.5993  0.2118
 4819SOL    HW117477   7.183   2.171   9.188 -1.1313  1.7793 -0.1662
 4819SOL    HW217478   7.248   2.107   9.067 -0.7729  0.0616  0.9154
 4820SOL     OW17479   4.960   8.841   5.245 -0.2385  0.3155  0.0385
 4820SOL    HW117480   5.040   8.789   5.248 -0.6105 -0.2563  0.1637
 4820SOL    HW217481   4.965   8.897   5.323 -0.8645 -1.0709  1.0885
 4821SOL     OW17482   1.190   7.166   2.774  0.2540  0.1609  0.2111
 4821SOL    HW117483   1.152   7.195   2.857 -1.9588 -0.8520 -0.4187
 4821SOL    HW217484   1.115   7.141   2.721  1.6011  1.5428 -2.4032
 4822SOL     OW17485   8.782   1.835   1.316 -0.3358 -0.4708 -0.2057
 4822SOL    HW117486   8.823   1.811   1.233  0.4484  1.3549 -0.3542
 4822SOL    HW217487   8.763   1.928   1.308 -1.4520 -0.5639  1.1660
 4823SOL     OW17488   1.668   9.382   9.410 -0.3890  0.0939  0.0065
 4823SOL    HW117489   1.699   9.293   9.426  0.1831  0.1714 -0.6691
 4823SOL    HW217490   1.748   9.434   9.398 -0.7075  0.7585  0.7018
 4824SOL     OW17491   3.872   4.893   0.326  0.0006  0.3105 -0.0778
 4824SOL    HW117492   3.777   4.887   0.315  0.1864 -0.7807 -1.2334
 4824SOL    HW217493   3.883   4.927   0.415 -1.4466 -2.9083  1.4482
 4825SOL     OW17494   7.591   2.997   2.038  0.0645 -0.5409  0.2665
 4825SOL    HW117495   7.636   3.078   2.016 -1.8927  0.6176  0.4263
 4825SOL    HW217496   7.602   2.988   2.133 -0.5170  0.0212  0.3840
 4826SOL     OW17497   3.135   3.345   2.391  0.5055 -0.4101  0.5928
 4826SOL    HW117498   3.215   3.323   2.439  0.7673 -2.7433 -0.8271
 4826SOL    HW217499   3.165   3.379   2.308  0.0334 -1.2548  0.0680
 4827SOL     OW17500   0.352   6.770   9.103  0.4177  0.5280  0.1793
 4827SOL    HW117501   0.374   6.765   9.010  0.7334 -2.2138  0.3348
 4827SOL    HW217502   0.353   6.678   9.132 -2.4328  1.0942  2.2364
 4828SOL     OW17503   3.129   3.904   8.475  0.4352 -0.1444  0.1069
 4828SOL    HW117504   3.115   3.856   8.393 -2.4117  2.0753 -0.7686
 4828SOL    HW217505   3.053   3.884   8.529  0.2680  1.6793  0.5759
 4829SOL     OW17506   2.138   5.524   7.260 -0.4329  0.0843 -0.9111
 4829SOL    HW117507   2.146   5.560   7.172 -0.7177  1.3013 -0.4525
 4829SOL    HW217508   2.052   5.482   7.261 -0.3495 -0.1019 -1.2605
 4830SOL     OW17509   1.926   2.178   5.895  0.2427 -0.2035 -0.3092
 4830SOL    HW117510   2.004   2.227   5.871  0.5928 -0.4197  0.3730
 4830SOL    HW217511   1.902   2.131   5.816  0.9539 -0.3366 -0.4486
 4831SOL     OW17512   7.942   0.784   7.885  0.3130  0.1365 -0.1577
 4831SOL    HW117513   8.002   0.775   7.960  0.5198  0.9909 -0.2160
 4831SOL    HW217514   7.860   0.814   7.924  0.4150  0.5617 -0.2696
 4832SOL     OW17515   8.545   2.540   7.986  0.1495 -0.1765  0.0414
 4832SOL    HW117516   8.586   2.474   7.930  0.0398 -0.3740  0.1958
 4832SOL    HW217517   8.460   2.502   8.010 -0.8487  0.9118 -1.6238
 4833SOL     OW17518   0.792   6.144   4.238 -0.2012 -0.1536  0.1548
 4833SOL    HW117519   0.816   6.052   4.227  1.4176  0.3388 -0.5524
 4833SOL    HW217520   0.761   6.151   4.328 -0.4563 -1.4114  0.1685
 4834SOL     OW17521   8.174   7.890   1.352 -0.2081 -0.0953  0.3745
 4834SOL    HW117522   8.082   7.868   1.337 -0.0566  0.2540 -1.2178
 4834SOL    HW217523   8.173   7.959   1.417 -1.0823 -0.0279  0.2921
 4835SOL     OW17524   8.225   0.430   4.785  0.1491  0.4021  0.6395
 4835SOL    HW117525   8.170   0.423   4.863  0.0449  3.3679  0.8795
 4835SOL    HW217526   8.311   0.458   4.819  0.7016 -0.3664 -0.1088
 4836SOL     OW17527   8.019   9.039   7.695  0.0136 -0.0120  0.0284
 4836SOL    HW117528   8.030   9.085   7.612 -1.7520  2.1616  0.9435
 4836SOL    HW217529   7.926   9.017   7.697  0.4477 -1.8310  0.5419
 4837SOL     OW17530   3.907   8.717   6.917  0.1302 -0.3846 -0.9211
 4837SOL    HW117531   3.988   8.690   6.873  1.1522 -0.8640  1.2308
 4837SOL    HW217532   3.837   8.685   6.859  1.4320 -1.6517 -1.8390
 4838SOL     OW17533   0.720   4.469   5.345  0.4392 -0.1612  0.0272
 4838SOL    HW117534   0.642   4.434   5.303 -1.2422  0.4957  2.4755
 4838SOL    HW217535   0.770   4.392   5.373 -1.3456 -0.6760  1.9709
 4839SOL     OW17536   2.717   2.297   8.071 -0.0494  0.6113 -0.1195
 4839SOL    HW117537   2.708   2.316   8.164  1.9242  1.7366 -0.1283
 4839SOL    HW217538   2.730   2.202   8.067  0.8301  0.6780  0.8459
 4840SOL     OW17539   3.969   8.340   3.616  0.0174  0.3480  0.0150
 4840SOL    HW117540   4.055   8.303   3.634 -0.5679 -0.8393  0.4033
 4840SOL    HW217541   3.922   8.272   3.569 -0.6572  1.0556 -0.3485
 4841SOL     OW17542   0.163   6.878   1.870 -0.5215  0.4002 -0.3782
 4841SOL    HW117543   0.205   6.806   1.821 -2.1068  0.2807 -1.5991
 4841SOL    HW217544   0.165   6.849   1.961  0.2319 -0.5029 -0.6706
 4842SOL     OW17545   3.668   2.261   1.649  0.7020  0.4896  0.3515
 4842SOL    HW117546   3.715   2.238   1.729  0.9284 -3.4684 -0.7817
 4842SOL    HW217547   3.603   2.191   1.638 -1.6842  2.8412 -1.0923
 4843SOL     OW17548   5.939   1.684   1.880  0.5187  0.2679 -0.1788
 4843SOL    HW117549   5.950   1.724   1.794  0.2912  0.4987 -0.1030
 4843SOL    HW217550   6.028   1.663   1.909  0.6723  1.1156 -0.0309
 4844SOL     OW17551   2.173   6.373   1.438 -0.3033 -0.3055  0.0790
 4844SOL    HW117552   2.106   6.421   1.388 -0.6225 -0.5595  0.2654
 4844SOL    HW217553   2.194   6.298   1.383 -1.5653 -1.2723  0.8831
 4845SOL     OW17554   4.887   5.993   5.581  0.0951  0.3365 -0.4489
 4845SOL    HW117555   4.978   6.019   5.572 -0.3457  2.4684  0.9846
 4845SOL    HW217556   4.890   5.900   5.600  2.0317  0.5980  0.6317
 4846SOL     OW17557   5.168   4.229   3.916 -0.0555  0.1627 -0.3424
 4846SOL    HW117558   5.148   4.201   3.827  0.5064 -2.1784  0.2252
 4846SOL    HW217559   5.085   4.219   3.964  0.4580 -1.9761  0.1763
 4847SOL     OW17560   4.480   8.713   8.351  0.3042  0.2394 -0.2823
 4847SOL    HW117561   4.482   8.640   8.414  0.2907 -0.7210 -1.3762
 4847SOL    HW217562   4.522   8.786   8.397  3.0761 -1.3198 -0.2368
 4848SOL     OW17563   7.628   5.388   7.575 -0.1260  0.4230 -0.5331
 4848SOL    HW117564   7.544   5.361   7.611  0.6816  0.9634  1.8660
 4848SOL    HW217565   7.635   5.341   7.492 -0.8587 -3.0744  1.2944
 4849SOL     OW17566   5.022   1.696   4.736  0.0710  0.1097 -0.7768
 4849SOL    HW117567   4.939   1.669   4.697  0.3808  1.9742 -2.8558
 4849SOL    HW217568   4.999   1.770   4.792 -0.0265 -1.0794  0.7959
 4850SOL     OW17569   8.558   7.239   0.847  0.5546 -0.3574 -0.2280
 4850SOL    HW117570   8.578   7.294   0.923  0.9163 -2.0226  0.8896
 4850SOL    HW217571   8.493   7.177   0.879  0.5502 -0.9365 -1.3478
 4851SOL     OW17572   6.847   7.611   6.107 -0.0923  0.3133 -0.4188
 4851SOL    HW117573   6.932   7.573   6.083  0.6034 -0.9757  3.7305
 4851SOL    HW217574   6.785   7.540   6.095 -0.0782  0.2819 -0.3009
 4852SOL     OW17575   0.177   5.642   1.313  0.0787  0.0357  0.0137
 4852SOL    HW117576   0.220   5.655   1.398  0.6972  1.0235 -0.4479
 4852SOL    HW217577   0.179   5.728   1.271 -2.1565  0.0640 -0.1183
 4853SOL     OW17578   5.679   1.244   4.411  0.2322  0.1669 -0.1328
 4853SOL    HW117579   5.651   1.330   4.379 -0.7521  0.5722  1.7133
 4853SOL    HW217580   5.769   1.258   4.441  0.0718  0.5669  0.1720
 4854SOL     OW17581   1.333   5.672   3.312 -0.4329 -0.5632  0.5817
 4854SOL    HW117582   1.384   5.679   3.392  1.7138  0.0571 -0.7870
 4854SOL    HW217583   1.351   5.584   3.279  1.3105  0.2953 -0.8684
 4855SOL     OW17584   0.497   0.370   2.067  0.0082 -0.4720 -0.5053
 4855SOL    HW117585   0.513   0.276   2.069 -0.0838 -0.4666  1.3781
 4855SOL    HW217586   0.502   0.397   2.158 -1.8144  1.0517 -0.8296
 4856SOL     OW17587   7.418   8.902   6.828  0.2707 -0.6249 -0.1527
 4856SOL    HW117588   7.496   8.872   6.874  0.1684 -0.3088  0.2241
 4856SOL    HW217589   7.450   8.966   6.765  0.2625 -0.1893  0.2873
 4857SOL     OW17590   3.515   9.204   9.026 -0.7494  0.0878  0.3854
 4857SOL    HW117591   3.421   9.217   9.043 -0.6413  1.3669  0.0481
 4857SOL    HW217592   3.558   9.266   9.085 -0.1374 -0.0778  0.1105
 4858SOL     OW17593   2.629   5.322   4.441 -0.3324 -0.1883 -0.1108
 4858SOL    HW117594   2.623   5.336   4.535 -0.0333 -2.8349  0.3466
 4858SOL    HW217595   2.543   5.346   4.406 -1.6042 -2.4831  1.3294
 4859SOL     OW17596   8.636   3.240   5.260 -0.2262 -0.5609  0.3406
 4859SOL    HW117597   8.646   3.283   5.175 -1.3186 -1.5545 -0.3014
 4859SOL    HW217598   8.615   3.312   5.320 -0.2257  0.0521 -0.3786
 4860SOL     OW17599   3.047   1.115   6.748  0.2373  0.7539  0.0053
 4860SOL    HW117600   3.034   1.162   6.666 -0.2911 -0.0062 -0.3455
 4860SOL    HW217601   2.978   1.148   6.806  0.7472  1.4552  0.2286
 4861SOL     OW17602   4.557   2.427   6.677  0.5240 -0.2697 -0.2050
 4861SOL    HW117603   4.580   2.495   6.614 -0.8699  0.5590  0.1564
 4861SOL    HW217604   4.471   2.396   6.649  1.0082 -1.6812 -0.1814
 4862SOL     OW17605   8.016   6.023   6.357 -0.1463 -0.0950  0.2427
 4862SOL    HW117606   7.930   6.058   6.379 -0.5473 -0.1017 -1.2685
 4862SOL    HW217607   8.031   6.051   6.266  1.3603 -0.2388  0.4364
 4863SOL     OW17608   4.905   5.516   1.610  0.5588 -0.1841 -0.0353
 4863SOL    HW117609   4.814   5.546   1.613  0.4458 -0.4061 -0.9678
 4863SOL    HW217610   4.898   5.424   1.583  1.1126  0.1061 -1.2110
 4864SOL     OW17611   1.878   8.422   5.362  0.0963 -0.0809  0.5761
 4864SOL    HW117612   1.917   8.338   5.339 -0.2654 -0.2982  0.7381
 4864SOL    HW217613   1.851   8.461   5.279  1.4814  0.4876  0.3783
 4865SOL     OW17614   1.085   1.087   3.663 -0.3414  0.2683  0.1890
 4865SOL    HW117615   1.062   1.029   3.736 -0.1365 -0.7232 -0.5334
 4865SOL    HW217616   1.038   1.169   3.683  0.4533  0.3249  1.9006
 4866SOL     OW17617   3.225   3.115   5.211  0.2373  0.1148  0.3006
 4866SOL    HW117618   3.165   3.143   5.280 -0.9591 -0.1828 -0.5909
 4866SOL    HW217619   3.272   3.041   5.248  0.5408  0.7728  1.2523
 4867SOL     OW17620   8.219   7.060   3.938  0.4586  0.0591 -0.1711
 4867SOL    HW117621   8.213   7.150   3.906 -0.4856 -0.6119 -1.9174
 4867SOL    HW217622   8.129   7.036   3.958  0.9550  0.2552  2.4953
 4868SOL     OW17623   6.915   4.955   6.446 -0.1762 -0.0034 -0.2151
 4868SOL    HW117624   7.009   4.950   6.428 -0.2425 -0.7636 -0.3238
 4868SOL    HW217625   6.903   4.903   6.525 -0.2097  1.6477  0.9053
 4869SOL     OW17626   6.211   5.419   2.099  0.2011  0.7468 -0.6286
 4869SOL    HW117627   6.226   5.393   2.190  1.0670  0.2487 -0.9083
 4869SOL    HW217628   6.161   5.501   2.106 -0.0087  0.5496  0.2864
 4870SOL     OW17629   0.093   9.105   7.492  0.3519  0.3792  0.2219
 4870SOL    HW117630   0.064   9.052   7.567 -2.9997 -0.1013 -1.3624
 4870SOL    HW217631   0.041   9.185   7.497 -1.7870 -0.7247 -2.9703
 4871SOL     OW17632   8.477   2.672   6.480 -0.2897  0.0528  0.3597
 4871SOL    HW117633   8.560   2.676   6.434  0.4589  0.1302  1.6956
 4871SOL    HW217634   8.411   2.688   6.413  0.7749  0.0622 -0.6892
 4872SOL     OW17635   0.257   6.062   6.776 -0.2356 -0.2219  0.9792
 4872SOL    HW117636   0.350   6.040   6.779  0.1996  1.7346  2.0168
 4872SOL    HW217637   0.220   5.997   6.716  2.1264  0.1873 -1.0120
 4873SOL     OW17638   4.839   1.212   4.633  0.5120  0.5817  0.3269
 4873SOL    HW117639   4.826   1.300   4.667 -0.5030  1.6223 -2.6164
 4873SOL    HW217640   4.867   1.225   4.543  0.1171 -2.1347 -0.2252
 4874SOL     OW17641   4.477   4.561   9.236 -0.1642  0.3040 -0.1307
 4874SOL    HW117642   4.523   4.626   9.289  0.6131 -1.5666  1.5884
 4874SOL    HW217643   4.491   4.478   9.283 -2.3271 -0.8745 -1.4902
 4875SOL     OW17644   7.077   1.773   2.886  0.1608  0.2457 -0.8758
 4875SOL    HW117645   7.155   1.826   2.899  0.5097 -0.3401 -0.5517
 4875SOL    HW217646   7.008   1.819   2.934  0.6569 -0.0468  0.1363
 4876SOL     OW17647   8.237   9.276   3.356  0.8530 -0.4106 -0.1448
 4876SOL    HW117648   8.153   9.306   3.319  0.5272 -0.4648  0.5365
 4876SOL    HW217649   8.227   9.288   3.450  1.5924 -0.4832 -0.0539
 4877SOL     OW17650   3.125   8.484   3.907  0.2020  0.1132  0.4037
 4877SOL    HW117651   3.163   8.448   3.987  0.8966 -0.9624 -0.4026
 4877SOL    HW217652   3.060   8.420   3.880 -0.3088  0.6627  0.3209
 4878SOL     OW17653   5.018   4.910   4.688  0.1928  0.6741  0.2321
 4878SOL    HW117654   4.989   4.999   4.671  0.6995  0.6158 -1.0215
 4878SOL    HW217655   4.939   4.857   4.678  0.4662  0.6530 -1.9670
 4879SOL     OW17656   2.696   3.143   8.970  0.1846 -0.2802  0.1616
 4879SOL    HW117657   2.697   3.234   8.941  3.2428 -0.3683 -0.1111
 4879SOL    HW217658   2.683   3.148   9.065  0.8787  0.4626  0.2172
 4880SOL     OW17659   2.206   2.311   6.822 -0.1472  0.4838 -0.5684
 4880SOL    HW117660   2.219   2.396   6.781  0.0879  0.8888  0.3392
 4880SOL    HW217661   2.294   2.275   6.831  0.1260  1.8125  2.5633
 4881SOL     OW17662   1.314   0.179   1.495 -0.1578  0.2397 -0.4314
 4881SOL    HW117663   1.281   0.135   1.417  2.7284 -1.2924 -0.8418
 4881SOL    HW217664   1.367   0.114   1.539  2.0598  2.4885  0.3568
 4882SOL     OW17665   3.231   5.492   8.461 -0.4337  0.0048 -0.0224
 4882SOL    HW117666   3.303   5.549   8.435 -0.7322  0.4205  0.0553
 4882SOL    HW217667   3.257   5.404   8.431  0.7666 -0.0944  1.3234
 4883SOL     OW17668   3.969   1.162   8.986 -0.5715 -0.1010 -0.1453
 4883SOL    HW117669   4.061   1.145   8.967 -0.5859  0.4859 -0.7675
 4883SOL    HW217670   3.969   1.214   9.066 -0.3185  0.5548 -0.5672
 4884SOL     OW17671   5.253   2.207   6.764  0.0829  0.1659 -0.4010
 4884SOL    HW117672   5.243   2.187   6.671  1.4810  0.8367 -0.7105
 4884SOL    HW217673   5.271   2.123   6.805 -0.0412 -0.0624 -0.8109
 4885SOL     OW17674   5.747   7.819   4.267 -0.3331  0.3322 -0.4042
 4885SOL    HW117675   5.727   7.906   4.233 -1.6162 -0.1309 -0.8621
 4885SOL    HW217676   5.662   7.785   4.296  0.1413 -0.8139 -0.3488
 4886SOL     OW17677   7.317   5.182   7.299  0.3426  0.1977 -0.2820
 4886SOL    HW117678   7.393   5.126   7.285  1.0222  1.0220  0.0660
 4886SOL    HW217679   7.243   5.122   7.304  1.2014 -0.7808  1.2339
 4887SOL     OW17680   1.107   5.607   2.946  0.3437  0.1669 -0.1032
 4887SOL    HW117681   1.196   5.574   2.957  0.3092  0.3606  0.8551
 4887SOL    HW217682   1.065   5.593   3.031 -1.0886 -1.5084 -1.0525
 4888SOL     OW17683   6.892   3.651   4.829 -0.2003  0.1946 -0.1532
 4888SOL    HW117684   6.804   3.623   4.850  0.0563 -0.7532 -0.3373
 4888SOL    HW217685   6.895   3.651   4.733 -0.2737  1.0885 -0.1607
 4889SOL     OW17686   4.273   5.047   2.772  0.6077 -0.6094  0.5812
 4889SOL    HW117687   4.267   5.071   2.680 -1.2639 -1.1987  0.5243
 4889SOL    HW217688   4.195   5.084   2.812  0.5393 -1.7799  1.5875
 4890SOL     OW17689   1.220   8.840   7.673 -0.2071 -0.1645  0.1103
 4890SOL    HW117690   1.279   8.794   7.733  0.2651  0.1113 -0.1337
 4890SOL    HW217691   1.279   8.882   7.610 -0.6189  0.8011  0.3558
 4891SOL     OW17692   4.709   4.991   1.404  0.1846  0.3152 -0.0874
 4891SOL    HW117693   4.786   4.942   1.375  0.5561  0.9131 -0.1287
 4891SOL    HW217694   4.743   5.050   1.472 -0.4040 -0.0317  0.5194
 4892SOL     OW17695   1.778   3.346   7.416  0.2485 -0.1024 -0.1869
 4892SOL    HW117696   1.787   3.329   7.509 -2.4983  0.8131  0.3045
 4892SOL    HW217697   1.684   3.341   7.400  0.4245  2.4145 -2.3620
 4893SOL     OW17698   7.653   3.694   4.101  0.1166 -0.1768  1.0893
 4893SOL    HW117699   7.563   3.727   4.102  0.3164  0.4713 -0.7364
 4893SOL    HW217700   7.650   3.615   4.155 -1.4620  0.0538  1.3656
 4894SOL     OW17701   0.616   7.503   3.621  0.7466 -0.3119  0.2553
 4894SOL    HW117702   0.595   7.416   3.654  3.9211 -1.0267  0.4946
 4894SOL    HW217703   0.707   7.518   3.647  0.1710  3.2039  0.4611
 4895SOL     OW17704   3.814   0.720   6.409 -0.0013 -0.3459  0.0962
 4895SOL    HW117705   3.742   0.722   6.346  0.0613  0.0143  0.0383
 4895SOL    HW217706   3.860   0.639   6.389  0.2568 -0.0335 -0.5868
 4896SOL     OW17707   0.424   6.823   3.207  0.1469  0.3979  0.2007
 4896SOL    HW117708   0.384   6.910   3.199 -0.9277 -0.1361 -0.3317
 4896SOL    HW217709   0.437   6.811   3.301 -1.3883  0.3883  0.4275
 4897SOL     OW17710   6.300   5.471   1.640 -0.4411  0.0144 -0.0327
 4897SOL    HW117711   6.361   5.399   1.657  0.3593  0.6453 -0.2026
 4897SOL    HW217712   6.324   5.538   1.704 -2.4938 -0.6392  1.4488
 4898SOL     OW17713   1.705   7.851   3.878  0.7075  0.1337 -0.0819
 4898SOL    HW117714   1.784   7.831   3.829  0.7847  0.5771 -0.1425
 4898SOL    HW217715   1.730   7.842   3.970  1.0347  1.0116 -0.0802
 4899SOL     OW17716   6.262   4.425   4.959  0.2809 -0.3428 -0.3953
 4899SOL    HW117717   6.179   4.381   4.975  0.9820 -1.2414  0.8578
 4899SOL    HW217718   6.274   4.420   4.864 -0.3508 -1.5863 -0.4193
 4900SOL     OW17719   0.015   5.104   2.007  0.5523 -0.4277 -0.1806
 4900SOL    HW117720   0.002   5.017   1.971 -0.3542 -1.7637  3.1045
 4900SOL    HW217721   0.108   5.108   2.029  0.2306 -1.3988  1.4957
 4901SOL     OW17722   0.148   2.505   7.088  0.0454  0.0054  0.0845
 4901SOL    HW117723   0.156   2.583   7.033  0.5867 -0.2185 -0.1543
 4901SOL    HW217724   0.055   2.503   7.113  0.2498  1.3140  0.9639
 4902SOL     OW17725   0.191   5.470   7.550  0.1803 -0.2334  0.2293
 4902SOL    HW117726   0.107   5.489   7.510  0.0710 -0.9119  0.1303
 4902SOL    HW217727   0.246   5.544   7.527  0.4239 -1.0855 -2.0792
 4903SOL     OW17728   6.390   6.169   6.782 -0.4558  0.8987 -0.3912
 4903SOL    HW117729   6.443   6.219   6.720 -0.3303  1.3883  0.1012
 4903SOL    HW217730   6.432   6.183   6.867 -0.1493 -0.4161 -0.3072
 4904SOL     OW17731   6.691   0.182   3.392 -0.1505  0.3075  0.0447
 4904SOL    HW117732   6.740   0.106   3.361 -1.0972 -0.5174  0.5453
 4904SOL    HW217733   6.646   0.214   3.314 -0.6396 -0.3219  0.0681
 4905SOL     OW17734   7.554   1.617   2.474  0.0458  0.0746  0.6882
 4905SOL    HW117735   7.614   1.676   2.520  0.6289  0.5918 -0.7261
 4905SOL    HW217736   7.473   1.620   2.526  0.7156  0.5936  1.7168
 4906SOL     OW17737   8.670   5.015   4.859 -1.0119 -0.1322 -0.4403
 4906SOL    HW117738   8.587   5.054   4.885 -1.1256 -1.4388  1.2013
 4906SOL    HW217739   8.689   4.950   4.926  0.5231 -1.0148 -1.6796
 4907SOL     OW17740   0.531   2.829   2.626  0.2498  0.0409  0.2249
 4907SOL    HW117741   0.536   2.736   2.650  0.1683 -0.2918 -1.0391
 4907SOL    HW217742   0.621   2.861   2.635  0.7504 -0.7691 -1.7577
 4908SOL     OW17743   0.348   0.564   1.883 -0.0671 -0.2791 -0.1368
 4908SOL    HW117744   0.405   0.628   1.839  0.1926 -0.5341 -0.1745
 4908SOL    HW217745   0.408   0.513   1.938 -0.2969 -0.3855  0.0127
 4909SOL     OW17746   2.944   5.333   3.803  0.4896  0.5862 -0.2875
 4909SOL    HW117747   2.913   5.243   3.795  0.2394  0.5574  0.9012
 4909SOL    HW217748   2.962   5.344   3.896 -0.6476  2.1338 -0.2284
 4910SOL     OW17749   8.802   9.143   0.897  0.8209  0.9907  0.0170
 4910SOL    HW117750   8.795   9.234   0.928 -0.5944  0.8847  0.0274
 4910SOL    HW217751   8.777   9.147   0.805 -1.2221  0.3028  0.5315
 4911SOL     OW17752   5.233   7.342   2.852 -0.2910 -0.2277  0.0969
 4911SOL    HW117753   5.314   7.348   2.802 -0.4285 -1.0633 -0.2503
 4911SOL    HW217754   5.232   7.419   2.908  0.7295 -0.2037  0.0836
 4912SOL     OW17755   9.353   6.235   5.451  0.7667  0.3813 -0.3280
 4912SOL    HW117756   9.348   6.313   5.396  0.1999 -0.2847 -1.2267
 4912SOL    HW217757   9.313   6.261   5.534  0.1848  0.9089 -0.7726
 4913SOL     OW17758   8.512   1.911   7.265 -0.1005  0.1086 -0.2311
 4913SOL    HW117759   8.428   1.954   7.248 -0.5708 -1.0739 -1.0096
 4913SOL    HW217760   8.554   1.908   7.179  1.1072  1.4658  0.3149
 4914SOL     OW17761   1.467   5.964   1.946 -0.0842 -0.0447  0.1285
 4914SOL    HW117762   1.546   5.999   1.988 -0.0810 -0.1633  0.2214
 4914SOL    HW217763   1.501   5.904   1.879 -0.1150 -1.1352  1.0742
 4915SOL     OW17764   8.129   7.877   5.109  0.0595 -0.2184 -0.0393
 4915SOL    HW117765   8.223   7.895   5.121  0.1632 -0.0850 -0.9919
 4915SOL    HW217766   8.100   7.944   5.047 -0.8186  0.1487  0.7639
 4916SOL     OW17767   6.975   0.914   4.301 -0.6286  0.1271 -0.4492
 4916SOL    HW117768   6.944   0.921   4.392  0.0122  1.5494 -0.3158
 4916SOL    HW217769   6.958   0.823   4.277 -1.2102 -0.1595  0.9538
 4917SOL     OW17770   2.941   0.507   8.232  0.6952  0.3371  0.6344
 4917SOL    HW117771   2.945   0.530   8.325  1.7884 -0.4399  0.7834
 4917SOL    HW217772   2.952   0.412   8.230  0.7048  0.3534 -0.2861
 4918SOL     OW17773   3.116   6.077   2.098  0.2549 -0.0483 -0.0241
 4918SOL    HW117774   3.117   6.019   2.175  2.4597  1.0387  0.8179
 4918SOL    HW217775   3.133   6.018   2.024  0.4392 -0.7804  0.5854
 4919SOL     OW17776   6.809   3.330   6.141  0.1134 -0.5941  0.0732
 4919SOL    HW117777   6.738   3.379   6.182 -0.2856 -0.9072 -0.2453
 4919SOL    HW217778   6.766   3.263   6.088  0.6300 -0.4162 -0.5869
 4920SOL     OW17779   2.062   2.767   0.387  0.1734  0.2677  0.1549
 4920SOL    HW117780   2.110   2.850   0.384 -0.7351  0.8009 -0.1713
 4920SOL    HW217781   1.988   2.785   0.445 -0.2943 -0.1647 -0.3021
 4921SOL     OW17782   6.299   5.518   4.670 -0.0829 -0.3220 -0.0315
 4921SOL    HW117783   6.287   5.445   4.608  1.5801 -1.5708  1.0813
 4921SOL    HW217784   6.379   5.561   4.641  0.4291 -0.6053  0.9403
 4922SOL     OW17785   8.236   7.799   6.037 -0.2434 -0.1678  0.6992
 4922SOL    HW117786   8.300   7.855   6.081  0.6230 -0.2779 -0.4042
 4922SOL    HW217787   8.174   7.776   6.106  0.2971  0.8190  1.5423
 4923SOL     OW17788   7.934   2.280   6.032  0.6275  0.0744 -0.4829
 4923SOL    HW117789   7.891   2.249   6.112 -0.0302  2.0240 -0.0597
 4923SOL    HW217790   8.026   2.284   6.054  0.5306 -0.0814 -0.0518
 4924SOL     OW17791   2.938   0.751   7.604 -0.0531  0.0900  0.3546
 4924SOL    HW117792   2.983   0.759   7.520 -1.4292  1.4975 -0.2721
 4924SOL    HW217793   2.904   0.838   7.621 -1.4026 -0.6414  1.4546
 4925SOL     OW17794   7.434   8.588   3.702  0.1568  0.4301  0.1806
 4925SOL    HW117795   7.460   8.671   3.742  1.4606  0.4779 -0.7525
 4925SOL    HW217796   7.398   8.613   3.617  1.1925 -0.0128 -0.3915
 4926SOL     OW17797   5.208   8.605   3.936 -0.1492 -0.3111 -0.2975
 4926SOL    HW117798   5.217   8.626   3.843  3.0765  0.6054  0.1680
 4926SOL    HW217799   5.173   8.685   3.975 -1.5406 -0.7078 -0.7063
 4927SOL     OW17800   5.182   1.986   2.679  0.0029 -0.0656 -0.4548
 4927SOL    HW117801   5.243   1.930   2.727 -0.5728 -2.1529 -2.0799
 4927SOL    HW217802   5.112   2.005   2.741  0.2492 -1.1073  0.1428
 4928SOL     OW17803   3.222   5.060   2.793 -0.0809  0.1641  0.1620
 4928SOL    HW117804   3.170   4.988   2.830 -0.4574  0.1814 -0.3243
 4928SOL    HW217805   3.161   5.134   2.792 -0.6456 -0.2958 -2.1557
 4929SOL     OW17806   1.182   7.644   5.406  0.0925  0.4761  0.0678
 4929SOL    HW117807   1.169   7.615   5.496  2.6416 -0.4767  0.1447
 4929SOL    HW217808   1.102   7.616   5.360 -1.8456  2.1799  2.2656
 4930SOL     OW17809   0.293   0.946   8.151 -0.1566  0.3109 -0.5028
 4930SOL    HW117810   0.255   1.012   8.209  0.9751  0.5504 -0.0182
 4930SOL    HW217811   0.369   0.990   8.112  1.2694 -1.0723  0.6834
 4931SOL     OW17812   3.339   1.250   3.968  0.5088  0.0163 -0.6879
 4931SOL    HW117813   3.403   1.256   4.039  1.4259  0.8708 -1.5903
 4931SOL    HW217814   3.331   1.156   3.952  0.8912 -0.1398  0.0139
 4932SOL     OW17815   5.929   0.524   8.984 -0.3799  0.1071  0.9818
 4932SOL    HW117816   5.866   0.456   9.005 -0.2945 -0.5784 -0.8989
 4932SOL    HW217817   5.890   0.605   9.016 -1.8997 -0.4089  0.4360
 4933SOL     OW17818   8.060   3.165   8.970  0.4633  0.1270 -0.1620
 4933SOL    HW117819   7.971   3.151   8.936  0.5480 -0.6677 -0.0708
 4933SOL    HW217820   8.116   3.165   8.893  0.2313  2.0955 -0.3668
 4934SOL     OW17821   7.459   1.086   5.029  0.0820  0.1204 -0.1853
 4934SOL    HW117822   7.444   1.086   4.934  0.1435  1.1303 -0.1979
 4934SOL    HW217823   7.406   1.013   5.061 -2.3309  1.5939 -0.6397
 4935SOL     OW17824   1.182   2.074   1.832  0.4897  0.6498 -0.0123
 4935SOL    HW117825   1.239   2.096   1.759  2.1308  2.2122  1.6702
 4935SOL    HW217826   1.236   2.019   1.889  0.2089  1.7379  1.3559
 4936SOL     OW17827   6.599   4.672   8.702  0.0165 -0.4296  0.1345
 4936SOL    HW117828   6.663   4.704   8.766 -0.6021  0.8352  0.1435
 4936SOL    HW217829   6.536   4.744   8.694  0.1043 -0.5613 -1.9306
 4937SOL     OW17830   4.958   7.664   4.274 -0.4905  0.6513 -0.1949
 4937SOL    HW117831   4.865   7.639   4.272 -0.1809 -0.4193 -2.2572
 4937SOL    HW217832   4.980   7.683   4.183  1.8858 -1.2124 -0.0537
 4938SOL     OW17833   2.169   8.726   2.863 -0.2565 -0.2133 -0.1844
 4938SOL    HW117834   2.244   8.702   2.917 -0.8192 -0.3232  0.5667
 4938SOL    HW217835   2.201   8.797   2.807  0.3063 -0.0171  0.3799
 4939SOL     OW17836   0.683   8.402   7.790  0.0454 -0.2654 -0.2319
 4939SOL    HW117837   0.696   8.319   7.836 -0.5400  0.5983  1.5735
 4939SOL    HW217838   0.622   8.450   7.846  0.9241  1.6550 -0.8911
 4940SOL     OW17839   0.322   5.252   1.447 -0.4711 -0.3922  0.1566
 4940SOL    HW117840   0.306   5.249   1.541 -0.2222  0.6565  0.2398
 4940SOL    HW217841   0.412   5.223   1.437  0.0590  1.1199  0.4098
 4941SOL     OW17842   7.413   7.799   5.085  0.1632  0.3643 -0.1920
 4941SOL    HW117843   7.369   7.727   5.040 -1.6068  0.0351  1.9739
 4941SOL    HW217844   7.392   7.877   5.032  0.0717 -0.3504 -1.2190
 4942SOL     OW17845   0.506   3.035   6.977  0.6474  0.5504 -0.0983
 4942SOL    HW117846   0.535   2.947   6.952 -0.4067  0.1750 -0.0173
 4942SOL    HW217847   0.495   3.030   7.072 -1.2345  0.2237 -0.3209
 4943SOL     OW17848   7.576   2.252   5.811 -0.1937 -0.2177  0.0358
 4943SOL    HW117849   7.652   2.275   5.865  0.8313 -1.6652 -0.7403
 4943SOL    HW217850   7.501   2.259   5.870  0.7971 -0.8717  1.3995
 4944SOL     OW17851   7.946   2.821   8.583  0.0968 -0.7747 -0.1694
 4944SOL    HW117852   8.015   2.758   8.561  1.2131 -0.6929  2.8775
 4944SOL    HW217853   7.870   2.767   8.606  0.5208 -0.9763  0.7686
 4945SOL     OW17854   6.716   5.845   8.928  0.1112 -0.0757 -0.4401
 4945SOL    HW117855   6.802   5.888   8.931 -0.8887  1.8384  1.4110
 4945SOL    HW217856   6.689   5.838   9.019 -2.2219  0.3865 -1.0718
 4946SOL     OW17857   9.079   3.024   4.214  0.1914  0.2481 -0.2889
 4946SOL    HW117858   8.999   2.972   4.214 -0.5926  1.4408 -0.5813
 4946SOL    HW217859   9.049   3.115   4.216  1.5500  0.6939  1.3462
 4947SOL     OW17860   5.261   1.123   7.325 -0.2428 -0.3463  0.0003
 4947SOL    HW117861   5.191   1.151   7.384  0.0354  0.2604  0.0438
 4947SOL    HW217862   5.333   1.099   7.383 -0.9410 -2.4367  0.0191
 4948SOL     OW17863   3.163   2.189   8.564  0.0356  0.4737  0.2634
 4948SOL    HW117864   3.125   2.105   8.537 -0.0189  0.3647  0.6838
 4948SOL    HW217865   3.122   2.208   8.648  0.2582  0.7851  0.3004
 4949SOL     OW17866   3.150   5.058   0.522 -0.3418 -0.0690  0.6450
 4949SOL    HW117867   3.148   5.015   0.607  1.7022 -0.2940  0.6021
 4949SOL    HW217868   3.234   5.033   0.484 -0.7863  0.8533 -1.0080
 4950SOL     OW17869   0.949   5.510   8.615 -0.7422 -0.4536  0.0318
 4950SOL    HW117870   0.970   5.567   8.542  1.7190 -1.2568  0.0669
 4950SOL    HW217871   0.920   5.569   8.684 -1.1844  0.4794 -0.9436
 4951SOL     OW17872   4.809   5.635   2.784 -0.1764  0.3576 -0.3832
 4951SOL    HW117873   4.886   5.585   2.759  0.2402  1.0779 -0.5574
 4951SOL    HW217874   4.789   5.606   2.873 -0.0267 -0.2184 -0.5376
 4952SOL     OW17875   5.504   0.589   4.616  0.9363 -0.5404 -0.3349
 4952SOL    HW117876   5.542   0.506   4.643 -2.3229 -2.1984 -0.5457
 4952SOL    HW217877   5.474   0.630   4.697  1.3636 -0.1578 -0.3649
 4953SOL     OW17878   7.937   3.779   4.143 -0.1509  0.1819 -0.2323
 4953SOL    HW117879   7.941   3.855   4.200  0.2127  0.2247 -0.3149
 4953SOL    HW217880   7.845   3.771   4.120 -0.6014 -0.9271  1.8242
 4954SOL     OW17881   0.965   0.579   0.072  0.0350 -0.0796  0.7013
 4954SOL    HW117882   0.879   0.596   0.033  0.4823  0.0362 -0.2447
 4954SOL    HW217883   1.017   0.656   0.050  0.7575 -0.7186  0.1688
 4955SOL     OW17884   9.186   0.801   0.895  0.1779  0.1253  0.2985
 4955SOL    HW117885   9.180   0.780   0.988  0.2320  0.7283  0.4389
 4955SOL    HW217886   9.110   0.757   0.856  2.1248 -3.1671  0.0532
 4956SOL     OW17887   3.146   0.165   3.697 -0.7094 -0.6112 -0.4148
 4956SOL    HW117888   3.122   0.075   3.717  0.3613 -0.4821  1.5959
 4956SOL    HW217889   3.094   0.218   3.757  1.0450 -0.0794  0.6570
 4957SOL     OW17890   3.322   6.240   2.009  0.0528  0.7554  0.0861
 4957SOL    HW117891   3.313   6.302   1.937  1.2608  0.8211 -0.0253
 4957SOL    HW217892   3.236   6.199   2.017  0.0769  0.3080 -1.7879
 4958SOL     OW17893   7.926   6.027   4.622  0.3700  0.6154 -0.3092
 4958SOL    HW117894   7.837   6.007   4.648  0.4504 -1.9647 -1.7649
 4958SOL    HW217895   7.918   6.063   4.534  0.7583  0.0187 -0.5990
 4959SOL     OW17896   8.279   8.129   6.649  0.5102  0.2865 -0.6391
 4959SOL    HW117897   8.244   8.041   6.668 -1.1701  1.0379 -0.0997
 4959SOL    HW217898   8.265   8.139   6.555 -3.1537  1.5250 -0.0575
 4960SOL     OW17899   4.204   5.318   4.213  0.0161 -0.4714 -0.1971
 4960SOL    HW117900   4.209   5.372   4.292  0.0593 -1.9154  0.7976
 4960SOL    HW217901   4.292   5.283   4.201 -0.3475 -1.4635 -0.0192
 4961SOL     OW17902   3.960   3.647   9.274 -0.1620  0.0123 -0.1913
 4961SOL    HW117903   3.895   3.627   9.207 -0.3043 -0.6419  0.1440
 4961SOL    HW217904   4.020   3.573   9.272  1.1993  1.1116 -1.2502
 4962SOL     OW17905   1.981   3.850   7.335  0.1535 -0.0374  0.4263
 4962SOL    HW117906   2.013   3.779   7.278 -0.1334 -0.4837  0.8140
 4962SOL    HW217907   2.054   3.912   7.339  0.7821 -0.7906  0.8675
 4963SOL     OW17908   6.752   7.956   0.663  0.3499  0.0006 -0.0223
 4963SOL    HW117909   6.814   7.946   0.590  1.0695 -0.3163  0.6198
 4963SOL    HW217910   6.762   8.047   0.691 -0.9940  0.5491 -1.2518
 4964SOL     OW17911   7.014   2.510   3.046  0.7248  0.2110  0.3040
 4964SOL    HW117912   6.989   2.431   2.999 -2.0638  1.2614 -0.0267
 4964SOL    HW217913   7.024   2.482   3.137  0.3144 -0.6294  0.0885
 4965SOL     OW17914   5.185   9.390   4.002 -0.2834  0.0525 -0.4504
 4965SOL    HW117915   5.239   9.372   3.926  0.4330 -1.1920  0.3354
 4965SOL    HW217916   5.129   9.313   4.010 -0.8549  0.4974 -0.1420
 4966SOL     OW17917   2.370   3.298   3.226 -0.2643 -0.2643  0.5499
 4966SOL    HW117918   2.359   3.207   3.199 -1.8476  0.1016 -0.1065
 4966SOL    HW217919   2.382   3.346   3.144 -0.2176  0.2168  0.8384
 4967SOL     OW17920   8.125   2.770   4.746 -0.1471  0.2450  0.0201
 4967SOL    HW117921   8.094   2.697   4.799  0.5286  0.2488  0.4284
 4967SOL    HW217922   8.086   2.848   4.786 -0.7009  0.1261 -0.2898
 4968SOL     OW17923   0.931   7.158   7.116  0.0801  0.0970 -0.3234
 4968SOL    HW117924   0.913   7.190   7.027  1.0419 -0.4309 -0.7077
 4968SOL    HW217925   0.860   7.096   7.133  0.0108  0.0333 -0.8135
 4969SOL     OW17926   6.451   9.153   9.279  0.1620  0.0739 -0.0320
 4969SOL    HW117927   6.480   9.167   9.189 -1.2719 -1.5775 -0.7672
 4969SOL    HW217928   6.411   9.066   9.279 -2.9027  1.3974  1.3969
 4970SOL     OW17929   2.749   7.416   3.968  0.1172 -0.0265 -0.0442
 4970SOL    HW117930   2.659   7.386   3.975  0.2195 -0.4491 -0.5550
 4970SOL    HW217931   2.768   7.455   4.054 -0.6598  0.3835 -0.0563
 4971SOL     OW17932   7.692   0.094   2.866  0.4424  0.0289 -0.0746
 4971SOL    HW117933   7.632   0.150   2.916  2.2024  1.7955  0.1368
 4971SOL    HW217934   7.647   0.079   2.783 -0.7584  0.4113  0.4949
 4972SOL     OW17935   8.648   6.803   0.266  0.5483  0.0240 -0.3644
 4972SOL    HW117936   8.645   6.709   0.248 -0.1692  0.2361 -1.4205
 4972SOL    HW217937   8.663   6.843   0.181  0.6517  0.8775  0.0538
 4973SOL     OW17938   1.051   2.445   5.884 -0.1994  0.0621  0.0700
 4973SOL    HW117939   0.969   2.443   5.933 -0.1072 -0.2024  0.2214
 4973SOL    HW217940   1.050   2.364   5.833  0.0515 -0.0344  0.2171
 4974SOL     OW17941   1.169   7.921   4.676 -0.2100  0.8275 -0.0629
 4974SOL    HW117942   1.109   7.974   4.624 -1.2327  0.4318  0.6987
 4974SOL    HW217943   1.205   7.981   4.741 -1.4656  0.5741  0.8816
 4975SOL     OW17944   2.289   8.351   6.794  0.6333 -0.4070  0.3436
 4975SOL    HW117945   2.359   8.287   6.778 -0.6235 -1.6332 -0.3966
 4975SOL    HW217946   2.209   8.300   6.787 -0.2477 -0.0855  6.1250
 4976SOL     OW17947   1.941   6.768   2.143 -0.6203 -0.3765 -0.0310
 4976SOL    HW117948   1.969   6.680   2.166  1.3994 -0.3836 -2.3433
 4976SOL    HW217949   1.890   6.757   2.063 -0.1098  0.5833 -0.4957
 4977SOL     OW17950   7.702   5.247   2.448  0.2968 -0.1776 -0.7204
 4977SOL    HW117951   7.743   5.290   2.373  1.4038 -0.0581 -0.0568
 4977SOL    HW217952   7.775   5.215   2.500 -0.5082 -2.2341 -0.8330
 4978SOL     OW17953   8.656   8.288   6.731  0.1370  0.6364 -0.4956
 4978SOL    HW117954   8.722   8.257   6.793 -1.2321  0.3236  0.8110
 4978SOL    HW217955   8.683   8.378   6.711  1.0255  0.4737 -0.0714
 4979SOL     OW17956   2.158   0.878   1.950  0.0341  0.1876 -1.0682
 4979SOL    HW117957   2.234   0.840   1.996 -0.7036 -1.8406 -1.4977
 4979SOL    HW217958   2.189   0.892   1.861  0.4339  1.0181 -0.8083
 4980SOL     OW17959   4.332   5.366   3.171  0.4053 -0.3249 -0.1496
 4980SOL    HW117960   4.365   5.302   3.108  1.1841 -0.7270  0.6430
 4980SOL    HW217961   4.239   5.374   3.151  0.0931 -2.4083  0.3132
 4981SOL     OW17962   7.963   9.398   9.382  0.5950 -0.0718  0.7029
 4981SOL    HW117963   7.944   9.398   9.476 -1.7758  2.1510  0.2791
 4981SOL    HW217964   7.879   9.378   9.341  1.2609  0.5717 -0.9803
 4982SOL     OW17965   4.326   2.017   2.003 -0.3852  0.5689 -0.2848
 4982SOL    HW117966   4.251   1.977   1.958 -0.5710 -0.2405  0.7228
 4982SOL    HW217967   4.292   2.041   2.089  0.5292  0.1401  0.1964
 4983SOL     OW17968   2.034   8.852   0.743  0.4922 -0.2788 -0.2150
 4983SOL    HW117969   2.098   8.917   0.713  0.0604 -0.0871 -0.7454
 4983SOL    HW217970   1.957   8.869   0.689 -0.5096  0.4511  1.4414
 4984SOL     OW17971   5.105   9.372   5.829 -0.5776 -0.3798 -0.5592
 4984SOL    HW117972   5.068   9.365   5.741 -0.1175  1.5698 -0.9331
 4984SOL    HW217973   5.131   9.464   5.837  2.5472 -1.2728  0.3542
 4985SOL     OW17974   1.697   7.617   6.873 -0.2933 -0.0847  0.0066
 4985SOL    HW117975   1.725   7.536   6.830 -1.4638 -0.7212  0.4206
 4985SOL    HW217976   1.640   7.660   6.809  2.5108  1.8068 -1.3179
 4986SOL     OW17977   1.390   1.991   2.401 -0.2527 -0.1413 -0.3410
 4986SOL    HW117978   1.325   2.006   2.333 -0.3483  0.2236 -0.1714
 4986SOL    HW217979   1.403   1.896   2.401  2.2673  0.1395 -3.1736
 4987SOL     OW17980   3.252   2.498   7.206 -0.3895 -0.3367 -0.0182
 4987SOL    HW117981   3.337   2.538   7.186 -0.6448 -0.4810 -1.4159
 4987SOL    HW217982   3.271   2.439   7.279  1.0148 -1.4419 -1.2283
 4988SOL     OW17983   2.488   3.117   2.139 -0.6264  0.1349 -0.3610
 4988SOL    HW117984   2.512   3.028   2.115 -1.5612  0.0480 -1.0321
 4988SOL    HW217985   2.556   3.172   2.100 -0.4490 -0.2379 -0.5779
 4989SOL     OW17986   2.228   7.727   3.534 -0.5501  0.1712  0.6040
 4989SOL    HW117987   2.144   7.738   3.490 -0.0784 -1.1926 -0.7033
 4989SOL    HW217988   2.239   7.632   3.541  2.4235  0.1872 -2.3911
 4990SOL     OW17989   1.176   0.321   0.865  0.0447  0.2177 -0.4987
 4990SOL    HW117990   1.161   0.311   0.959 -0.5734  1.4517 -0.4544
 4990SOL    HW217991   1.112   0.387   0.838  0.2107 -0.1433 -1.7915
 4991SOL     OW17992   5.684   7.782   3.570  0.4639  0.0484 -0.0734
 4991SOL    HW117993   5.670   7.822   3.484  2.9238  0.1493 -0.4629
 4991SOL    HW217994   5.621   7.710   3.573 -1.1540  1.4034 -1.0523
 4992SOL     OW17995   2.674   6.762   1.474 -0.0031  0.0876  0.1710
 4992SOL    HW117996   2.587   6.746   1.436 -0.4298  3.2789 -0.3488
 4992SOL    HW217997   2.658   6.826   1.543  1.5231 -1.8678  2.4131
 4993SOL     OW17998   0.017   5.888   3.838  0.1554 -0.4552  0.6720
 4993SOL    HW117999  -0.031   5.933   3.768 -1.2840 -2.4429  0.3390
 4993SOL    HW218000   0.097   5.856   3.796 -0.2959 -0.8948  0.1457
 4994SOL     OW18001   4.770   5.229   5.438 -0.2871 -0.0118 -0.1109
 4994SOL    HW118002   4.726   5.265   5.360  2.0991  0.2413 -1.4072
 4994SOL    HW218003   4.763   5.135   5.428 -1.0896  0.0312  0.0287
 4995SOL     OW18004   2.760   1.125   8.659  0.4292 -0.2352 -0.6092
 4995SOL    HW118005   2.751   1.117   8.564  0.2426  0.3172 -0.6368
 4995SOL    HW218006   2.670   1.117   8.692  0.8772 -4.6642 -0.1564
 4996SOL     OW18007   4.527   1.056   7.092  0.2131  0.9317  0.1785
 4996SOL    HW118008   4.458   1.113   7.059 -0.2825  0.0431 -0.3488
 4996SOL    HW218009   4.567   1.018   7.014 -0.7623 -0.9482  0.5615
 4997SOL     OW18010   2.323   2.185   9.231  0.0206  0.2681 -1.2201
 4997SOL    HW118011   2.273   2.211   9.154 -1.3292 -0.1885 -0.5022
 4997SOL    HW218012   2.290   2.098   9.253  0.7715  0.1786 -0.4362
 4998SOL     OW18013   8.070   1.989   8.868 -0.1082 -0.1318 -1.0689
 4998SOL    HW118014   8.138   2.057   8.878 -1.2290  0.6703  1.3331
 4998SOL    HW218015   7.989   2.038   8.856 -0.7880 -1.0754 -0.3542
 4999SOL     OW18016   2.614   8.062   9.221  0.0696  0.3780  0.1486
 4999SOL    HW118017   2.649   8.150   9.218  0.9094  0.0163 -0.8696
 4999SOL    HW218018   2.611   8.033   9.130 -0.8513 -0.3966  0.4054
 5000SOL     OW18019   8.916   3.901   9.410 -0.3493 -0.3633 -0.1835
 5000SOL    HW118020   8.842   3.845   9.386  0.3262 -1.2727 -0.1741
 5000SOL    HW218021   8.887   3.990   9.389 -0.6860 -0.9078 -2.0958
 5001SOL     OW18022   2.302   6.762   0.193  0.6006  0.2721  0.1811
 5001SOL    HW118023   2.300   6.816   0.114 -0.4075 -1.1428 -0.7751
 5001SOL    HW218024   2.390   6.724   0.193  0.9471  1.0639  0.2853
 5002SOL     OW18025   1.024   8.366   6.561 -0.2463 -0.3923  0.3243
 5002SOL    HW118026   1.112   8.396   6.582  0.5929 -4.3150  2.9232
 5002SOL    HW218027   0.971   8.391   6.636 -0.6487 -0.7926  0.1778
 5003SOL     OW18028   3.037   7.983   3.820 -0.4392 -0.1874  0.1049
 5003SOL    HW118029   2.968   7.949   3.877 -0.7465  0.1966 -0.0408
 5003SOL    HW218030   2.993   8.001   3.737 -0.0642 -0.4036 -0.1440
 5004SOL     OW18031   3.039   4.206   4.691  0.1335 -0.3470  0.0628
 5004SOL    HW118032   3.119   4.234   4.736  0.2869 -0.1410 -0.3246
 5004SOL    HW218033   2.968   4.245   4.741  0.2586 -0.8621  0.6392
 5005SOL     OW18034   0.769   0.559   4.224  0.1701  0.3340  0.3386
 5005SOL    HW118035   0.799   0.584   4.136  1.2317 -1.9300  0.0251
 5005SOL    HW218036   0.752   0.643   4.268  0.9998  1.5276 -1.5513
 5006SOL     OW18037   6.840   4.812   4.466 -0.1805 -0.3031 -0.1951
 5006SOL    HW118038   6.764   4.782   4.516  0.2480 -0.6202  0.2707
 5006SOL    HW218039   6.868   4.892   4.511  2.4378 -2.5399  2.3472
 5007SOL     OW18040   8.468   0.694   5.637  0.2736  0.0127  0.5304
 5007SOL    HW118041   8.546   0.639   5.637  1.3094  1.4501  0.8905
 5007SOL    HW218042   8.395   0.632   5.632  1.3470 -1.4825  2.5208
 5008SOL     OW18043   4.607   1.270   9.280 -0.1988 -0.1481  0.0081
 5008SOL    HW118044   4.677   1.241   9.223  0.9189 -1.0762  1.8205
 5008SOL    HW218045   4.650   1.323   9.347 -1.7257  2.5673 -1.0455
 5009SOL     OW18046   8.245   2.107   2.177 -0.2064  0.3847  0.6953
 5009SOL    HW118047   8.293   2.168   2.121  2.4690  0.7522  3.2539
 5009SOL    HW218048   8.170   2.157   2.209  0.1424  1.2351  0.1835
 5010SOL     OW18049   4.623   3.340   8.013  0.1755  0.1652  0.0733
 5010SOL    HW118050   4.588   3.293   7.937  1.5811  1.4080 -1.3798
 5010SOL    HW218051   4.660   3.271   8.068 -1.2549 -0.7959 -0.1536
 5011SOL     OW18052   7.303   1.624   2.631 -0.2634  0.0279  0.8068
 5011SOL    HW118053   7.209   1.643   2.637 -0.0131  1.2094  1.2714
 5011SOL    HW218054   7.314   1.543   2.680 -1.2273 -0.8239 -0.3324
 5012SOL     OW18055   3.355   8.827   0.326 -0.3819  0.7287  0.0211
 5012SOL    HW118056   3.284   8.771   0.357  2.9572 -2.5068  2.2470
 5012SOL    HW218057   3.363   8.806   0.233 -0.2147 -1.3723  0.4850
 5013SOL     OW18058   0.419   2.816   4.750  0.1007 -0.4798 -0.4175
 5013SOL    HW118059   0.420   2.805   4.845 -0.6525  1.0341 -0.2284
 5013SOL    HW218060   0.396   2.908   4.736 -0.3841 -0.8295 -2.0696
 5014SOL     OW18061   7.870   4.030   0.583  0.1458  0.0178  0.3966
 5014SOL    HW118062   7.845   4.025   0.491 -0.6267 -0.0763  0.6094
 5014SOL    HW218063   7.824   3.957   0.624 -0.0887  0.5029  0.9910
 5015SOL     OW18064   6.388   8.193   3.297 -0.3111 -0.4101 -0.0448
 5015SOL    HW118065   6.469   8.230   3.333 -0.1523 -0.5147 -0.3004
 5015SOL    HW218066   6.382   8.230   3.209  0.1036 -1.3851 -0.4890
 5016SOL     OW18067   3.582   7.302   0.685 -0.2613  0.0607  0.2376
 5016SOL    HW118068   3.487   7.300   0.693 -0.2062 -0.1053  0.9430
 5016SOL    HW218069   3.603   7.393   0.662 -0.4358  0.6918  2.4095
 5017SOL     OW18070   4.403   1.471   3.961 -0.2520  0.3751 -0.1989
 5017SOL    HW118071   4.467   1.404   3.936 -0.1248  0.4444 -0.0545
 5017SOL    HW218072   4.367   1.440   4.044 -0.8224  0.0424 -0.5667
 5018SOL     OW18073   3.335   1.087   3.605  0.1722  0.4072 -0.2407
 5018SOL    HW118074   3.263   1.129   3.652  1.0449  2.9748 -1.0744
 5018SOL    HW218075   3.297   1.059   3.522 -0.2905  0.0985  0.0776
 5019SOL     OW18076   3.219   8.874   5.704 -0.2635  0.1729 -0.5366
 5019SOL    HW118077   3.301   8.911   5.673 -0.7761 -0.1833 -2.4161
 5019SOL    HW218078   3.243   8.820   5.779  1.1061  0.6875 -0.5903
 5020SOL     OW18079   2.085   4.862   5.729 -0.6255 -0.2808  0.0922
 5020SOL    HW118080   2.013   4.845   5.668 -0.5897 -1.4996  0.3681
 5020SOL    HW218081   2.150   4.795   5.708 -0.7596 -0.9337  1.6620
 5021SOL     OW18082   7.792   1.073   4.826 -0.4369 -0.6112 -0.4886
 5021SOL    HW118083   7.846   0.998   4.799 -2.1630 -1.3126 -2.0727
 5021SOL    HW218084   7.703   1.047   4.804 -1.4715  0.4634  2.2793
 5022SOL     OW18085   5.116   1.879   2.123  0.4526  0.0565  0.2027
 5022SOL    HW118086   5.152   1.859   2.210 -0.9810  1.0456  1.0485
 5022SOL    HW218087   5.023   1.860   2.131  0.3313  0.0255 -1.1835
 5023SOL     OW18088   2.989   6.733   7.187  0.3935  0.1763  0.6590
 5023SOL    HW118089   2.985   6.669   7.258 -0.1612  1.7763  2.1161
 5023SOL    HW218090   2.940   6.694   7.115 -1.6298 -0.1936  2.2196
 5024SOL     OW18091   7.422   0.847   1.488 -0.3846  0.5786  0.5889
 5024SOL    HW118092   7.366   0.797   1.428  1.3228  0.5072 -0.9948
 5024SOL    HW218093   7.364   0.873   1.559 -2.5018  0.7436 -1.1424
 5025SOL     OW18094   6.799   5.872   6.337  0.4502 -0.0643  0.0684
 5025SOL    HW118095   6.785   5.946   6.395  0.2637  1.3335 -1.7298
 5025SOL    HW218096   6.811   5.911   6.250 -0.2339 -2.1522 -0.9970
 5026SOL     OW18097   8.843   0.534   3.163  0.0942  0.5905 -0.1189
 5026SOL    HW118098   8.851   0.534   3.258  0.0390  0.7561 -0.1123
 5026SOL    HW218099   8.749   0.525   3.147  0.1910 -0.3514 -0.1747
 5027SOL     OW18100   2.129   1.111   3.740 -0.6019  0.2041 -0.0002
 5027SOL    HW118101   2.189   1.043   3.709 -0.2139  0.4428  0.2176
 5027SOL    HW218102   2.071   1.128   3.665 -0.0962  0.3066 -0.3679
 5028SOL     OW18103   6.323   3.604   3.307  0.2833  0.0131  0.0540
 5028SOL    HW118104   6.339   3.682   3.361  0.9783  0.0978 -0.2674
 5028SOL    HW218105   6.294   3.538   3.369  0.1377  0.3946  0.3957
 5029SOL     OW18106   5.343   7.003   2.120  0.1836  0.2038  0.1565
 5029SOL    HW118107   5.373   6.928   2.069  2.3308 -0.6465  2.5215
 5029SOL    HW218108   5.418   7.062   2.122  0.6388 -0.3674  3.2917
 5030SOL     OW18109   7.621   4.289   3.775  0.1749 -0.0430  0.4419
 5030SOL    HW118110   7.622   4.194   3.768 -1.4675  0.0013 -0.7041
 5030SOL    HW218111   7.653   4.307   3.864 -0.9494 -1.7334  1.2133
 5031SOL     OW18112   7.496   6.220   2.814  1.1103  0.0169 -0.1648
 5031SOL    HW118113   7.518   6.208   2.907 -0.2870  0.8166  0.2797
 5031SOL    HW218114   7.409   6.182   2.805  1.0889  0.2604 -1.0863
 5032SOL     OW18115   6.676   9.046   2.790 -0.1751 -0.1910  0.0909
 5032SOL    HW118116   6.626   9.064   2.869  1.0807 -1.1412  1.1269
 5032SOL    HW218117   6.760   9.011   2.822  1.1403  1.3124 -1.5892
 5033SOL     OW18118   2.288   7.968   6.904 -0.7517 -0.0297  0.5453
 5033SOL    HW118119   2.212   8.026   6.895 -0.8326 -0.2323 -0.0835
 5033SOL    HW218120   2.268   7.894   6.847  0.0666  0.0669  0.1328
 5034SOL     OW18121   2.676   6.375   0.687  0.2322 -0.0823  0.0115
 5034SOL    HW118122   2.673   6.279   0.688  0.6758 -0.1188 -1.3287
 5034SOL    HW218123   2.720   6.397   0.604 -1.1504  1.3064 -0.3810
 5035SOL     OW18124   3.682   1.149   2.679  0.1615  0.6081  0.0226
 5035SOL    HW118125   3.662   1.186   2.765 -0.8582  0.5204 -0.1616
 5035SOL    HW218126   3.596   1.130   2.641  0.6335 -1.1272 -0.2382
 5036SOL     OW18127   9.139   0.450   4.332 -0.1201 -0.0323 -0.3919
 5036SOL    HW118128   9.174   0.434   4.420  2.1530 -1.9343 -1.6079
 5036SOL    HW218129   9.097   0.536   4.339  0.7890  0.2424  2.3247
 5037SOL     OW18130   1.120   7.350   1.957 -0.2474 -0.1454 -0.6421
 5037SOL    HW118131   1.097   7.325   1.868  0.0095  1.1805 -1.0964
 5037SOL    HW218132   1.085   7.280   2.012  0.5825 -1.5497 -1.8752
 5038SOL     OW18133   6.398   8.790   3.433 -0.0256  0.5464  0.4654
 5038SOL    HW118134   6.340   8.719   3.461 -0.4041  1.3833  1.8691
 5038SOL    HW218135   6.342   8.868   3.433  0.0295  0.6296 -2.4488
 5039SOL     OW18136   7.696   1.722   2.109  0.5823  0.3600 -0.2773
 5039SOL    HW118137   7.650   1.656   2.056 -1.0727 -0.0656  1.6160
 5039SOL    HW218138   7.777   1.678   2.137 -1.0833 -1.3932  1.9970
 5040SOL     OW18139   1.691   7.089   3.331 -0.0117  0.1583  0.3971
 5040SOL    HW118140   1.782   7.109   3.308 -0.0160 -1.5093 -1.2071
 5040SOL    HW218141   1.697   7.051   3.419  1.0420 -1.3758 -0.3109
 5041SOL     OW18142   5.206   5.485   3.699 -0.3635 -0.2510 -0.4461
 5041SOL    HW118143   5.264   5.524   3.634  0.0687 -0.7037 -0.3387
 5041SOL    HW218144   5.222   5.535   3.779 -0.3765 -0.1504 -0.5068
 5042SOL     OW18145   2.859   5.187   5.424  0.0887 -0.1818 -0.5681
 5042SOL    HW118146   2.791   5.241   5.463  0.1095 -1.1182  0.7907
 5042SOL    HW218147   2.930   5.247   5.406 -0.3537  0.4621 -0.1923
 5043SOL     OW18148   4.912   8.988   7.919 -0.0417 -0.6040 -0.0350
 5043SOL    HW118149   4.943   9.054   7.856 -0.5219  1.3347  1.6795
 5043SOL    HW218150   4.829   9.023   7.950 -0.3880 -2.1428  0.7780
 5044SOL     OW18151   5.793   3.888   4.202 -0.3132  0.0768  0.0422
 5044SOL    HW118152   5.714   3.841   4.173 -1.0711  1.1138  0.4053
 5044SOL    HW218153   5.792   3.879   4.297  0.3903 -0.4962  0.0019
 5045SOL     OW18154   6.338   1.415   9.016  0.1317  0.2061  0.1095
 5045SOL    HW118155   6.308   1.389   8.930  1.3852  0.2717 -0.3557
 5045SOL    HW218156   6.285   1.491   9.038 -0.3761  0.0235 -0.4895
 5046SOL     OW18157   5.501   1.757   1.979 -0.2357  0.0539 -0.2503
 5046SOL    HW118158   5.416   1.722   2.006 -0.0500  0.4049  0.8184
 5046SOL    HW218159   5.551   1.763   2.061  1.4410 -1.8344 -1.1036
 5047SOL     OW18160   7.708   4.289   9.146  0.3777 -0.1785  0.0923
 5047SOL    HW118161   7.683   4.284   9.054 -1.0339  0.1406  0.4573
 5047SOL    HW218162   7.800   4.317   9.144  0.0770  0.7733 -1.1915
 5048SOL     OW18163   0.353   2.941   1.496 -0.0862 -0.1373  0.6440
 5048SOL    HW118164   0.422   2.881   1.467  0.8818  1.7091 -1.0312
 5048SOL    HW218165   0.361   2.943   1.591  1.9417 -0.2549  0.4941
 5049SOL     OW18166   4.341   9.278   6.224  0.0784 -0.7716  0.2259
 5049SOL    HW118167   4.295   9.230   6.154  1.5519 -0.7437 -0.7871
 5049SOL    HW218168   4.311   9.369   6.214  1.1038 -0.5621 -1.0912
 5050SOL     OW18169   0.892   7.002   4.308 -0.2810  0.4471 -0.4500
 5050SOL    HW118170   0.933   6.943   4.245 -1.0324  1.5511 -2.0046
 5050SOL    HW218171   0.957   7.070   4.323 -0.5452  0.8124 -0.9415
 5051SOL     OW18172   7.046   4.898   5.710  0.1515 -0.0110  0.2564
 5051SOL    HW118173   6.967   4.858   5.674  1.3945 -2.3141  0.0113
 5051SOL    HW218174   7.013   4.962   5.774 -1.9071 -0.8094  0.0374
 5052SOL     OW18175   0.212   5.241   1.214  0.0353  0.2963  0.2868
 5052SOL    HW118176   0.235   5.264   1.304  2.6764  2.6973 -0.8950
 5052SOL    HW218177   0.279   5.177   1.188 -1.1172 -0.8987  0.2194
 5053SOL     OW18178   5.831   0.589   7.728  0.0344  0.0290 -0.7682
 5053SOL    HW118179   5.826   0.670   7.678 -0.1393  1.5277  1.6213
 5053SOL    HW218180   5.904   0.602   7.788  1.1319 -2.2904 -1.5169
 5054SOL     OW18181   8.870   7.199   8.794 -0.2381 -0.4121  0.2810
 5054SOL    HW118182   8.879   7.250   8.875 -0.4745 -0.8490  0.5866
 5054SOL    HW218183   8.784   7.158   8.802  0.1696 -1.2686  0.2726
 5055SOL     OW18184   0.944   0.370   5.979 -0.2758  0.4054  0.2912
 5055SOL    HW118185   0.916   0.390   6.068  0.6938  0.5738  0.5579
 5055SOL    HW218186   1.037   0.393   5.977  0.0684 -0.9881 -0.3457
 5056SOL     OW18187   4.197   8.924   8.456  0.0017  0.1801 -0.3264
 5056SOL    HW118188   4.281   8.921   8.410 -1.0374  0.3296 -2.3216
 5056SOL    HW218189   4.144   8.856   8.413 -0.2492 -1.3660  2.3003
 5057SOL     OW18190   8.844   3.425   6.971  0.3968  0.4358  0.4243
 5057SOL    HW118191   8.928   3.471   6.977  1.0439 -0.8299  1.2585
 5057SOL    HW218192   8.781   3.494   6.951  1.9418  1.0970 -2.4255
 5058SOL     OW18193   9.236   6.646   8.826  0.5849  0.3752 -0.1280
 5058SOL    HW118194   9.224   6.574   8.764 -0.3210  0.3903  0.0131
 5058SOL    HW218195   9.301   6.614   8.888 -0.7184 -0.8287  0.6618
 5059SOL     OW18196   1.939   7.675   2.520 -0.5161 -0.3997  0.4514
 5059SOL    HW118197   1.868   7.627   2.478 -0.5041  0.3625 -0.4648
 5059SOL    HW218198   1.980   7.725   2.449  1.0781 -0.9980  0.9121
 5060SOL     OW18199   5.606   2.638   3.352 -0.4227  0.1515 -0.0250
 5060SOL    HW118200   5.561   2.640   3.436 -2.2313 -0.4095 -0.9544
 5060SOL    HW218201   5.642   2.726   3.342 -0.5777  0.3515  1.1336
 5061SOL     OW18202   7.106   6.436   1.963 -0.0639 -0.0050  0.3994
 5061SOL    HW118203   7.086   6.412   1.872 -1.5626 -1.9901  1.2278
 5061SOL    HW218204   7.028   6.482   1.994  1.2453  2.5444  0.0891
 5062SOL     OW18205   6.003   6.255   4.153 -0.0986  0.3046  0.0176
 5062SOL    HW118206   6.078   6.231   4.207  0.4314 -0.4444 -1.0397
 5062SOL    HW218207   5.930   6.205   4.191  0.0716  0.5282  0.6392
 5063SOL     OW18208   3.988   2.970   1.243  0.5568  0.3160 -0.2239
 5063SOL    HW118209   3.951   2.949   1.157 -0.7886  0.5761  0.2770
 5063SOL    HW218210   3.948   3.054   1.266 -0.4547 -0.5761  1.4136
 5064SOL     OW18211   5.168   4.619   1.910 -0.5481  0.3036  0.1178
 5064SOL    HW118212   5.209   4.620   1.997  0.4453 -0.3082 -0.3337
 5064SOL    HW218213   5.101   4.688   1.914  1.0816  1.8938  0.6051
 5065SOL     OW18214   6.960   1.213   1.028 -0.1810 -0.9373 -0.7915
 5065SOL    HW118215   6.987   1.195   0.938 -0.2347  1.1059 -1.2413
 5065SOL    HW218216   6.865   1.199   1.027 -0.6858  2.0577 -1.8866
 5066SOL     OW18217   8.297   0.094   7.117  0.2443  0.0561 -0.1710
 5066SOL    HW118218   8.260   0.179   7.140 -1.3768 -0.2698 -1.4739
 5066SOL    HW218219   8.367   0.114   7.054 -0.1258  0.4449 -0.4626
 5067SOL     OW18220   1.573   2.095   5.791  0.5683 -0.0257  0.4007
 5067SOL    HW118221   1.499   2.039   5.817  1.2633 -1.3388 -0.3771
 5067SOL    HW218222   1.592   2.147   5.868 -0.5816 -0.3456  0.9122
 5068SOL     OW18223   4.403   5.602   0.781  0.3785 -0.0046 -0.6276
 5068SOL    HW118224   4.356   5.655   0.846 -1.0609  0.2636 -1.8559
 5068SOL    HW218225   4.476   5.657   0.755  0.6294  0.1274  0.3376
 5069SOL     OW18226   1.230   6.354   4.972 -0.3021 -0.2967 -0.3563
 5069SOL    HW118227   1.161   6.406   5.014  0.5016  1.7681 -1.4984
 5069SOL    HW218228   1.311   6.379   5.017  0.2147  0.0925 -1.4871
 5070SOL     OW18229   3.776   2.975   2.507 -0.3525  0.7252 -0.0796
 5070SOL    HW118230   3.798   2.886   2.535  0.4317  1.2314  0.9721
 5070SOL    HW218231   3.682   2.983   2.525 -0.4311  0.1085 -0.1962
 5071SOL     OW18232   4.722   4.644   1.438  0.1099 -0.4272 -0.4863
 5071SOL    HW118233   4.756   4.555   1.423  0.0384 -0.5151 -0.1301
 5071SOL    HW218234   4.709   4.680   1.351 -1.6806 -1.4492 -0.6496
 5072SOL     OW18235   1.364   8.575   5.102 -0.5957 -0.2797 -0.2142
 5072SOL    HW118236   1.386   8.649   5.158 -0.3090 -0.2321 -0.3847
 5072SOL    HW218237   1.395   8.601   5.015  1.6066 -1.5025  0.1487
 5073SOL     OW18238   6.489   2.153   0.515 -0.0409 -0.0786 -0.1941
 5073SOL    HW118239   6.505   2.066   0.550 -4.1092 -0.6185  0.5676
 5073SOL    HW218240   6.417   2.141   0.454 -0.5424  2.7054 -0.2032
 5074SOL     OW18241   0.329   3.782   9.242 -0.2096  0.4226  0.7691
 5074SOL    HW118242   0.294   3.813   9.326 -1.1685 -0.4752  0.7197
 5074SOL    HW218243   0.411   3.738   9.265  0.3365  1.5414  1.0313
 5075SOL     OW18244   5.684   1.834   2.806  0.2987  0.1999  0.3423
 5075SOL    HW118245   5.692   1.857   2.898  1.8923  0.1626  0.2267
 5075SOL    HW218246   5.661   1.916   2.762  0.6889  0.4546  0.6180
 5076SOL     OW18247   2.592   3.152   9.223  0.2688 -0.0413 -0.0603
 5076SOL    HW118248   2.619   3.176   9.312 -0.2870  0.2874  0.0234
 5076SOL    HW218249   2.529   3.220   9.198  0.5080 -0.0727 -0.7454
 5077SOL     OW18250   0.084   0.643   0.005 -0.0799  0.4346 -0.0304
 5077SOL    HW118251   0.105   0.642  -0.088  1.7643  4.5339  0.2454
 5077SOL    HW218252   0.147   0.582   0.044  1.5025  1.3978 -1.0382
 5078SOL     OW18253   1.751   1.580   7.249 -0.0338 -0.2937  0.2855
 5078SOL    HW118254   1.729   1.672   7.231 -1.4538 -0.8245 -0.7994
 5078SOL    HW218255   1.698   1.530   7.187  1.1529 -1.8353  0.4904
 5079SOL     OW18256   6.377   6.920   4.077  0.2973  0.2248  0.5298
 5079SOL    HW118257   6.361   6.936   4.170  0.9364 -0.1102  0.7022
 5079SOL    HW218258   6.462   6.877   4.075 -0.0525 -0.4307 -0.1594
 5080SOL     OW18259   1.007   6.887   8.216  0.0391  0.0714  0.0697
 5080SOL    HW118260   0.938   6.880   8.282  1.2973 -0.7429  1.3534
 5080SOL    HW218261   1.054   6.967   8.240 -0.1641  0.3637 -0.5070
 5081SOL     OW18262   1.375   6.959   4.389  0.3312  0.4626 -0.0198
 5081SOL    HW118263   1.396   6.980   4.298  0.0434  0.7643 -0.0201
 5081SOL    HW218264   1.280   6.946   4.389  0.3715  0.1808  0.1819
 5082SOL     OW18265   8.751   2.140   5.928 -0.0469  0.1573 -0.5545
 5082SOL    HW118266   8.743   2.235   5.925 -1.9983  0.0293 -0.0891
 5082SOL    HW218267   8.662   2.109   5.946  0.5283 -1.7616 -0.9130
 5083SOL     OW18268   3.964   9.312   4.500 -0.0894 -0.0625 -0.5077
 5083SOL    HW118269   3.924   9.318   4.414 -2.9679 -0.9580  0.6872
 5083SOL    HW218270   3.934   9.228   4.535  1.3015  0.1240  1.2456
 5084SOL     OW18271   0.767   8.479   7.321  0.6487 -0.1348  0.1340
 5084SOL    HW118272   0.826   8.546   7.358  2.4121 -1.3262 -0.4533
 5084SOL    HW218273   0.744   8.513   7.234  1.1480 -0.0430  0.0337
 5085SOL     OW18274   0.293   4.661   8.933  0.4399  0.1172 -0.2580
 5085SOL    HW118275   0.362   4.616   8.884  0.7166 -0.3950  0.6007
 5085SOL    HW218276   0.339   4.725   8.987  0.1234  0.7480 -0.7291
 5086SOL     OW18277   6.342   2.748   4.228 -0.0831 -0.7154 -0.8056
 5086SOL    HW118278   6.376   2.698   4.154  2.6038 -0.2976  0.1126
 5086SOL    HW218279   6.312   2.830   4.190  1.0247 -0.6149 -1.4710
 5087SOL     OW18280   0.588   3.640   8.150 -0.1202  0.2507 -0.0410
 5087SOL    HW118281   0.493   3.647   8.136 -0.0394  0.4550 -0.5050
 5087SOL    HW218282   0.619   3.583   8.080 -0.0239 -0.5558  0.6481
 5088SOL     OW18283   2.390   0.823   8.476 -0.3415 -0.1284  0.0557
 5088SOL    HW118284   2.356   0.737   8.452 -1.0108  0.2607 -0.4166
 5088SOL    HW218285   2.437   0.853   8.398  0.5097 -0.3660  0.4667
 5089SOL     OW18286   6.410   7.002   3.585 -0.3966 -0.3631  0.2854
 5089SOL    HW118287   6.352   7.013   3.661 -1.5331  0.9605 -0.7588
 5089SOL    HW218288   6.496   6.987   3.624 -0.7993  1.1858  1.8466
 5090SOL     OW18289   2.169   7.302   2.531  0.0734  0.2630  0.1165
 5090SOL    HW118290   2.228   7.227   2.537 -1.8292 -1.3556 -0.7939
 5090SOL    HW218291   2.126   7.292   2.446 -1.0566  1.7302  0.4992
 5091SOL     OW18292   7.192   5.337   3.098 -0.6910  0.2217  0.3164
 5091SOL    HW118293   7.285   5.355   3.113 -0.7156  2.5435 -2.0290
 5091SOL    HW218294   7.191   5.266   3.034 -0.4925  0.9851 -0.5502
 5092SOL     OW18295   3.956   3.143   1.601 -0.6841 -0.7571 -0.8322
 5092SOL    HW118296   3.904   3.194   1.538 -0.3571 -0.0184 -0.5160
 5092SOL    HW218297   3.935   3.182   1.686  1.1726  0.2409 -0.8012
 5093SOL     OW18298   3.261   6.747   4.609  0.2427  0.2629 -0.1421
 5093SOL    HW118299   3.255   6.659   4.572 -1.6140  0.5185 -0.4704
 5093SOL    HW218300   3.338   6.744   4.666  0.7082 -1.3108 -0.8407
 5094SOL     OW18301   6.422   6.751   0.090 -0.3490 -0.2633 -0.5608
 5094SOL    HW118302   6.340   6.759   0.041 -0.9660 -1.0017  0.3283
 5094SOL    HW218303   6.395   6.719   0.176  0.7751  0.4594  0.0751
 5095SOL     OW18304   0.506   0.291   5.408 -0.2186 -0.0582  0.3866
 5095SOL    HW118305   0.500   0.295   5.313 -0.2248 -0.2945  0.3760
 5095SOL    HW218306   0.519   0.381   5.436 -1.6189  0.1988  0.2486
 5096SOL     OW18307   5.972   1.800   9.038 -0.0130  0.2983 -0.0282
 5096SOL    HW118308   6.007   1.850   9.112  0.6012 -0.5270  0.2471
 5096SOL    HW218309   6.016   1.836   8.961  0.6129  0.0119  0.1945
 5097SOL     OW18310   2.969   3.519   7.495  0.2598  0.0082 -0.0079
 5097SOL    HW118311   2.962   3.424   7.494 -1.5571  0.1237 -1.2935
 5097SOL    HW218312   2.959   3.544   7.587  0.4490 -1.0213  0.2950
 5098SOL     OW18313   1.999   6.149   3.292  0.3555 -0.2057 -0.2658
 5098SOL    HW118314   2.001   6.223   3.232 -0.2782  0.5673  0.6542
 5098SOL    HW218315   1.981   6.188   3.378 -2.5339 -1.6539 -0.1633
 5099SOL     OW18316   2.133   7.616   4.425  0.0013  0.8854  0.4549
 5099SOL    HW118317   2.222   7.642   4.401 -0.1535  0.3781 -0.6777
 5099SOL    HW218318   2.139   7.521   4.439 -0.5044  0.7457 -0.2642
 5100SOL     OW18319   6.756   1.714   6.773  0.5608  0.5717 -0.7094
 5100SOL    HW118320   6.821   1.785   6.775  0.1526  0.9586 -0.9906
 5100SOL    HW218321   6.729   1.709   6.682 -0.1942  0.7726 -0.5000
 5101SOL     OW18322   8.211   0.503   2.797 -0.1093 -0.8284  0.7408
 5101SOL    HW118323   8.234   0.596   2.791  0.8931 -1.0509  0.9700
 5101SOL    HW218324   8.171   0.494   2.883 -1.2665 -0.3884  0.2495
 5102SOL     OW18325   3.607   3.671   4.569  0.3870  0.8933  0.3168
 5102SOL    HW118326   3.588   3.592   4.620 -0.3846  1.7620  1.4047
 5102SOL    HW218327   3.687   3.650   4.521 -0.0766 -0.7160  0.2325
 5103SOL     OW18328   4.472   8.221   3.173  0.7029  0.4559  0.5303
 5103SOL    HW118329   4.552   8.187   3.132 -0.1956 -1.1313  0.0465
 5103SOL    HW218330   4.452   8.301   3.123  1.1874  0.0691 -0.3038
 5104SOL     OW18331   6.280   6.819   3.450  0.0090 -0.0687  0.2056
 5104SOL    HW118332   6.316   6.892   3.499 -0.4384  0.3604 -0.1067
 5104SOL    HW218333   6.185   6.829   3.457 -0.0706  0.4664 -1.4378
 5105SOL     OW18334   6.427   2.940   2.024 -0.6197  0.4825  0.1931
 5105SOL    HW118335   6.403   2.913   1.935 -0.8471 -1.0377  0.6875
 5105SOL    HW218336   6.367   2.890   2.080 -0.2672  1.1946  1.2072
 5106SOL     OW18337   7.583   4.154   1.426  0.1035 -0.3039 -0.0643
 5106SOL    HW118338   7.579   4.166   1.331  0.1897 -1.6816 -0.2495
 5106SOL    HW218339   7.491   4.146   1.452  0.1765 -2.5637 -0.4007
 5107SOL     OW18340   1.646   2.129   4.627 -0.3546  0.5165  0.3141
 5107SOL    HW118341   1.627   2.181   4.704 -0.2863 -0.9481  1.3387
 5107SOL    HW218342   1.567   2.078   4.611 -0.4279  0.9274 -0.6816
 5108SOL     OW18343   5.847   8.960   0.786 -0.2269  0.1091  0.0151
 5108SOL    HW118344   5.814   8.938   0.873 -1.6283 -1.0062 -0.7771
 5108SOL    HW218345   5.925   9.014   0.803 -1.1766  0.9315  1.9286
 5109SOL     OW18346   6.025   3.197   3.581 -0.3914 -0.0038 -0.1934
 5109SOL    HW118347   6.077   3.269   3.616  0.3446 -0.2523 -0.7536
 5109SOL    HW218348   6.029   3.129   3.648  1.3045 -0.6149 -0.8780
 5110SOL     OW18349   3.324   9.432   9.139  0.0395  0.1548  0.0728
 5110SOL    HW118350   3.252   9.490   9.116 -0.8194 -0.7607  0.3965
 5110SOL    HW218351   3.395   9.455   9.079 -0.4488  1.2025 -0.1066
 5111SOL     OW18352   6.386   2.399   7.609 -0.3743  0.2532 -0.4266
 5111SOL    HW118353   6.350   2.418   7.696  0.3724 -0.3394  0.0164
 5111SOL    HW218354   6.398   2.304   7.608  0.7468  0.3997 -0.7379
 5112SOL     OW18355   7.892   5.827   0.828  0.1396  0.5804 -0.0006
 5112SOL    HW118356   7.903   5.847   0.920 -0.5893  1.3431 -0.0682
 5112SOL    HW218357   7.890   5.912   0.784 -1.3032  0.3239 -0.4937
 5113SOL     OW18358   4.116   8.865   2.962 -0.4317  0.1482 -0.2351
 5113SOL    HW118359   4.159   8.804   2.902  0.8018  1.8950 -1.1447
 5113SOL    HW218360   4.108   8.946   2.913 -1.7189  0.8540  1.1037
 5114SOL     OW18361   1.147   0.685   4.280  0.2071  0.0523  0.2520
 5114SOL    HW118362   1.110   0.736   4.208 -0.4275 -0.1504  0.4285
 5114SOL    HW218363   1.091   0.705   4.355  1.5716  1.1707  0.9899
 5115SOL     OW18364   6.467   4.652   0.953  0.0210  0.0829 -0.3535
 5115SOL    HW118365   6.477   4.658   0.858 -2.5651  1.4558 -0.5957
 5115SOL    HW218366   6.394   4.712   0.973  1.4876  0.9603  2.6744
 5116SOL     OW18367   5.601   9.339   8.369 -0.3183 -0.0525  0.5752
 5116SOL    HW118368   5.562   9.256   8.342  0.5939  0.0462 -1.1030
 5116SOL    HW218369   5.694   9.317   8.383 -0.0207  0.7374 -0.1514
 5117SOL     OW18370   6.211   2.164   0.060  0.3595 -0.0454  0.6111
 5117SOL    HW118371   6.224   2.073   0.036 -0.2862  0.0642 -0.1686
 5117SOL    HW218372   6.118   2.180   0.045  0.7353  1.1291 -0.6323
 5118SOL     OW18373   1.960   7.845   3.439 -0.1074  1.1478 -0.3340
 5118SOL    HW118374   2.015   7.911   3.397 -0.5805  0.4220 -2.1634
 5118SOL    HW218375   1.900   7.817   3.370  0.2529 -1.3872  0.3169
 5119SOL     OW18376   8.813   1.718   3.882 -0.7034  0.4860  0.6323
 5119SOL    HW118377   8.825   1.662   3.805  0.7272  1.7662 -0.0975
 5119SOL    HW218378   8.897   1.713   3.928 -0.7144  1.7182  0.7788
 5120SOL     OW18379   6.364   8.533   7.394  0.4307 -0.1252 -0.0024
 5120SOL    HW118380   6.292   8.512   7.333 -0.1313 -1.4893  1.0990
 5120SOL    HW218381   6.443   8.529   7.340 -0.2276  0.5687 -1.0466
 5121SOL     OW18382   1.554   9.191   5.951  0.0857  0.8434 -0.4384
 5121SOL    HW118383   1.650   9.185   5.947  0.0745 -2.0048  1.9994
 5121SOL    HW218384   1.536   9.222   6.040 -1.2834  0.1481 -0.4657
 5122SOL     OW18385   0.928   0.536   4.711  0.4182 -0.5714 -0.4691
 5122SOL    HW118386   0.863   0.601   4.740  0.4235 -0.3093 -1.0390
 5122SOL    HW218387   0.885   0.452   4.723 -0.2976 -0.3653 -1.5126
 5123SOL     OW18388   2.536   7.628   2.062  0.0470 -0.4735 -0.0295
 5123SOL    HW118389   2.581   7.545   2.051 -1.1774 -1.2651  0.7349
 5123SOL    HW218390   2.443   7.605   2.065 -0.3533  0.9939 -0.4892
 5124SOL     OW18391   3.416   6.156   2.867  0.4865 -0.6764 -0.5250
 5124SOL    HW118392   3.369   6.186   2.945  0.5489 -1.8065 -0.0286
 5124SOL    HW218393   3.390   6.216   2.798 -3.0948 -2.2450 -0.6822
 5125SOL     OW18394   9.166   5.755   9.119  0.1822 -0.4015 -0.1645
 5125SOL    HW118395   9.098   5.822   9.127 -0.5323 -0.9305 -1.5206
 5125SOL    HW218396   9.170   5.714   9.205 -1.5865 -0.6892 -0.1905
 5126SOL     OW18397   2.644   0.386   6.541  0.0175 -0.1340  0.3103
 5126SOL    HW118398   2.736   0.365   6.559 -0.3664 -0.1051  2.4260
 5126SOL    HW218399   2.595   0.336   6.607 -1.5224 -0.4819 -1.0645
 5127SOL     OW18400   2.722   7.041   2.499  0.7918  0.0107  0.4146
 5127SOL    HW118401   2.648   6.980   2.503  1.2721 -0.4820  1.9032
 5127SOL    HW218402   2.682   7.127   2.508  0.3811 -0.2378  0.9564
 5128SOL     OW18403   1.580   4.585   3.851 -0.0193  0.1532 -0.0269
 5128SOL    HW118404   1.593   4.629   3.935  0.2966  0.2876 -0.1440
 5128SOL    HW218405   1.626   4.502   3.861 -0.8399 -0.2734  0.2884
 5129SOL     OW18406   1.979   6.981   3.597 -0.2347  0.4423  0.2598
 5129SOL    HW118407   1.962   6.937   3.681 -0.4343  2.2853  1.2189
 5129SOL    HW218408   2.004   6.911   3.538  0.2397 -0.8621  1.9574
 5130SOL     OW18409   9.131   6.237   9.384 -0.4270 -0.1984  0.0378
 5130SOL    HW118410   9.037   6.251   9.373 -0.1809  1.1732 -0.4100
 5130SOL    HW218411   9.164   6.321   9.416  0.9274 -0.0523 -1.6913
 5131SOL     OW18412   2.996   1.897   6.359  0.0611  0.1932  0.3544
 5131SOL    HW118413   2.996   1.818   6.413  1.7402 -1.0632 -1.3984
 5131SOL    HW218414   3.080   1.939   6.379 -0.3920  1.0119  0.5452
 5132SOL     OW18415   0.547   1.038   7.231  0.6066 -0.6117 -0.1313
 5132SOL    HW118416   0.529   1.020   7.138 -1.5873 -2.2446  0.5935
 5132SOL    HW218417   0.593   0.961   7.262  0.6284 -0.4075  0.3494
 5133SOL     OW18418   8.370   3.722   4.522  0.1601 -0.7626 -0.0745
 5133SOL    HW118419   8.429   3.647   4.526  0.8334 -0.2486 -0.2790
 5133SOL    HW218420   8.323   3.720   4.606 -0.8028 -2.1846 -0.6360
 5134SOL     OW18421   0.656   4.304   4.221  0.2863  0.5239  0.5173
 5134SOL    HW118422   0.595   4.372   4.193 -1.2003 -0.2630  1.7345
 5134SOL    HW218423   0.710   4.346   4.288 -1.0933  0.3612  1.7808
 5135SOL     OW18424   0.106   6.743   4.044  0.3849 -0.2952  0.2526
 5135SOL    HW118425   0.042   6.756   4.114  0.1056 -1.7940  0.2903
 5135SOL    HW218426   0.059   6.764   3.964 -0.0530 -0.9838  0.3176
 5136SOL     OW18427   4.901   1.133   9.167 -0.1581 -0.2968 -0.2363
 5136SOL    HW118428   4.946   1.088   9.095  0.2178  0.3445 -0.4027
 5136SOL    HW218429   4.928   1.085   9.245  1.0160  0.2434 -0.3070
 5137SOL     OW18430   6.729   4.731   4.078  0.0777 -0.1128  0.2040
 5137SOL    HW118431   6.647   4.762   4.041  0.0610 -0.9034 -0.4137
 5137SOL    HW218432   6.775   4.811   4.102 -0.7854  0.3405  0.3748
 5138SOL     OW18433   2.711   5.962   3.400 -0.4621 -0.2922  0.5699
 5138SOL    HW118434   2.757   5.887   3.438 -1.4789 -1.1395  0.1430
 5138SOL    HW218435   2.625   5.928   3.377 -0.7608  0.8892 -0.0731
 5139SOL     OW18436   8.958   6.889   6.751  0.2699  0.1778 -0.1078
 5139SOL    HW118437   8.954   6.882   6.846 -0.5400  3.0704  0.1281
 5139SOL    HW218438   8.906   6.967   6.730  1.0682  0.0420 -2.8570
 5140SOL     OW18439   1.207   6.083   0.134 -0.0631  0.0528 -0.5581
 5140SOL    HW118440   1.264   6.057   0.208  0.4117 -1.5136 -1.4425
 5140SOL    HW218441   1.123   6.103   0.175  0.2582 -0.5772  0.4503
 5141SOL     OW18442   9.347   3.385   1.278  0.5845 -0.0610  0.3951
 5141SOL    HW118443   9.333   3.303   1.231  0.6040  0.2130 -0.0923
 5141SOL    HW218444   9.441   3.403   1.268  0.4634  0.3444 -0.0369
 5142SOL     OW18445   1.745   1.495   4.801  0.6212 -0.1337 -0.4371
 5142SOL    HW118446   1.782   1.540   4.877  0.0451  0.6676 -0.6168
 5142SOL    HW218447   1.739   1.564   4.734 -0.2933 -0.4741 -0.7110
 5143SOL     OW18448   5.874   1.976   8.681  0.0652 -0.5098  0.1385
 5143SOL    HW118449   5.788   2.018   8.685  0.1062 -0.5035  1.2819
 5143SOL    HW218450   5.858   1.886   8.712  0.0325 -1.2590 -1.9732
 5144SOL     OW18451   2.148   5.523   1.149 -0.0440  0.1196 -0.0411
 5144SOL    HW118452   2.070   5.515   1.094 -0.7378  0.2662  0.8935
 5144SOL    HW218453   2.169   5.616   1.147 -0.0866  0.1295 -0.0442
 5145SOL     OW18454   8.959   0.712   1.617 -0.7876  0.0999 -0.2620
 5145SOL    HW118455   8.871   0.675   1.628 -0.1782 -1.4893 -0.5283
 5145SOL    HW218456   8.955   0.754   1.531 -1.6596  1.1536  0.2811
 5146SOL     OW18457   3.068   4.390   8.820 -0.7946 -0.7277 -0.6966
 5146SOL    HW118458   3.065   4.314   8.761  1.2495 -1.0178 -0.4682
 5146SOL    HW218459   3.149   4.435   8.797 -0.8697  0.1385  0.6908
 5147SOL     OW18460   6.461   2.024   8.669 -0.1276 -0.0285 -0.0470
 5147SOL    HW118461   6.378   1.990   8.636 -0.5597  2.1291 -1.3388
 5147SOL    HW218462   6.516   2.033   8.592  0.6924  0.1746  0.5508
 5148SOL     OW18463   6.300   4.909   4.911 -0.1272  0.7278 -0.0300
 5148SOL    HW118464   6.283   4.825   4.952 -1.0578  0.2247 -1.4088
 5148SOL    HW218465   6.362   4.953   4.970  0.0097 -0.7247  0.9237
 5149SOL     OW18466   2.432   1.471   1.749  0.3703 -0.0513 -0.2658
 5149SOL    HW118467   2.470   1.544   1.799  0.1185 -0.4654  0.5341
 5149SOL    HW218468   2.442   1.498   1.658  0.3231  0.9703  0.0184
 5150SOL     OW18469   6.798   6.446   8.646  0.0213 -0.2042 -0.0134
 5150SOL    HW118470   6.754   6.529   8.626  0.0059 -0.2381 -0.1243
 5150SOL    HW218471   6.887   6.457   8.612 -0.3182 -0.6534 -1.0738
 5151SOL     OW18472   8.015   8.771   5.075  0.0634 -0.2966 -0.0524
 5151SOL    HW118473   7.927   8.809   5.076  0.6188  1.0063  0.0352
 5151SOL    HW218474   8.071   8.839   5.113  1.0515 -1.2716  0.2530
 5152SOL     OW18475   9.049   4.823   2.432  0.0857  0.1651 -0.1982
 5152SOL    HW118476   8.958   4.795   2.440 -0.7580  3.1354  1.1949
 5152SOL    HW218477   9.061   4.840   2.339 -0.4123 -1.3694 -0.5563
 5153SOL     OW18478   4.866   1.565   5.960 -0.0009  0.0126 -0.4739
 5153SOL    HW118479   4.938   1.505   5.941  0.0128  0.7085 -2.8233
 5153SOL    HW218480   4.861   1.622   5.883 -0.5396  2.5127  1.3256
 5154SOL     OW18481   5.104   0.926   1.637 -0.0770  0.6320  0.1086
 5154SOL    HW118482   5.109   0.922   1.541 -0.6168  0.2856  0.0919
 5154SOL    HW218483   5.012   0.946   1.655 -0.2439 -0.5444  0.5933
 5155SOL     OW18484   6.100   3.216   1.930  0.2590  0.3134 -0.0259
 5155SOL    HW118485   6.067   3.126   1.935  3.4482 -0.9821 -0.7424
 5155SOL    HW218486   6.083   3.252   2.017  1.9291 -2.1433  1.4002
 5156SOL     OW18487   2.835   3.576   1.968  0.7002 -0.3987 -0.0461
 5156SOL    HW118488   2.835   3.501   1.909 -0.5841 -0.2066 -0.3018
 5156SOL    HW218489   2.761   3.562   2.026  2.4378 -1.0036  2.0981
 5157SOL     OW18490   0.616   3.581   5.771  0.2526  0.0224 -0.4292
 5157SOL    HW118491   0.589   3.502   5.724  1.2006 -0.5292 -0.0565
 5157SOL    HW218492   0.652   3.549   5.854 -0.4634  0.9213  0.2581
 5158SOL     OW18493   8.584   8.480   8.889  0.4476 -0.0654  0.0954
 5158SOL    HW118494   8.592   8.568   8.853  1.7117  0.2381  1.0937
 5158SOL    HW218495   8.657   8.431   8.852  0.7358 -0.2284  0.8589
 5159SOL     OW18496   7.005   5.523   6.777 -0.2097  0.5266 -0.1094
 5159SOL    HW118497   7.030   5.508   6.868 -1.2507  0.2556  0.1461
 5159SOL    HW218498   6.992   5.436   6.740  2.5695  0.5327 -1.2378
 5160SOL     OW18499   2.873   4.347   8.256 -0.1816  0.6452 -0.2416
 5160SOL    HW118500   2.781   4.320   8.254 -0.4530  1.5409 -0.3058
 5160SOL    HW218501   2.877   4.420   8.194  0.6934  0.2416 -0.6619
 5161SOL     OW18502   8.420   3.177   1.127 -0.1225  0.1162 -0.5674
 5161SOL    HW118503   8.489   3.210   1.185  0.8785  0.3271 -1.8545
 5161SOL    HW218504   8.353   3.143   1.187  0.2400  1.6177  0.7389
 5162SOL     OW18505   5.173   1.472   5.689  0.3945 -0.2082 -0.2166
 5162SOL    HW118506   5.164   1.484   5.784 -1.1580 -0.1094 -0.3631
 5162SOL    HW218507   5.149   1.381   5.674 -1.3550  0.3162 -0.7400
 5163SOL     OW18508   9.283   0.808   5.972 -0.4946 -0.1952 -0.6723
 5163SOL    HW118509   9.312   0.856   6.049  1.3194  0.3701 -1.6903
 5163SOL    HW218510   9.304   0.865   5.899 -0.2616 -1.6360 -1.7493
 5164SOL     OW18511   3.160   1.800   3.963 -0.0484 -0.2349 -0.3867
 5164SOL    HW118512   3.168   1.847   4.046  0.7149 -2.9523  1.1225
 5164SOL    HW218513   3.117   1.718   3.985  0.4438 -1.1457 -2.6296
 5165SOL     OW18514   2.834   8.519   7.469  0.4845  0.3614 -0.1120
 5165SOL    HW118515   2.751   8.522   7.516  0.2511 -2.8733 -0.1677
 5165SOL    HW218516   2.899   8.547   7.533  0.0487 -3.0335  1.9390
 5166SOL     OW18517   7.303   8.266   1.112 -0.0035 -0.7804 -0.6971
 5166SOL    HW118518   7.289   8.178   1.148 -1.8720  0.2692  1.2172
 5166SOL    HW218519   7.266   8.325   1.177  1.0630  1.4484 -2.0547
 5167SOL     OW18520   3.188   1.878   2.080 -0.8511  0.4340  0.5283
 5167SOL    HW118521   3.120   1.924   2.130 -0.1502  1.2879  0.7018
 5167SOL    HW218522   3.264   1.876   2.139 -1.5652 -2.9798  1.4423
 5168SOL     OW18523   6.365   4.107   8.128  0.0251 -0.0399  0.5197
 5168SOL    HW118524   6.446   4.063   8.104 -0.3677 -0.0337 -0.9224
 5168SOL    HW218525   6.302   4.036   8.141  0.0059 -0.0066  0.6094
 5169SOL     OW18526   0.879   3.493   0.903 -0.4304 -0.3331 -0.1518
 5169SOL    HW118527   0.929   3.568   0.935  1.2816 -1.8280  0.8072
 5169SOL    HW218528   0.802   3.490   0.960 -0.3345  0.4759  0.0264
 5170SOL     OW18529   5.401   5.666   3.911 -0.2426  0.0023  0.4859
 5170SOL    HW118530   5.312   5.699   3.923 -1.0488 -2.3156  1.1204
 5170SOL    HW218531   5.406   5.590   3.969  1.4002 -1.2818 -1.3025
 5171SOL     OW18532   9.059   9.002   0.391  0.0313  0.1646  0.6453
 5171SOL    HW118533   8.976   8.955   0.385  0.0500  0.3063 -0.8295
 5171SOL    HW218534   9.034   9.091   0.414 -0.3429  0.5144 -1.0091
 5172SOL     OW18535   0.716   2.376   3.160  0.2151 -0.0030 -0.4104
 5172SOL    HW118536   0.737   2.463   3.126 -0.4227  0.3578  0.1093
 5172SOL    HW218537   0.652   2.392   3.229 -0.2101 -0.9202 -0.5865
 5173SOL     OW18538   0.866   1.890   9.265  0.8096  1.3347 -0.4589
 5173SOL    HW118539   0.836   1.810   9.309  0.2789  0.7454 -1.8563
 5173SOL    HW218540   0.797   1.954   9.282  0.5914  1.0981 -0.4482
 5174SOL     OW18541   7.944   9.002   6.590  0.3494 -0.0249  0.0170
 5174SOL    HW118542   7.911   8.989   6.501 -0.6421 -0.5330  0.4479
 5174SOL    HW218543   7.997   9.081   6.585 -1.3469  1.1009 -0.6020
 5175SOL     OW18544   1.123   1.875   5.774  0.3240 -0.3309 -0.1105
 5175SOL    HW118545   1.054   1.891   5.710  2.2595 -0.2324 -2.2458
 5175SOL    HW218546   1.107   1.787   5.806 -1.4871  0.1421  0.3449
 5176SOL     OW18547   2.576   5.403   0.792 -0.0215  0.0800  0.2081
 5176SOL    HW118548   2.611   5.361   0.714 -0.4038  1.0346 -0.4776
 5176SOL    HW218549   2.650   5.449   0.831  0.1229 -0.2338  0.3061
 5177SOL     OW18550   8.203   3.265   2.893 -0.4478 -0.5425  0.4782
 5177SOL    HW118551   8.211   3.291   2.801 -2.5716 -0.0672  0.4066
 5177SOL    HW218552   8.270   3.197   2.905 -1.0502 -1.5650 -1.7582
 5178SOL     OW18553   2.036   1.493   1.209  0.2550  0.4178  0.0762
 5178SOL    HW118554   2.127   1.494   1.239  0.1587 -0.6798  0.4391
 5178SOL    HW218555   2.019   1.401   1.189 -1.0937  0.4672  0.9842
 5179SOL     OW18556   0.315   5.224   5.988  0.0578 -0.2179  1.2018
 5179SOL    HW118557   0.330   5.131   6.007 -0.2639 -0.3595  0.7551
 5179SOL    HW218558   0.220   5.235   5.995  0.0083 -0.1216  0.3173
 5180SOL     OW18559   2.608   7.670   1.766 -0.1377  0.3175 -0.0228
 5180SOL    HW118560   2.535   7.612   1.782  0.9937 -1.1595 -0.1274
 5180SOL    HW218561   2.662   7.665   1.845  0.5402  0.3622 -0.4723
 5181SOL     OW18562   1.869   8.322   7.960  0.1776 -0.5168 -0.0245
 5181SOL    HW118563   1.849   8.241   8.007 -2.0769 -0.2474 -0.4637
 5181SOL    HW218564   1.887   8.294   7.870  2.3992 -0.8117  0.4826
 5182SOL     OW18565   4.954   1.129   1.133  0.5904  0.5891 -0.2001
 5182SOL    HW118566   4.895   1.197   1.101 -0.9857 -0.4960  0.3225
 5182SOL    HW218567   4.997   1.095   1.054  2.6325  3.2667 -0.3063
 5183SOL     OW18568   0.529   8.727   4.132  0.2481 -0.5853  0.0662
 5183SOL    HW118569   0.493   8.808   4.169  2.2807  1.1651 -1.6608
 5183SOL    HW218570   0.457   8.691   4.081 -0.8636 -0.1703  1.3142
 5184SOL     OW18571   6.196   5.958   6.831  0.0296  0.7749  0.4088
 5184SOL    HW118572   6.140   6.002   6.895  1.5183  1.8786  0.9682
 5184SOL    HW218573   6.257   6.025   6.801  1.1575 -0.4472 -0.0884
 5185SOL     OW18574   8.385   4.550   1.167 -0.4717  0.5583  0.8670
 5185SOL    HW118575   8.320   4.530   1.099 -0.7086  1.5849  0.7859
 5185SOL    HW218576   8.466   4.510   1.135 -0.3803  1.7498 -0.4288
 5186SOL     OW18577   0.088   4.504   3.741 -0.2311  0.5848  0.3148
 5186SOL    HW118578   0.010   4.447   3.735  1.2660 -1.3804 -1.3380
 5186SOL    HW218579   0.122   4.507   3.652  0.5277  3.0025  0.6576
 5187SOL     OW18580   6.845   4.299   6.912  0.0095 -0.6025  0.3816
 5187SOL    HW118581   6.803   4.302   6.998  1.0302  1.9564  0.8544
 5187SOL    HW218582   6.879   4.210   6.905 -0.3992 -0.9616  2.4754
 5188SOL     OW18583   4.076   6.769   3.467  0.8217  0.1507  0.0297
 5188SOL    HW118584   4.066   6.688   3.416  1.9752 -0.7154  1.1202
 5188SOL    HW218585   3.991   6.780   3.511 -0.4809  1.3816 -2.6882
 5189SOL     OW18586   5.419   2.554   4.282 -0.3618 -0.4155  0.4824
 5189SOL    HW118587   5.491   2.521   4.335 -0.2055  0.3326  0.7471
 5189SOL    HW218588   5.420   2.649   4.296  0.0260 -0.1363 -1.2703
 5190SOL     OW18589   1.023   1.309   3.039 -0.4722 -0.6373  0.4075
 5190SOL    HW118590   0.969   1.376   3.080  0.7545  0.8838 -0.4156
 5190SOL    HW218591   0.987   1.297   2.952 -0.6331 -0.9884  0.5203
 5191SOL     OW18592   1.438   6.342   5.165  0.2266  0.6353  0.7431
 5191SOL    HW118593   1.527   6.318   5.139 -0.2424 -2.3169  1.7542
 5191SOL    HW218594   1.448   6.383   5.250  0.7844  1.8775  0.0918
 5192SOL     OW18595   6.234   1.252   7.345  0.3128  0.4401  0.1052
 5192SOL    HW118596   6.317   1.209   7.368  1.3067  1.5417 -1.3229
 5192SOL    HW218597   6.226   1.322   7.410  0.8963  0.8048 -0.2069
 5193SOL     OW18598   3.556   1.381   0.126 -0.3545  0.5065  0.0938
 5193SOL    HW118599   3.563   1.316   0.196 -0.9335 -1.1938 -1.3902
 5193SOL    HW218600   3.623   1.355   0.062 -1.4740  0.5610 -1.1326
 5194SOL     OW18601   4.311   4.653   0.948  0.4054 -0.1433  0.1803
 5194SOL    HW118602   4.300   4.716   1.019 -0.1135 -1.3496  1.1769
 5194SOL    HW218603   4.285   4.701   0.869 -1.0444  0.5566  1.0632
 5195SOL     OW18604   4.951   3.342   6.436 -0.4577  0.0820 -0.5243
 5195SOL    HW118605   4.885   3.292   6.387 -0.9395  1.1493 -0.9913
 5195SOL    HW218606   5.012   3.373   6.369 -0.2474  0.2388 -0.2627
 5196SOL     OW18607   0.567   5.096   3.451 -0.0252  0.9398 -0.6190
 5196SOL    HW118608   0.596   5.020   3.399  3.3372  0.9819  1.0419
 5196SOL    HW218609   0.645   5.152   3.456 -1.1034  2.2485  2.1462
 5197SOL     OW18610   5.993   0.252   6.751 -0.2964  0.1541  0.3836
 5197SOL    HW118611   5.964   0.335   6.788  0.1348 -0.2278  1.5867
 5197SOL    HW218612   5.957   0.251   6.662 -0.2005  1.6818  0.3186
 5198SOL     OW18613   6.649   6.105   8.509 -0.5290 -0.0347  0.3670
 5198SOL    HW118614   6.641   6.192   8.469  1.1707 -0.0421 -0.0482
 5198SOL    HW218615   6.575   6.098   8.569 -0.7462  1.6560  0.3030
 5199SOL     OW18616   3.838   5.199   6.241  0.3643 -0.7195  0.5321
 5199SOL    HW118617   3.772   5.193   6.311 -1.1353  0.3632 -0.7733
 5199SOL    HW218618   3.884   5.280   6.259  0.6437 -0.9372  0.8191
 5200SOL     OW18619   2.329   3.456   6.655  0.2241 -0.1582 -0.3264
 5200SOL    HW118620   2.364   3.540   6.626  1.6934 -0.4313  0.6284
 5200SOL    HW218621   2.339   3.458   6.751 -1.5233 -0.6292 -0.1171
 5201SOL     OW18622   2.436   2.172   0.499 -0.1491  0.2447  0.0208
 5201SOL    HW118623   2.361   2.162   0.558  0.4792 -1.1236  0.6108
 5201SOL    HW218624   2.506   2.123   0.542  0.4827 -0.2849 -1.6093
 5202SOL     OW18625   6.110   2.538   2.034 -0.1785  0.2735  0.7260
 5202SOL    HW118626   6.201   2.508   2.031  0.2667  1.6977 -0.8223
 5202SOL    HW218627   6.111   2.623   1.990 -2.0534  0.8704  1.7615
 5203SOL     OW18628   4.208   2.931   7.961 -0.4996  0.4846 -0.1457
 5203SOL    HW118629   4.208   3.000   8.028 -2.0198  0.4307 -0.0740
 5203SOL    HW218630   4.116   2.902   7.956 -0.1611 -0.4338 -1.3045
 5204SOL     OW18631   1.711   1.849   2.702 -0.2516  0.1947 -0.3015
 5204SOL    HW118632   1.719   1.907   2.627  1.3287 -0.0118 -0.2988
 5204SOL    HW218633   1.723   1.906   2.778 -0.4267  0.1631 -0.2500
 5205SOL     OW18634   1.132   2.281   7.453  0.0271  0.4333  0.7784
 5205SOL    HW118635   1.049   2.243   7.424  0.0390  1.3144 -0.4520
 5205SOL    HW218636   1.107   2.365   7.491  0.3626  0.7440  0.3154
 5206SOL     OW18637   5.684   1.367   3.198 -0.3541 -0.0082 -0.0568
 5206SOL    HW118638   5.667   1.453   3.236  0.3674 -0.1566  0.6098
 5206SOL    HW218639   5.637   1.305   3.255 -0.3908 -0.1089 -0.1959
 5207SOL     OW18640   0.847   0.256   6.988 -0.2826  0.1359  0.3261
 5207SOL    HW118641   0.879   0.339   6.952 -0.3933  0.5200  1.1114
 5207SOL    HW218642   0.787   0.223   6.920 -0.5727  0.9085  0.1995
 5208SOL     OW18643   6.187   2.769   1.416  0.7190 -0.1627 -0.0520
 5208SOL    HW118644   6.161   2.704   1.482 -0.2795 -0.7598 -1.0182
 5208SOL    HW218645   6.227   2.840   1.467 -0.2665 -0.5006  1.2176
 5209SOL     OW18646   5.801   3.884   8.449  0.6951 -0.0034 -0.2009
 5209SOL    HW118647   5.829   3.877   8.358 -0.0067 -1.4373 -0.3154
 5209SOL    HW218648   5.789   3.794   8.478 -4.7142  0.4352 -0.4805
 5210SOL     OW18649   9.048   5.894   0.569  0.4017  0.0172 -0.0751
 5210SOL    HW118650   9.079   5.898   0.479 -0.8509  0.0013 -0.5153
 5210SOL    HW218651   9.112   5.945   0.619  0.6583  0.6858 -1.0883
 5211SOL     OW18652   1.037   3.335   7.346  0.3932 -0.1219 -0.1657
 5211SOL    HW118653   1.061   3.285   7.268 -0.8445  0.7519 -1.1302
 5211SOL    HW218654   1.091   3.413   7.342  1.3685 -0.7469  0.6325
 5212SOL     OW18655   8.225   0.357   7.230 -0.4063  0.3552 -0.5096
 5212SOL    HW118656   8.291   0.331   7.294 -0.4102  0.7156 -0.3561
 5212SOL    HW218657   8.156   0.399   7.282  0.0209  1.4888 -0.8310
 5213SOL     OW18658   0.259   4.920   3.596  0.2704 -0.3114  0.4292
 5213SOL    HW118659   0.307   4.953   3.520  1.1245 -1.3171  0.5290
 5213SOL    HW218660   0.326   4.885   3.654 -0.0379  3.3238  3.1703
 5214SOL     OW18661   6.317   0.193   4.411 -0.3402  0.1155 -0.5214
 5214SOL    HW118662   6.225   0.205   4.437 -0.1120 -1.9153  1.3506
 5214SOL    HW218663   6.361   0.270   4.446 -0.5108 -1.3078  3.0205
 5215SOL     OW18664   4.356   0.547   5.043 -0.0191 -0.3009  0.3006
 5215SOL    HW118665   4.422   0.581   4.982 -0.8950 -0.1921 -0.5934
 5215SOL    HW218666   4.281   0.525   4.987 -0.2981 -1.5539  1.1605
 5216SOL     OW18667   0.450   2.395   6.211 -0.7368 -0.3835  0.4623
 5216SOL    HW118668   0.436   2.305   6.241 -0.9277 -1.0817 -1.6903
 5216SOL    HW218669   0.381   2.410   6.146 -0.6152  1.2730  0.7056
 5217SOL     OW18670   7.661   4.412   6.407 -0.3711  0.1407  0.0321
 5217SOL    HW118671   7.621   4.413   6.320 -0.0141  0.1700 -0.1292
 5217SOL    HW218672   7.752   4.386   6.392 -0.5779 -0.8745  0.5098
 5218SOL     OW18673   5.104   6.709   2.819  0.0601  0.3494 -1.1758
 5218SOL    HW118674   5.163   6.776   2.853 -1.2646  2.5282 -3.0255
 5218SOL    HW218675   5.021   6.756   2.805 -1.9856 -2.4914  0.8725
 5219SOL     OW18676   8.271   0.766   6.701 -0.2557  0.0594  0.1716
 5219SOL    HW118677   8.329   0.690   6.695 -0.5665 -0.2737  1.2752
 5219SOL    HW218678   8.187   0.731   6.729 -0.2239  0.8765  1.3360
 5220SOL     OW18679   3.246   1.769   1.525 -0.0782  0.3825  0.4700
 5220SOL    HW118680   3.272   1.789   1.435  1.1022  1.4880  1.0524
 5220SOL    HW218681   3.318   1.800   1.579 -0.6979 -0.4374  1.8062
 5221SOL     OW18682   8.533   2.541   3.506  0.0601 -0.4326  0.2851
 5221SOL    HW118683   8.483   2.540   3.424 -1.8541 -1.5769  1.4349
 5221SOL    HW218684   8.612   2.591   3.485  0.3509 -2.0222 -2.6930
 5222SOL     OW18685   4.367   7.900   0.213 -0.1312  0.0615  0.2016
 5222SOL    HW118686   4.413   7.855   0.284 -0.3078 -1.9213 -0.9195
 5222SOL    HW218687   4.285   7.852   0.203 -0.1798  0.4160 -1.2430
 5223SOL     OW18688   2.111   5.701   2.615 -0.0908 -0.2596  0.1518
 5223SOL    HW118689   2.045   5.661   2.560  1.3912 -2.7587  0.1231
 5223SOL    HW218690   2.094   5.795   2.609 -1.3977 -0.6447 -2.6838
 5224SOL     OW18691   2.576   1.881   5.090  0.5260 -0.2305  0.2739
 5224SOL    HW118692   2.527   1.922   5.018  0.5903 -0.9315 -0.1682
 5224SOL    HW218693   2.509   1.855   5.152  0.4957  0.7203  0.6546
 5225SOL     OW18694   1.951   8.677   2.050 -0.1262  0.1981  0.3679
 5225SOL    HW118695   1.951   8.608   1.984  1.9591  0.8508 -0.3349
 5225SOL    HW218696   2.013   8.743   2.017 -1.6323  2.1357  1.3143
 5226SOL     OW18697   9.299   1.746   7.945  0.4386 -0.3815  0.1889
 5226SOL    HW118698   9.249   1.809   7.893 -0.3122  1.2845  2.8265
 5226SOL    HW218699   9.377   1.795   7.973  0.9928 -1.3525  0.3767
 5227SOL     OW18700   0.832   7.671   1.476 -0.7837 -0.0785 -0.8009
 5227SOL    HW118701   0.869   7.690   1.562  0.8136  1.1491 -1.7411
 5227SOL    HW218702   0.784   7.750   1.453 -2.0985 -0.8017 -0.5968
 5228SOL     OW18703   4.957   7.642   1.882  1.1316  0.1223 -0.1475
 5228SOL    HW118704   4.878   7.662   1.832  1.1523  1.4795  0.3496
 5228SOL    HW218705   4.980   7.553   1.856  0.3343  0.2991 -1.4809
 5229SOL     OW18706   4.675   9.315   6.212 -0.3491 -0.7789  0.5372
 5229SOL    HW118707   4.763   9.338   6.242 -0.5010 -1.5787  1.5846
 5229SOL    HW218708   4.624   9.395   6.224  0.5745  0.1788 -1.5062
 5230SOL     OW18709   8.869   6.852   8.229 -0.4808  0.0306  0.3503
 5230SOL    HW118710   8.825   6.879   8.309 -0.1785  2.8123 -0.3590
 5230SOL    HW218711   8.951   6.902   8.228 -0.0135 -0.7244 -1.1950
 5231SOL     OW18712   2.359   1.125   1.804  0.3479  0.5195  0.2882
 5231SOL    HW118713   2.403   1.102   1.722  1.8140 -0.6793  1.3915
 5231SOL    HW218714   2.415   1.193   1.842  0.8086 -0.3924  1.2751
 5232SOL     OW18715   1.221   0.493   6.020 -0.1472  0.0878  0.1389
 5232SOL    HW118716   1.290   0.499   6.085 -0.8146 -1.1901  0.9936
 5232SOL    HW218717   1.264   0.454   5.943  0.6760  1.7577 -0.2780
 5233SOL     OW18718   6.883   0.917   1.161  0.3044  1.1898 -0.0793
 5233SOL    HW118719   6.819   0.976   1.120 -0.6988  0.2233  0.0807
 5233SOL    HW218720   6.855   0.912   1.253  0.1453  0.1476 -0.1864
 5234SOL     OW18721   4.788   4.065   4.849  0.4949  0.6234  0.1867
 5234SOL    HW118722   4.835   4.036   4.927  0.1705 -1.3394 -0.3100
 5234SOL    HW218723   4.791   4.160   4.852  0.5781  0.5623  2.5326
 5235SOL     OW18724   4.960   7.393   4.363  0.2523  0.2840  0.0890
 5235SOL    HW118725   4.900   7.364   4.294  0.2453  0.9639 -0.1854
 5235SOL    HW218726   5.011   7.463   4.324  0.5318  0.3948  0.6465
 5236SOL     OW18727   6.601   1.598   2.606  0.3930 -0.0775  0.1160
 5236SOL    HW118728   6.580   1.521   2.553  1.3647 -1.3408  1.5397
 5236SOL    HW218729   6.685   1.629   2.570  1.6940 -1.6834  1.6970
 5237SOL     OW18730   2.650   3.480   6.608 -0.0993  0.2316 -0.9024
 5237SOL    HW118731   2.715   3.433   6.555 -0.3504 -2.3146  0.9558
 5237SOL    HW218732   2.567   3.463   6.564  0.1585  1.5144 -1.9343
 5238SOL     OW18733   3.393   7.737   7.558  0.1863 -0.0418  0.2096
 5238SOL    HW118734   3.408   7.769   7.647 -0.8806 -1.2070  0.8200
 5238SOL    HW218735   3.316   7.787   7.528  0.2984  0.0574  0.0866
 5239SOL     OW18736   1.331   1.155   7.302  1.1736  0.1542  0.1740
 5239SOL    HW118737   1.378   1.217   7.247  0.5177 -0.9491 -1.6749
 5239SOL    HW218738   1.396   1.089   7.325  1.1296 -0.0863 -0.3846
 5240SOL     OW18739   6.680   2.010   2.187 -0.4266 -0.4071 -0.0538
 5240SOL    HW118740   6.651   2.098   2.163  0.8489  0.4189  1.3767
 5240SOL    HW218741   6.601   1.965   2.218 -0.5934  1.1266  1.7992
 5241SOL     OW18742   6.177   1.091   0.166 -0.7303 -0.1530 -0.1900
 5241SOL    HW118743   6.140   1.178   0.152  0.2590  0.7914  2.8558
 5241SOL    HW218744   6.116   1.047   0.225 -0.3513 -0.9520 -0.3753
 5242SOL     OW18745   6.446   0.420   2.792  0.3879 -0.2398 -0.0582
 5242SOL    HW118746   6.529   0.374   2.782 -0.3681 -1.6683  0.0810
 5242SOL    HW218747   6.460   0.480   2.865  1.2928 -0.4751 -0.0348
 5243SOL     OW18748   2.968   4.999   0.152 -0.1547 -0.2892 -0.1639
 5243SOL    HW118749   3.062   5.017   0.144 -0.3843  0.2055 -1.8018
 5243SOL    HW218750   2.933   5.077   0.196  0.1477 -0.3648  0.2220
 5244SOL     OW18751   2.931   0.123   1.291 -0.1935  0.1044  0.0172
 5244SOL    HW118752   2.924   0.028   1.294  1.5898 -0.0613 -0.7467
 5244SOL    HW218753   3.009   0.144   1.342 -0.6159  1.1698  0.2541
 5245SOL     OW18754   7.749   7.440   7.028 -0.1744 -0.0350  0.1939
 5245SOL    HW118755   7.732   7.526   7.067  1.4017  0.0070  0.8057
 5245SOL    HW218756   7.663   7.399   7.022 -0.9822  1.6976 -0.3664
 5246SOL     OW18757   7.853   2.510   3.183  0.5005 -0.5864 -0.0571
 5246SOL    HW118758   7.776   2.531   3.131  2.1688 -1.0713 -2.7908
 5246SOL    HW218759   7.908   2.587   3.176  0.1031 -0.0575  2.2815
 5247SOL     OW18760   2.346   8.736   0.446  0.5749 -0.1720  0.6937
 5247SOL    HW118761   2.254   8.721   0.424  0.1742  2.2739  0.5255
 5247SOL    HW218762   2.375   8.802   0.383  2.3334 -0.5862  1.0313
 5248SOL     OW18763   2.320   5.324   7.968 -0.2037 -0.2553 -0.3921
 5248SOL    HW118764   2.304   5.356   7.880 -1.6399 -1.2999 -0.5391
 5248SOL    HW218765   2.409   5.352   7.989 -0.0279  0.4008 -1.9812
 5249SOL     OW18766   0.448   1.517   6.255  0.6298 -0.2699  0.1561
 5249SOL    HW118767   0.408   1.603   6.270  0.0337 -0.8710  2.1973
 5249SOL    HW218768   0.496   1.499   6.335  1.7611 -1.3286 -0.7406
 5250SOL     OW18769   1.216   4.402   4.097  0.2896 -0.0026 -0.1476
 5250SOL    HW118770   1.130   4.361   4.095  1.1639 -1.8472 -2.1016
 5250SOL    HW218771   1.219   4.456   4.018  1.3498 -0.9121 -0.7494
 5251SOL     OW18772   5.945   0.503   1.291 -0.8502 -0.6286  0.1398
 5251SOL    HW118773   6.002   0.477   1.219  2.4514 -1.5609  2.9466
 5251SOL    HW218774   5.997   0.564   1.342 -2.7224 -0.7679  2.2943
 5252SOL     OW18775   1.230   6.419   7.966 -0.0427  0.2155 -0.2728
 5252SOL    HW118776   1.182   6.344   7.932  0.5762 -0.7156  0.8528
 5252SOL    HW218777   1.178   6.495   7.940  0.9064 -0.3341 -4.1141
 5253SOL     OW18778   8.730   5.609   0.550 -0.7065 -0.1674 -0.7301
 5253SOL    HW118779   8.744   5.698   0.581 -2.1210  0.5630 -2.1699
 5253SOL    HW218780   8.743   5.614   0.456 -1.4092 -1.3635 -0.8982
 5254SOL     OW18781   7.263   1.194   8.760  0.0775  0.8272 -0.2734
 5254SOL    HW118782   7.283   1.160   8.673  1.3882 -0.8613  0.6650
 5254SOL    HW218783   7.219   1.278   8.743  3.1056  2.0564 -2.5388
 5255SOL     OW18784   8.801   6.500   2.403 -0.0022  0.3141  0.5172
 5255SOL    HW118785   8.840   6.415   2.381 -0.4708  0.4630 -0.9390
 5255SOL    HW218786   8.807   6.551   2.322  0.1001  1.6089  1.3268
 5256SOL     OW18787   7.241   8.939   0.066  0.2783  0.3353  0.0374
 5256SOL    HW118788   7.323   8.967   0.106 -0.3536  0.5661  1.1658
 5256SOL    HW218789   7.190   9.019   0.058  0.1450  0.1866 -0.6459
 5257SOL     OW18790   3.698   6.228   2.772 -0.6033 -0.0739  0.3826
 5257SOL    HW118791   3.767   6.202   2.832 -1.6583  2.1757  2.7034
 5257SOL    HW218792   3.620   6.181   2.802 -1.2168  1.3211  1.0409
 5258SOL     OW18793   3.846   4.487   4.613 -0.0853  0.3597  0.7848
 5258SOL    HW118794   3.854   4.395   4.589  0.6066  0.2406  1.4343
 5258SOL    HW218795   3.851   4.488   4.709 -2.4886  0.8519  0.9381
 5259SOL     OW18796   5.234   3.581   3.787  0.6933 -0.1017 -0.3978
 5259SOL    HW118797   5.292   3.647   3.748  0.1566  0.5720 -0.0608
 5259SOL    HW218798   5.188   3.628   3.856 -0.2107 -0.6493 -0.6286
 5260SOL     OW18799   9.292   6.067   1.399  0.0785 -0.4751 -0.5185
 5260SOL    HW118800   9.356   6.053   1.468  0.4362  2.3482 -0.1844
 5260SOL    HW218801   9.207   6.052   1.440  0.4072 -1.7681 -0.2959
 5261SOL     OW18802   7.406   4.469   4.460 -0.0042  0.4492 -0.1762
 5261SOL    HW118803   7.396   4.449   4.553 -0.4826  0.9869 -0.1064
 5261SOL    HW218804   7.338   4.534   4.442 -1.3496 -1.2844 -1.4307
 5262SOL     OW18805   7.661   3.344   5.523 -0.0611 -0.2906  0.5575
 5262SOL    HW118806   7.662   3.413   5.456  1.4948 -0.5231  0.3141
 5262SOL    HW218807   7.597   3.373   5.587  0.2205  1.1436  0.2022
 5263SOL     OW18808   8.927   4.906   9.325 -0.4013  0.0694 -0.6417
 5263SOL    HW118809   8.900   4.840   9.388  2.5958 -0.1444  0.4452
 5263SOL    HW218810   8.920   4.863   9.240 -3.1100 -0.0657 -0.4072
 5264SOL     OW18811   4.968   2.272   4.760  0.2787  0.3499 -0.0710
 5264SOL    HW118812   5.013   2.187   4.764  0.7904  0.6830  1.7276
 5264SOL    HW218813   4.982   2.301   4.670  1.5176 -0.7238 -0.2558
 5265SOL     OW18814   1.920   5.145   8.444 -0.0021  0.7205 -0.2657
 5265SOL    HW118815   1.940   5.180   8.357  1.7365 -1.0407 -0.6119
 5265SOL    HW218816   1.891   5.055   8.428 -0.0275  0.4975  0.9547
 5266SOL     OW18817   5.392   8.352   6.127  0.0030 -0.1015 -0.5460
 5266SOL    HW118818   5.349   8.268   6.143  0.0188 -0.0621 -0.2981
 5266SOL    HW218819   5.371   8.406   6.204  1.6274 -0.5366  0.2354
 5267SOL     OW18820   6.626   8.679   8.584  0.0678 -0.0364  0.3470
 5267SOL    HW118821   6.576   8.726   8.650  2.3793  0.6460  1.6791
 5267SOL    HW218822   6.576   8.599   8.569 -0.9614  0.2102  2.2714
 5268SOL     OW18823   8.256   5.377   5.635 -0.3630  0.5710  0.6259
 5268SOL    HW118824   8.248   5.358   5.541 -2.1579  0.6803  0.7416
 5268SOL    HW218825   8.254   5.473   5.640 -2.2284  0.5216  0.9294
 5269SOL     OW18826   6.992   5.519   5.727 -0.2960 -0.1544  0.0841
 5269SOL    HW118827   6.956   5.567   5.652  0.3893  1.2031  0.5921
 5269SOL    HW218828   7.048   5.583   5.771 -1.3516 -0.6665  2.2489
 5270SOL     OW18829   6.281   9.316   7.311  0.5185 -0.6571 -0.0897
 5270SOL    HW118830   6.216   9.368   7.264 -0.6083 -2.1419 -0.2149
 5270SOL    HW218831   6.360   9.321   7.257  0.2072  0.3268 -0.4535
 5271SOL     OW18832   1.125   4.453   2.260  0.2212 -0.2597  0.6925
 5271SOL    HW118833   1.179   4.486   2.331  1.0821 -3.2877  1.4962
 5271SOL    HW218834   1.057   4.402   2.304 -0.4909 -0.3890 -0.5513
 5272SOL     OW18835   3.154   3.081   6.718 -0.3467 -0.0868 -0.0601
 5272SOL    HW118836   3.165   2.995   6.759  0.4260 -1.5785 -3.2420
 5272SOL    HW218837   3.078   3.071   6.661 -0.2702  1.3418 -0.4324
 5273SOL     OW18838   8.014   2.847   2.109  0.5224 -0.1988 -0.4055
 5273SOL    HW118839   8.064   2.823   2.031  2.5847  0.6540  0.5934
 5273SOL    HW218840   8.047   2.788   2.177  1.1485  1.2540  0.5810
 5274SOL     OW18841   5.462   3.393   1.510  0.2411  0.1072 -0.0901
 5274SOL    HW118842   5.428   3.346   1.434 -2.1002  1.4142  0.0895
 5274SOL    HW218843   5.473   3.326   1.578 -2.3335 -0.3307 -0.0708
 5275SOL     OW18844   4.106   1.389   7.405  0.4032  0.2054 -0.0438
 5275SOL    HW118845   4.152   1.305   7.395 -1.2759 -0.8375  0.7916
 5275SOL    HW218846   4.081   1.413   7.316  0.2804 -0.5528 -0.2238
 5276SOL     OW18847   0.998   8.295   5.428 -0.0306 -0.0263 -0.1122
 5276SOL    HW118848   0.909   8.309   5.460 -0.0062 -0.1298  0.0020
 5276SOL    HW218849   1.011   8.200   5.437  0.5859  0.1665  1.1554
 5277SOL     OW18850   2.390   4.586   8.736 -0.5629  0.3334 -0.3190
 5277SOL    HW118851   2.330   4.573   8.810 -0.7383  0.2428 -0.4772
 5277SOL    HW218852   2.472   4.614   8.777 -0.9219  1.1638 -0.1466
 5278SOL     OW18853   3.674   2.594   4.505  0.0714  0.0829  0.1940
 5278SOL    HW118854   3.643   2.670   4.457 -1.3811 -1.2450 -1.0583
 5278SOL    HW218855   3.748   2.561   4.453  0.0163  0.0386  0.1427
 5279SOL     OW18856   7.749   2.996   8.480 -0.2028 -0.4900 -0.0928
 5279SOL    HW118857   7.815   2.931   8.506 -0.2825 -1.0048 -1.1615
 5279SOL    HW218858   7.798   3.058   8.425 -0.8228 -1.4560 -1.7627
 5280SOL     OW18859   0.182   2.869   2.380 -0.2097 -0.3829 -0.1783
 5280SOL    HW118860   0.263   2.919   2.374  0.0244 -0.7635 -0.1874
 5280SOL    HW218861   0.141   2.900   2.461 -0.6329  0.6625 -0.7817
 5281SOL     OW18862   3.227   8.902   3.717 -0.0784 -0.0018  0.0567
 5281SOL    HW118863   3.134   8.927   3.711 -0.9521 -2.6468  1.7266
 5281SOL    HW218864   3.244   8.853   3.637 -1.2245 -2.7338  1.4128
 5282SOL     OW18865   7.213   6.941   6.733 -0.1331  0.5006 -0.0383
 5282SOL    HW118866   7.299   6.939   6.691  0.0264 -0.9053  0.3198
 5282SOL    HW218867   7.151   6.940   6.660  0.1385 -2.2943 -0.2986
 5283SOL     OW18868   2.362   3.654   4.862 -0.1934  0.2352 -0.7258
 5283SOL    HW118869   2.346   3.651   4.957  0.5669  1.1832 -0.5633
 5283SOL    HW218870   2.370   3.562   4.837 -1.0612 -0.0590  0.0140
 5284SOL     OW18871   0.059   8.488   8.368  0.1522 -0.5239  0.1899
 5284SOL    HW118872   0.002   8.541   8.312  0.2658 -1.1241 -0.5071
 5284SOL    HW218873   0.058   8.402   8.327  1.4189 -0.5860  0.2735
 5285SOL     OW18874   1.227   0.047   0.208  0.3752 -0.3456  0.1717
 5285SOL    HW118875   1.210  -0.047   0.217 -0.7807 -0.0569  1.2698
 5285SOL    HW218876   1.146   0.082   0.169  0.4126  0.3312  0.6897
 5286SOL     OW18877   2.979   9.028   3.902  0.1293 -0.0498 -0.1674
 5286SOL    HW118878   2.969   9.121   3.924 -0.2248 -0.6554  2.3496
 5286SOL    HW218879   2.975   9.026   3.806 -1.3544  2.3633 -0.2088
 5287SOL     OW18880   1.072   3.309   8.190 -0.5969 -0.1762  0.2089
 5287SOL    HW118881   1.087   3.264   8.274 -2.2308 -0.9448  0.0963
 5287SOL    HW218882   1.055   3.400   8.214  0.5468 -0.0573  0.5922
 5288SOL     OW18883   8.108   8.395   4.038  0.1702  0.3171  0.7363
 5288SOL    HW118884   8.157   8.329   4.088  1.1889  0.2855 -0.2668
 5288SOL    HW218885   8.024   8.354   4.018  0.8080 -0.6969  0.1066
 5289SOL     OW18886   2.278   3.959   9.231 -0.1929 -0.6283 -0.2461
 5289SOL    HW118887   2.298   3.890   9.168 -0.3836 -1.4049  0.5297
 5289SOL    HW218888   2.290   3.917   9.317  0.0170  0.3925  0.2344
 5290SOL     OW18889   6.901   3.444   2.409 -0.1878  0.1760 -0.3603
 5290SOL    HW118890   6.922   3.359   2.449  0.4118 -0.1547 -1.3642
 5290SOL    HW218891   6.971   3.459   2.346 -0.7060  1.0575 -0.7359
 5291SOL     OW18892   5.416   4.820   2.939  0.4069 -0.0536 -0.5403
 5291SOL    HW118893   5.331   4.848   2.906  0.5525 -0.3429 -1.1654
 5291SOL    HW218894   5.417   4.725   2.923  0.7340 -0.0939 -0.2800
 5292SOL     OW18895   3.171   3.893   7.195  0.0593 -0.6194 -0.4480
 5292SOL    HW118896   3.195   3.985   7.209  1.5748 -0.9695 -0.6236
 5292SOL    HW218897   3.130   3.866   7.277 -0.3978  0.2150 -0.3968
 5293SOL     OW18898   2.939   0.134   2.397  0.2875 -0.3621  0.1842
 5293SOL    HW118899   2.966   0.203   2.336 -1.7876 -0.2419 -0.6433
 5293SOL    HW218900   2.985   0.056   2.366  2.5190  0.5729  1.0279
 5294SOL     OW18901   5.787   1.309   6.904 -0.6712  0.5572  0.5155
 5294SOL    HW118902   5.719   1.264   6.853 -1.3031 -1.3293  2.9628
 5294SOL    HW218903   5.758   1.401   6.904 -0.5105  0.6755 -2.6864
 5295SOL     OW18904   9.352   9.265   8.864  0.1385 -0.1280  0.4930
 5295SOL    HW118905   9.272   9.296   8.906  0.3675 -0.1809  0.9760
 5295SOL    HW218906   9.406   9.234   8.936  1.7084  2.4066  0.4765
 5296SOL     OW18907   3.473   4.494   3.279  0.1126 -0.1094 -0.1354
 5296SOL    HW118908   3.482   4.443   3.199  1.3310  0.8241 -0.6006
 5296SOL    HW218909   3.388   4.468   3.315 -0.8973  0.2115 -2.2411
 5297SOL     OW18910   1.741   2.370   1.890 -0.3160  0.0718 -0.0224
 5297SOL    HW118911   1.809   2.303   1.901 -1.0759 -0.4649  1.4509
 5297SOL    HW218912   1.779   2.450   1.928 -0.5196 -0.2421  0.8508
 5298SOL     OW18913   1.626   8.125   5.213  0.8984 -0.5513  0.0751
 5298SOL    HW118914   1.560   8.183   5.175  1.8504 -0.3752 -1.3247
 5298SOL    HW218915   1.578   8.077   5.281 -0.7494 -0.6222 -1.0862
 5299SOL     OW18916   1.138   0.680   1.136  0.3547 -0.3243 -0.4369
 5299SOL    HW118917   1.226   0.675   1.098  0.2437  1.6135 -0.9978
 5299SOL    HW218918   1.084   0.717   1.066 -0.8452 -1.1494  0.0351
 5300SOL     OW18919   5.692   8.770   5.880  0.1874  0.1089 -0.3884
 5300SOL    HW118920   5.682   8.861   5.853 -0.4478  0.6516  1.6109
 5300SOL    HW218921   5.739   8.774   5.963 -1.0965 -1.2759  0.4525
 5301SOL     OW18922   0.850   1.437   0.302  0.4102 -0.3835  0.3534
 5301SOL    HW118923   0.788   1.508   0.312  0.9468  0.1022  0.2507
 5301SOL    HW218924   0.926   1.477   0.259  0.3904 -1.1902 -0.4607
 5302SOL     OW18925   7.753   3.574   9.444 -0.2414  0.1986 -0.2428
 5302SOL    HW118926   7.839   3.544   9.415  0.2712  0.6446  0.8301
 5302SOL    HW218927   7.713   3.610   9.365  0.5508  0.0012 -0.7441
 5303SOL     OW18928   4.735   8.636   4.817 -0.0396 -0.2740  0.3302
 5303SOL    HW118929   4.652   8.629   4.770  0.6758 -0.2443 -0.9605
 5303SOL    HW218930   4.711   8.629   4.909 -1.5230  0.1512 -0.0115
 5304SOL     OW18931   4.181   6.312   4.236 -0.0416  0.1420  0.2699
 5304SOL    HW118932   4.225   6.395   4.249 -0.2958  0.2305  0.5712
 5304SOL    HW218933   4.089   6.330   4.254 -0.3743  0.2124 -1.4047
 5305SOL     OW18934   1.195   6.878   3.333 -0.1864  0.0305 -0.1398
 5305SOL    HW118935   1.141   6.955   3.321 -0.6115 -0.2843 -0.2497
 5305SOL    HW218936   1.162   6.837   3.413 -0.7808 -0.7103 -0.7555
 5306SOL     OW18937   5.140   0.201   5.952  0.1101  0.8278  0.3674
 5306SOL    HW118938   5.139   0.294   5.975  0.9181  0.9999 -0.2665
 5306SOL    HW218939   5.065   0.163   5.999  1.1791  1.3420  2.5385
 5307SOL     OW18940   3.975   9.110   5.002  0.6035 -0.0611  0.7010
 5307SOL    HW118941   4.016   9.164   4.935 -0.8910  0.1370 -0.0808
 5307SOL    HW218942   4.047   9.080   5.058  1.9340 -0.7138 -1.3334
 5308SOL     OW18943   6.510   6.342   6.600 -0.3131  0.7284  0.2942
 5308SOL    HW118944   6.483   6.357   6.509 -0.0988  2.1218  0.4487
 5308SOL    HW218945   6.552   6.424   6.626 -0.1142  0.2279  1.5602
 5309SOL     OW18946   0.559   1.844   0.008 -0.4679  0.4374 -0.0271
 5309SOL    HW118947   0.639   1.797  -0.014  0.5942  1.8775  0.6457
 5309SOL    HW218948   0.492   1.777   0.012  0.5920 -0.7180 -1.1756
 5310SOL     OW18949   6.700   6.950   7.286  0.8467  0.4832 -0.0502
 5310SOL    HW118950   6.745   6.877   7.329 -0.1768 -0.3625 -0.4317
 5310SOL    HW218951   6.621   6.963   7.337  1.0695  1.4040  0.0774
 5311SOL     OW18952   3.941   8.440   7.339  0.1607 -0.0522  0.2617
 5311SOL    HW118953   3.974   8.362   7.383  2.5262  0.3988 -0.6314
 5311SOL    HW218954   3.941   8.417   7.246 -1.3551  0.2268  0.1824
 5312SOL     OW18955   1.983   1.817   8.543  0.1058  0.3336  0.1969
 5312SOL    HW118956   1.955   1.883   8.478 -1.0285  0.9153  1.2582
 5312SOL    HW218957   1.901   1.780   8.575  0.6508  0.3437  1.6057
 5313SOL     OW18958   4.478   8.732   3.236 -0.0083 -0.0660 -0.0653
 5313SOL    HW118959   4.457   8.698   3.323 -2.1068  0.4675 -0.3456
 5313SOL    HW218960   4.447   8.822   3.237  0.5009  0.1323 -1.1629
 5314SOL     OW18961   4.055   1.434   9.107 -0.2345  0.0143  0.0024
 5314SOL    HW118962   4.019   1.489   9.038  0.9096 -0.8803 -1.3397
 5314SOL    HW218963   4.150   1.445   9.099 -0.1083  0.3605  1.8219
 5315SOL     OW18964   2.730   7.190   5.144 -0.6016  0.0525 -0.3201
 5315SOL    HW118965   2.719   7.199   5.238  0.3235 -2.2448  0.0439
 5315SOL    HW218966   2.642   7.201   5.108 -1.4092 -1.6049  1.0681
 5316SOL     OW18967   3.565   3.526   6.340  0.5717 -0.1316 -0.1889
 5316SOL    HW118968   3.622   3.495   6.270 -0.0202 -0.7326 -0.4134
 5316SOL    HW218969   3.578   3.464   6.412  1.7223  0.8926  0.5244
 5317SOL     OW18970   3.902   1.604   8.377  0.3545 -0.0930  0.5170
 5317SOL    HW118971   3.967   1.671   8.399  0.4572 -0.1757  0.4695
 5317SOL    HW218972   3.948   1.521   8.390  0.1744 -0.1585  0.7418
 5318SOL     OW18973   3.078   3.835   6.640  0.3114 -0.4811 -0.2219
 5318SOL    HW118974   2.983   3.826   6.636 -0.0021  2.3500 -0.4884
 5318SOL    HW218975   3.100   3.817   6.732 -0.7652  1.0188  0.3481
 5319SOL     OW18976   7.283   3.483   4.115 -0.6129 -0.0223  0.0046
 5319SOL    HW118977   7.339   3.412   4.084 -0.5331 -0.0041  0.1064
 5319SOL    HW218978   7.256   3.456   4.203  0.6681  0.7816  0.6707
 5320SOL     OW18979   5.611   2.222   0.466 -0.3678  0.1219 -0.0610
 5320SOL    HW118980   5.678   2.215   0.399 -0.5430 -0.8161 -0.1454
 5320SOL    HW218981   5.634   2.156   0.531 -0.0590  1.1886  0.9320
 5321SOL     OW18982   5.097   3.854   7.639  0.1653 -0.6443 -0.5799
 5321SOL    HW118983   5.051   3.780   7.598  1.1706 -1.7864  0.3069
 5321SOL    HW218984   5.042   3.879   7.712  0.5762 -1.5231  0.0334
 5322SOL     OW18985   4.979   3.134   4.297  0.4736  0.4137  0.2940
 5322SOL    HW118986   4.902   3.082   4.320  0.6378  0.2792  0.5369
 5322SOL    HW218987   5.052   3.088   4.338  0.4796  1.4786  1.5182
 5323SOL     OW18988   8.157   3.282   0.536 -0.1013  0.0497  0.3213
 5323SOL    HW118989   8.143   3.191   0.508  1.6661 -0.1102 -0.1117
 5323SOL    HW218990   8.154   3.332   0.455 -2.1935  0.5466  0.6802
 5324SOL     OW18991   4.502   9.176   6.974  0.2564  0.0353 -0.2835
 5324SOL    HW118992   4.429   9.128   7.013 -0.6603 -0.0704 -2.0883
 5324SOL    HW218993   4.494   9.265   7.008 -1.3697  0.2958 -1.3130
 5325SOL     OW18994   4.654   8.474   0.974  0.3479  0.1876 -0.1189
 5325SOL    HW118995   4.698   8.533   1.035  0.2470 -0.7766  0.9033
 5325SOL    HW218996   4.669   8.387   1.010 -2.6131 -0.1533  0.3797
 5326SOL     OW18997   7.982   4.097   0.020 -1.0226 -0.1583  0.5202
 5326SOL    HW118998   7.984   4.191   0.004 -0.8220 -0.3265 -0.5216
 5326SOL    HW218999   8.066   4.077   0.061 -0.2205 -0.1774 -1.0817
 5327SOL     OW19000   1.975   8.431   3.217  0.0547 -0.5493  0.2805
 5327SOL    HW119001   2.044   8.489   3.247  0.7571 -0.5342 -1.3087
 5327SOL    HW219002   1.927   8.482   3.151 -0.5712 -1.0633  0.3314
 5328SOL     OW19003   0.710   4.962   1.216 -0.0691  0.3376  0.1965
 5328SOL    HW119004   0.709   5.045   1.168  0.9875 -0.1530 -0.6876
 5328SOL    HW219005   0.633   4.966   1.273 -0.7600  1.3600 -0.7977
 5329SOL     OW19006   4.118   2.456   6.030 -0.0184  0.1595  0.1901
 5329SOL    HW119007   4.071   2.373   6.022 -1.9328  1.3538 -1.4658
 5329SOL    HW219008   4.056   2.514   6.073  0.8269  1.1329  0.1091
 5330SOL     OW19009   3.918   6.150   0.190 -0.4099 -0.0719  0.3294
 5330SOL    HW119010   3.844   6.187   0.143  0.0452  0.3629 -0.0456
 5330SOL    HW219011   3.955   6.223   0.240 -0.0991 -0.2359  0.3448
 5331SOL     OW19012   5.421   1.324   9.045  0.2281  0.0947  0.4117
 5331SOL    HW119013   5.358   1.396   9.047 -1.8792 -1.7410  1.0124
 5331SOL    HW219014   5.373   1.248   9.078  3.5213 -0.7329  3.7059
 5332SOL     OW19015   6.851   3.813   6.057 -0.5583 -0.0655  0.2005
 5332SOL    HW119016   6.863   3.907   6.043  1.9082 -0.3576  0.0921
 5332SOL    HW219017   6.775   3.806   6.115 -0.3626  2.0204  0.7240
 5333SOL     OW19018   6.721   1.195   7.451 -0.2955  0.0190  0.4374
 5333SOL    HW119019   6.745   1.203   7.543  0.4265  0.6211  0.2050
 5333SOL    HW219020   6.782   1.252   7.405  1.1436 -2.3355 -0.6920
 5334SOL     OW19021   0.402   0.043   4.949 -0.4578  0.3438 -0.9021
 5334SOL    HW119022   0.443  -0.038   4.916  2.0740  1.3812 -0.3693
 5334SOL    HW219023   0.374   0.021   5.037 -0.6101 -0.2432 -1.0942
 5335SOL     OW19024   8.406   1.016   6.907 -0.2299 -0.2829  0.3673
 5335SOL    HW119025   8.426   1.108   6.889 -2.5119  0.1368 -0.1869
 5335SOL    HW219026   8.313   1.007   6.886  0.2864 -3.0599 -0.9433
 5336SOL     OW19027   8.206   9.095   7.329  0.5141 -0.9777  0.3980
 5336SOL    HW119028   8.200   9.155   7.254  2.9656 -0.3923  0.6410
 5336SOL    HW219029   8.118   9.096   7.367 -0.3471 -0.0795 -1.5596
 5337SOL     OW19030   8.265   6.822   3.150 -0.2607  0.4556  0.0555
 5337SOL    HW119031   8.201   6.875   3.198  0.3210 -0.1184  1.4871
 5337SOL    HW219032   8.224   6.735   3.144 -0.5487  0.6562 -0.9333
 5338SOL     OW19033   2.906   0.376   9.250 -0.5119  0.9320 -0.3056
 5338SOL    HW119034   2.824   0.411   9.285 -0.7095  1.3991 -1.2037
 5338SOL    HW219035   2.969   0.385   9.322 -0.8471  2.1086 -0.1422
 5339SOL     OW19036   5.510   0.295   9.050  0.6925  0.3461 -0.1021
 5339SOL    HW119037   5.577   0.287   9.118  1.1352 -1.6461 -0.7602
 5339SOL    HW219038   5.477   0.206   9.037 -0.3234  0.9105 -1.5579
 5340SOL     OW19039   6.964   1.139   9.277 -0.0781  0.5121 -0.0311
 5340SOL    HW119040   7.025   1.161   9.207  2.3694 -0.2499  1.7823
 5340SOL    HW219041   6.891   1.199   9.266  0.3409  0.5153 -3.0995
 5341SOL     OW19042   7.714   8.449   6.396  0.0335  0.7985  0.0014
 5341SOL    HW119043   7.774   8.478   6.466  1.8575  1.3204 -1.7405
 5341SOL    HW219044   7.644   8.404   6.443  1.0236  1.4590  2.2186
 5342SOL     OW19045   6.802   9.396   7.882 -0.5555 -0.5349 -0.1696
 5342SOL    HW119046   6.820   9.485   7.852 -0.9874  0.0767  1.2995
 5342SOL    HW219047   6.730   9.366   7.827 -0.5484  0.1125 -0.5401
 5343SOL     OW19048   4.516   4.208   8.665 -0.0785 -0.0195  0.1303
 5343SOL    HW119049   4.516   4.180   8.756  1.7657  0.3404  0.2698
 5343SOL    HW219050   4.575   4.146   8.621 -1.7430 -0.8167 -1.0360
 5344SOL     OW19051   2.109   0.605   8.730  0.1932 -0.1248 -0.5034
 5344SOL    HW119052   2.176   0.573   8.669  0.3342  2.9809 -2.0597
 5344SOL    HW219053   2.159   0.647   8.801 -0.0590  0.9098 -0.9311
 5345SOL     OW19054   8.238   2.849   8.236  0.2603  0.4604 -0.5463
 5345SOL    HW119055   8.321   2.824   8.196  1.1407  1.6093  0.5396
 5345SOL    HW219056   8.176   2.782   8.206  1.7403 -0.8551 -0.7397
 5346SOL     OW19057   0.429   0.563   5.822 -0.2275  0.4036  0.5093
 5346SOL    HW119058   0.487   0.532   5.752 -1.4701  0.3022 -0.4940
 5346SOL    HW219059   0.358   0.498   5.825 -1.2712  1.5327  0.4396
 5347SOL     OW19060   4.846   3.668   5.458 -0.7793  0.0822  0.3501
 5347SOL    HW119061   4.849   3.574   5.439  2.2253 -0.1225  1.4928
 5347SOL    HW219062   4.903   3.707   5.392 -1.2533  0.9997  0.4847
 5348SOL     OW19063   9.305   4.036   2.076 -0.2706 -0.8187  0.5130
 5348SOL    HW119064   9.364   4.049   2.149  0.7672  0.0202 -0.4472
 5348SOL    HW219065   9.269   4.123   2.059 -0.7923 -1.0809  0.2700
 5349SOL     OW19066   3.173   7.395   1.090 -0.0637 -0.0173 -0.1108
 5349SOL    HW119067   3.187   7.422   0.999 -1.0806  1.6977  0.2346
 5349SOL    HW219068   3.257   7.358   1.117  0.4248  0.0130 -1.5562
 5350SOL     OW19069   5.040   0.787   6.487 -0.3710 -0.6631 -0.5384
 5350SOL    HW119070   5.026   0.767   6.394 -0.6676 -1.4085 -0.3387
 5350SOL    HW219071   5.056   0.702   6.527  0.0587 -0.3086  0.0453
 5351SOL     OW19072   4.556   4.421   5.602  0.0160  0.0484  0.5693
 5351SOL    HW119073   4.465   4.429   5.572 -0.0740 -0.3675  0.7352
 5351SOL    HW219074   4.593   4.508   5.589 -0.1037 -0.0558 -0.4968
 5352SOL     OW19075   6.290   4.652   7.190 -0.1634 -0.5973  0.6178
 5352SOL    HW119076   6.374   4.698   7.192 -0.2941 -0.2862 -0.8205
 5352SOL    HW219077   6.244   4.684   7.267  0.7410 -0.2073  1.0044
 5353SOL     OW19078   6.273   8.912   2.373  0.3778 -0.0275  0.2994
 5353SOL    HW119079   6.340   8.931   2.439  2.3633  0.1621 -1.6851
 5353SOL    HW219080   6.306   8.835   2.327  0.4312  1.4448 -2.2400
 5354SOL     OW19081   5.591   2.126   9.142  0.1552 -0.2409  0.0719
 5354SOL    HW119082   5.584   2.051   9.083  1.2949 -0.8671  0.7221
 5354SOL    HW219083   5.531   2.191   9.104 -0.5396 -1.3141 -0.7222
 5355SOL     OW19084   5.550   2.781   4.055 -0.3274 -0.0076  0.3817
 5355SOL    HW119085   5.596   2.858   4.021  1.8221 -1.7772 -0.8609
 5355SOL    HW219086   5.545   2.796   4.149  0.4291  1.4623  0.2067
 5356SOL     OW19087   4.412   2.134   4.935 -0.8356  0.7880  0.0825
 5356SOL    HW119088   4.322   2.107   4.954  0.1716 -1.4955  1.8207
 5356SOL    HW219089   4.434   2.088   4.854  0.0319 -1.6888  1.7010
 5357SOL     OW19090   3.428   0.014   3.749 -0.3583  0.1038 -0.4990
 5357SOL    HW119091   3.507  -0.031   3.779  0.7866  2.4025  0.0015
 5357SOL    HW219092   3.429   0.003   3.654 -0.1862 -1.0295 -0.3806
 5358SOL     OW19093   2.882   1.981   4.344 -0.2797  0.2926 -0.2349
 5358SOL    HW119094   2.817   1.938   4.400  0.0174 -1.6780 -1.3551
 5358SOL    HW219095   2.833   2.052   4.301 -1.3786 -0.3659 -0.1026
 5359SOL     OW19096   8.102   8.224   1.781  0.0103 -0.1564 -0.1227
 5359SOL    HW119097   8.123   8.204   1.873  1.2449  0.7659 -0.1834
 5359SOL    HW219098   8.014   8.261   1.784 -0.0467 -0.3310  0.6630
 5360SOL     OW19099   5.944   1.936   2.043  0.4739 -0.1601 -0.5646
 5360SOL    HW119100   5.930   1.850   2.003 -0.6916  0.2448 -1.0299
 5360SOL    HW219101   5.939   1.920   2.137 -0.4732 -0.4820 -0.6647
 5361SOL     OW19102   1.124   4.882   2.739 -0.2982 -0.1069  0.1762
 5361SOL    HW119103   1.061   4.832   2.687  1.0292  0.0022 -1.5549
 5361SOL    HW219104   1.094   4.870   2.830 -1.2592 -2.2591 -0.3857
 5362SOL     OW19105   4.824   4.848   5.666 -0.4872  0.3605  0.3713
 5362SOL    HW119106   4.762   4.918   5.686  0.8228  1.5318  0.4614
 5362SOL    HW219107   4.910   4.891   5.668  0.5344 -1.6586  2.3544
 5363SOL     OW19108   1.760   2.077   0.430  0.0943 -0.6779  0.0405
 5363SOL    HW119109   1.751   2.006   0.366  1.4313  0.0180 -0.9278
 5363SOL    HW219110   1.790   2.152   0.379 -1.1798  0.5652  1.0807
 5364SOL     OW19111   1.664   2.610   5.372  0.0476 -0.2923  0.0646
 5364SOL    HW119112   1.696   2.592   5.284 -0.0554 -2.5278  0.4463
 5364SOL    HW219113   1.740   2.591   5.429  0.2918  1.6798  0.4270
 5365SOL     OW19114   6.426   9.015   6.243 -0.3448 -0.0910 -0.3452
 5365SOL    HW119115   6.389   9.025   6.156 -1.7252  1.1701  0.3558
 5365SOL    HW219116   6.520   9.023   6.231 -0.5013 -0.3113 -1.7643
 5366SOL     OW19117   6.229   1.835   6.083 -0.6628  0.2406 -0.3407
 5366SOL    HW119118   6.158   1.841   6.147 -0.1633 -0.3053  0.2734
 5366SOL    HW219119   6.185   1.841   5.998 -1.4159  0.1817  0.0378
 5367SOL     OW19120   7.662   2.962   2.307  0.5066  0.3780  0.0055
 5367SOL    HW119121   7.630   3.011   2.382  0.5736  0.4378 -0.0054
 5367SOL    HW219122   7.627   2.873   2.320  2.2278 -0.1568  1.2050
 5368SOL     OW19123   1.657   1.393   4.165  0.5332 -0.3969  0.1563
 5368SOL    HW119124   1.680   1.345   4.085  0.6554  0.0857 -0.1023
 5368SOL    HW219125   1.740   1.430   4.194  0.2872  0.4003 -0.1425
 5369SOL     OW19126   4.583   2.673   5.610  0.2072 -0.0229 -0.2457
 5369SOL    HW119127   4.649   2.647   5.546  1.2571  1.1268  0.3412
 5369SOL    HW219128   4.601   2.619   5.687  0.5573  0.3932 -0.0354
 5370SOL     OW19129   8.219   3.315   8.042  0.4622 -0.0237  0.3636
 5370SOL    HW119130   8.254   3.391   7.996 -0.1179 -0.5556 -0.9771
 5370SOL    HW219131   8.243   3.330   8.134  0.5413  1.6657  0.0906
 5371SOL     OW19132   9.308   7.587   3.677 -0.0048  0.2136 -0.0326
 5371SOL    HW119133   9.356   7.663   3.709  0.5700 -0.7165  1.3342
 5371SOL    HW219134   9.280   7.540   3.756  0.5133 -1.5297 -0.8525
 5372SOL     OW19135   0.680   3.217   0.798 -0.3050 -0.2813  0.0777
 5372SOL    HW119136   0.620   3.147   0.773 -0.9163  0.1805  0.2296
 5372SOL    HW219137   0.667   3.227   0.893 -0.0686 -0.1112  0.0915
 5373SOL     OW19138   1.407   3.143   6.326  0.2758 -0.1998  0.1255
 5373SOL    HW119139   1.489   3.141   6.278 -0.0048  0.3911 -0.3781
 5373SOL    HW219140   1.392   3.235   6.344 -0.5121 -0.2676 -0.1804
 5374SOL     OW19141   1.062   1.471   2.026 -0.3588 -0.6147 -0.2296
 5374SOL    HW119142   1.030   1.556   1.997  0.0544 -0.6825 -0.9006
 5374SOL    HW219143   1.064   1.477   2.122  0.3358  0.3820 -0.2970
 5375SOL     OW19144   9.302   9.169   1.667  0.1022  0.0607 -0.1609
 5375SOL    HW119145   9.373   9.224   1.633  1.1241 -0.1585  1.5314
 5375SOL    HW219146   9.347   9.101   1.718 -1.3405  0.4201  1.6532
 5376SOL     OW19147   3.739   8.699   2.341 -0.1940  0.4197 -0.5119
 5376SOL    HW119148   3.709   8.641   2.270  0.1457  0.4954 -0.7185
 5376SOL    HW219149   3.734   8.787   2.304 -1.2009  0.5767 -0.0276
 5377SOL     OW19150   3.023   6.464   8.540 -0.6260  0.4134 -0.3622
 5377SOL    HW119151   3.019   6.504   8.627 -0.2205 -0.0137 -0.1480
 5377SOL    HW219152   3.086   6.393   8.549 -0.6746  0.2921 -0.9758
 5378SOL     OW19153   0.529   1.038   1.724 -0.1848 -0.1607  0.0201
 5378SOL    HW119154   0.471   1.112   1.709  1.1791  0.5242 -2.0518
 5378SOL    HW219155   0.613   1.064   1.686  0.6014 -2.3881  0.1079
 5379SOL     OW19156   9.280   6.010   6.647  0.4898  0.1628 -0.5618
 5379SOL    HW119157   9.199   5.984   6.691  0.8516  0.3378  0.2217
 5379SOL    HW219158   9.284   6.105   6.659  0.2583  0.2992 -1.5529
 5380SOL     OW19159   4.288   3.388   9.419 -0.1451 -0.1252 -0.4363
 5380SOL    HW119160   4.347   3.461   9.398 -0.9014  1.0193  1.3485
 5380SOL    HW219161   4.205   3.429   9.441 -1.3028 -1.6707 -1.7597
 5381SOL     OW19162   5.878   1.500   0.579  0.1640  0.0397 -0.2268
 5381SOL    HW119163   5.892   1.546   0.661  0.6217 -1.8728  0.7872
 5381SOL    HW219164   5.870   1.570   0.513  0.2072  1.5593  1.3584
 5382SOL     OW19165   4.184   1.484   1.338  0.6302 -0.1769 -0.0003
 5382SOL    HW119166   4.231   1.516   1.261 -0.1511 -0.3053 -0.5303
 5382SOL    HW219167   4.207   1.392   1.344 -0.8760 -0.6545 -1.2492
 5383SOL     OW19168   8.827   2.916   6.067 -0.2222 -0.0465  0.7926
 5383SOL    HW119169   8.733   2.921   6.083 -0.3741  0.3536 -0.2267
 5383SOL    HW219170   8.835   2.895   5.974  0.7141  1.3379  0.5471
 5384SOL     OW19171   4.868   8.114   1.912  0.1045  0.1429 -0.8555
 5384SOL    HW119172   4.875   8.196   1.961 -0.1376 -1.4023  1.8222
 5384SOL    HW219173   4.958   8.088   1.896  0.1810  0.2541 -0.6004
 5385SOL     OW19174   3.287   1.559   2.905  0.5359  0.7288  1.0614
 5385SOL    HW119175   3.304   1.645   2.942  1.0064  0.9454  0.3501
 5385SOL    HW219176   3.250   1.577   2.818  0.6015  0.2149  0.9233
 5386SOL     OW19177   0.732   8.344   5.784 -0.1932 -0.0546  0.2032
 5386SOL    HW119178   0.799   8.277   5.790 -0.1150  0.1826  2.2812
 5386SOL    HW219179   0.703   8.340   5.693  1.1677 -1.5621 -0.1976
 5387SOL     OW19180   0.966   4.532   2.063  0.4752  1.0912 -0.7857
 5387SOL    HW119181   1.028   4.525   2.136 -0.2092  0.2288 -0.2694
 5387SOL    HW219182   0.999   4.469   1.998  0.5712  1.1913 -0.8342
 5388SOL     OW19183   9.027   9.265   6.063 -0.3795 -0.3757  0.2962
 5388SOL    HW119184   9.114   9.249   6.028  0.3847 -1.5159  2.5847
 5388SOL    HW219185   9.042   9.284   6.156 -2.4625  0.7074  0.4360
 5389SOL     OW19186   0.453   8.106   3.598  0.2956  0.3765 -0.1491
 5389SOL    HW119187   0.436   8.018   3.563 -1.1517  0.4262  0.3878
 5389SOL    HW219188   0.545   8.105   3.623  0.4231 -0.8214 -0.6601
 5390SOL     OW19189   1.489   6.687   7.978  0.7235 -0.3571 -0.2422
 5390SOL    HW119190   1.487   6.603   7.932  0.2648 -0.4181 -0.1149
 5390SOL    HW219191   1.560   6.677   8.042  0.3867 -0.8028  0.0657
 5391SOL     OW19192   2.632   3.747   0.622  0.1694  0.1892 -0.3661
 5391SOL    HW119193   2.547   3.706   0.609 -0.6226  1.6178  0.2479
 5391SOL    HW219194   2.612   3.835   0.653  1.8784  0.0082  1.3521
 5392SOL     OW19195   0.293   0.115   4.557  0.3197 -1.0198  0.0394
 5392SOL    HW119196   0.219   0.057   4.538 -0.6541 -0.5825  2.3234
 5392SOL    HW219197   0.364   0.056   4.582  0.3339 -1.3601 -0.7726
 5393SOL     OW19198   3.127   2.933   3.301  0.2399 -0.1531  0.4880
 5393SOL    HW119199   3.067   2.895   3.237  0.5877 -1.6267  1.0138
 5393SOL    HW219200   3.078   3.005   3.340 -0.4695 -0.1042 -0.4730
 5394SOL     OW19201   6.281   8.219   0.910 -0.2646  0.1024  0.1215
 5394SOL    HW119202   6.269   8.311   0.933 -1.0306  0.1923 -0.6156
 5394SOL    HW219203   6.212   8.172   0.958  0.2212 -0.1110  0.6208
 5395SOL     OW19204   3.115   1.590   6.333  0.1048  0.0231  0.2675
 5395SOL    HW119205   3.132   1.496   6.332 -0.0588 -0.0035 -0.9914
 5395SOL    HW219206   3.020   1.598   6.340 -0.1750  0.0287 -2.8650
 5396SOL     OW19207   8.655   2.931   8.210 -0.4666 -0.0163  0.2052
 5396SOL    HW119208   8.600   2.920   8.133  0.6513 -1.9019 -0.3756
 5396SOL    HW219209   8.667   3.025   8.219 -1.2699  0.2527 -1.4502
 5397SOL     OW19210   2.468   2.676   5.312  0.2336 -0.4323  0.7126
 5397SOL    HW119211   2.451   2.581   5.307  0.2263 -0.4619  1.3510
 5397SOL    HW219212   2.546   2.684   5.366 -0.4264 -0.0070  1.6105
 5398SOL     OW19213   8.265   0.512   5.559 -0.0344  0.1285 -0.6596
 5398SOL    HW119214   8.318   0.491   5.482  1.6728  2.4109 -0.1586
 5398SOL    HW219215   8.177   0.482   5.536  0.7021 -0.3963 -2.9779
 5399SOL     OW19216   1.998   6.130   6.113 -0.3108  0.2764 -0.7001
 5399SOL    HW119217   2.078   6.184   6.113 -1.3865  1.9249 -1.5473
 5399SOL    HW219218   1.930   6.190   6.143 -1.1507 -1.2724  0.5164
 5400SOL     OW19219   9.199   2.543   4.801 -0.5821  0.1744  0.0333
 5400SOL    HW119220   9.289   2.533   4.832 -1.0094 -3.5923  0.3819
 5400SOL    HW219221   9.145   2.517   4.875 -2.0070  2.7239 -0.0697
 5401SOL     OW19222   0.855   0.823   6.353 -0.3183  0.6549 -0.0223
 5401SOL    HW119223   0.904   0.815   6.435  0.6095 -0.0784 -0.6454
 5401SOL    HW219224   0.824   0.913   6.352  0.8673  1.0691  0.4501
 5402SOL     OW19225   1.940   7.028   2.218 -0.4069  0.0589  0.4613
 5402SOL    HW119226   1.916   7.034   2.310 -1.9167 -1.5796  0.1970
 5402SOL    HW219227   1.945   6.934   2.200 -0.9030  0.3474 -1.3156
 5403SOL     OW19228   4.684   3.471   3.965  0.5618  0.2688  0.1443
 5403SOL    HW119229   4.761   3.444   4.015  1.3837 -0.0251 -1.2539
 5403SOL    HW219230   4.668   3.397   3.905 -0.3798  0.6306 -0.0464
 5404SOL     OW19231   4.779   7.966   5.812 -0.1841 -0.1454  0.2349
 5404SOL    HW119232   4.764   7.911   5.735  1.1679 -1.1651  0.6942
 5404SOL    HW219233   4.708   7.942   5.872 -1.1994  0.5956 -0.6281
 5405SOL     OW19234   4.595   8.397   3.735  0.0437  0.4390 -0.5753
 5405SOL    HW119235   4.628   8.307   3.743 -1.4000 -0.1335 -0.8191
 5405SOL    HW219236   4.535   8.406   3.810 -0.2909  0.9810 -0.9109
 5406SOL     OW19237   5.753   2.930   7.294  0.0551  0.5101  0.0282
 5406SOL    HW119238   5.849   2.930   7.287  0.0939 -0.2537  0.4998
 5406SOL    HW219239   5.724   2.990   7.225  0.8789  0.8598 -0.0231
 5407SOL     OW19240   0.870   4.488   6.305  0.6147  0.3863  0.5851
 5407SOL    HW119241   0.955   4.531   6.303 -0.1309  1.8461 -1.7847
 5407SOL    HW219242   0.806   4.560   6.302 -0.6549 -0.7606 -1.5807
 5408SOL     OW19243   1.469   9.326   4.629  0.1562 -0.4062 -0.4110
 5408SOL    HW119244   1.429   9.291   4.709  0.4416 -0.6702 -0.3808
 5408SOL    HW219245   1.563   9.314   4.643  0.3755  1.8404  0.2891
 5409SOL     OW19246   4.841   5.285   9.362  0.8908  0.6049 -0.8226
 5409SOL    HW119247   4.783   5.335   9.420  1.0671  0.6649 -0.6969
 5409SOL    HW219248   4.800   5.291   9.276  0.3854  0.1323 -0.6208
 5410SOL     OW19249   3.691   6.801   3.916 -0.2568 -0.2626 -0.5178
 5410SOL    HW119250   3.632   6.798   3.992 -1.8999 -1.4179 -1.8091
 5410SOL    HW219251   3.650   6.744   3.851  1.2555  0.5043 -2.1944
 5411SOL     OW19252   1.792   6.518   7.661  0.0902 -0.6060  0.8415
 5411SOL    HW119253   1.870   6.573   7.666 -0.5996  0.3102  1.7334
 5411SOL    HW219254   1.771   6.514   7.568  0.0109  0.8227  0.8020
 5412SOL     OW19255   7.044   3.250   2.104 -0.2939  0.0058  0.6033
 5412SOL    HW119256   7.119   3.201   2.068 -0.2488  0.4851  0.0437
 5412SOL    HW219257   6.978   3.248   2.035 -0.5689  0.1186  0.8603
 5413SOL     OW19258   4.130   8.804   1.918  0.1566 -0.0155  0.8670
 5413SOL    HW119259   4.143   8.732   1.857 -0.6259 -1.4350  2.3490
 5413SOL    HW219260   4.048   8.845   1.888  0.4318  0.0688  0.2187
 5414SOL     OW19261   0.327   9.271   3.114 -0.1898 -0.5410  0.4413
 5414SOL    HW119262   0.346   9.207   3.183 -2.0899 -0.6127  0.9327
 5414SOL    HW219263   0.271   9.335   3.157 -3.0428 -1.6331 -1.5226
 5415SOL     OW19264   3.984   5.236   2.516  0.1097  0.5243  0.8900
 5415SOL    HW119265   4.012   5.144   2.516 -0.6358  0.2658 -1.2656
 5415SOL    HW219266   4.065   5.286   2.505  0.3822  0.0573  0.7464
 5416SOL     OW19267   6.882   2.862   0.118  0.0947 -0.4676 -0.5032
 5416SOL    HW119268   6.954   2.870   0.055  0.4623 -3.8248 -0.5986
 5416SOL    HW219269   6.813   2.817   0.069 -1.3587  1.0181  0.1585
 5417SOL     OW19270   8.752   1.565   3.378  0.0987 -0.0650  0.0679
 5417SOL    HW119271   8.821   1.530   3.322  2.1567  1.1689  1.7957
 5417SOL    HW219272   8.722   1.644   3.333 -0.8398 -1.0664 -1.1170
 5418SOL     OW19273   3.347   9.396   1.127 -0.9881  0.1760 -0.3607
 5418SOL    HW119274   3.396   9.317   1.149 -0.7196  0.3747 -0.2530
 5418SOL    HW219275   3.276   9.365   1.070 -1.1014 -0.1929 -0.0202
 5419SOL     OW19276   2.837   7.909   5.014 -0.5445 -0.4118 -0.5939
 5419SOL    HW119277   2.870   7.823   5.040 -0.2461  0.6473  2.7856
 5419SOL    HW219278   2.748   7.911   5.049  0.1219  1.3398  1.0999
 5420SOL     OW19279   9.004   6.142   5.144 -0.2416  0.3380  0.7392
 5420SOL    HW119280   8.941   6.146   5.216 -0.1963 -0.3984  0.8161
 5420SOL    HW219281   9.025   6.234   5.126 -2.1018  0.6611  0.0526
 5421SOL     OW19282   1.828   1.025   6.473  0.2366  0.3500  0.1920
 5421SOL    HW119283   1.911   1.054   6.512 -0.4169  0.1840  1.7189
 5421SOL    HW219284   1.824   0.931   6.492  0.0352  0.2105 -0.5189
 5422SOL     OW19285   7.979   5.283   1.750 -0.1318 -0.4414 -0.2809
 5422SOL    HW119286   7.995   5.301   1.657 -2.1036  0.1070 -0.5279
 5422SOL    HW219287   7.971   5.188   1.755  2.2636 -0.6713 -0.2799
 5423SOL     OW19288   0.736   8.949   0.819  0.5017 -0.0752 -0.0746
 5423SOL    HW119289   0.761   8.867   0.777  0.7821 -0.7541  1.3868
 5423SOL    HW219290   0.665   8.925   0.878 -0.3747  0.9967 -0.6701
 5424SOL     OW19291   7.518   1.436   5.350 -0.1188 -0.2571 -0.1009
 5424SOL    HW119292   7.551   1.518   5.313 -1.3960  1.0786  1.6835
 5424SOL    HW219293   7.450   1.408   5.288  0.1427  0.1522 -0.5778
 5425SOL     OW19294   8.702   1.543   4.084 -0.1408 -0.5241  0.0511
 5425SOL    HW119295   8.636   1.475   4.075 -0.2315 -0.3186 -0.9015
 5425SOL    HW219296   8.656   1.616   4.124 -1.0099  0.3225 -2.3833
 5426SOL     OW19297   7.406   2.809   7.365 -0.1455 -0.4491  0.4395
 5426SOL    HW119298   7.425   2.869   7.292  1.0292 -2.5109 -0.9977
 5426SOL    HW219299   7.311   2.797   7.363 -0.2433  0.3603 -0.0480
 5427SOL     OW19300   2.097   4.868   6.018 -0.4842 -0.2466 -0.7365
 5427SOL    HW119301   2.018   4.823   6.047 -1.2894  0.4585 -1.8002
 5427SOL    HW219302   2.101   4.852   5.924 -0.6831  1.7169 -1.0995
 5428SOL     OW19303   4.561   6.737   5.034  0.1987  0.3086 -0.0327
 5428SOL    HW119304   4.486   6.696   4.990  0.2066 -0.7402  0.8853
 5428SOL    HW219305   4.523   6.780   5.111  0.8019 -2.3670  1.8422
 5429SOL     OW19306   4.432   0.258   7.860  0.1721  0.0976 -0.0580
 5429SOL    HW119307   4.520   0.263   7.898 -0.7545  2.1810  1.9034
 5429SOL    HW219308   4.380   0.209   7.924 -0.0249 -1.6222 -1.4675
 5430SOL     OW19309   8.575   8.584   0.063  0.2142 -0.3690 -0.4783
 5430SOL    HW119310   8.647   8.601   0.124  0.0971  0.5903 -0.5910
 5430SOL    HW219311   8.611   8.521   0.001  0.7386 -0.4243 -0.1255
 5431SOL     OW19312   8.024   0.934   0.040 -0.1036  0.2132  0.2277
 5431SOL    HW119313   8.031   0.849   0.083  1.7952  0.4794  0.5146
 5431SOL    HW219314   8.114   0.969   0.041 -0.5522  1.5066 -1.3121
 5432SOL     OW19315   7.311   1.285   0.355 -0.3994  0.2885  0.4899
 5432SOL    HW119316   7.273   1.373   0.359  0.6553  0.9072 -2.0382
 5432SOL    HW219317   7.404   1.300   0.336 -0.3193 -1.3667 -0.5467
 5433SOL     OW19318   1.257   9.108   7.365  0.2229  0.3352 -0.7336
 5433SOL    HW119319   1.338   9.058   7.358 -0.0249 -0.0808 -0.6546
 5433SOL    HW219320   1.195   9.062   7.309 -0.7550 -0.9515  1.3689
 5434SOL     OW19321   3.971   2.748   8.022  0.1978 -0.3270 -0.3835
 5434SOL    HW119322   3.980   2.766   8.115 -2.0315 -0.9212 -0.0193
 5434SOL    HW219323   3.912   2.672   8.018 -0.7105  0.4507 -2.2988
 5435SOL     OW19324   3.098   2.879   2.834 -0.2971 -0.0256 -0.1227
 5435SOL    HW119325   3.065   2.962   2.799 -1.2146 -1.1630 -2.0539
 5435SOL    HW219326   3.054   2.812   2.781  2.9523 -1.6549 -0.8667
 5436SOL     OW19327   5.681   1.682   6.031 -0.2134  0.2639  0.3099
 5436SOL    HW119328   5.589   1.678   6.058 -0.0580 -0.0687  0.7924
 5436SOL    HW219329   5.678   1.707   5.939 -0.7989 -0.1787  0.2082
 5437SOL     OW19330   3.499   2.181   5.114 -0.2699 -0.2276  0.1036
 5437SOL    HW119331   3.480   2.212   5.202 -1.4043  1.0220 -0.5554
 5437SOL    HW219332   3.493   2.086   5.119 -0.1023 -0.1654  1.4152
 5438SOL     OW19333   7.360   9.246   9.343  0.3475 -0.1404  0.2953
 5438SOL    HW119334   7.290   9.291   9.392 -1.6750 -2.1828 -0.6024
 5438SOL    HW219335   7.314   9.201   9.273  2.6793 -1.1059 -0.6461
 5439SOL     OW19336   0.936   4.744   2.596 -0.5445 -0.4373  0.0617
 5439SOL    HW119337   0.906   4.653   2.591  0.3082 -0.8076  1.3885
 5439SOL    HW219338   0.946   4.771   2.505 -4.4638 -0.4410 -0.4643
 5440SOL     OW19339   0.050   9.081   6.188 -0.7216  0.0644 -0.2245
 5440SOL    HW119340   0.043   9.088   6.283  0.5094 -0.9574 -0.0442
 5440SOL    HW219341  -0.040   9.079   6.157 -1.1431 -0.7279  1.0084
 5441SOL     OW19342   9.239   5.938   3.325  0.7186 -0.3378 -0.1533
 5441SOL    HW119343   9.225   5.867   3.387 -1.2560 -1.3938 -1.7821
 5441SOL    HW219344   9.168   6.000   3.342  1.0400  0.0981 -0.3705
 5442SOL     OW19345   6.821   6.421   2.096  0.1107  0.0485  0.2246
 5442SOL    HW119346   6.838   6.366   2.172  1.2325  0.9430  0.6334
 5442SOL    HW219347   6.729   6.405   2.074 -0.3943  0.2756  2.1449
 5443SOL     OW19348   8.048   4.364   7.589 -0.0911  0.3296 -0.3850
 5443SOL    HW119349   8.072   4.275   7.610 -1.1573  0.5805  2.0255
 5443SOL    HW219350   8.091   4.418   7.655  1.3593  1.7226 -2.3971
 5444SOL     OW19351   6.136   2.553   0.245  0.5621 -0.3237 -0.3104
 5444SOL    HW119352   6.227   2.561   0.272  0.1385  0.9993  0.7525
 5444SOL    HW219353   6.131   2.601   0.162  0.5824  0.6429  0.2368
 5445SOL     OW19354   7.253   8.676   8.600 -0.9883  0.3263 -0.4230
 5445SOL    HW119355   7.179   8.616   8.609  0.2959 -1.4002 -0.9731
 5445SOL    HW219356   7.321   8.623   8.559  0.6107  1.8300  0.2334
 5446SOL     OW19357   0.020   1.684   7.350  0.3178  0.8509 -0.2444
 5446SOL    HW119358  -0.054   1.674   7.410  1.4273 -0.4752  0.9275
 5446SOL    HW219359  -0.020   1.711   7.267 -1.3840  1.0995  0.6401
 5447SOL     OW19360   1.765   5.154   8.029 -0.6968  0.9573  0.2598
 5447SOL    HW119361   1.676   5.131   8.052 -0.1643 -0.4718  0.9141
 5447SOL    HW219362   1.771   5.136   7.935 -0.8852  0.3722  0.3584
 5448SOL     OW19363   1.295   9.212   5.587 -0.0370 -0.4852  0.1051
 5448SOL    HW119364   1.319   9.119   5.592  1.3448 -0.1197  0.4786
 5448SOL    HW219365   1.373   9.254   5.550 -0.1387  0.7199  1.2299
 5449SOL     OW19366   3.123   8.057   8.314  0.0189  0.9276  0.3655
 5449SOL    HW119367   3.121   8.089   8.224  2.2798  0.4485  0.1169
 5449SOL    HW219368   3.046   8.001   8.321  1.2754 -1.2481 -2.1647
 5450SOL     OW19369   5.002   7.898   3.253 -0.5803  0.1714  0.5228
 5450SOL    HW119370   5.055   7.822   3.277  0.4647  0.5310 -0.5984
 5450SOL    HW219371   4.932   7.900   3.318  2.8320  1.8947  4.3409
 5451SOL     OW19372   7.993   5.015   6.803 -0.2859  0.8970  1.0842
 5451SOL    HW119373   8.070   5.041   6.855 -0.4058  1.8697  0.7799
 5451SOL    HW219374   8.019   5.033   6.713 -0.5235  0.3224  0.9025
 5452SOL     OW19375   2.024   7.623   7.268  0.5192 -0.2614 -0.1609
 5452SOL    HW119376   2.097   7.614   7.330  1.7857 -2.1185 -1.8448
 5452SOL    HW219377   2.060   7.674   7.196 -0.0840 -0.5160 -0.6487
 5453SOL     OW19378   0.878   4.571   1.007  0.4201  0.1619  0.2199
 5453SOL    HW119379   0.870   4.586   0.913  1.1755  0.9535  0.2832
 5453SOL    HW219380   0.810   4.626   1.046 -0.2032 -0.5198  0.1181
 5454SOL     OW19381   0.116   8.104   5.158 -0.4253  0.1074 -0.2444
 5454SOL    HW119382   0.065   8.026   5.181 -0.6882  0.2705 -0.2652
 5454SOL    HW219383   0.060   8.151   5.096 -0.0678  0.0788 -0.5899
 5455SOL     OW19384   4.306   4.521   2.284  0.4095  0.4032  0.3485
 5455SOL    HW119385   4.333   4.527   2.193  2.0721 -1.0188  0.7069
 5455SOL    HW219386   4.260   4.438   2.291 -1.4473  1.4114  0.4078
 5456SOL     OW19387   4.670   6.997   3.947  0.4017 -0.2509  0.3346
 5456SOL    HW119388   4.762   6.972   3.960  0.0544 -3.4715 -2.5156
 5456SOL    HW219389   4.673   7.073   3.889  1.2992 -1.1066 -0.7704
 5457SOL     OW19390   4.292   6.249   2.627 -0.2868  0.1783 -0.4970
 5457SOL    HW119391   4.235   6.306   2.575 -1.9910 -0.6097  0.4400
 5457SOL    HW219392   4.329   6.187   2.564 -1.6097 -0.1881 -0.9355
 5458SOL     OW19393   0.363   2.983   8.523 -0.2118 -0.1255  0.2263
 5458SOL    HW119394   0.455   2.968   8.540 -0.2137 -1.2984 -0.6873
 5458SOL    HW219395   0.359   3.001   8.429 -0.7875  1.0077  0.4572
 5459SOL     OW19396   1.670   3.125   4.812  0.0659  0.1456  0.3908
 5459SOL    HW119397   1.588   3.173   4.822 -1.1857 -1.4885 -1.6293
 5459SOL    HW219398   1.644   3.034   4.805  1.9836 -0.3173 -1.2660
 5460SOL     OW19399   4.687   6.759   5.448  0.0312  0.3204  0.0196
 5460SOL    HW119400   4.695   6.853   5.433 -0.5225  0.3199 -0.2947
 5460SOL    HW219401   4.755   6.719   5.394  2.0570  0.7074  2.2329
 5461SOL     OW19402   7.774   9.318   4.596  0.1074  0.4324  0.2587
 5461SOL    HW119403   7.746   9.257   4.527 -1.2836  0.4280  0.8023
 5461SOL    HW219404   7.862   9.344   4.571  0.2244 -0.8084 -0.6757
 5462SOL     OW19405   1.682   3.403   4.390  0.1445  0.6253  0.1860
 5462SOL    HW119406   1.754   3.416   4.453 -0.8907  0.4803  1.4205
 5462SOL    HW219407   1.703   3.321   4.346  0.6324  0.4816  0.6823
 5463SOL     OW19408   3.976   1.603   8.893  0.3038  0.3532 -0.5519
 5463SOL    HW119409   3.888   1.631   8.919 -0.9954 -2.4803 -1.7306
 5463SOL    HW219410   4.033   1.639   8.961 -2.2805 -1.4466  2.7312
 5464SOL     OW19411   9.318   2.129   8.802  0.3119  0.5535  0.3891
 5464SOL    HW119412   9.243   2.112   8.859  0.1992  1.1618  0.4294
 5464SOL    HW219413   9.358   2.208   8.839  0.2754  0.9108 -0.3308
 5465SOL     OW19414   2.747   9.181   3.278 -0.6520 -0.4063  0.5098
 5465SOL    HW119415   2.782   9.094   3.300 -3.3940 -1.1804  2.0919
 5465SOL    HW219416   2.678   9.163   3.215 -0.9717  0.6900  0.5507
 5466SOL     OW19417   2.700   8.879   3.898  0.5913 -0.1662  0.5877
 5466SOL    HW119418   2.627   8.874   3.961 -0.0182  0.0340 -0.0978
 5466SOL    HW219419   2.694   8.967   3.862  0.1856 -0.6926 -0.6467
 5467SOL     OW19420   3.694   7.403   5.674  0.3544 -0.0231 -0.0040
 5467SOL    HW119421   3.724   7.405   5.765  1.7418 -0.8775 -0.4190
 5467SOL    HW219422   3.685   7.310   5.654  1.9050  0.0770 -1.3076
 5468SOL     OW19423   2.672   0.693   0.991  0.4252  0.1022 -0.0567
 5468SOL    HW119424   2.645   0.781   0.967  1.6853  0.1807 -1.2266
 5468SOL    HW219425   2.646   0.638   0.917 -0.1408 -0.4697  0.5593
 5469SOL     OW19426   1.532   2.237   1.021  0.6550 -0.0588  0.1171
 5469SOL    HW119427   1.450   2.259   1.066 -0.2638 -0.6319 -1.2062
 5469SOL    HW219428   1.560   2.155   1.062  0.9106  0.4796  1.0171
 5470SOL     OW19429   7.642   3.219   6.341 -0.0036  0.2515  0.7390
 5470SOL    HW119430   7.611   3.212   6.251  2.2140 -1.7274  0.0841
 5470SOL    HW219431   7.577   3.275   6.384  0.4463  3.7650 -2.8121
 5471SOL     OW19432   5.337   0.544   6.497 -0.2385 -0.6990 -0.0384
 5471SOL    HW119433   5.355   0.623   6.548  0.4009 -0.2815 -0.8859
 5471SOL    HW219434   5.289   0.487   6.557  0.3444 -0.1520  0.9742
 5472SOL     OW19435   0.007   1.955   6.062 -0.4593 -0.2417  0.3007
 5472SOL    HW119436   0.004   2.045   6.028  0.1711 -0.3832 -0.1263
 5472SOL    HW219437  -0.056   1.955   6.135 -1.5435  0.1575 -0.6318
 5473SOL     OW19438   7.550   4.761   2.524  0.0502 -0.1246  0.0878
 5473SOL    HW119439   7.483   4.827   2.507 -1.5482 -1.9447 -0.8899
 5473SOL    HW219440   7.606   4.800   2.591 -1.6784  1.6351  0.5483
 5474SOL     OW19441   7.548   3.308   9.190  0.3372  0.0343  0.1989
 5474SOL    HW119442   7.634   3.335   9.157 -0.8258  3.3727 -0.3152
 5474SOL    HW219443   7.559   3.304   9.285  1.0608  0.3691  0.1350
 5475SOL     OW19444   7.953   0.016   7.067 -0.5950  0.1282  0.3389
 5475SOL    HW119445   7.928  -0.046   6.998 -0.1500  0.4218 -0.0944
 5475SOL    HW219446   8.000  -0.037   7.131 -2.4839 -0.4566  1.2519
 5476SOL     OW19447   8.154   0.322   3.323  0.2922 -0.1802 -0.3549
 5476SOL    HW119448   8.121   0.363   3.243  1.1025  0.0301 -0.5868
 5476SOL    HW219449   8.100   0.244   3.334 -1.0904  0.8045 -0.0564
 5477SOL     OW19450   3.329   8.421   2.825 -0.4242 -0.5439  0.5871
 5477SOL    HW119451   3.357   8.353   2.885  0.7671 -0.0940  0.5654
 5477SOL    HW219452   3.403   8.433   2.765 -0.0642  1.6774  1.4046
 5478SOL     OW19453   2.925   0.931   2.001 -0.0259  0.1589  0.5193
 5478SOL    HW119454   2.877   1.009   2.027  0.0555  1.0392 -1.8380
 5478SOL    HW219455   2.864   0.859   2.015 -0.1075  0.6125  2.7014
 5479SOL     OW19456   4.581   4.097   8.271  0.7583  0.3929 -0.0810
 5479SOL    HW119457   4.551   4.187   8.281  2.8108  1.0695  0.2875
 5479SOL    HW219458   4.524   4.046   8.329 -0.5169  1.4365 -0.4162
 5480SOL     OW19459   2.800   6.262   7.073 -0.9296 -0.3022 -0.0440
 5480SOL    HW119460   2.758   6.321   7.011  1.6384 -0.0070 -1.5574
 5480SOL    HW219461   2.745   6.184   7.073 -2.1819  0.5543 -0.9911
 5481SOL     OW19462   2.488   2.870   6.731  0.2872 -0.6127  0.0503
 5481SOL    HW119463   2.570   2.913   6.755 -0.3894 -0.1307  1.5437
 5481SOL    HW219464   2.512   2.779   6.718  1.9763  0.3573 -4.3543
 5482SOL     OW19465   7.268   4.581   5.982 -0.4555 -0.2919  0.0324
 5482SOL    HW119466   7.278   4.644   5.911  0.4175 -0.9365 -0.4369
 5482SOL    HW219467   7.243   4.499   5.938 -0.2647 -0.6026  0.4908
 5483SOL     OW19468   1.597   3.932   3.910 -0.3773  0.3605 -0.5502
 5483SOL    HW119469   1.605   3.951   4.004  2.1495  1.3798 -0.9292
 5483SOL    HW219470   1.664   3.866   3.893 -0.1356  0.9212 -1.8100
 5484SOL     OW19471   3.818   5.695   1.351 -0.0634 -0.0509  0.4252
 5484SOL    HW119472   3.903   5.726   1.381 -0.4528  1.8956 -0.3909
 5484SOL    HW219473   3.802   5.615   1.400  0.7853  1.2961  2.9811
 5485SOL     OW19474   1.162   2.684   0.690  0.2792 -0.1471  0.0404
 5485SOL    HW119475   1.174   2.779   0.699  0.0291 -0.2050  1.0300
 5485SOL    HW219476   1.201   2.648   0.769  1.8991 -1.0003 -1.1114
 5486SOL     OW19477   8.696   7.817   0.035  0.1753 -0.0706 -0.5569
 5486SOL    HW119478   8.622   7.771   0.074 -0.6750  1.2225 -0.6119
 5486SOL    HW219479   8.773   7.766   0.062 -0.6674 -0.9956  0.1330
 5487SOL     OW19480   8.865   4.047   5.773  0.4186 -0.6195 -0.4940
 5487SOL    HW119481   8.921   3.999   5.711 -0.4565  0.0255 -1.8019
 5487SOL    HW219482   8.868   4.137   5.743  0.2743 -0.2294  0.6435
 5488SOL     OW19483   6.384   8.745   4.845 -0.1679 -0.1702  0.1977
 5488SOL    HW119484   6.312   8.760   4.784 -1.4653  0.2326  1.7827
 5488SOL    HW219485   6.405   8.833   4.878  2.5327  0.0323 -1.8253
 5489SOL     OW19486   4.361   4.699   3.191  0.1661  0.7088 -0.4256
 5489SOL    HW119487   4.384   4.612   3.224 -0.2916  0.1889 -1.4381
 5489SOL    HW219488   4.281   4.684   3.140 -0.1701  1.8044 -0.2230
 5490SOL     OW19489   7.366   8.489   4.945  0.5140  0.0518 -0.1681
 5490SOL    HW119490   7.445   8.471   4.895  0.7976  0.5432  0.1026
 5490SOL    HW219491   7.394   8.487   5.036 -0.2640 -2.1886  0.0437
 5491SOL     OW19492   1.175   0.100   6.532 -0.0972  0.2867 -0.3984
 5491SOL    HW119493   1.264   0.099   6.497  0.3976 -0.7126  0.8808
 5491SOL    HW219494   1.165   0.187   6.569  0.7635 -0.0009  0.5231
 5492SOL     OW19495   1.904   0.070   7.676 -0.0982  0.2226  0.0317
 5492SOL    HW119496   1.879   0.162   7.681 -0.1856  0.1044  2.0588
 5492SOL    HW219497   1.960   0.056   7.752  0.5157 -1.2338 -0.6599
 5493SOL     OW19498   1.748   7.587   2.362 -0.0907 -0.8667  0.7921
 5493SOL    HW119499   1.780   7.528   2.295 -2.7659  0.1386 -1.4481
 5493SOL    HW219500   1.691   7.534   2.417 -0.2308 -1.0296  0.4880
 5494SOL     OW19501   7.941   4.807   0.994  0.6406 -0.2919  0.2831
 5494SOL    HW119502   7.987   4.729   1.024  2.4144  0.8608  0.6060
 5494SOL    HW219503   7.986   4.833   0.914 -0.5289 -0.1088 -0.3304
 5495SOL     OW19504   4.259   0.110   0.561 -0.5708  0.3784 -0.3241
 5495SOL    HW119505   4.233   0.180   0.502  1.2835  0.7698 -0.7166
 5495SOL    HW219506   4.227   0.030   0.519 -2.0257  0.9173 -0.2514
 5496SOL     OW19507   9.331   6.808   7.262 -0.0763 -0.2307  0.2058
 5496SOL    HW119508   9.392   6.873   7.226  0.0895 -0.4186  0.1449
 5496SOL    HW219509   9.371   6.782   7.345 -1.6468  1.9711  1.7281
 5497SOL     OW19510   5.952   8.103   1.296  0.0427 -0.5759 -0.2803
 5497SOL    HW119511   5.908   8.085   1.379  0.6951 -0.7586  0.0322
 5497SOL    HW219512   5.883   8.137   1.239 -0.5312 -0.9972  0.1530
 5498SOL     OW19513   7.610   2.167   5.029 -0.1346 -0.0767 -0.2010
 5498SOL    HW119514   7.608   2.200   5.120 -0.7338 -2.1224  0.5466
 5498SOL    HW219515   7.669   2.093   5.031 -1.2776 -1.0357 -1.1706
 5499SOL     OW19516   5.113   3.357   7.466 -0.3330  0.5514 -0.3121
 5499SOL    HW119517   5.200   3.355   7.427  0.2315  0.1275  0.9757
 5499SOL    HW219518   5.060   3.303   7.407  0.8988 -1.4710  0.3819
 5500SOL     OW19519   2.622   7.082   1.514  0.0934  0.0585 -0.2324
 5500SOL    HW119520   2.717   7.087   1.517  0.0501  0.3835  0.5234
 5500SOL    HW219521   2.594   7.171   1.491 -0.0627  0.1206  0.2048
 5501SOL     OW19522   0.645   6.937   4.394  0.2475  0.2049  0.4936
 5501SOL    HW119523   0.620   6.940   4.486  0.2159  0.1663  0.4867
 5501SOL    HW219524   0.740   6.952   4.394  0.3458 -0.4389  0.5787
 5502SOL     OW19525   6.696   8.139   3.026  0.0405 -0.3571  0.3402
 5502SOL    HW119526   6.649   8.064   3.061  1.9080 -1.7755 -0.1203
 5502SOL    HW219527   6.784   8.132   3.064  0.2534  1.5599  0.2401
 5503SOL     OW19528   4.164   9.443   4.374  0.3259  0.4988  0.0236
 5503SOL    HW119529   4.151   9.421   4.282  0.7968  0.8587 -0.1304
 5503SOL    HW219530   4.095   9.396   4.420 -0.2225  0.7281 -0.5653
 5504SOL     OW19531   4.046   4.109   0.688  1.0884  0.0103 -0.5857
 5504SOL    HW119532   4.066   4.181   0.747  0.2659  0.5755 -0.9792
 5504SOL    HW219533   4.059   4.030   0.740 -0.0184  0.5159  0.4739
 5505SOL     OW19534   3.007   6.487   3.672 -0.1879 -0.1721 -0.6295
 5505SOL    HW119535   2.998   6.538   3.752 -0.2086  1.0814 -1.4199
 5505SOL    HW219536   2.937   6.518   3.615  2.3109  1.9727 -2.7048
 5506SOL     OW19537   0.606   3.064   9.175  0.3293 -0.3466 -0.5703
 5506SOL    HW119538   0.548   3.139   9.187  2.2475  1.0624  0.1976
 5506SOL    HW219539   0.571   3.019   9.098 -0.7278  1.4740 -1.1966
 5507SOL     OW19540   0.069   4.282   8.229  0.0883 -0.5317 -0.0481
 5507SOL    HW119541   0.096   4.269   8.139  1.7814  0.6904  0.2682
 5507SOL    HW219542   0.019   4.203   8.251  0.0816 -1.0421 -1.8799
 5508SOL     OW19543   9.229   7.819   5.239  0.5644  0.0751  0.3118
 5508SOL    HW119544   9.204   7.746   5.183  1.3381 -0.7042  0.9658
 5508SOL    HW219545   9.189   7.800   5.323  1.2739  0.0821  0.6555
 5509SOL     OW19546   8.548   3.615   0.805  0.3100 -0.4672 -0.3661
 5509SOL    HW119547   8.452   3.609   0.804  0.1907  0.9191  1.0143
 5509SOL    HW219548   8.571   3.608   0.897  1.2370  3.0597 -0.2782
 5510SOL     OW19549   4.213   8.730   6.924  0.1826 -0.3410  0.4734
 5510SOL    HW119550   4.186   8.739   6.833 -2.7895  1.0321  1.4312
 5510SOL    HW219551   4.291   8.785   6.932  1.6154 -1.9619 -1.6320
 5511SOL     OW19552   5.880   2.500   4.219  0.2138  1.0619 -0.0789
 5511SOL    HW119553   5.831   2.458   4.289 -1.5870  0.6180 -1.5825
 5511SOL    HW219554   5.901   2.587   4.253 -0.3483  0.7344  1.1355
 5512SOL     OW19555   2.407   0.137   3.413 -0.1211 -0.2675 -0.5707
 5512SOL    HW119556   2.337   0.196   3.385  0.4483  0.7797  0.1737
 5512SOL    HW219557   2.456   0.188   3.477 -0.1510 -1.8832  0.7530
 5513SOL     OW19558   3.120   0.330   7.880 -0.2516  0.0838  0.2717
 5513SOL    HW119559   3.133   0.388   7.955  0.4014 -0.0294  0.2479
 5513SOL    HW219560   3.093   0.389   7.809 -2.5858 -0.0189  1.0351
 5514SOL     OW19561   8.099   6.945   2.442 -0.3056  0.2259  0.4780
 5514SOL    HW119562   8.022   6.987   2.481 -1.0239  0.7981 -1.4780
 5514SOL    HW219563   8.173   6.983   2.489 -1.1896 -0.0502  2.1272
 5515SOL     OW19564   6.575   8.763   6.534  0.0495  0.6002 -0.4134
 5515SOL    HW119565   6.605   8.818   6.607 -1.2674 -0.0898  0.6669
 5515SOL    HW219566   6.481   8.778   6.530 -0.2873 -1.3455 -0.2786
 5516SOL     OW19567   4.188   8.015   7.600  0.0384  0.1441 -0.2914
 5516SOL    HW119568   4.261   8.071   7.627  1.9394 -1.6559 -1.5908
 5516SOL    HW219569   4.132   8.011   7.678  1.4148  1.3687  0.8053
 5517SOL     OW19570   1.794   4.015   3.573 -0.3329 -0.3083 -0.4001
 5517SOL    HW119571   1.777   3.921   3.572 -1.2590 -0.1391 -1.1264
 5517SOL    HW219572   1.845   4.032   3.494  1.1726 -0.4248  0.5170
 5518SOL     OW19573   7.835   7.805   6.769 -0.2392  0.5734  0.6085
 5518SOL    HW119574   7.803   7.890   6.798 -0.0104  0.7348  0.3945
 5518SOL    HW219575   7.931   7.812   6.775 -0.2641 -0.3651  2.5480
 5519SOL     OW19576   3.721   3.309   5.977  0.3019 -0.0874 -0.1648
 5519SOL    HW119577   3.688   3.396   6.001 -0.1504 -0.3621  0.2189
 5519SOL    HW219578   3.793   3.327   5.917 -1.3978  0.5119 -2.1020
 5520SOL     OW19579   8.318   8.502   0.638  0.0097 -0.1655  0.3705
 5520SOL    HW119580   8.347   8.574   0.582  0.6931 -0.7306 -0.0116
 5520SOL    HW219581   8.400   8.468   0.676 -0.2257 -1.2709 -0.0981
 5521SOL     OW19582   3.961   1.980   7.770  0.2814  0.2314  0.2483
 5521SOL    HW119583   3.988   1.892   7.744 -0.4649 -0.3501  1.4395
 5521SOL    HW219584   3.866   1.976   7.778  0.3256  0.8784  1.2761
 5522SOL     OW19585   6.530   8.292   0.803  0.3321 -0.0491  0.0566
 5522SOL    HW119586   6.570   8.224   0.857  0.6806  0.8872  1.0018
 5522SOL    HW219587   6.436   8.283   0.817  0.4223  0.1738  0.8080
 5523SOL     OW19588   5.622   4.583   1.762 -0.0482  0.3341  0.2214
 5523SOL    HW119589   5.685   4.583   1.835 -1.5958 -1.2284  1.5780
 5523SOL    HW219590   5.580   4.669   1.768 -0.5397  0.0234  1.5369
 5524SOL     OW19591   4.599   3.602   6.543  0.4852 -0.6037 -0.1014
 5524SOL    HW119592   4.594   3.586   6.449 -2.2022 -1.6220  0.1585
 5524SOL    HW219593   4.610   3.515   6.581 -0.6282 -0.4257  0.6401
 5525SOL     OW19594   3.118   6.712   5.030  0.2521 -0.1003  0.6273
 5525SOL    HW119595   3.063   6.767   4.974  0.4983 -0.1051  0.3792
 5525SOL    HW219596   3.204   6.752   5.025  0.3182 -0.2141  0.8528
 5526SOL     OW19597   6.937   4.663   0.134 -0.5387  0.2774  0.3760
 5526SOL    HW119598   6.943   4.758   0.144 -0.0654  0.1423  1.4289
 5526SOL    HW219599   7.022   4.638   0.098 -0.7861  0.2904 -0.2201
 5527SOL     OW19600   1.422   0.643   6.181 -0.3200 -0.0219 -0.3008
 5527SOL    HW119601   1.425   0.640   6.277  0.0708 -1.2113 -0.3476
 5527SOL    HW219602   1.367   0.718   6.162  1.1602  1.4172  0.8486
 5528SOL     OW19603   4.071   2.012   2.159 -0.0694 -0.8132 -0.0484
 5528SOL    HW119604   4.068   2.041   2.250  0.8652  0.4217 -0.3894
 5528SOL    HW219605   4.062   2.093   2.108  1.7619 -1.2095 -1.0316
 5529SOL     OW19606   7.572   3.676   1.383  0.5174  0.4359 -0.4527
 5529SOL    HW119607   7.628   3.640   1.452 -0.9767 -1.2179 -0.0744
 5529SOL    HW219608   7.516   3.739   1.429 -1.1521 -1.3875  0.0519
 5530SOL     OW19609   4.587   2.944   2.990  0.0168 -0.6429 -0.1916
 5530SOL    HW119610   4.534   2.868   3.012 -0.9459 -0.2504 -1.1046
 5530SOL    HW219611   4.557   2.970   2.902 -0.2147  1.2442  0.4037
 5531SOL     OW19612   1.763   6.386   2.465 -0.9081  0.3418 -0.4380
 5531SOL    HW119613   1.716   6.377   2.548  0.5672  0.6565  0.4618
 5531SOL    HW219614   1.789   6.478   2.462  0.0872  0.0629 -0.6620
 5532SOL     OW19615   0.237   2.290   2.708 -0.5483  0.3362  0.1874
 5532SOL    HW119616   0.284   2.243   2.640  1.8458  1.3655  1.0610
 5532SOL    HW219617   0.271   2.379   2.703 -2.1676  1.0178  1.0901
 5533SOL     OW19618   8.013   2.530   6.252  0.2160 -0.4155 -0.8164
 5533SOL    HW119619   8.083   2.503   6.192 -1.5529 -1.5972 -2.4620
 5533SOL    HW219620   7.936   2.541   6.195 -1.0287  0.4616  0.9718
 5534SOL     OW19621   9.375   3.686   6.169  0.1560  0.0968  0.2523
 5534SOL    HW119622   9.388   3.703   6.263 -0.5588 -0.4949  0.4598
 5534SOL    HW219623   9.401   3.595   6.158  1.1707  0.4447 -0.3131
 5535SOL     OW19624   1.241   0.006   5.720 -0.4436 -0.5217  0.0897
 5535SOL    HW119625   1.282  -0.076   5.695  1.2261  0.7220 -1.4265
 5535SOL    HW219626   1.276   0.026   5.806 -0.0751 -0.9090  0.0296
 5536SOL     OW19627   8.683   2.035   7.723 -0.2173  0.8448 -0.3358
 5536SOL    HW119628   8.619   2.021   7.653 -0.3921  2.1868 -0.4702
 5536SOL    HW219629   8.664   1.968   7.788  0.1265 -0.6047 -1.7032
 5537SOL     OW19630   0.372   2.785   9.230  0.2906  0.3684  0.4829
 5537SOL    HW119631   0.350   2.702   9.186 -0.1269  0.9607 -0.4479
 5537SOL    HW219632   0.459   2.770   9.266  1.9146  0.8153 -3.0659
 5538SOL     OW19633   4.205   4.521   4.793 -0.4019 -0.5856  0.9050
 5538SOL    HW119634   4.172   4.522   4.703 -0.3525  0.5146  0.8924
 5538SOL    HW219635   4.129   4.544   4.846 -0.3389 -0.8620  1.1122
 5539SOL     OW19636   7.031   2.152   3.134 -0.5006  1.0802  0.2737
 5539SOL    HW119637   7.081   2.192   3.205 -0.8750  0.6132  0.8102
 5539SOL    HW219638   7.069   2.188   3.054 -0.5426  2.1714  0.7314
 5540SOL     OW19639   5.920   1.310   4.502  0.1670 -0.1751  0.5582
 5540SOL    HW119640   5.882   1.336   4.586 -0.8775 -1.1253  0.3985
 5540SOL    HW219641   6.004   1.271   4.525  0.7972  1.3983  0.9733
 5541SOL     OW19642   8.724   7.883   1.058  0.2389 -0.0091  0.4583
 5541SOL    HW119643   8.798   7.881   1.118  1.7743  0.6775 -1.3627
 5541SOL    HW219644   8.720   7.974   1.028 -0.3108 -0.4215 -0.7363
 5542SOL     OW19645   4.061   5.366   3.077 -0.2101  0.0958 -0.1572
 5542SOL    HW119646   4.075   5.382   2.984  2.1930  0.3503  0.2118
 5542SOL    HW219647   4.004   5.438   3.105  4.0462  3.7687 -0.2173
 5543SOL     OW19648   3.277   4.606   5.925  0.2164 -0.3490  0.0376
 5543SOL    HW119649   3.301   4.676   5.865  0.1294 -1.0906 -0.8875
 5543SOL    HW219650   3.230   4.543   5.870  1.1938 -1.6095  0.6108
 5544SOL     OW19651   5.317   0.591   6.036 -0.2044 -0.1710 -0.1443
 5544SOL    HW119652   5.225   0.566   6.041 -0.5941  1.2833  0.2705
 5544SOL    HW219653   5.364   0.508   6.033 -1.3144 -1.0584  3.6069
 5545SOL     OW19654   3.398   1.621   5.044  0.1384 -0.4076  0.6287
 5545SOL    HW119655   3.445   1.598   5.125  1.3639 -0.5188 -0.0940
 5545SOL    HW219656   3.449   1.579   4.975  0.2756  1.3956 -0.3858
 5546SOL     OW19657   4.342   3.776   6.546  0.5295  0.5021 -0.4498
 5546SOL    HW119658   4.411   3.834   6.577  1.4779 -0.0411 -1.5173
 5546SOL    HW219659   4.356   3.695   6.595 -1.2156  1.3688  1.5466
 5547SOL     OW19660   0.806   8.213   2.311  0.6191 -0.7596  0.1278
 5547SOL    HW119661   0.856   8.230   2.390  0.6510  1.6566 -0.3873
 5547SOL    HW219662   0.732   8.273   2.315  0.7917 -0.3586 -1.8210
 5548SOL     OW19663   7.615   1.762   7.152 -0.0182 -0.1856  0.6505
 5548SOL    HW119664   7.592   1.812   7.231  2.2940  1.0809  0.5454
 5548SOL    HW219665   7.614   1.671   7.181 -0.6454  0.1722  1.7776
 5549SOL     OW19666   2.852   2.285   7.750 -0.6968 -0.1513 -0.1019
 5549SOL    HW119667   2.793   2.292   7.675 -0.1986 -1.4596 -0.6299
 5549SOL    HW219668   2.829   2.202   7.791 -1.7378  1.0673  1.8803
 5550SOL     OW19669   6.411   5.858   2.901  0.4135  0.5822 -0.2091
 5550SOL    HW119670   6.475   5.921   2.932  0.4347  0.4548  0.0101
 5550SOL    HW219671   6.453   5.772   2.913  0.7465  0.5778 -1.3648
 5551SOL     OW19672   4.634   2.107   7.725 -0.5458 -0.0176  0.2556
 5551SOL    HW119673   4.714   2.138   7.767  0.7083  0.7869 -2.5999
 5551SOL    HW219674   4.576   2.184   7.723 -0.5241  0.0002  0.3182
 5552SOL     OW19675   0.201   4.194   5.032  0.3178  0.4614  0.1145
 5552SOL    HW119676   0.211   4.169   5.123 -0.3368  0.7994  0.2838
 5552SOL    HW219677   0.189   4.111   4.985 -0.2602  0.3508  0.4576
 5553SOL     OW19678   3.066   8.484   6.799 -0.1621 -0.5096 -0.4862
 5553SOL    HW119679   3.117   8.409   6.832 -0.8814 -1.1200 -0.7577
 5553SOL    HW219680   3.133   8.547   6.771  0.4939  0.0448  2.1240
 5554SOL     OW19681   2.367   4.488   2.843  0.0460 -0.0169  0.5685
 5554SOL    HW119682   2.444   4.533   2.809 -0.8104 -0.3745 -1.9733
 5554SOL    HW219683   2.312   4.557   2.880  0.5842  0.5081  0.3890
 5555SOL     OW19684   2.256   8.544   6.349  0.3917  0.1872 -0.3910
 5555SOL    HW119685   2.254   8.492   6.430 -1.2074 -0.2228 -0.6690
 5555SOL    HW219686   2.344   8.580   6.345  1.2021 -1.6659  0.3622
 5556SOL     OW19687   3.787   0.778   5.175  0.2471 -0.5133 -0.3932
 5556SOL    HW119688   3.809   0.870   5.160 -1.3832 -0.2603 -1.2844
 5556SOL    HW219689   3.857   0.730   5.131  2.3447  0.2636  1.9374
 5557SOL     OW19690   5.247   7.868   6.529  0.3838  0.8065  0.2994
 5557SOL    HW119691   5.161   7.832   6.553  0.5824  0.3887  0.3850
 5557SOL    HW219692   5.309   7.821   6.585  0.7608  0.4547 -0.4042
 5558SOL     OW19693   6.668   6.250   0.495  0.1278 -0.0937  0.5955
 5558SOL    HW119694   6.680   6.155   0.494  3.4028  0.2919  0.1430
 5558SOL    HW219695   6.748   6.284   0.535 -0.9383  2.5138  0.5973
 5559SOL     OW19696   7.471   0.861   6.814 -0.2785  0.5929  0.3877
 5559SOL    HW119697   7.416   0.783   6.817 -0.9837  1.1085  1.2313
 5559SOL    HW219698   7.434   0.919   6.881  0.5449  1.4424  0.1211
 5560SOL     OW19699   4.231   6.580   5.575 -0.4213  0.5346 -0.7123
 5560SOL    HW119700   4.154   6.622   5.536 -0.0552  1.4151 -0.4952
 5560SOL    HW219701   4.304   6.636   5.551  0.3573 -0.9808 -2.0065
 5561SOL     OW19702   7.837   0.393   4.116 -0.9266 -0.4711  0.3063
 5561SOL    HW119703   7.872   0.339   4.186 -1.8794 -0.9463  0.4205
 5561SOL    HW219704   7.758   0.348   4.087 -0.8136 -0.0219 -0.7395
 5562SOL     OW19705   1.497   8.960   0.476  0.2842  0.1898 -0.2755
 5562SOL    HW119706   1.448   8.908   0.539  0.0879  0.6319 -0.0650
 5562SOL    HW219707   1.479   9.051   0.500  1.3247  0.3563 -0.0977
 5563SOL     OW19708   6.334   6.659   8.575  0.2368 -0.0611  0.3298
 5563SOL    HW119709   6.273   6.701   8.515 -0.0384 -1.2627 -0.2390
 5563SOL    HW219710   6.294   6.669   8.661 -0.7053 -0.7249 -0.0261
 5564SOL     OW19711   3.381   9.104   1.972  0.0096  0.3450  0.0227
 5564SOL    HW119712   3.305   9.091   2.029 -0.2300  0.5335 -0.2533
 5564SOL    HW219713   3.399   9.198   1.977  0.8226  0.1598  0.8439
 5565SOL     OW19714   2.262   1.463   4.549  0.3750  0.3472  0.6248
 5565SOL    HW119715   2.197   1.496   4.612  0.4889 -0.7215  1.2998
 5565SOL    HW219716   2.300   1.386   4.591  2.0085  0.8883  0.1802
 5566SOL     OW19717   4.371   8.650   6.164  0.4491  0.8458 -0.3578
 5566SOL    HW119718   4.434   8.699   6.112 -0.6856  0.5611 -2.0401
 5566SOL    HW219719   4.354   8.705   6.240  1.7954  1.4654 -0.4886
 5567SOL     OW19720   7.745   2.839   2.670  0.4026 -0.7268  0.2082
 5567SOL    HW119721   7.715   2.927   2.692 -0.6076 -0.8314 -0.6935
 5567SOL    HW219722   7.830   2.852   2.626  0.1345 -0.1873 -0.1465
 5568SOL     OW19723   6.411   2.515   3.076 -0.0684  0.6557 -0.4636
 5568SOL    HW119724   6.495   2.535   3.118  0.3934 -0.2863 -0.9009
 5568SOL    HW219725   6.372   2.447   3.131 -0.8064  1.4740  0.0400
 5569SOL     OW19726   8.156   5.892   7.401  0.4996 -0.4678  0.4882
 5569SOL    HW119727   8.223   5.841   7.356 -1.0053 -1.2038 -0.9800
 5569SOL    HW219728   8.089   5.907   7.334  0.1551  2.0424  1.3341
 5570SOL     OW19729   2.634   9.442   1.489  0.1414 -0.7126 -0.2127
 5570SOL    HW119730   2.720   9.484   1.490  1.0596 -2.5240 -1.3424
 5570SOL    HW219731   2.592   9.475   1.410 -0.2781  0.2574  0.3962
 5571SOL     OW19732   8.199   6.691   5.423 -0.5493  0.4857  0.0450
 5571SOL    HW119733   8.165   6.743   5.350 -0.7948  2.8086  1.7523
 5571SOL    HW219734   8.121   6.661   5.469 -0.4060  1.9740  1.3234
 5572SOL     OW19735   2.524   1.195   1.558  0.4228 -0.0147 -0.3816
 5572SOL    HW119736   2.561   1.268   1.508 -0.9999  1.8370  1.2113
 5572SOL    HW219737   2.495   1.132   1.491  2.0792  0.6424 -1.7508
 5573SOL     OW19738   4.938   3.899   4.682  0.0821  0.1801 -0.0616
 5573SOL    HW119739   4.909   3.975   4.732 -0.9584 -0.0557 -0.2863
 5573SOL    HW219740   4.893   3.825   4.723 -0.3028 -0.0926 -0.9553
 5574SOL     OW19741   0.139   4.669   8.406 -0.2180 -0.1099  0.4638
 5574SOL    HW119742   0.154   4.578   8.435  0.6442 -0.1843 -0.1904
 5574SOL    HW219743   0.106   4.713   8.484  0.7942 -0.6340  1.2072
 5575SOL     OW19744   7.807   0.346   5.571  0.4523  0.0087 -0.0938
 5575SOL    HW119745   7.723   0.383   5.598  0.7370  1.0394 -0.6055
 5575SOL    HW219746   7.790   0.312   5.483  1.4152  3.1785 -1.5462
 5576SOL     OW19747   0.527   7.960   0.491 -0.3308  0.2788 -0.4406
 5576SOL    HW119748   0.554   7.869   0.477  0.2735  0.0780  1.7716
 5576SOL    HW219749   0.434   7.953   0.516  0.0001  0.1541  0.7899
 5577SOL     OW19750   1.416   1.556   8.580 -0.3472  0.6122  0.4092
 5577SOL    HW119751   1.386   1.513   8.660  2.3135  1.1290  1.7299
 5577SOL    HW219752   1.401   1.649   8.595 -0.8118  0.6339 -0.1432
 5578SOL     OW19753   6.559   6.141   2.209 -0.3947 -0.2884  0.0044
 5578SOL    HW119754   6.613   6.062   2.197  0.2315 -0.0641  1.3216
 5578SOL    HW219755   6.505   6.144   2.130  2.7997  0.5071 -2.2542
 5579SOL     OW19756   3.581   8.500   4.002  0.0157 -0.0939 -0.0268
 5579SOL    HW119757   3.574   8.533   4.092  0.6456  0.8297 -0.3200
 5579SOL    HW219758   3.653   8.436   4.005 -0.0980 -0.2136  0.1638
 5580SOL     OW19759   6.234   0.787   2.942  0.3214 -0.5561  0.3371
 5580SOL    HW119760   6.305   0.783   2.878  0.5592 -1.2921  0.6365
 5580SOL    HW219761   6.218   0.881   2.955 -0.2929 -0.4029 -1.4053
 5581SOL     OW19762   1.758   4.318   1.614 -0.0961 -0.2647  0.3012
 5581SOL    HW119763   1.839   4.331   1.564 -0.2177 -2.1990 -0.4473
 5581SOL    HW219764   1.730   4.406   1.638  1.5480  0.5073 -0.5261
 5582SOL     OW19765   9.165   0.610   1.456 -0.6787  0.4234 -0.3890
 5582SOL    HW119766   9.218   0.689   1.443 -2.6778  1.7180 -0.8430
 5582SOL    HW219767   9.103   0.633   1.525 -0.1237 -1.3515  0.7265
 5583SOL     OW19768   0.053   1.870   4.614  0.0683 -0.0146 -1.0990
 5583SOL    HW119769   0.010   1.955   4.618  0.4305  0.1036  0.8279
 5583SOL    HW219770   0.123   1.881   4.550 -0.7760  0.7024 -1.9237
 5584SOL     OW19771   4.909   3.759   1.776  0.2310 -0.0373  0.0682
 5584SOL    HW119772   4.828   3.807   1.797  1.7022  1.5191  2.4890
 5584SOL    HW219773   4.951   3.811   1.708  0.9994  1.2769  1.5012
 5585SOL     OW19774   2.595   6.655   0.448 -0.2551  0.1936  0.4231
 5585SOL    HW119775   2.565   6.564   0.442  0.7292 -0.0479 -1.6866
 5585SOL    HW219776   2.516   6.708   0.443 -0.6056 -0.4959 -1.9923
 5586SOL     OW19777   8.245   2.974   9.132 -0.4979 -0.5351  0.0059
 5586SOL    HW119778   8.159   2.996   9.169 -0.2246 -0.0768  0.3791
 5586SOL    HW219779   8.307   2.995   9.202  0.2790  2.7921 -1.5970
 5587SOL     OW19780   5.365   8.060   1.655  0.5462  0.0443 -0.0855
 5587SOL    HW119781   5.371   7.973   1.615 -0.5508  0.0948 -0.3584
 5587SOL    HW219782   5.312   8.046   1.734  1.3405  0.2516  0.4894
 5588SOL     OW19783   1.652   3.612   7.114  0.1203  0.1847  0.4924
 5588SOL    HW119784   1.612   3.526   7.128 -0.8609  0.7567  1.2697
 5588SOL    HW219785   1.682   3.639   7.200 -0.6801  1.1583  0.4738
 5589SOL     OW19786   0.978   2.541   6.364  0.1033  0.9384  0.5507
 5589SOL    HW119787   0.900   2.486   6.360  0.4942  0.4542 -0.7246
 5589SOL    HW219788   1.002   2.542   6.456  0.0786 -1.0458  0.6086
 5590SOL     OW19789   2.074   3.090   4.695 -0.4019  0.5836 -0.0338
 5590SOL    HW119790   1.995   3.138   4.721 -0.1716  0.6889  0.4733
 5590SOL    HW219791   2.113   3.061   4.777 -0.5551 -0.5160 -0.3374
 5591SOL     OW19792   7.297   6.654   3.343  0.3600  0.1119 -0.3839
 5591SOL    HW119793   7.212   6.682   3.374 -0.0060 -0.0841 -1.1914
 5591SOL    HW219794   7.355   6.728   3.358  0.4537 -0.3826  1.8133
 5592SOL     OW19795   1.403   6.080   5.467 -0.3848  0.2454 -0.5739
 5592SOL    HW119796   1.480   6.128   5.498  0.4300 -1.9256  0.8701
 5592SOL    HW219797   1.425   6.058   5.376  0.1818  0.6563 -0.5422
 5593SOL     OW19798   2.213   4.375   4.282 -0.0178  0.3153  0.3998
 5593SOL    HW119799   2.278   4.356   4.350 -0.7637  0.6363  1.2183
 5593SOL    HW219800   2.264   4.396   4.204  0.8522 -1.0144  0.5975
 5594SOL     OW19801   5.185   2.306   8.250  0.5519  0.1995 -0.1211
 5594SOL    HW119802   5.210   2.351   8.170 -1.8448 -0.0036 -1.0142
 5594SOL    HW219803   5.114   2.247   8.224  1.2032 -1.4710  1.7238
 5595SOL     OW19804   2.084   1.485   8.512 -0.0507  0.1136  0.3819
 5595SOL    HW119805   2.131   1.565   8.487 -1.3352  0.5508 -0.6584
 5595SOL    HW219806   2.058   1.500   8.602 -0.9851  1.2064 -0.0634
 5596SOL     OW19807   0.290   5.713   1.589 -0.3723  0.4594  0.7252
 5596SOL    HW119808   0.342   5.755   1.658 -1.4289  1.0279  1.1879
 5596SOL    HW219809   0.224   5.663   1.636  0.4213 -1.1626  0.1564
 5597SOL     OW19810   8.790   1.500   2.830  0.0361  0.8607 -0.3411
 5597SOL    HW119811   8.770   1.593   2.842 -1.7390  0.6523 -1.3749
 5597SOL    HW219812   8.747   1.478   2.747 -2.6669 -1.7235  1.6686
 5598SOL     OW19813   7.107   1.135   0.256 -0.0427 -0.8993  0.8462
 5598SOL    HW119814   7.126   1.107   0.167  0.1131  2.8086 -0.3462
 5598SOL    HW219815   7.173   1.201   0.276 -1.3238 -0.1898  2.9635
 5599SOL     OW19816   4.009   2.210   3.983  0.0705 -0.6968  0.2859
 5599SOL    HW119817   3.914   2.220   3.994  0.0780 -0.1420 -0.1449
 5599SOL    HW219818   4.033   2.142   4.045 -0.6136 -0.8404  0.3996
 5600SOL     OW19819   3.372   4.764   1.284  0.1027  0.0763 -0.3480
 5600SOL    HW119820   3.382   4.680   1.238  0.3983 -0.1550  0.1293
 5600SOL    HW219821   3.432   4.757   1.359 -0.9760  0.1186  0.5321
 5601SOL     OW19822   6.167   9.140   1.088  0.0049  0.4204  0.4634
 5601SOL    HW119823   6.127   9.057   1.115 -0.3191 -0.1164 -1.5921
 5601SOL    HW219824   6.235   9.155   1.153 -0.4943 -1.0221  1.3582
 5602SOL     OW19825   0.217   4.614   0.466 -0.1793  0.0329  0.2120
 5602SOL    HW119826   0.182   4.698   0.496  1.5931  0.7756  0.2224
 5602SOL    HW219827   0.195   4.553   0.536  0.0622  0.8534  1.0165
 5603SOL     OW19828   1.244   2.793   1.695  0.4277 -0.6497 -0.3802
 5603SOL    HW119829   1.267   2.742   1.773  1.3016  1.2279  0.6400
 5603SOL    HW219830   1.148   2.796   1.696  0.4432  0.1228  1.1626
 5604SOL     OW19831   7.336   0.741   4.093 -0.0126  0.0981  0.4713
 5604SOL    HW119832   7.409   0.705   4.043 -1.5606 -2.2408 -0.1770
 5604SOL    HW219833   7.363   0.732   4.185  1.1622  0.7153  0.1863
 5605SOL     OW19834   2.216   0.629   3.704  0.2159  0.4259 -0.5999
 5605SOL    HW119835   2.304   0.666   3.703  0.5068 -0.2201 -2.4589
 5605SOL    HW219836   2.225   0.547   3.751 -0.0470  1.7832  1.8952
 5606SOL     OW19837   3.400   5.644   2.315 -0.0536  0.8318 -0.3585
 5606SOL    HW119838   3.435   5.575   2.259 -0.1231  1.2166 -0.8782
 5606SOL    HW219839   3.404   5.607   2.403 -1.9389 -0.6136 -0.8329
 5607SOL     OW19840   3.919   1.782   4.660  0.0223  0.2167 -0.1213
 5607SOL    HW119841   3.899   1.757   4.750  3.1286 -1.1601  0.2409
 5607SOL    HW219842   3.869   1.719   4.607 -1.3419  0.6511  0.6394
 5608SOL     OW19843   6.219   4.093   1.828 -0.3077  0.6564 -0.6341
 5608SOL    HW119844   6.306   4.072   1.861  0.8502  1.9102 -2.8227
 5608SOL    HW219845   6.174   4.008   1.826  1.4553 -0.2988 -1.1810
 5609SOL     OW19846   2.568   1.675   6.371  0.3881 -0.2553  0.6026
 5609SOL    HW119847   2.524   1.636   6.295  1.9509 -1.2666  0.1929
 5609SOL    HW219848   2.550   1.769   6.364  1.2092 -0.2315 -1.4931
 5610SOL     OW19849   8.070   2.643   8.107  0.7112  0.1271 -0.1650
 5610SOL    HW119850   7.983   2.606   8.122 -0.2912  2.3777 -0.3041
 5610SOL    HW219851   8.079   2.645   8.011  0.5667  0.6715 -0.1687
 5611SOL     OW19852   6.202   7.637   5.797 -0.2305 -0.4847 -0.5560
 5611SOL    HW119853   6.126   7.653   5.742 -1.5340  0.1965  1.4110
 5611SOL    HW219854   6.166   7.618   5.884  1.7556 -2.1400 -0.0452
 5612SOL     OW19855   6.982   0.899   5.878  0.1042 -0.4731 -0.2575
 5612SOL    HW119856   6.904   0.923   5.828 -0.4605 -0.1868  0.7472
 5612SOL    HW219857   6.956   0.823   5.930  0.0356  0.4848  1.1561
 5613SOL     OW19858   8.697   5.575   3.843  0.2990  0.1866  0.3732
 5613SOL    HW119859   8.697   5.487   3.881 -0.3979  0.0038 -0.0512
 5613SOL    HW219860   8.611   5.584   3.802  0.5319  0.9004  0.0302
 5614SOL     OW19861   9.236   2.287   3.495  0.4090  0.1103 -0.0930
 5614SOL    HW119862   9.293   2.356   3.529  0.5760  0.7245 -1.6162
 5614SOL    HW219863   9.184   2.260   3.571 -1.4427  3.6337 -0.0382
 5615SOL     OW19864   1.413   3.760   4.988 -0.4135 -0.2235 -0.7457
 5615SOL    HW119865   1.370   3.684   4.949 -0.5621 -0.1725 -0.6795
 5615SOL    HW219866   1.481   3.724   5.045 -0.0779 -0.2973 -1.1894
 5616SOL     OW19867   7.992   1.166   8.271 -0.1378  0.4252  0.1768
 5616SOL    HW119868   8.025   1.256   8.273  0.1772  0.4487 -2.7625
 5616SOL    HW219869   7.931   1.165   8.196  1.1683 -2.2171 -0.9039
 5617SOL     OW19870   1.373   8.772   0.989  0.4419 -0.7330 -0.0790
 5617SOL    HW119871   1.433   8.713   1.034  0.1867  1.7629  3.6897
 5617SOL    HW219872   1.285   8.740   1.012  0.2901 -0.9872 -0.9691
 5618SOL     OW19873   4.508   4.585   7.643 -0.2960  0.3828 -0.1620
 5618SOL    HW119874   4.587   4.587   7.696 -0.9296 -0.5426  0.8297
 5618SOL    HW219875   4.467   4.501   7.664 -2.5654  1.6907  0.8368
 5619SOL     OW19876   3.561   1.834   1.952 -0.0715  0.0324  0.2224
 5619SOL    HW119877   3.551   1.806   1.861 -0.5067  1.4983 -0.1968
 5619SOL    HW219878   3.545   1.755   2.003 -0.2851 -0.7018 -0.9596
 5620SOL     OW19879   1.565   5.128   5.112  0.1999 -0.1601 -0.2524
 5620SOL    HW119880   1.599   5.083   5.190 -1.6769  1.0275  1.3120
 5620SOL    HW219881   1.641   5.173   5.076  1.1686 -0.9521  0.7276
 5621SOL     OW19882   5.456   1.395   7.440 -0.5532 -0.1212 -0.5320
 5621SOL    HW119883   5.476   1.303   7.454  0.1072  0.2051  0.8140
 5621SOL    HW219884   5.510   1.421   7.365  0.7028 -0.3686  0.2734
 5622SOL     OW19885   1.712   7.774   8.076  0.1611 -0.6251  0.2378
 5622SOL    HW119886   1.633   7.730   8.045  1.6711 -2.7844 -0.7229
 5622SOL    HW219887   1.757   7.801   7.997  0.5957  0.2287  0.7668
 5623SOL     OW19888   4.316   4.655   7.206 -0.4392  0.2631  0.7237
 5623SOL    HW119889   4.406   4.641   7.236 -0.2031  2.3984  1.0870
 5623SOL    HW219890   4.262   4.635   7.283 -0.1327  0.8968  1.1145
 5624SOL     OW19891   2.137   7.014   8.192  0.0425  0.5066  0.2374
 5624SOL    HW119892   2.199   6.967   8.248  0.6530 -0.4298 -1.1897
 5624SOL    HW219893   2.191   7.078   8.145 -0.3164  0.7049  0.0931
 5625SOL     OW19894   3.099   6.484   7.996 -0.1616  0.4917 -0.0674
 5625SOL    HW119895   3.012   6.504   7.960  0.3616  1.5539 -0.7740
 5625SOL    HW219896   3.151   6.561   7.976  0.5467  0.4988  1.7232
 5626SOL     OW19897   1.441   3.279   4.839  0.5262 -0.0376 -0.6888
 5626SOL    HW119898   1.489   3.333   4.777  0.2109  0.5201 -0.4456
 5626SOL    HW219899   1.360   3.256   4.795  0.0354  0.8514 -0.2669
 5627SOL     OW19900   1.478   5.255   4.366  0.0191  0.6193 -0.4942
 5627SOL    HW119901   1.386   5.231   4.372  0.5374 -2.3342 -3.0451
 5627SOL    HW219902   1.486   5.301   4.282  1.1475 -0.8328 -1.2135
 5628SOL     OW19903   8.067   8.394   7.652 -0.2832 -0.2523  0.7376
 5628SOL    HW119904   8.082   8.470   7.708  0.8221  1.6586 -2.0568
 5628SOL    HW219905   8.155   8.358   7.637 -0.2442  0.8863 -1.9341
 5629SOL     OW19906   7.955   7.558   0.216 -0.3035  0.1581 -0.0180
 5629SOL    HW119907   7.981   7.471   0.248  0.8914  0.7237  0.6088
 5629SOL    HW219908   7.910   7.598   0.291  0.0258  0.4445  0.0279
 5630SOL     OW19909   5.812   4.430   6.702  0.5080 -0.0252  0.1330
 5630SOL    HW119910   5.898   4.440   6.742  0.7306  0.1683 -0.4038
 5630SOL    HW219911   5.791   4.516   6.667  0.1599 -0.1109  0.1291
 5631SOL     OW19912   7.599   4.478   1.308  0.1003  0.4561  0.0377
 5631SOL    HW119913   7.555   4.426   1.241 -0.2187  1.5238 -0.6130
 5631SOL    HW219914   7.538   4.478   1.382  0.3083 -0.4635  0.2142
 5632SOL     OW19915   2.181   5.333   6.886  0.4064  0.0221 -0.1294
 5632SOL    HW119916   2.230   5.253   6.865  1.7795  0.8461 -0.1850
 5632SOL    HW219917   2.135   5.313   6.968  2.7342 -0.0114  1.2172
 5633SOL     OW19918   6.258   5.223   1.134 -0.2609 -0.6852  0.2405
 5633SOL    HW119919   6.273   5.261   1.220  2.7011 -0.8097 -0.1691
 5633SOL    HW219920   6.274   5.129   1.146  2.1187 -0.4575 -0.8088
 5634SOL     OW19921   6.749   4.474   4.168 -0.6232 -0.3632  0.0446
 5634SOL    HW119922   6.748   4.567   4.147  0.4208 -0.3670 -0.0439
 5634SOL    HW219923   6.779   4.431   4.088  0.6751 -0.6173  0.6594
 5635SOL     OW19924   6.187   3.703   4.079 -0.1174 -0.1319  0.2194
 5635SOL    HW119925   6.158   3.613   4.064 -0.5894 -0.1652  1.2259
 5635SOL    HW219926   6.113   3.746   4.121  0.3714  0.5166  0.4458
 5636SOL     OW19927   1.406   7.303   2.571 -0.0605 -0.4210 -0.3997
 5636SOL    HW119928   1.330   7.291   2.627  0.6589 -2.2333  0.2228
 5636SOL    HW219929   1.370   7.314   2.483 -1.0059 -2.9968 -0.3812
 5637SOL     OW19930   5.365   0.371   8.579  0.5605  0.8380  0.1638
 5637SOL    HW119931   5.299   0.343   8.642  0.3407  3.2919  1.0788
 5637SOL    HW219932   5.327   0.351   8.493  0.0702 -0.7845  0.7433
 5638SOL     OW19933   6.944   3.457   1.770  0.3202  0.5449 -0.1223
 5638SOL    HW119934   6.924   3.404   1.847  0.1568  1.4542  0.4707
 5638SOL    HW219935   7.032   3.430   1.744 -0.5218 -1.4407 -1.0328
 5639SOL     OW19936   6.525   2.235   5.188 -0.3710 -0.0794  0.0711
 5639SOL    HW119937   6.596   2.218   5.251  0.1844 -2.7087 -1.2153
 5639SOL    HW219938   6.569   2.271   5.111 -0.4693 -1.2621 -0.5485
 5640SOL     OW19939   6.334   9.288   2.634 -0.2081  0.6065 -0.6361
 5640SOL    HW119940   6.268   9.220   2.625  0.6297 -0.6356  1.9448
 5640SOL    HW219941   6.406   9.260   2.577 -0.2623 -0.1731 -0.3243
 5641SOL     OW19942   0.540   5.557   0.667  0.6711  0.4761 -0.2217
 5641SOL    HW119943   0.512   5.563   0.576  2.5107 -0.9094 -0.8978
 5641SOL    HW219944   0.616   5.615   0.673 -0.0792  1.3830  0.7083
 5642SOL     OW19945   6.217   5.044   8.585 -0.4690  0.5678  0.0274
 5642SOL    HW119946   6.238   5.095   8.507 -2.0949  0.5290 -0.4621
 5642SOL    HW219947   6.258   4.959   8.570  0.5679  1.0795 -0.0602
 5643SOL     OW19948   6.985   9.016   1.925 -0.5684 -0.1046 -0.2612
 5643SOL    HW119949   7.020   9.090   1.973 -2.0583 -0.4451  1.4033
 5643SOL    HW219950   6.891   9.034   1.919 -1.0720 -2.2040  0.8447
 5644SOL     OW19951   4.422   1.791   8.051  0.0452  0.1837 -0.8219
 5644SOL    HW119952   4.416   1.882   8.021  0.6719  0.8636  1.0253
 5644SOL    HW219953   4.509   1.763   8.024 -0.5614 -0.2345 -2.3608
 5645SOL     OW19954   7.652   9.364   1.427 -0.3192  0.2431  0.4261
 5645SOL    HW119955   7.557   9.363   1.431 -0.3233 -0.1282  0.3030
 5645SOL    HW219956   7.679   9.431   1.491 -0.6800  0.8882 -0.1022
 5646SOL     OW19957   4.781   5.274   2.819  0.3520 -0.5220 -0.6624
 5646SOL    HW119958   4.858   5.297   2.870 -0.7237  0.6798  0.4591
 5646SOL    HW219959   4.767   5.180   2.837  1.7108 -0.8152 -1.1109
 5647SOL     OW19960   3.041   2.486   2.997  0.6073  0.0990 -0.1064
 5647SOL    HW119961   2.977   2.429   3.039  1.6668 -0.3583  0.9257
 5647SOL    HW219962   3.000   2.513   2.915 -2.5468  2.9440  2.2257
 5648SOL     OW19963   1.604   2.685   7.771  0.0381 -0.3670  0.0015
 5648SOL    HW119964   1.632   2.687   7.680 -0.0409 -0.2037 -0.0194
 5648SOL    HW219965   1.637   2.602   7.805  0.9316  0.0277  0.1015
 5649SOL     OW19966   1.471   5.981   4.317  0.2331  0.2719 -0.5028
 5649SOL    HW119967   1.541   5.930   4.278  0.8960  0.2387  0.6911
 5649SOL    HW219968   1.509   6.068   4.331 -0.2409  0.5097 -0.6638
 5650SOL     OW19969   6.198   7.175   6.729  0.5141  0.7153 -0.1509
 5650SOL    HW119970   6.187   7.090   6.772  0.7693 -0.2713 -1.9811
 5650SOL    HW219971   6.265   7.160   6.662 -0.0398  2.1439 -1.0626
 5651SOL     OW19972   0.359   1.685   6.583  0.1967 -0.8004 -0.0557
 5651SOL    HW119973   0.433   1.696   6.642  0.8293 -1.7267 -0.6724
 5651SOL    HW219974   0.334   1.594   6.592 -2.0971 -0.0503  1.5773
 5652SOL     OW19975   2.799   4.964   4.554  0.0058 -0.1917 -0.1004
 5652SOL    HW119976   2.730   5.005   4.607 -0.3069  0.4200 -0.9553
 5652SOL    HW219977   2.765   4.968   4.464  1.0851 -0.0339 -0.5116
 5653SOL     OW19978   0.229   1.980   1.522  0.0345  0.2037  0.0416
 5653SOL    HW119979   0.207   2.071   1.502 -1.1826 -0.4247 -1.5638
 5653SOL    HW219980   0.151   1.930   1.499  1.7038 -1.6069 -2.0368
 5654SOL     OW19981   7.826   0.374   6.129 -0.4959 -0.4920 -0.4204
 5654SOL    HW119982   7.839   0.468   6.117 -1.5617 -0.2077  0.5702
 5654SOL    HW219983   7.760   0.350   6.064  1.5347 -1.0624 -2.3585
 5655SOL     OW19984   1.425   2.586   8.081 -0.1439  0.1185 -0.3140
 5655SOL    HW119985   1.374   2.575   8.001  1.8413  0.1750 -1.6200
 5655SOL    HW219986   1.389   2.520   8.141 -1.6653  0.0910 -1.2353
 5656SOL     OW19987   9.220   6.657   9.292  0.1285  0.3880 -0.3013
 5656SOL    HW119988   9.204   6.696   9.377  1.4669 -0.6231  0.4281
 5656SOL    HW219989   9.313   6.674   9.274  0.4556 -1.4849 -0.4626
 5657SOL     OW19990   3.439   1.934   0.748  0.1603  0.2332  0.2337
 5657SOL    HW119991   3.480   1.929   0.661 -0.4487  1.6410 -0.1377
 5657SOL    HW219992   3.348   1.909   0.733 -0.1592  1.3515  0.3169
 5658SOL     OW19993   2.792   7.812   6.198  0.0936  0.0772 -0.1911
 5658SOL    HW119994   2.708   7.828   6.241  1.0805  0.5623  1.5837
 5658SOL    HW219995   2.770   7.756   6.123 -1.7621 -0.0545  0.4274
 5659SOL     OW19996   0.153   3.186   8.581  0.3244  0.4719 -0.3859
 5659SOL    HW119997   0.193   3.099   8.592  0.6554  0.7708  0.8321
 5659SOL    HW219998   0.224   3.241   8.550  0.3745  0.5546 -0.1220
 5660SOL     OW19999   0.101   7.206   6.123  0.1232 -0.6178 -0.3247
 5660SOL    HW120000   0.050   7.184   6.201  0.9731 -0.9158  0.1483
 5660SOL    HW220001   0.085   7.133   6.063 -1.4770  0.1865 -0.8997
 5661SOL     OW20002   8.371   5.511   8.135  0.2157 -0.0138 -0.2869
 5661SOL    HW120003   8.442   5.446   8.139 -0.9268 -1.2890 -0.3533
 5661SOL    HW220004   8.315   5.490   8.209 -1.0258 -0.1250 -1.2340
 5662SOL     OW20005   0.496   8.626   6.637 -0.8148 -0.4408 -0.1067
 5662SOL    HW120006   0.534   8.560   6.694  0.5624 -0.4496 -1.0156
 5662SOL    HW220007   0.482   8.581   6.554  0.0173  0.3723 -0.6969
 5663SOL     OW20008   4.368   2.954   1.382 -0.1201 -0.1969 -0.0307
 5663SOL    HW120009   4.454   2.979   1.414  1.1393 -1.9380 -1.8670
 5663SOL    HW220010   4.310   3.025   1.409  2.0369  1.3828  0.5789
 5664SOL     OW20011   7.394   1.484   3.487 -0.0051  0.8793  0.4113
 5664SOL    HW120012   7.446   1.500   3.408 -0.1090 -0.9595 -0.0468
 5664SOL    HW220013   7.329   1.420   3.460 -0.2257  0.4499  1.9323
 5665SOL     OW20014   3.843   3.959   8.072 -0.3369  0.1368 -0.5568
 5665SOL    HW120015   3.904   3.977   8.144  1.0708  0.8253 -1.9017
 5665SOL    HW220016   3.784   3.892   8.107  1.3275 -0.7061  0.6921
 5666SOL     OW20017   4.919   1.441   2.001  0.7708  0.1587 -0.4793
 5666SOL    HW120018   4.896   1.489   2.081 -1.4737 -0.9243 -0.4312
 5666SOL    HW220019   4.943   1.509   1.939  1.7569  1.0671  0.8516
 5667SOL     OW20020   6.415   0.579   6.073  0.3545  0.5339  0.0885
 5667SOL    HW120021   6.346   0.584   6.007 -0.2822 -0.9440  0.6227
 5667SOL    HW220022   6.496   0.582   6.023 -0.1195  0.2317 -0.7076
 5668SOL     OW20023   5.272   7.529   2.105  0.1673 -0.4943 -0.4329
 5668SOL    HW120024   5.185   7.490   2.097  0.0100 -0.7739  2.0869
 5668SOL    HW220025   5.326   7.460   2.144  0.9775  0.3703  0.0136
 5669SOL     OW20026   7.574   8.294   2.451 -0.8278 -0.0823  0.1070
 5669SOL    HW120027   7.602   8.208   2.418 -0.9635 -0.0476 -0.1024
 5669SOL    HW220028   7.484   8.279   2.481 -0.4658 -0.2750  1.0919
 5670SOL     OW20029   1.955   3.878   6.423 -0.2746 -0.2103 -0.0052
 5670SOL    HW120030   1.943   3.939   6.496 -0.9599 -0.8502  0.4253
 5670SOL    HW220031   1.866   3.858   6.393 -0.0010 -0.0356 -0.9477
 5671SOL     OW20032   3.299   0.180   6.815  0.9382 -0.2578  0.2255
 5671SOL    HW120033   3.294   0.135   6.731  2.3652  0.5669 -0.3108
 5671SOL    HW220034   3.272   0.270   6.796 -2.0236 -0.8527  1.3196
 5672SOL     OW20035   7.626   1.628   3.833  1.0309 -0.4096  0.4076
 5672SOL    HW120036   7.561   1.675   3.885 -1.5627 -2.9860 -0.4393
 5672SOL    HW220037   7.710   1.668   3.859 -0.8046  2.7841  1.6966
 5673SOL     OW20038   6.470   8.960   8.390  0.3391  0.0679 -0.5423
 5673SOL    HW120039   6.561   8.987   8.379  0.2599  0.0729 -1.1887
 5673SOL    HW220040   6.450   8.980   8.482  1.2866 -0.8451 -0.1335
 5674SOL     OW20041   3.636   5.547   5.523 -0.6557  0.0884 -0.3446
 5674SOL    HW120042   3.707   5.540   5.459 -0.1128  0.4477  0.2064
 5674SOL    HW220043   3.605   5.637   5.514  0.2735  0.5353  0.7725
 5675SOL     OW20044   2.101   1.992   5.319  0.6100 -0.9023  0.0148
 5675SOL    HW120045   2.162   1.987   5.245  0.3979 -1.5811 -0.1148
 5675SOL    HW220046   2.048   2.070   5.299  0.4346 -1.1823 -0.6488
 5676SOL     OW20047   3.015   0.481   7.677  0.7542  0.7401 -0.0110
 5676SOL    HW120048   2.986   0.554   7.621  3.1333  2.2945  0.7094
 5676SOL    HW220049   3.013   0.405   7.619 -0.4929  1.5990 -1.1528
 5677SOL     OW20050   5.188   1.629   4.513 -0.0865  0.1758  0.7459
 5677SOL    HW120051   5.274   1.652   4.548  0.3483 -0.1628 -0.1169
 5677SOL    HW220052   5.128   1.650   4.585  0.4622  2.4580  0.5910
 5678SOL     OW20053   3.833   5.235   1.263 -0.1242  0.2358  0.3655
 5678SOL    HW120054   3.852   5.162   1.322 -0.8536  0.6647  1.1357
 5678SOL    HW220055   3.856   5.202   1.176  0.3441 -0.6201  0.8097
 5679SOL     OW20056   2.527   6.047   0.946  0.3225  0.0313 -0.2955
 5679SOL    HW120057   2.543   6.098   1.026  0.4970  1.0442 -0.9649
 5679SOL    HW220058   2.567   5.962   0.963  0.6549  0.3560  0.5703
 5680SOL     OW20059   4.870   8.402   0.226 -0.6465 -0.4640  0.5323
 5680SOL    HW120060   4.788   8.360   0.201 -0.6958  1.4090 -2.6962
 5680SOL    HW220061   4.847   8.460   0.298 -1.7442 -1.3387  0.9056
 5681SOL     OW20062   0.691   2.118   1.378 -0.1118  0.4774 -0.0560
 5681SOL    HW120063   0.701   2.209   1.407  0.3800  0.1749  0.7467
 5681SOL    HW220064   0.624   2.082   1.435  1.5781 -0.4125  1.4178
 5682SOL     OW20065   0.955   5.648   3.165  0.3855  0.4617  0.4703
 5682SOL    HW120066   0.988   5.734   3.190 -1.8808  1.0923  1.4078
 5682SOL    HW220067   0.922   5.609   3.246 -1.9899  0.2626 -0.5265
 5683SOL     OW20068   2.636   8.365   0.927 -0.2904  0.1767 -0.1447
 5683SOL    HW120069   2.590   8.387   0.846 -0.2519  2.3429  0.3965
 5683SOL    HW220070   2.727   8.392   0.911  0.0944 -0.9713  0.0179
 5684SOL     OW20071   3.329   3.616   0.755 -0.4450 -0.1717  0.5679
 5684SOL    HW120072   3.299   3.637   0.844 -0.1497 -0.5428  0.7560
 5684SOL    HW220073   3.406   3.561   0.768 -1.1611 -1.3302  0.0910
 5685SOL     OW20074   3.289   5.221   4.931 -0.3785  0.3673 -0.3296
 5685SOL    HW120075   3.369   5.240   4.979  1.0093  0.2516 -2.5199
 5685SOL    HW220076   3.220   5.268   4.979  1.2975  2.0341  0.4919
 5686SOL     OW20077   0.772   2.132   2.030 -0.1359  0.0487 -0.0869
 5686SOL    HW120078   0.719   2.053   2.017  1.7383 -1.7222  2.4471
 5686SOL    HW220079   0.819   2.143   1.947 -1.8519 -0.3556 -1.1358
 5687SOL     OW20080   3.637   4.365   6.474 -0.7110 -0.3574 -0.4163
 5687SOL    HW120081   3.551   4.325   6.465 -1.1127  0.0461  1.4386
 5687SOL    HW220082   3.664   4.345   6.564 -0.1388  1.9469 -0.0282
 5688SOL     OW20083   7.367   3.784   7.905 -0.0708 -0.7057  0.0711
 5688SOL    HW120084   7.308   3.714   7.878  0.8660 -1.5883  0.2760
 5688SOL    HW220085   7.402   3.755   7.990  2.4759 -1.3606 -1.1487
 5689SOL     OW20086   3.772   4.523   9.017 -0.0748 -0.5264 -0.3088
 5689SOL    HW120087   3.717   4.511   8.939  0.6415 -1.0994 -0.7319
 5689SOL    HW220088   3.860   4.498   8.988  0.5557  1.1531  0.1432
 5690SOL     OW20089   3.323   8.202   0.360 -0.0966 -0.1466 -0.2198
 5690SOL    HW120090   3.306   8.152   0.441  0.0776  1.3356  0.7480
 5690SOL    HW220091   3.256   8.171   0.299 -1.0178 -0.3976  0.8878
 5691SOL     OW20092   5.157   9.364   2.482 -0.1080  0.0361 -0.2540
 5691SOL    HW120093   5.094   9.402   2.420 -0.8974 -0.4778  0.2331
 5691SOL    HW220094   5.136   9.405   2.566  0.5126  0.2045 -0.1740
 5692SOL     OW20095   5.000   7.790   6.663  0.1130  0.0825  0.1131
 5692SOL    HW120096   4.918   7.838   6.676 -0.2706 -0.4909 -0.1674
 5692SOL    HW220097   5.013   7.743   6.746 -0.6863 -1.0838 -0.3943
 5693SOL     OW20098   9.051   0.561   6.255 -0.1111 -0.1799  0.5595
 5693SOL    HW120099   9.000   0.631   6.214  1.3531  0.5037 -0.1344
 5693SOL    HW220100   9.016   0.480   6.217 -0.7826  0.2625  0.2153
 5694SOL     OW20101   1.452   0.816   1.424  0.1286 -0.1011  0.0698
 5694SOL    HW120102   1.530   0.847   1.377  1.0373  0.8164  2.1488
 5694SOL    HW220103   1.433   0.885   1.487 -0.3215 -1.8533  1.8966
 5695SOL     OW20104   0.605   5.868   7.897  0.2067 -0.2470  0.7229
 5695SOL    HW120105   0.612   5.869   7.993  2.3247 -2.8157  0.6353
 5695SOL    HW220106   0.637   5.782   7.871  1.0022  0.9329 -2.4172
 5696SOL     OW20107   5.203   1.231   5.258  0.3457  0.3634 -0.0849
 5696SOL    HW120108   5.184   1.176   5.182  0.6839  0.5008 -0.2709
 5696SOL    HW220109   5.232   1.314   5.220  3.0355 -0.4209  0.1938
 5697SOL     OW20110   1.313   9.088   2.824  0.1325 -0.7129  0.5562
 5697SOL    HW120111   1.255   9.114   2.752  0.2593 -1.8588  0.0382
 5697SOL    HW220112   1.314   9.165   2.882 -1.6318 -0.5507  0.4047
 5698SOL     OW20113   0.463   4.455   7.845 -0.2276 -0.1692 -0.1771
 5698SOL    HW120114   0.473   4.490   7.756  0.2448 -1.8613 -0.8120
 5698SOL    HW220115   0.516   4.513   7.900  0.9468 -0.1710 -1.2814
 5699SOL     OW20116   9.075   1.415   4.276 -0.1039 -0.4012  0.1136
 5699SOL    HW120117   8.999   1.358   4.282  0.4883 -0.9870  2.8893
 5699SOL    HW220118   9.143   1.369   4.326  1.2431  1.3838 -0.0327
 5700SOL     OW20119   2.891   3.574   5.522 -0.9945  0.2063  0.1152
 5700SOL    HW120120   2.936   3.626   5.589  0.9903 -0.8940 -0.3482
 5700SOL    HW220121   2.961   3.537   5.469 -2.5365  0.8860 -2.4693
 5701SOL     OW20122   7.897   8.436   6.800 -0.5549 -0.1638  0.6899
 5701SOL    HW120123   7.801   8.430   6.801 -0.5123 -1.1508 -0.0924
 5701SOL    HW220124   7.921   8.443   6.892 -1.3499 -0.5648  0.9408
 5702SOL     OW20125   0.044   2.122   5.060 -0.2135  0.4238 -0.2577
 5702SOL    HW120126  -0.020   2.091   4.995 -0.9521  0.3064  0.5156
 5702SOL    HW220127   0.119   2.063   5.049 -1.3382 -1.2434  0.7401
 5703SOL     OW20128   6.904   2.308   9.142 -0.1701  0.6065 -0.0304
 5703SOL    HW120129   6.868   2.394   9.120  0.1399  1.0637  1.2345
 5703SOL    HW220130   6.942   2.320   9.229  0.1249 -0.7382  0.0234
 5704SOL     OW20131   7.471   8.029   5.896  0.3750  0.7409  0.3866
 5704SOL    HW120132   7.505   8.024   5.985  0.4793  1.6504  0.4077
 5704SOL    HW220133   7.382   7.992   5.902 -0.0168  1.7707  1.0891
 5705SOL     OW20134   2.549   0.938   2.153 -0.3884  0.0739  0.8153
 5705SOL    HW120135   2.544   0.914   2.060  1.2955  1.6079  0.2818
 5705SOL    HW220136   2.612   0.876   2.190 -0.4492 -0.0319  0.7413
 5706SOL     OW20137   3.225   1.690   1.907 -0.7969  0.1060 -0.1772
 5706SOL    HW120138   3.241   1.762   1.968  0.6007 -0.5266  0.2135
 5706SOL    HW220139   3.302   1.689   1.850 -0.9341 -0.9216 -0.3491
 5707SOL     OW20140   8.885   4.018   5.152  0.0430 -0.4069  0.0022
 5707SOL    HW120141   8.811   3.996   5.096 -0.2568 -2.3989  1.1534
 5707SOL    HW220142   8.909   3.935   5.194  1.8478  0.5567  0.9291
 5708SOL     OW20143   1.814   3.838   2.271 -0.4026 -0.1364  0.2971
 5708SOL    HW120144   1.787   3.912   2.216 -0.8552  0.6430  1.5426
 5708SOL    HW220145   1.832   3.877   2.356  1.7076 -1.1163  0.3257
 5709SOL     OW20146   0.038   8.428   5.726 -0.5261  0.0096 -0.0196
 5709SOL    HW120147  -0.041   8.373   5.723 -1.3066  1.1412 -0.4282
 5709SOL    HW220148   0.076   8.410   5.812 -2.6447  1.3843  1.2600
 5710SOL     OW20149   1.435   7.198   0.355 -0.7798  0.9783  0.1310
 5710SOL    HW120150   1.353   7.149   0.348 -0.9730  1.3126  0.0343
 5710SOL    HW220151   1.481   7.179   0.273 -1.3554  1.8560 -0.4020
 5711SOL     OW20152   1.457   1.747   2.489  0.0314 -0.2212  0.2376
 5711SOL    HW120153   1.505   1.728   2.569  1.3149 -0.4689 -0.5700
 5711SOL    HW220154   1.396   1.674   2.479 -0.1767 -0.1534  1.0225
 5712SOL     OW20155   9.065   1.594   3.345 -0.3123  0.4834 -1.0208
 5712SOL    HW120156   9.111   1.668   3.306  0.6469  0.5286  0.1519
 5712SOL    HW220157   9.099   1.518   3.299 -0.6387  0.6874 -1.6102
 5713SOL     OW20158   0.117   2.943   0.520 -0.5152  0.3695 -0.3636
 5713SOL    HW120159   0.096   3.009   0.454 -0.1598 -1.1552 -2.0416
 5713SOL    HW220160   0.211   2.929   0.511 -0.2723  0.9211  1.2210
 5714SOL     OW20161   9.395   3.013   5.344  0.6899 -0.5928  0.0183
 5714SOL    HW120162   9.336   3.083   5.317  1.8127  0.4080  0.1383
 5714SOL    HW220163   9.342   2.933   5.334 -0.0768  0.0860 -1.7027
 5715SOL     OW20164   0.066   8.717   5.743  0.5390 -0.2425 -0.5519
 5715SOL    HW120165   0.125   8.706   5.818 -0.8042 -0.7403  0.4478
 5715SOL    HW220166   0.032   8.629   5.726 -0.5582  0.1762 -0.5738
 5716SOL     OW20167   8.550   1.116   5.901 -0.0715 -0.0952  0.1443
 5716SOL    HW120168   8.548   1.041   5.961  0.0139 -0.1038  0.1359
 5716SOL    HW220169   8.600   1.085   5.826 -1.0204 -0.4154 -0.3659
 5717SOL     OW20170   0.435   6.253   0.189  0.2655  0.0605 -0.0112
 5717SOL    HW120171   0.352   6.222   0.224 -0.5345  2.6169  0.3977
 5717SOL    HW220172   0.500   6.227   0.254 -0.3836 -0.7532  0.3136
 5718SOL     OW20173   5.264   7.891   0.140 -0.0880  0.0456 -0.4182
 5718SOL    HW120174   5.173   7.899   0.170  0.8772  0.3967  2.5609
 5718SOL    HW220175   5.273   7.959   0.073 -1.2700  1.8614  1.2124
 5719SOL     OW20176   7.439   5.028   2.217  0.9343  0.1243  1.0140
 5719SOL    HW120177   7.401   4.957   2.165  0.0477  0.4254  1.2388
 5719SOL    HW220178   7.516   5.055   2.168 -0.5656  1.2338 -0.7974
 5720SOL     OW20179   6.612   0.602   4.938 -0.0709  0.5202  0.1007
 5720SOL    HW120180   6.627   0.618   4.845 -0.9847  2.4079  0.2561
 5720SOL    HW220181   6.520   0.625   4.952 -0.4665 -1.5413  1.1004
 5721SOL     OW20182   6.520   7.910   2.694  0.2156  0.3482  0.0113
 5721SOL    HW120183   6.585   7.891   2.626 -0.9669  0.6680 -1.2364
 5721SOL    HW220184   6.513   7.830   2.744 -0.5290 -0.6639 -1.6542
 5722SOL     OW20185   0.412   4.531   8.362 -0.2496  0.0122  0.1773
 5722SOL    HW120186   0.360   4.609   8.342  1.6795  1.4207  0.6038
 5722SOL    HW220187   0.430   4.492   8.276  0.4967  1.1434 -0.1759
 5723SOL     OW20188   1.414   3.742   9.235  0.0812  0.5407 -0.3308
 5723SOL    HW120189   1.348   3.804   9.269  0.6705  0.5599  0.7942
 5723SOL    HW220190   1.494   3.765   9.282  0.1007 -1.6531  0.7369
 5724SOL     OW20191   3.273   0.140   5.864  0.4503 -0.6285  0.3751
 5724SOL    HW120192   3.205   0.073   5.865  0.2136 -0.3857  0.5638
 5724SOL    HW220193   3.230   0.219   5.897  1.5265 -1.1489  3.2082
 5725SOL     OW20194   6.126   7.932   1.473 -0.2700 -0.2365 -0.6874
 5725SOL    HW120195   6.061   7.978   1.419 -0.2460 -0.2782 -0.7510
 5725SOL    HW220196   6.076   7.900   1.548  0.0730  1.5124  0.3134
 5726SOL     OW20197   4.445   0.224   1.398  0.2060 -0.2326 -0.4535
 5726SOL    HW120198   4.422   0.140   1.359 -0.2879 -1.0349  1.5335
 5726SOL    HW220199   4.463   0.205   1.489  0.0616  1.8219  0.0352
 5727SOL     OW20200   0.587   8.554   2.018  0.1511  0.3542  0.2864
 5727SOL    HW120201   0.675   8.586   1.996  0.2467 -1.5840 -2.3659
 5727SOL    HW220202   0.529   8.611   1.968 -0.1345  1.3445  1.6952
 5728SOL     OW20203   3.589   4.438   5.652  0.0181  0.3169  0.2186
 5728SOL    HW120204   3.649   4.406   5.720  0.5227  0.0887 -0.3298
 5728SOL    HW220205   3.591   4.533   5.661  0.3964  0.3073  0.2635
 5729SOL     OW20206   4.372   7.393   2.648  0.0188  0.1993 -0.6946
 5729SOL    HW120207   4.362   7.306   2.687 -2.4148  0.9179  0.3806
 5729SOL    HW220208   4.282   7.424   2.636  0.8355  1.8788 -2.6388
 5730SOL     OW20209   3.322   7.700   3.725  0.0457 -0.1168  0.6684
 5730SOL    HW120210   3.356   7.787   3.744 -0.3049  0.3618 -0.8075
 5730SOL    HW220211   3.228   7.713   3.712  0.5567  0.0362 -3.6246
 5731SOL     OW20212   4.480   5.431   3.951  0.0026 -0.4791  0.8481
 5731SOL    HW120213   4.518   5.352   3.914 -1.5347 -0.4625 -0.8493
 5731SOL    HW220214   4.546   5.465   4.011  2.9321 -0.0686 -2.4813
 5732SOL     OW20215   0.189   9.390   0.765  0.7702  0.2719  0.4267
 5732SOL    HW120216   0.251   9.395   0.838  0.1668 -0.6479  1.0105
 5732SOL    HW220217   0.125   9.325   0.792  0.1372  0.4411 -0.6296
 5733SOL     OW20218   8.957   4.222   4.848 -0.0820 -0.2884  0.5939
 5733SOL    HW120219   8.901   4.270   4.909 -0.1561 -0.8302  0.9601
 5733SOL    HW220220   8.896   4.173   4.793 -0.0746  1.2369 -0.8164
 5734SOL     OW20221   5.218   6.626   4.788  0.5432 -0.2340  0.1563
 5734SOL    HW120222   5.307   6.653   4.814  0.8287  0.7383 -1.7060
 5734SOL    HW220223   5.168   6.708   4.788 -0.2103 -0.6911  0.6160
 5735SOL     OW20224   7.965   0.564   4.958  0.1054  0.3377 -0.1446
 5735SOL    HW120225   8.044   0.612   4.931 -0.1566 -0.7660 -3.0299
 5735SOL    HW220226   7.906   0.632   4.989  2.1743  1.1797  2.1041
 5736SOL     OW20227   1.056   1.275   5.133  0.1061 -0.1897 -0.4686
 5736SOL    HW120228   0.995   1.222   5.082 -0.4022 -0.7288  0.6768
 5736SOL    HW220229   1.039   1.365   5.105 -3.3014  0.0026  1.8874
 5737SOL     OW20230   8.131   0.106   6.787 -0.6859  0.2868  0.5334
 5737SOL    HW120231   8.128   0.090   6.881 -0.4152  0.6142  0.6017
 5737SOL    HW220232   8.183   0.034   6.752 -1.2031 -0.1096  0.5689
 5738SOL     OW20233   4.583   6.451   5.684 -0.3493 -0.0028 -0.5212
 5738SOL    HW120234   4.525   6.411   5.619  1.0629 -1.2133 -1.0750
 5738SOL    HW220235   4.531   6.455   5.764 -0.3030 -3.6093 -0.2681
 5739SOL     OW20236   7.322   5.804   5.874  0.0888 -0.4687 -0.8381
 5739SOL    HW120237   7.260   5.780   5.805 -0.9706 -0.5069  0.1194
 5739SOL    HW220238   7.336   5.722   5.923 -0.1456 -0.1512 -0.2376
 5740SOL     OW20239   7.974   5.757   2.766 -0.2834 -0.0744  0.0373
 5740SOL    HW120240   7.951   5.782   2.855 -1.5803 -0.9646 -0.0356
 5740SOL    HW220241   8.055   5.806   2.747 -1.8111  2.7264  0.4894
 5741SOL     OW20242   1.258   6.236   7.530 -0.9284 -0.0054  0.0869
 5741SOL    HW120243   1.338   6.191   7.557 -0.7861 -0.0202 -0.3456
 5741SOL    HW220244   1.197   6.165   7.509 -0.9180  0.0051  0.0225
 5742SOL     OW20245   2.001   0.877   5.479  0.6127 -0.0621  0.1763
 5742SOL    HW120246   1.933   0.853   5.417 -0.1547 -1.0124  1.3739
 5742SOL    HW220247   2.069   0.918   5.425 -0.4939  0.0592 -1.1390
 5743SOL     OW20248   1.157   5.616   1.061 -0.0569  0.0024 -0.3058
 5743SOL    HW120249   1.205   5.652   1.137 -1.2643 -0.5936  0.7589
 5743SOL    HW220250   1.180   5.523   1.061 -0.1211 -0.0124 -0.6348
 5744SOL     OW20251   1.173   2.140   6.261  0.2177 -0.4057  0.4076
 5744SOL    HW120252   1.246   2.177   6.310 -0.0954 -0.8901  1.2627
 5744SOL    HW220253   1.178   2.046   6.277 -0.6144 -0.4418  0.5236
 5745SOL     OW20254   0.787   7.814   5.909  0.1333  0.1014  0.4839
 5745SOL    HW120255   0.749   7.889   5.864 -0.0635 -0.1350  0.2585
 5745SOL    HW220256   0.880   7.817   5.887 -0.1901 -0.8252 -1.0906
 5746SOL     OW20257   7.972   5.714   4.848 -0.1158  0.5302 -0.2689
 5746SOL    HW120258   7.879   5.695   4.850 -0.6525  3.0287  1.7850
 5746SOL    HW220259   8.014   5.633   4.877 -1.7436 -0.1595  0.1891
 5747SOL     OW20260   7.653   3.986   5.096  0.4484  0.1641  0.1069
 5747SOL    HW120261   7.704   4.059   5.060 -0.5695  0.4387 -0.7969
 5747SOL    HW220262   7.716   3.914   5.104  1.1984  0.7928 -0.0862
 5748SOL     OW20263   4.072   5.838   1.349  0.3443  0.2966  0.2812
 5748SOL    HW120264   4.030   5.916   1.385  1.5483  1.3496 -0.5717
 5748SOL    HW220265   4.146   5.821   1.407  1.0494  0.7650 -0.4706
 5749SOL     OW20266   2.501   0.314   3.614 -0.1522 -0.8298 -0.0880
 5749SOL    HW120267   2.448   0.337   3.690  0.5965 -1.0721  0.5080
 5749SOL    HW220268   2.585   0.286   3.650  0.4609 -0.2486 -1.0354
 5750SOL     OW20269   1.716   5.308   6.484  0.1933 -0.7297 -0.0230
 5750SOL    HW120270   1.687   5.359   6.408  1.4911  1.2906  0.8062
 5750SOL    HW220271   1.752   5.227   6.446 -0.8259 -0.5565 -1.4209
 5751SOL     OW20272   6.352   8.538   3.044 -0.0029 -0.3353  0.2406
 5751SOL    HW120273   6.445   8.523   3.062  0.1996 -0.9337 -1.2553
 5751SOL    HW220274   6.345   8.632   3.031  0.0947 -0.0701  1.9500
 5752SOL     OW20275   6.946   3.981   6.648 -0.2586  0.0518  0.3661
 5752SOL    HW120276   6.863   3.935   6.636 -0.0727 -0.1826 -0.0140
 5752SOL    HW220277   6.958   3.985   6.743 -1.2571  1.0757  0.4511
 5753SOL     OW20278   0.766   3.664   4.810  0.0294  0.4733 -0.4093
 5753SOL    HW120279   0.828   3.685   4.880 -1.0066  1.6913  0.1751
 5753SOL    HW220280   0.698   3.612   4.854  0.2139 -0.1743 -0.8777
 5754SOL     OW20281   2.592   6.164   5.743  0.0716 -0.0253 -0.3522
 5754SOL    HW120282   2.628   6.143   5.657  1.1405  1.5233 -0.2982
 5754SOL    HW220283   2.668   6.181   5.798 -0.6365  0.2182  0.5813
 5755SOL     OW20284   9.410   7.536   1.854 -0.0845 -0.0288  0.3091
 5755SOL    HW120285   9.394   7.616   1.904 -0.4338 -0.6838  1.2600
 5755SOL    HW220286   9.396   7.465   1.917  1.7129 -0.7977 -0.1188
 5756SOL     OW20287   5.633   1.034   3.080  0.4001 -0.2806  0.9721
 5756SOL    HW120288   5.708   1.072   3.125  0.1626  0.4253  0.7740
 5756SOL    HW220289   5.645   1.060   2.988 -1.5159  2.1261  1.3784
 5757SOL     OW20290   3.436   6.442   9.185 -0.2103  0.3325 -0.1928
 5757SOL    HW120291   3.489   6.387   9.128 -1.8059 -1.2876 -0.1803
 5757SOL    HW220292   3.452   6.409   9.273  0.5793  1.4144  0.0875
 5758SOL     OW20293   4.413   9.349   3.114  0.5948  0.2386  0.4374
 5758SOL    HW120294   4.448   9.352   3.203 -2.3531 -1.5322  1.7074
 5758SOL    HW220295   4.324   9.383   3.121 -0.0558 -0.9551 -1.6254
 5759SOL     OW20296   3.067   3.844   2.430 -0.1391  0.3009 -0.9956
 5759SOL    HW120297   3.038   3.914   2.489 -0.7228  0.5893 -1.6140
 5759SOL    HW220298   2.985   3.802   2.402  0.2649 -1.1674  0.0422
 5760SOL     OW20299   2.628   0.622   6.424 -0.1239  0.0704 -0.2771
 5760SOL    HW120300   2.648   0.659   6.510  2.3156 -1.5579 -0.0906
 5760SOL    HW220301   2.633   0.527   6.437 -1.4443 -0.2412 -1.8487
 5761SOL     OW20302   1.620   0.912   4.919  0.3971  0.3187 -0.2363
 5761SOL    HW120303   1.574   0.843   4.967 -0.6628 -0.3344 -2.1678
 5761SOL    HW220304   1.604   0.991   4.971 -1.0454 -0.3117  0.3187
 5762SOL     OW20305   8.310   2.999   6.041 -0.5130 -0.0080 -0.0281
 5762SOL    HW120306   8.335   3.061   5.972 -1.2626  0.0685 -0.2278
 5762SOL    HW220307   8.287   3.055   6.116 -1.5614 -0.0249 -0.3293
 5763SOL     OW20308   4.765   5.601   2.237 -0.8742  0.4590  0.0454
 5763SOL    HW120309   4.674   5.626   2.222 -0.4611  1.2421 -1.2191
 5763SOL    HW220310   4.774   5.598   2.332 -2.4549 -0.5060  0.1917
 5764SOL     OW20311   4.875   2.485   3.100  0.0076 -0.1143 -0.2592
 5764SOL    HW120312   4.828   2.546   3.043  0.1943 -0.3430 -0.6657
 5764SOL    HW220313   4.943   2.447   3.043  0.9856  0.5661  0.4484
 5765SOL     OW20314   6.698   0.750   6.384  0.3189 -0.0151  0.3967
 5765SOL    HW120315   6.619   0.729   6.335 -0.0567 -1.9925  1.8400
 5765SOL    HW220316   6.683   0.714   6.472  1.7629  1.8273  1.4340
 5766SOL     OW20317   3.096   7.733   6.589 -0.3845  0.4121  0.2423
 5766SOL    HW120318   3.061   7.675   6.657  0.7010 -0.3937  0.1399
 5766SOL    HW220319   3.033   7.728   6.517  0.2308 -1.4845 -0.1801
 5767SOL     OW20320   0.998   0.155   1.660 -0.6672 -0.6714  0.5891
 5767SOL    HW120321   1.012   0.092   1.730 -0.2435 -2.0070 -0.6949
 5767SOL    HW220322   1.079   0.205   1.656 -1.3118  0.5558  2.1723
 5768SOL     OW20323   8.762   5.501   0.886 -0.3833  0.4862 -0.0919
 5768SOL    HW120324   8.812   5.476   0.808 -0.3229 -0.2374  0.1783
 5768SOL    HW220325   8.704   5.572   0.855 -1.0722 -0.4695 -1.0411
 5769SOL     OW20326   8.299   8.533   0.120 -0.1465 -0.1923 -0.4818
 5769SOL    HW120327   8.291   8.438   0.116  2.2851 -0.4126 -0.4727
 5769SOL    HW220328   8.380   8.553   0.074  0.1168  1.7632  0.7649
 5770SOL     OW20329   2.061   1.930   4.545 -0.4568 -0.0199 -0.2719
 5770SOL    HW120330   2.030   1.904   4.631 -1.1734  0.5685 -0.3567
 5770SOL    HW220331   2.062   2.025   4.546 -0.1322 -0.0107 -0.7998
 5771SOL     OW20332   4.752   0.334   2.104  0.6722  0.0308 -0.1994
 5771SOL    HW120333   4.802   0.394   2.049  0.7354  0.2326  0.0776
 5771SOL    HW220334   4.747   0.253   2.053  1.3958 -0.0354 -0.1669
 5772SOL     OW20335   3.400   4.336   6.044 -0.3589 -0.0815 -0.0552
 5772SOL    HW120336   3.449   4.260   6.076 -0.3309 -1.0189 -2.1905
 5772SOL    HW220337   3.343   4.300   5.975 -0.8431  1.7168 -0.6175
 5773SOL     OW20338   7.919   5.127   4.906 -0.2603 -0.2602 -0.0550
 5773SOL    HW120339   7.857   5.074   4.855 -0.7448  0.0147  0.2348
 5773SOL    HW220340   8.000   5.125   4.856 -0.8440  0.3368 -1.0394
 5774SOL     OW20341   5.772   2.971   7.833  0.2057  0.2680 -0.0818
 5774SOL    HW120342   5.702   2.970   7.767 -1.1870  1.0401  1.3659
 5774SOL    HW220343   5.798   2.879   7.840 -0.2893  0.0423 -1.0114
 5775SOL     OW20344   0.831   0.764   5.877 -0.2314  0.2934  0.3469
 5775SOL    HW120345   0.883   0.774   5.956  1.0382  0.9082 -0.5472
 5775SOL    HW220346   0.855   0.839   5.823  0.3940 -1.1587 -1.4361
 5776SOL     OW20347   2.400   3.795   1.699 -0.1265 -0.0547 -0.4249
 5776SOL    HW120348   2.317   3.748   1.702  0.7340 -1.5903  0.1233
 5776SOL    HW220349   2.415   3.813   1.606 -0.9018 -0.0661 -0.5531
 5777SOL     OW20350   0.830   8.393   4.242 -0.0561 -0.3399 -0.0402
 5777SOL    HW120351   0.737   8.387   4.219 -0.0513 -0.6139  0.0125
 5777SOL    HW220352   0.861   8.303   4.243 -0.3635 -0.4375  2.3358
 5778SOL     OW20353   1.625   1.464   1.333 -0.2098  0.2610 -0.0175
 5778SOL    HW120354   1.546   1.429   1.292 -0.2584 -0.0445  0.3410
 5778SOL    HW220355   1.675   1.387   1.359  0.0495  0.4555  0.0663
 5779SOL     OW20356   7.527   6.600   6.710  0.3883 -0.2645 -0.4243
 5779SOL    HW120357   7.484   6.522   6.744  1.6569 -1.0045 -0.4830
 5779SOL    HW220358   7.567   6.641   6.788  0.5893 -0.2312 -0.5431
 5780SOL     OW20359   7.546   2.545   4.213 -0.0315  0.2716  0.1793
 5780SOL    HW120360   7.634   2.518   4.189 -0.3889  1.0099 -2.0413
 5780SOL    HW220361   7.549   2.555   4.309  2.0854 -0.3820  0.1917
 5781SOL     OW20362   1.338   2.850   4.645  0.1415 -0.2118  0.4032
 5781SOL    HW120363   1.419   2.808   4.675  0.8301  1.3895  0.8388
 5781SOL    HW220364   1.308   2.795   4.573  1.2786 -1.1759  0.6416
 5782SOL     OW20365   6.002   2.519   0.484  0.5595  0.3861  0.0192
 5782SOL    HW120366   5.915   2.559   0.484 -0.1968 -1.1638  2.2676
 5782SOL    HW220367   6.027   2.514   0.391 -2.8236 -1.4243 -0.8578
 5783SOL     OW20368   7.121   2.433   6.283 -0.9273 -0.5504  0.7880
 5783SOL    HW120369   7.154   2.358   6.235 -1.5511 -0.5771  0.3879
 5783SOL    HW220370   7.092   2.494   6.215  2.0338  1.2138  1.0440
 5784SOL     OW20371   2.864   8.198   3.350 -0.3153  0.1051 -1.0983
 5784SOL    HW120372   2.899   8.139   3.417 -1.7770 -1.2981 -1.5379
 5784SOL    HW220373   2.827   8.271   3.400  0.4909  0.0960 -0.4835
 5785SOL     OW20374   8.679   7.383   5.797 -0.8487  0.2964 -0.2299
 5785SOL    HW120375   8.625   7.362   5.721 -1.8111  0.9646  0.2607
 5785SOL    HW220376   8.664   7.476   5.812 -0.6216  0.1770  0.7400
 5786SOL     OW20377   6.101   2.242   3.933 -0.0722  0.0315  0.1964
 5786SOL    HW120378   6.022   2.230   3.880  0.8528 -0.6198 -1.0729
 5786SOL    HW220379   6.131   2.153   3.951  0.8280  0.2824 -0.0455
 5787SOL     OW20380   4.769   8.528   5.904  0.0191 -0.1348 -0.6510
 5787SOL    HW120381   4.761   8.484   5.989 -2.1944  1.0070 -0.2310
 5787SOL    HW220382   4.727   8.468   5.842  1.6614 -0.9817 -0.9574
 5788SOL     OW20383   4.599   6.117   5.968  0.1808  0.1608 -0.2022
 5788SOL    HW120384   4.578   6.026   5.947  0.7409 -0.0871  0.2927
 5788SOL    HW220385   4.641   6.113   6.055  1.8836  0.6792 -0.9723
 5789SOL     OW20386   5.995   6.002   2.325 -0.1743 -0.1817  0.3766
 5789SOL    HW120387   5.917   5.967   2.283 -0.0305  1.1986 -1.0595
 5789SOL    HW220388   6.068   5.961   2.279 -0.0218  0.8727 -0.3268
 5790SOL     OW20389   1.115   2.949   5.371 -0.1990 -0.0302 -0.0832
 5790SOL    HW120390   1.165   2.897   5.308  0.7544  1.8137 -0.9002
 5790SOL    HW220391   1.050   2.995   5.317  1.0184  2.0332  0.1590
 5791SOL     OW20392   6.662   7.883   6.098  0.0226  0.8161  0.0470
 5791SOL    HW120393   6.622   7.813   6.046 -1.1494  1.5587 -0.0675
 5791SOL    HW220394   6.610   7.885   6.179 -0.1441  1.7505 -0.0821
 5792SOL     OW20395   4.272   2.142   6.060 -0.1644  0.6004  0.4252
 5792SOL    HW120396   4.305   2.189   6.136  1.8846  1.8902 -1.1845
 5792SOL    HW220397   4.179   2.164   6.056  0.2845  2.6645  1.0254
 5793SOL     OW20398   9.093   8.788   8.924 -0.0293 -0.3169  0.2554
 5793SOL    HW120399   9.063   8.789   9.015  0.5788  1.3377  0.4688
 5793SOL    HW220400   9.066   8.873   8.890  1.1168 -0.2989 -0.6442
 5794SOL     OW20401   1.221   6.261   5.628  0.2683  0.1082  0.1323
 5794SOL    HW120402   1.284   6.225   5.566  1.5267  1.7588  0.4125
 5794SOL    HW220403   1.231   6.209   5.707  2.6891  1.5556  0.8339
 5795SOL     OW20404   0.333   1.862   2.644  0.1056  0.4278  0.0528
 5795SOL    HW120405   0.267   1.862   2.575  0.3419  1.5338 -0.1841
 5795SOL    HW220406   0.415   1.885   2.599 -0.1713  3.6858  1.0841
 5796SOL     OW20407   6.163   0.772   6.025  0.2873  0.2459  0.8379
 5796SOL    HW120408   6.250   0.808   6.039  0.8912 -0.8963  0.1107
 5796SOL    HW220409   6.104   0.848   6.028  1.5017  1.2638 -0.4698
 5797SOL     OW20410   0.466   3.014   8.953  0.4474  0.0601 -0.8181
 5797SOL    HW120411   0.391   3.065   8.922  1.2234  1.1080 -1.0122
 5797SOL    HW220412   0.538   3.041   8.896  1.4292  0.5501  0.6318
 5798SOL     OW20413   8.459   6.590   2.809  0.5404  0.5817  0.6801
 5798SOL    HW120414   8.379   6.634   2.838  0.6667  1.3400 -0.0957
 5798SOL    HW220415   8.442   6.569   2.717  0.5680 -0.8197  0.9799
 5799SOL     OW20416   8.385   5.599   8.485  0.0214  0.6047  0.2909
 5799SOL    HW120417   8.332   5.519   8.480 -1.0209  1.2439  0.8899
 5799SOL    HW220418   8.475   5.567   8.490 -0.4156 -0.5592  1.2294
 5800SOL     OW20419   9.012   7.176   4.061 -0.1020  0.1165  0.2837
 5800SOL    HW120420   8.949   7.164   3.990  0.4743 -2.3919  0.1185
 5800SOL    HW220421   8.961   7.166   4.141 -0.4218  1.0045  0.1862
 5801SOL     OW20422   8.771   8.879   2.684 -0.9953 -0.3548 -0.1546
 5801SOL    HW120423   8.866   8.888   2.689 -1.1671  0.8138  1.8678
 5801SOL    HW220424   8.743   8.869   2.775 -3.0238  2.0726 -0.4348
 5802SOL     OW20425   6.056   0.912   8.287  0.4170 -0.0573 -0.0222
 5802SOL    HW120426   6.031   0.974   8.356  0.2405 -1.6189  1.3418
 5802SOL    HW220427   6.000   0.836   8.301  3.0666 -1.9946  0.5944
 5803SOL     OW20428   4.095   2.478   4.526 -0.7805  0.6281  0.5557
 5803SOL    HW120429   4.070   2.494   4.617 -1.4271 -1.3233  0.7370
 5803SOL    HW220430   4.191   2.484   4.527 -0.6624 -1.0272  1.7273
 5804SOL     OW20431   4.874   3.887   6.956 -0.6325 -0.2979 -0.0902
 5804SOL    HW120432   4.949   3.946   6.951  0.0769 -1.1793 -0.1201
 5804SOL    HW220433   4.892   3.833   7.033 -1.5454 -0.1011  0.2600
 5805SOL     OW20434   0.326   0.605   0.166 -0.5371  0.3157  0.3687
 5805SOL    HW120435   0.401   0.593   0.224 -0.7563  1.6327  0.9586
 5805SOL    HW220436   0.301   0.697   0.179 -1.4186  0.2563 -0.8192
 5806SOL     OW20437   4.826   3.935   4.033 -0.0179  0.0142  0.4801
 5806SOL    HW120438   4.829   3.887   3.950 -1.1738 -0.3596  0.6387
 5806SOL    HW220439   4.773   3.879   4.090 -0.6364  1.0704  0.9438
 5807SOL     OW20440   1.274   4.523   4.334 -0.6329  0.3376  0.1702
 5807SOL    HW120441   1.228   4.607   4.340  0.5479  1.0490 -0.3644
 5807SOL    HW220442   1.255   4.492   4.245 -0.6247  0.3078  0.1786
 5808SOL     OW20443   2.662   7.642   4.356  0.2058 -0.0971 -0.0520
 5808SOL    HW120444   2.715   7.673   4.429  2.3517 -0.0393 -1.5898
 5808SOL    HW220445   2.627   7.558   4.385  0.1315  0.4351  1.4406
 5809SOL     OW20446   2.674   6.006   3.085 -0.1381 -0.1759  0.1516
 5809SOL    HW120447   2.649   5.979   3.173 -0.0901  0.0051  0.2219
 5809SOL    HW220448   2.701   5.925   3.041 -0.2016 -0.2713  0.2897
 5810SOL     OW20449   3.862   2.249   0.590  0.3112 -0.0970  0.1579
 5810SOL    HW120450   3.835   2.216   0.676 -2.0850 -1.3960 -1.0405
 5810SOL    HW220451   3.797   2.316   0.569  0.8887  0.2108 -0.6617
 5811SOL     OW20452   3.946   7.191   4.476 -0.6025 -0.0479  0.1880
 5811SOL    HW120453   4.006   7.119   4.493 -0.6226  0.5294  2.9040
 5811SOL    HW220454   3.969   7.258   4.541 -1.7345  1.7002 -1.1462
 5812SOL     OW20455   4.018   8.036   3.015 -0.6826  0.1726  0.4102
 5812SOL    HW120456   4.108   8.038   3.046 -0.5832  1.4240  0.0678
 5812SOL    HW220457   4.025   8.016   2.921 -0.8323 -0.7686  0.5862
 5813SOL     OW20458   4.737   0.529   5.595 -0.0525 -0.4452  0.4137
 5813SOL    HW120459   4.812   0.579   5.564 -0.7709  0.5335  0.2579
 5813SOL    HW220460   4.774   0.443   5.616  1.3105  0.3154  1.2626
 5814SOL     OW20461   5.699   4.466   6.295 -0.3883 -0.5000  0.1074
 5814SOL    HW120462   5.786   4.483   6.332 -0.1189  0.0138 -0.7429
 5814SOL    HW220463   5.650   4.427   6.367  0.5875 -0.9218  0.5622
 5815SOL     OW20464   7.607   5.426   0.805 -0.3625 -0.2454  0.0256
 5815SOL    HW120465   7.534   5.407   0.746 -0.5569 -0.5543  0.3641
 5815SOL    HW220466   7.588   5.514   0.837 -0.1563  0.0012 -0.5143
 5816SOL     OW20467   1.752   6.491   0.569 -0.0062  0.5501 -0.7669
 5816SOL    HW120468   1.725   6.573   0.525 -0.7100  0.0994 -1.1982
 5816SOL    HW220469   1.771   6.517   0.659  0.0078  1.2333 -0.9614
 5817SOL     OW20470   4.826   5.585   5.935 -0.1296  0.4787 -0.0168
 5817SOL    HW120471   4.841   5.491   5.919  0.3892  0.4587  0.5564
 5817SOL    HW220472   4.774   5.587   6.015 -2.6867  0.5771 -1.6138
 5818SOL     OW20473   5.420   2.586   3.551  0.0689 -0.7422 -0.1349
 5818SOL    HW120474   5.362   2.662   3.560 -1.9139 -2.4276  1.8465
 5818SOL    HW220475   5.427   2.550   3.639  3.4111 -1.1425 -0.5137
 5819SOL     OW20476   7.109   1.292   7.497  0.2045  0.9846  0.0627
 5819SOL    HW120477   7.124   1.205   7.460 -0.3960  1.8482 -2.3047
 5819SOL    HW220478   7.073   1.275   7.584  1.0091 -1.1143  0.0248
 5820SOL     OW20479   6.127   4.705   8.597  0.2503 -0.5097 -0.0023
 5820SOL    HW120480   6.133   4.765   8.672  2.0976 -1.0435  0.3038
 5820SOL    HW220481   6.194   4.737   8.536  0.4017 -1.5305 -0.3746
 5821SOL     OW20482   3.646   2.708   2.246 -0.0410 -0.4316  0.2170
 5821SOL    HW120483   3.695   2.743   2.171  1.6192  0.8232  1.8131
 5821SOL    HW220484   3.712   2.661   2.297 -0.9387 -0.4798  1.3444
 5822SOL     OW20485   1.957   1.059   3.539 -0.1487  0.0333 -0.1592
 5822SOL    HW120486   1.998   1.013   3.466 -1.6215 -0.4720 -0.6892
 5822SOL    HW220487   1.879   1.007   3.560  0.6228 -0.2352  2.2516
 5823SOL     OW20488   6.114   3.584   5.002 -0.1909  0.5667  0.2643
 5823SOL    HW120489   6.191   3.587   4.946 -0.3954  1.3639  0.0207
 5823SOL    HW220490   6.133   3.515   5.065 -0.0918 -0.5790 -0.9915
 5824SOL     OW20491   6.628   4.918   1.842  0.1310 -0.4301 -0.1189
 5824SOL    HW120492   6.636   4.989   1.779  1.1178 -0.8027 -0.4253
 5824SOL    HW220493   6.579   4.850   1.795 -1.7762  0.4628  0.5467
 5825SOL     OW20494   0.849   6.369   2.878  0.1166 -0.5282  0.6397
 5825SOL    HW120495   0.834   6.290   2.930  0.5385 -0.0361  1.5137
 5825SOL    HW220496   0.937   6.398   2.903  0.6078 -0.6673 -0.8522
 5826SOL     OW20497   1.999   4.721   4.528  0.1049 -0.1582  0.1995
 5826SOL    HW120498   2.018   4.703   4.620  1.8388  0.1871 -0.0846
 5826SOL    HW220499   2.024   4.812   4.516 -1.9035  0.3717 -0.1615
 5827SOL     OW20500   1.040   0.749   3.324 -0.0616 -0.6327  0.1991
 5827SOL    HW120501   1.089   0.668   3.337  0.0339 -0.9057 -1.6933
 5827SOL    HW220502   1.040   0.791   3.410  0.8958 -2.0714  0.9248
 5828SOL     OW20503   2.827   8.433   4.824  0.4111  0.7120  0.0812
 5828SOL    HW120504   2.881   8.446   4.745  0.5735  0.2703  0.1173
 5828SOL    HW220505   2.890   8.436   4.896  0.6614 -1.5346  0.0117
 5829SOL     OW20506   7.824   5.405   8.249  0.6160  0.1307  0.0534
 5829SOL    HW120507   7.810   5.312   8.264 -1.0774  0.5567  1.3078
 5829SOL    HW220508   7.873   5.435   8.326 -0.6831  0.6811  0.6730
 5830SOL     OW20509   5.419   7.747   5.755 -0.0254 -0.1318  0.5791
 5830SOL    HW120510   5.463   7.736   5.671  0.2265  0.8124  0.5828
 5830SOL    HW220511   5.433   7.664   5.800 -2.4307 -1.6395 -1.3263
 5831SOL     OW20512   0.229   0.393   2.497  0.0971 -0.0994 -0.1360
 5831SOL    HW120513   0.227   0.475   2.446  0.8506  0.0197  0.0113
 5831SOL    HW220514   0.319   0.362   2.488  0.3090  0.0589  1.3363
 5832SOL     OW20515   7.773   4.788   3.436 -0.1802 -0.0959 -0.5715
 5832SOL    HW120516   7.792   4.878   3.411 -0.7978 -0.3019 -1.8372
 5832SOL    HW220517   7.681   4.789   3.462 -0.4007 -0.5056 -1.3161
 5833SOL     OW20518   8.747   4.989   7.873 -0.1764  0.3965 -0.0835
 5833SOL    HW120519   8.803   5.019   7.801 -1.0205  3.3322  0.4088
 5833SOL    HW220520   8.772   5.045   7.947 -2.3789  0.4083  0.6807
 5834SOL     OW20521   7.154   3.516   0.443 -0.1509 -0.1337  0.1658
 5834SOL    HW120522   7.107   3.434   0.431 -0.0644 -0.2293  0.4926
 5834SOL    HW220523   7.086   3.579   0.467 -0.3107  0.0373 -0.7280
 5835SOL     OW20524   3.885   2.903   9.272 -0.3818  0.3391  0.2682
 5835SOL    HW120525   3.802   2.860   9.292 -0.1632 -0.9290 -1.3839
 5835SOL    HW220526   3.863   2.965   9.202 -0.1355  0.7652  0.5697
 5836SOL     OW20527   7.548   0.147   2.638  0.5548  0.1481  0.1527
 5836SOL    HW120528   7.502   0.087   2.580  1.5513 -0.1796 -0.3085
 5836SOL    HW220529   7.498   0.228   2.634  0.3559 -0.0199 -0.7992
 5837SOL     OW20530   8.950   0.791   8.392 -0.3266 -0.2665  0.0627
 5837SOL    HW120531   8.887   0.862   8.378 -1.3609 -1.3661 -0.9567
 5837SOL    HW220532   8.904   0.728   8.448  0.0477 -0.8152 -0.2366
 5838SOL     OW20533   7.090   2.792   4.625  0.0527  0.4035 -0.0992
 5838SOL    HW120534   7.013   2.751   4.665  0.7629 -1.1974 -0.3385
 5838SOL    HW220535   7.110   2.738   4.549  0.1937  2.0079 -1.2402
 5839SOL     OW20536   6.464   5.272   3.496  0.4039  0.1651  0.1169
 5839SOL    HW120537   6.510   5.207   3.443 -1.6664  0.0998 -1.6988
 5839SOL    HW220538   6.482   5.355   3.452  1.6491  0.6233  1.4513
 5840SOL     OW20539   0.277   2.319   6.533  0.2904  0.4875  0.2430
 5840SOL    HW120540   0.298   2.281   6.447 -2.3584  0.1743 -0.2953
 5840SOL    HW220541   0.254   2.410   6.515  0.4298  0.6230  0.7288
 5841SOL     OW20542   5.486   2.107   8.426  0.3565 -0.1193 -0.1752
 5841SOL    HW120543   5.487   2.186   8.372 -1.2070 -0.8689 -1.3239
 5841SOL    HW220544   5.393   2.087   8.438  0.7363 -1.5488  0.4649
 5842SOL     OW20545   0.756   6.548   1.565 -0.1266  0.7968  0.6565
 5842SOL    HW120546   0.840   6.506   1.583 -0.8517 -0.9568  0.0398
 5842SOL    HW220547   0.772   6.601   1.486  0.7191  1.4752  1.2807
 5843SOL     OW20548   3.106   2.776   2.267 -0.3529  0.6172  0.2551
 5843SOL    HW120549   3.175   2.709   2.267 -0.9000  0.0196 -1.4677
 5843SOL    HW220550   3.152   2.858   2.285  0.6348  0.0515  0.3658
 5844SOL     OW20551   1.366   3.302   3.466  0.2799 -0.0686  0.1285
 5844SOL    HW120552   1.368   3.207   3.475  1.1537 -0.0381  0.3392
 5844SOL    HW220553   1.327   3.317   3.380 -0.6691 -0.5873  0.4646
 5845SOL     OW20554   5.659   7.660   1.733 -0.0693 -1.0330 -0.2580
 5845SOL    HW120555   5.694   7.743   1.766 -0.5364 -1.3470  1.0210
 5845SOL    HW220556   5.735   7.617   1.694  0.0358  0.3129 -1.6080
 5846SOL     OW20557   6.677   5.433   6.996 -0.4340  0.1486  0.5629
 5846SOL    HW120558   6.654   5.356   6.945 -2.0087  0.9516  0.0394
 5846SOL    HW220559   6.648   5.414   7.085 -1.4050  0.3919  0.2996
 5847SOL     OW20560   3.102   2.216   5.780 -0.2739 -0.7629 -0.3979
 5847SOL    HW120561   3.018   2.252   5.807 -0.0518 -0.2114 -0.4139
 5847SOL    HW220562   3.100   2.125   5.806  0.3598 -0.0001  2.4687
 5848SOL     OW20563   7.572   3.133   8.669  0.0986  0.5170 -0.0503
 5848SOL    HW120564   7.589   3.224   8.647  2.1411  0.1782  0.0919
 5848SOL    HW220565   7.632   3.083   8.614 -1.5708 -0.7911 -0.7271
 5849SOL     OW20566   4.398   9.007   5.393  0.3508  0.1879 -0.3864
 5849SOL    HW120567   4.476   8.996   5.338  0.8762 -1.6689  0.6699
 5849SOL    HW220568   4.363   8.918   5.403  0.8437  0.3283  3.0948
 5850SOL     OW20569   9.085   7.351   8.625  0.5778 -0.1792 -0.4343
 5850SOL    HW120570   9.175   7.384   8.623  0.5138 -0.0380 -0.9429
 5850SOL    HW220571   9.078   7.309   8.711  0.9136  0.4147 -0.1078
 5851SOL     OW20572   0.081   1.374   7.476  0.3236  0.1774  0.4382
 5851SOL    HW120573   0.175   1.390   7.465  0.4214 -0.1425  0.7808
 5851SOL    HW220574   0.048   1.454   7.516 -0.1470  1.5854 -2.6355
 5852SOL     OW20575   0.914   1.806   3.074  0.2944 -0.8239  0.5852
 5852SOL    HW120576   0.829   1.814   3.117  1.2250  2.0293  2.0379
 5852SOL    HW220577   0.977   1.822   3.143  1.9520 -0.0222 -1.0743
 5853SOL     OW20578   8.739   7.644   6.840  0.1086 -0.2754  0.6172
 5853SOL    HW120579   8.823   7.644   6.794  0.6152  1.6167  1.5242
 5853SOL    HW220580   8.674   7.649   6.769  0.7400 -1.4392 -0.0704
 5854SOL     OW20581   8.061   3.024   4.842  0.0947 -0.0705  0.0912
 5854SOL    HW120582   8.111   3.094   4.800  0.6972 -0.9946 -0.7747
 5854SOL    HW220583   8.012   3.067   4.912 -0.6738  1.4533 -1.3474
 5855SOL     OW20584   4.152   0.234   3.150 -0.2512 -0.1893 -0.1790
 5855SOL    HW120585   4.184   0.229   3.060  1.3448  0.0868  0.3435
 5855SOL    HW220586   4.074   0.288   3.145 -0.2165 -0.2392 -1.4117
 5856SOL     OW20587   2.483   1.055   8.706 -0.0147  0.4001 -0.2977
 5856SOL    HW120588   2.456   1.055   8.797 -1.4962  0.6684 -0.7293
 5856SOL    HW220589   2.407   1.022   8.658  0.0864  2.0098 -1.6208
 5857SOL     OW20590   0.722   0.120   1.634  0.2903 -0.2121 -0.0341
 5857SOL    HW120591   0.759   0.032   1.640  0.4575 -0.0934  0.7879
 5857SOL    HW220592   0.799   0.177   1.624  0.3606  0.0666  2.0093
 5858SOL     OW20593   0.683   1.126   5.227 -0.2409 -0.0959  1.2211
 5858SOL    HW120594   0.725   1.210   5.246 -1.1981 -0.2183  4.1877
 5858SOL    HW220595   0.591   1.148   5.208 -0.5953 -0.4821  2.4293
 5859SOL     OW20596   3.243   8.089   4.091  0.4540 -0.0816  0.8710
 5859SOL    HW120597   3.234   8.055   4.002 -0.2034  1.5429  0.2985
 5859SOL    HW220598   3.194   8.171   4.091 -1.0636 -0.9117  3.2241
 5860SOL     OW20599   4.153   1.435   4.330 -0.2250  0.2670  0.7151
 5860SOL    HW120600   4.170   1.528   4.344 -1.1052  0.8962 -2.0497
 5860SOL    HW220601   4.202   1.413   4.251 -2.3236 -0.8777 -0.3092
 5861SOL     OW20602   5.382   5.880   3.722  0.6641  0.2235  0.3469
 5861SOL    HW120603   5.377   5.807   3.784  3.0325  1.0198  1.5612
 5861SOL    HW220604   5.356   5.956   3.774 -1.7067  0.2912 -0.8913
 5862SOL     OW20605   6.918   8.754   0.928  0.3315 -0.5189  0.4843
 5862SOL    HW120606   6.831   8.759   0.967 -1.2038 -0.0126 -2.8125
 5862SOL    HW220607   6.973   8.808   0.984 -1.5434 -0.5882  2.4361
 5863SOL     OW20608   6.561   2.263   6.059 -0.0237  0.1568  0.0263
 5863SOL    HW120609   6.598   2.350   6.041 -0.2142 -0.1501 -1.9344
 5863SOL    HW220610   6.618   2.203   6.012  0.0063 -0.7797  1.2426
 5864SOL     OW20611   0.522   6.274   4.122  0.1350  0.0175 -0.0835
 5864SOL    HW120612   0.492   6.299   4.210  0.5820  2.3662 -0.5797
 5864SOL    HW220613   0.451   6.301   4.064  0.5361 -0.0669 -0.6094
 5865SOL     OW20614   9.427   6.374   2.484 -0.0432 -0.4543 -0.1045
 5865SOL    HW120615   9.417   6.433   2.558  1.4780 -0.1354 -0.1227
 5865SOL    HW220616   9.338   6.347   2.462 -1.0501  3.7920 -1.7003
 5866SOL     OW20617   5.707   4.349   0.101 -0.2164  0.2603  0.0311
 5866SOL    HW120618   5.740   4.411   0.166  1.6211 -0.9681  0.3371
 5866SOL    HW220619   5.650   4.290   0.151  0.9250 -0.4784  0.4901
 5867SOL     OW20620   7.950   1.923   3.182  0.2694 -0.3515  0.0684
 5867SOL    HW120621   8.028   1.898   3.133  0.8875  0.2215  0.7424
 5867SOL    HW220622   7.888   1.852   3.167  0.7840 -0.6291 -0.7805
 5868SOL     OW20623   3.789   0.739   7.889  0.9181  0.2805 -0.2167
 5868SOL    HW120624   3.763   0.719   7.978  0.5479  0.8950 -0.1808
 5868SOL    HW220625   3.706   0.752   7.842  1.1206  3.0708  0.0899
 5869SOL     OW20626   1.528   5.013   7.986  0.7759 -0.6634 -0.0654
 5869SOL    HW120627   1.476   4.962   7.924  0.1205  1.5594 -1.3924
 5869SOL    HW220628   1.464   5.058   8.041  1.2847  0.8790 -0.7035
 5870SOL     OW20629   0.873   6.413   0.364 -0.1907  0.0472  0.0689
 5870SOL    HW120630   0.792   6.464   0.362  0.2100  0.6626 -0.8049
 5870SOL    HW220631   0.935   6.468   0.412 -0.2390 -0.3507  0.5907
 5871SOL     OW20632   5.370   2.538   0.455  0.4920  0.2711 -0.1795
 5871SOL    HW120633   5.461   2.513   0.466  1.1581  1.2125 -3.0144
 5871SOL    HW220634   5.334   2.475   0.393 -0.1295  1.2666 -0.8638
 5872SOL     OW20635   2.668   1.227   9.134 -0.2914 -0.0581 -0.4738
 5872SOL    HW120636   2.645   1.318   9.115 -1.9559 -0.3447  0.0848
 5872SOL    HW220637   2.731   1.203   9.066 -1.2742  0.9197 -1.7326
 5873SOL     OW20638   8.784   6.864   1.778  0.2446  0.0860  0.4705
 5873SOL    HW120639   8.719   6.814   1.828  1.3997 -1.1906  0.7140
 5873SOL    HW220640   8.734   6.936   1.739 -0.9280  0.3046  2.3246
 5874SOL     OW20641   7.553   5.706   5.440 -0.6057  0.3492  0.6609
 5874SOL    HW120642   7.624   5.688   5.377  0.0710  2.0025  0.9452
 5874SOL    HW220643   7.497   5.770   5.395 -0.2384  1.3724  1.6537
 5875SOL     OW20644   2.589   8.680   1.381 -0.4604  0.6267  0.2602
 5875SOL    HW120645   2.507   8.633   1.374  1.0343 -2.3417  1.8409
 5875SOL    HW220646   2.574   8.744   1.451 -1.2215 -0.4199  1.0693
 5876SOL     OW20647   3.008   3.117   2.601 -0.2502  0.1042  0.1068
 5876SOL    HW120648   2.984   3.173   2.527 -0.9353 -0.6802 -0.2685
 5876SOL    HW220649   3.090   3.076   2.573  1.2266  2.2492  1.1064
 5877SOL     OW20650   0.100   3.479   2.329  0.5753  0.5513  0.8356
 5877SOL    HW120651   0.165   3.412   2.351 -0.0876 -0.2470  0.4205
 5877SOL    HW220652   0.077   3.460   2.238 -0.8806  0.2594  1.2493
 5878SOL     OW20653   2.993   2.326   4.159  0.2806 -0.0828 -0.1752
 5878SOL    HW120654   2.973   2.410   4.199  1.9197  0.5519 -0.6664
 5878SOL    HW220655   2.907   2.288   4.139 -0.5191  0.4912  2.0059
 5879SOL     OW20656   9.018   0.019   7.397 -0.4394 -0.0816  0.1001
 5879SOL    HW120657   9.112   0.003   7.398 -0.3785  0.2385 -0.6078
 5879SOL    HW220658   9.010   0.115   7.398 -0.7570 -0.1072  0.0351
 5880SOL     OW20659   3.316   5.531   7.172  0.7025  0.2902 -0.5769
 5880SOL    HW120660   3.255   5.568   7.236  1.4572  1.3040 -0.4189
 5880SOL    HW220661   3.346   5.449   7.211 -0.2454 -0.0091 -0.4724
 5881SOL     OW20662   2.136   0.223   8.038 -0.0179 -0.3294  0.5934
 5881SOL    HW120663   2.212   0.191   8.087 -0.6560 -1.2417  0.9944
 5881SOL    HW220664   2.079   0.261   8.104 -0.1692 -0.1394  0.3567
 5882SOL     OW20665   1.957   0.355   0.965  0.5744 -0.3850  1.0888
 5882SOL    HW120666   1.904   0.333   1.042  3.5353 -1.6561  2.8129
 5882SOL    HW220667   1.995   0.441   0.986  1.1379 -0.5923  0.9078
 5883SOL     OW20668   0.156   7.529   5.735 -0.3967  0.5207  0.2164
 5883SOL    HW120669   0.157   7.464   5.805  1.6274  0.3467  0.0627
 5883SOL    HW220670   0.119   7.607   5.776 -3.5066 -0.8769  0.2104
 5884SOL     OW20671   2.216   2.572   7.051  0.1010 -0.3334  0.2926
 5884SOL    HW120672   2.163   2.520   6.991 -0.2930 -0.7937  1.0375
 5884SOL    HW220673   2.230   2.655   7.005 -0.3466 -0.6165 -0.3583
 5885SOL     OW20674   7.187   2.337   7.005 -0.0141  0.0192 -0.1842
 5885SOL    HW120675   7.218   2.392   6.934  2.4251 -0.2016  0.6616
 5885SOL    HW220676   7.137   2.268   6.962 -3.1488  2.8082 -1.2690
 5886SOL     OW20677   2.467   6.686   4.418 -0.1743  0.0246 -0.5108
 5886SOL    HW120678   2.498   6.710   4.331  1.3517  0.2396  0.0855
 5886SOL    HW220679   2.376   6.659   4.404  0.3543 -0.8962 -2.3154
 5887SOL     OW20680   0.692   4.880   0.399 -0.1526 -0.5910 -0.3412
 5887SOL    HW120681   0.709   4.961   0.447  1.0753 -0.2722 -1.2916
 5887SOL    HW220682   0.612   4.897   0.350  1.3987  0.9348 -2.4331
 5888SOL     OW20683   8.511   7.328   5.571 -0.4861 -0.2747  0.4660
 5888SOL    HW120684   8.438   7.390   5.560 -1.3476 -1.2543  0.5630
 5888SOL    HW220685   8.472   7.253   5.615  0.4443 -1.0719 -0.0445
 5889SOL     OW20686   7.310   7.880   2.923 -0.3158  0.1447 -0.6487
 5889SOL    HW120687   7.304   7.810   2.988  0.1791  1.6332  1.0384
 5889SOL    HW220688   7.396   7.869   2.884  0.3888  0.6940  0.6943
 5890SOL     OW20689   5.323   7.848   4.176 -0.1560 -0.1639  0.5294
 5890SOL    HW120690   5.314   7.839   4.082  1.0548 -0.9098  0.4751
 5890SOL    HW220691   5.361   7.935   4.188 -1.3595  0.3974  0.4125
 5891SOL     OW20692   8.126   7.099   6.448  0.1540 -0.7494 -0.6428
 5891SOL    HW120693   8.145   7.132   6.360 -0.1667  1.6123  0.1456
 5891SOL    HW220694   8.039   7.059   6.440 -0.2133  0.1402 -1.2478
 5892SOL     OW20695   4.095   3.852   0.802  0.2945 -0.2840  0.0151
 5892SOL    HW120696   4.185   3.857   0.769  0.3888 -1.7142  0.0302
 5892SOL    HW220697   4.105   3.820   0.892 -0.1626  0.6225  0.3938
 5893SOL     OW20698   3.906   5.830   6.441  0.2214 -0.1774 -0.0323
 5893SOL    HW120699   3.916   5.889   6.515 -0.2383  1.2817 -1.1136
 5893SOL    HW220700   3.841   5.766   6.471  2.1327 -1.2933  1.8298
 5894SOL     OW20701   1.128   4.797   1.887  0.0442 -0.3238 -0.0336
 5894SOL    HW120702   1.127   4.789   1.983 -0.0477 -1.8322 -0.1592
 5894SOL    HW220703   1.085   4.881   1.870  0.0652 -0.0455  1.2452
 5895SOL     OW20704   8.504   8.081   5.754  0.0612 -0.1242 -0.1907
 5895SOL    HW120705   8.460   8.159   5.787 -0.4824 -0.5178  0.0259
 5895SOL    HW220706   8.506   8.092   5.659  1.2190  0.7955 -0.0715
 5896SOL     OW20707   5.871   1.899   5.015 -0.2752 -0.1180 -0.0015
 5896SOL    HW120708   5.926   1.853   5.078 -1.3259 -1.1076  0.1984
 5896SOL    HW220709   5.924   1.973   4.986  1.5870 -1.6809 -0.6390
 5897SOL     OW20710   7.869   6.644   4.008  0.4884 -0.1315  0.0482
 5897SOL    HW120711   7.879   6.557   4.048  0.4200  0.0480  0.4581
 5897SOL    HW220712   7.795   6.682   4.054  0.7369  0.2794  0.1063
 5898SOL     OW20713   3.563   4.114   3.652  0.1917  0.0071 -0.0431
 5898SOL    HW120714   3.621   4.172   3.603 -1.3961  1.3704 -0.3430
 5898SOL    HW220715   3.591   4.123   3.743  0.0275  1.1331 -0.1053
 5899SOL     OW20716   6.330   2.089   0.291 -0.0453  0.0252  0.0640
 5899SOL    HW120717   6.396   2.054   0.231  0.4172 -1.5115  1.4396
 5899SOL    HW220718   6.274   2.143   0.236  0.0556 -1.7866 -1.8645
 5900SOL     OW20719   0.695   1.070   3.230  0.3956 -0.0956 -0.3890
 5900SOL    HW120720   0.690   1.148   3.174  0.4210  0.3434  0.2230
 5900SOL    HW220721   0.738   1.100   3.310  1.8732 -1.0950 -0.7776
 5901SOL     OW20722   1.538   1.270   8.853 -0.0399 -0.3946  0.0457
 5901SOL    HW120723   1.596   1.194   8.855 -1.2752 -1.3480  0.3094
 5901SOL    HW220724   1.546   1.305   8.764  2.2789  0.5555  0.5966
 5902SOL     OW20725   0.144   5.521   1.763 -0.3163 -0.3429  0.8440
 5902SOL    HW120726   0.082   5.453   1.790  0.8023 -1.4539  0.6280
 5902SOL    HW220727   0.227   5.475   1.752  0.4161  1.0354  0.5488
 5903SOL     OW20728   5.526   5.156   1.525  0.1805 -0.0582  0.3530
 5903SOL    HW120729   5.595   5.090   1.536 -0.5961 -0.6426  1.9110
 5903SOL    HW220730   5.457   5.128   1.585  0.0132  2.4204  1.3801
 5904SOL     OW20731   5.351   8.516   6.418  0.6332 -0.1502 -0.2898
 5904SOL    HW120732   5.311   8.445   6.469 -2.7088  1.5088 -0.4492
 5904SOL    HW220733   5.418   8.552   6.476  0.5818 -1.7244  0.7995
 5905SOL     OW20734   3.371   8.962   6.407  0.5749  0.2755 -0.1139
 5905SOL    HW120735   3.439   8.946   6.472 -2.0315 -0.4595  2.5578
 5905SOL    HW220736   3.343   8.874   6.379  0.1950  0.5475 -0.5992
 5906SOL     OW20737   8.547   5.431   2.123 -0.5809  0.1005  0.4924
 5906SOL    HW120738   8.615   5.402   2.062 -1.3350 -0.5451 -0.0709
 5906SOL    HW220739   8.509   5.349   2.156 -0.6617  0.4560  1.2725
 5907SOL     OW20740   6.496   3.869   7.834 -0.8521  0.3728 -0.5411
 5907SOL    HW120741   6.580   3.915   7.834 -1.1482  0.9570  0.9401
 5907SOL    HW220742   6.499   3.814   7.911 -1.0977 -1.0186 -1.5160
 5908SOL     OW20743   1.647   5.553   2.460 -0.4462 -0.4772  0.1118
 5908SOL    HW120744   1.727   5.513   2.493 -0.6072 -1.5812 -0.7783
 5908SOL    HW220745   1.623   5.618   2.526  1.4235  0.2041  0.1463
 5909SOL     OW20746   7.953   8.348   8.447 -0.2569 -0.6693 -0.1020
 5909SOL    HW120747   7.964   8.443   8.454  0.1536 -0.5922 -1.6071
 5909SOL    HW220748   7.994   8.325   8.363 -0.0929 -2.2207  0.3844
 5910SOL     OW20749   6.639   0.254   5.430 -0.4724 -1.0524  0.3015
 5910SOL    HW120750   6.657   0.291   5.343 -0.4484 -1.6965  0.0222
 5910SOL    HW220751   6.711   0.192   5.444  1.0029  0.9727  1.9512
 5911SOL     OW20752   2.450   7.334   2.206 -0.0232  0.2843  0.0742
 5911SOL    HW120753   2.467   7.350   2.299 -0.9623  0.5579  0.1983
 5911SOL    HW220754   2.513   7.266   2.182 -0.8210 -0.9180  1.3041
 5912SOL     OW20755   7.517   2.488   6.398 -0.3085  0.3830 -0.3403
 5912SOL    HW120756   7.483   2.405   6.365 -1.7882  1.3356 -1.2779
 5912SOL    HW220757   7.442   2.528   6.443  0.6207  0.8454  0.8257
 5913SOL     OW20758   1.316   7.148   5.085 -0.3023  0.3323  0.1233
 5913SOL    HW120759   1.314   7.230   5.037  1.7183  1.0073  1.1239
 5913SOL    HW220760   1.348   7.084   5.022  3.2604  1.3993  0.7617
 5914SOL     OW20761   3.330   5.421   4.419 -0.2872  0.4896 -0.3864
 5914SOL    HW120762   3.351   5.340   4.466  0.6427  0.8974 -0.0799
 5914SOL    HW220763   3.241   5.409   4.388  0.5618 -1.5074 -2.1375
 5915SOL     OW20764   6.411   6.647   9.251  0.3014 -0.0783 -0.4476
 5915SOL    HW120765   6.456   6.730   9.239  0.7940 -0.4600 -1.2865
 5915SOL    HW220766   6.416   6.630   9.345 -1.1803  1.6073 -0.0385
 5916SOL     OW20767   5.146   0.013   7.575  0.4068 -0.0176  0.0425
 5916SOL    HW120768   5.209  -0.054   7.602  0.2917  0.8459  2.6649
 5916SOL    HW220769   5.199   0.091   7.560  0.1682  0.2358  0.5049
 5917SOL     OW20770   1.015   2.707   0.346 -0.7734 -0.7147  0.0647
 5917SOL    HW120771   0.960   2.786   0.342 -0.1410 -0.2077  1.0481
 5917SOL    HW220772   1.104   2.741   0.356 -0.4175 -1.5552 -0.1967
 5918SOL     OW20773   9.437   1.777   4.980 -0.0046 -0.2460 -0.2387
 5918SOL    HW120774   9.512   1.807   5.030 -0.5859  1.2362 -0.2119
 5918SOL    HW220775   9.373   1.848   4.988 -0.0650  0.0627 -3.1778
 5919SOL     OW20776   8.363   6.828   1.027  0.2117  0.2359  0.8092
 5919SOL    HW120777   8.320   6.785   1.101 -0.6153  0.3220  0.3977
 5919SOL    HW220778   8.454   6.802   1.033 -0.0782 -0.7219  1.1778
 5920SOL     OW20779   5.675   4.336   5.212 -0.4822 -0.0569  0.2975
 5920SOL    HW120780   5.677   4.430   5.195 -0.9289 -0.6247 -3.2662
 5920SOL    HW220781   5.596   4.323   5.265 -1.4349  1.3620 -0.7466
 5921SOL     OW20782   8.652   0.948   3.466  0.0926 -0.2508  0.2732
 5921SOL    HW120783   8.729   0.899   3.436 -0.4301 -0.3179 -0.9792
 5921SOL    HW220784   8.619   0.897   3.540  1.7234  0.2122  1.3491
 5922SOL     OW20785   2.271   0.074   0.653  0.2826  0.5518  0.0664
 5922SOL    HW120786   2.215   0.089   0.577 -1.7274 -2.1197  0.9646
 5922SOL    HW220787   2.229   0.122   0.724  0.9531  1.2272  0.0182
 5923SOL     OW20788   3.817   2.642   6.469 -0.1912  0.5677 -0.0216
 5923SOL    HW120789   3.887   2.617   6.530 -0.8449  0.0182  0.5071
 5923SOL    HW220790   3.863   2.663   6.388  0.5119 -0.8310  0.0070
 5924SOL     OW20791   3.371   8.573   5.656  0.4602 -0.1897  0.2916
 5924SOL    HW120792   3.409   8.635   5.594  0.4123 -0.1745  0.2763
 5924SOL    HW220793   3.442   8.513   5.677  0.1635 -0.8887 -0.6706
 5925SOL     OW20794   7.107   4.195   2.172 -0.5228  0.1064 -0.5708
 5925SOL    HW120795   7.041   4.236   2.228 -1.4373 -1.4806 -0.4433
 5925SOL    HW220796   7.147   4.129   2.227  2.0084  1.8150 -0.3029
 5926SOL     OW20797   5.485   4.022   5.312 -0.4942 -0.0836  0.0559
 5926SOL    HW120798   5.569   3.977   5.323 -0.6136  0.0797  1.8125
 5926SOL    HW220799   5.423   3.951   5.295 -0.1829 -0.3139 -0.1354
 5927SOL     OW20800   0.252   7.693   2.487  0.0123 -0.6275  0.0512
 5927SOL    HW120801   0.281   7.643   2.563  0.8542 -0.2972 -0.0443
 5927SOL    HW220802   0.332   7.732   2.452 -0.3953 -0.6073 -0.8813
 5928SOL     OW20803   6.031   2.537   7.490 -0.0250  0.3631 -0.0860
 5928SOL    HW120804   6.112   2.547   7.440  0.3729  0.5946  0.6024
 5928SOL    HW220805   6.013   2.624   7.524 -0.7758  0.3962 -0.5531
 5929SOL     OW20806   5.162   9.419   8.308 -0.2437 -0.2346  0.4091
 5929SOL    HW120807   5.087   9.469   8.274 -0.5599  0.1774  1.6928
 5929SOL    HW220808   5.235   9.480   8.304 -0.5998  0.2993  1.8441
 5930SOL     OW20809   1.491   1.148   4.620 -0.1415  0.0374 -0.0085
 5930SOL    HW120810   1.468   1.102   4.540 -1.0446  1.2490 -0.4607
 5930SOL    HW220811   1.407   1.180   4.654  0.1007 -1.2306  1.9117
 5931SOL     OW20812   2.119   0.501   2.953 -0.2318  0.0650 -0.1433
 5931SOL    HW120813   2.180   0.560   2.999 -1.6522  0.5344  1.1965
 5931SOL    HW220814   2.142   0.414   2.985  0.5579  0.0993 -0.6033
 5932SOL     OW20815   4.551   6.350   3.522 -0.2469  0.0672  0.4405
 5932SOL    HW120816   4.520   6.360   3.432  1.0180 -2.2995 -0.2921
 5932SOL    HW220817   4.475   6.374   3.576 -1.0991  1.2490 -1.2420
 5933SOL     OW20818   3.834   6.642   2.354 -0.0817 -0.3494 -0.3238
 5933SOL    HW120819   3.772   6.715   2.348 -0.1980 -0.2900  1.4898
 5933SOL    HW220820   3.916   6.683   2.384 -0.2687 -1.0243  1.1263
 5934SOL     OW20821   1.336   7.339   5.441  0.2371 -0.3325 -0.4135
 5934SOL    HW120822   1.391   7.354   5.364  0.3120  0.4458 -0.2166
 5934SOL    HW220823   1.390   7.366   5.515  0.5521 -2.1015  0.0119
 5935SOL     OW20824   4.466   3.600   7.376  0.0814 -0.2335  0.1129
 5935SOL    HW120825   4.380   3.601   7.334  0.3331 -1.2034 -0.4354
 5935SOL    HW220826   4.454   3.650   7.456 -0.6817  0.6951 -0.5711
 5936SOL     OW20827   9.333   8.266   6.443  0.1700  0.1016 -0.4709
 5936SOL    HW120828   9.344   8.316   6.523 -0.0523  0.6877 -0.8076
 5936SOL    HW220829   9.270   8.197   6.467  0.7967 -0.2735  0.0991
 5937SOL     OW20830   4.740   2.955   7.336 -0.2569 -0.3065 -0.0143
 5937SOL    HW120831   4.695   3.002   7.266  1.0796  2.1747  0.7503
 5937SOL    HW220832   4.820   2.921   7.295 -1.5464 -2.6319 -0.7443
 5938SOL     OW20833   6.816   4.694   8.899 -0.0844  0.4187  0.1740
 5938SOL    HW120834   6.789   4.712   8.989  2.1337 -0.4074  1.0632
 5938SOL    HW220835   6.861   4.774   8.871  2.3460 -0.5599  1.1134
 5939SOL     OW20836   2.093   4.772   3.207  0.1464 -0.6164 -0.2949
 5939SOL    HW120837   2.083   4.849   3.151 -0.1664 -1.6763 -1.7380
 5939SOL    HW220838   2.017   4.718   3.187  1.2365 -2.0829 -0.5782
 5940SOL     OW20839   7.593   8.155   0.204 -0.3155  0.4104  0.2927
 5940SOL    HW120840   7.499   8.151   0.185 -0.5736  1.4953  1.2741
 5940SOL    HW220841   7.615   8.248   0.193  0.8730 -0.0070 -0.9518
 5941SOL     OW20842   2.237   7.179   3.575  0.2648  0.3164  0.0270
 5941SOL    HW120843   2.276   7.112   3.520 -1.8491  0.7206 -2.0994
 5941SOL    HW220844   2.159   7.137   3.613  1.2077  0.3245  2.0146
 5942SOL     OW20845   8.931   1.917   2.334  0.1986  0.4302  0.1400
 5942SOL    HW120846   8.912   1.995   2.386  0.6379  0.9751 -0.5162
 5942SOL    HW220847   8.945   1.848   2.400 -0.6349  0.7877  0.7108
 5943SOL     OW20848   6.107   6.309   1.545 -0.3558 -0.3278 -0.8855
 5943SOL    HW120849   6.061   6.296   1.462  0.4078  0.4835 -1.4412
 5943SOL    HW220850   6.149   6.225   1.563 -0.3382 -0.4389 -1.4373
 5944SOL     OW20851   4.015   5.387   2.264 -0.1864 -0.3878  0.3563
 5944SOL    HW120852   3.931   5.432   2.254  0.9230  1.8487  0.8154
 5944SOL    HW220853   3.997   5.317   2.328 -1.8575 -0.4361 -0.1230
 5945SOL     OW20854   1.497   0.333   6.358 -0.0902 -0.2284  0.6955
 5945SOL    HW120855   1.523   0.254   6.405  0.4747 -0.4112  0.0947
 5945SOL    HW220856   1.504   0.309   6.266  0.8988  0.7673  0.5027
 5946SOL     OW20857   4.871   8.161   6.953  0.1492  0.0128 -0.4269
 5946SOL    HW120858   4.857   8.123   7.040  3.4484  0.5426  0.3851
 5946SOL    HW220859   4.895   8.252   6.971 -1.8261  0.9030 -2.0759
 5947SOL     OW20860   3.961   8.056   0.366 -0.2907  0.0376  0.3438
 5947SOL    HW120861   3.946   7.965   0.390 -1.1212  0.3432  1.0270
 5947SOL    HW220862   3.951   8.105   0.448  1.3380  0.6211  0.2153
 5948SOL     OW20863   5.365   7.720   3.897 -0.5839 -0.1085 -0.4415
 5948SOL    HW120864   5.343   7.680   3.814  0.2193  0.3478 -0.8779
 5948SOL    HW220865   5.349   7.814   3.883  1.9398  0.2727 -0.8746
 5949SOL     OW20866   2.510   3.534   1.254 -0.1978  0.5679 -0.1781
 5949SOL    HW120867   2.567   3.522   1.178 -1.0834 -4.3675 -0.2122
 5949SOL    HW220868   2.570   3.544   1.328  0.6584  1.1896 -0.9471
 5950SOL     OW20869   3.201   7.050   8.512  0.0388  0.3391 -0.0767
 5950SOL    HW120870   3.271   7.008   8.562  0.5268  2.5292  1.1504
 5950SOL    HW220871   3.132   7.066   8.576 -1.1455 -0.7423 -1.0438
 5951SOL     OW20872   7.836   6.559   5.860  0.0018  0.4059 -0.3900
 5951SOL    HW120873   7.894   6.483   5.866  0.2882  0.6142 -0.5048
 5951SOL    HW220874   7.767   6.532   5.800  2.6394  1.8252 -4.3083
 5952SOL     OW20875   5.872   0.022   0.578  0.1832  0.1598  0.0523
 5952SOL    HW120876   5.858  -0.057   0.631 -1.3410 -1.0330 -2.0521
 5952SOL    HW220877   5.955   0.005   0.533 -0.1180 -0.2551 -0.3625
 5953SOL     OW20878   3.826   7.813   8.816 -0.5314  0.0057  0.5191
 5953SOL    HW120879   3.770   7.874   8.767 -0.8770 -0.1060  0.7743
 5953SOL    HW220880   3.898   7.794   8.756 -1.3572 -0.7470 -0.2462
 5954SOL     OW20881   2.698   5.817   0.337  0.8098 -0.2609 -0.2380
 5954SOL    HW120882   2.643   5.857   0.269 -1.1561  0.3531  1.6473
 5954SOL    HW220883   2.749   5.890   0.372  0.1892 -0.1425  0.4382
 5955SOL     OW20884   9.362   5.614   8.754  0.1654  0.0744  0.0477
 5955SOL    HW120885   9.334   5.670   8.681  0.7256  2.1357  1.3798
 5955SOL    HW220886   9.380   5.674   8.826  1.0895 -1.8016  1.4508
 5956SOL     OW20887   4.735   3.786   7.540  0.5752 -0.2670 -0.1180
 5956SOL    HW120888   4.642   3.764   7.532  0.5489  0.0807 -0.7948
 5956SOL    HW220889   4.775   3.709   7.580  0.4217 -1.3942 -2.1146
 5957SOL     OW20890   0.712   7.712   2.168  0.1842 -0.0214 -0.4466
 5957SOL    HW120891   0.705   7.805   2.148 -0.1075 -0.4247 -2.3160
 5957SOL    HW220892   0.659   7.669   2.102 -1.7685 -1.3891  1.9241
 5958SOL     OW20893   9.346   5.819   0.502 -0.5014  0.6399  0.0341
 5958SOL    HW120894   9.433   5.843   0.534 -0.6418  1.6443 -0.3124
 5958SOL    HW220895   9.363   5.754   0.434 -0.1644 -0.9556  1.5958
 5959SOL     OW20896   1.130   5.898   8.447 -0.0730 -0.6392 -0.8600
 5959SOL    HW120897   1.126   5.927   8.538  0.0729 -0.8067 -0.7998
 5959SOL    HW220898   1.044   5.922   8.411 -0.3628 -1.1298 -0.5095
 5960SOL     OW20899   2.281   8.324   8.339 -0.2506  0.1848  0.4224
 5960SOL    HW120900   2.258   8.401   8.287 -0.7728 -1.0868 -1.2462
 5960SOL    HW220901   2.199   8.274   8.345  0.4587 -1.0048  0.2071
 5961SOL     OW20902   8.187   9.415   1.013  0.2203 -0.4903  0.8176
 5961SOL    HW120903   8.280   9.400   0.995  0.1305  0.2582 -0.3056
 5961SOL    HW220904   8.172   9.506   0.990 -0.9346 -0.7751  0.3828
 5962SOL     OW20905   1.733   6.868   7.852  0.4247  0.0396 -0.1023
 5962SOL    HW120906   1.678   6.795   7.881 -0.0175  0.7684  0.9690
 5962SOL    HW220907   1.802   6.874   7.918 -0.1249  1.2165  0.3833
 5963SOL     OW20908   9.286   8.944   2.139 -0.3222 -0.0909  0.4330
 5963SOL    HW120909   9.379   8.923   2.125 -0.2491  0.1976  0.4864
 5963SOL    HW220910   9.266   8.907   2.225 -0.4432 -0.7706  0.1112
 5964SOL     OW20911   1.319   9.140   2.371 -0.0532  0.5824 -0.3229
 5964SOL    HW120912   1.380   9.213   2.380  0.4599  0.0541  0.5829
 5964SOL    HW220913   1.318   9.121   2.277 -1.0138  2.4287 -0.7228
 5965SOL     OW20914   3.709   6.056   1.199  0.0660  0.4874 -0.1927
 5965SOL    HW120915   3.779   6.001   1.233  0.8297  1.8624  0.4974
 5965SOL    HW220916   3.631   6.000   1.201  0.6431 -0.2858  1.3359
 5966SOL     OW20917   0.452   3.978   8.570  0.2569  0.0143 -0.6464
 5966SOL    HW120918   0.432   3.895   8.613  0.4813  0.8280  1.0754
 5966SOL    HW220919   0.403   3.975   8.488 -0.4196 -1.4479 -0.2070
 5967SOL     OW20920   3.245   8.109   0.605  0.1970 -0.4401 -0.2797
 5967SOL    HW120921   3.209   8.187   0.646  0.4030  0.7442 -2.2884
 5967SOL    HW220922   3.234   8.040   0.671 -1.4382  0.9136  0.9104
 5968SOL     OW20923   1.745   4.242   4.443 -0.6385  0.3713  0.6345
 5968SOL    HW120924   1.694   4.322   4.454  0.6306  0.9546  2.5228
 5968SOL    HW220925   1.828   4.260   4.486 -0.3877 -1.9984  1.2248
 5969SOL     OW20926   8.134   6.258   0.197  0.0964 -0.1171  0.1148
 5969SOL    HW120927   8.086   6.341   0.196 -1.4817 -0.9684  1.6263
 5969SOL    HW220928   8.136   6.229   0.106 -0.6400  0.8678 -0.2169
 5970SOL     OW20929   0.915   2.094   1.804 -0.3304 -0.2091  0.0808
 5970SOL    HW120930   0.907   2.037   1.727  0.8068 -0.3491  0.0545
 5970SOL    HW220931   1.010   2.103   1.817 -0.5124 -0.1079  1.4070
 5971SOL     OW20932   3.024   2.323   0.880  0.6493 -0.2299  0.2305
 5971SOL    HW120933   2.973   2.247   0.851 -0.9101  1.5353 -1.7360
 5971SOL    HW220934   2.960   2.382   0.920  1.5255  0.9420 -0.0585
 5972SOL     OW20935   8.789   9.030   3.331 -0.5034 -0.0288 -0.2834
 5972SOL    HW120936   8.851   8.993   3.394  0.4027  0.5792 -0.7971
 5972SOL    HW220937   8.844   9.058   3.258 -1.4668 -0.0565 -1.0158
 5973SOL     OW20938   7.903   5.304   4.059 -0.3633  0.3028  0.1148
 5973SOL    HW120939   7.900   5.296   4.155  1.1591  0.0429  0.1572
 5973SOL    HW220940   7.864   5.389   4.041 -0.8192  0.2786  0.9637
 5974SOL     OW20941   2.898   6.643   6.936  0.3684  0.4557  0.3087
 5974SOL    HW120942   2.968   6.579   6.921  0.9903  0.6257  2.3316
 5974SOL    HW220943   2.840   6.632   6.861  2.1876 -0.1843 -1.0723
 5975SOL     OW20944   7.733   2.559   5.267 -0.3637 -0.2013  0.1791
 5975SOL    HW120945   7.665   2.611   5.310  0.5905  1.5976 -0.4460
 5975SOL    HW220946   7.786   2.525   5.340 -0.2990  0.6750  0.5525
 5976SOL     OW20947   2.003   1.167   8.021  0.7349  0.5672 -0.7826
 5976SOL    HW120948   1.975   1.249   8.061  0.7595 -0.4390  1.3659
 5976SOL    HW220949   1.925   1.132   7.978  0.2882  0.8509 -0.1955
 5977SOL     OW20950   5.391   5.644   2.875 -0.0218 -0.3612  0.8868
 5977SOL    HW120951   5.389   5.573   2.939  0.3610 -0.4093  0.8468
 5977SOL    HW220952   5.442   5.609   2.802  0.2058 -0.0314  0.8877
 5978SOL     OW20953   6.105   1.257   2.455 -0.1544 -0.5940 -0.8004
 5978SOL    HW120954   6.119   1.238   2.362 -1.0520  1.6284 -1.4309
 5978SOL    HW220955   6.010   1.246   2.467  0.0897 -1.7576  0.0650
 5979SOL     OW20956   3.133   3.390   5.091  0.0015 -0.2824  0.3129
 5979SOL    HW120957   3.165   3.300   5.094  1.3378  0.1580 -0.1843
 5979SOL    HW220958   3.041   3.383   5.069 -0.2693 -1.6037  1.7581
 5980SOL     OW20959   7.345   0.944   2.882 -0.1239  0.3806 -0.5770
 5980SOL    HW120960   7.417   0.884   2.903 -0.7719 -0.1331  0.2178
 5980SOL    HW220961   7.272   0.913   2.936 -1.8285 -0.8882 -3.4955
 5981SOL     OW20962   1.857   1.903   8.086 -0.4601  0.6419 -0.2567
 5981SOL    HW120963   1.911   1.904   8.007  2.0225  1.6714  1.3749
 5981SOL    HW220964   1.794   1.974   8.073  1.8179  2.7455 -0.1179
 5982SOL     OW20965   3.105   2.483   1.717  0.8550  0.3668 -0.6390
 5982SOL    HW120966   3.011   2.467   1.733  1.2446 -0.3807  1.0638
 5982SOL    HW220967   3.113   2.578   1.722  0.1968  0.4288 -0.6232
 5983SOL     OW20968   1.186   9.442   4.527 -0.3846  0.4189  0.8433
 5983SOL    HW120969   1.144   9.465   4.444  0.7140  0.3753  0.2682
 5983SOL    HW220970   1.241   9.366   4.507  0.4361  0.8407  1.4345
 5984SOL     OW20971   5.546   1.166   7.782 -0.2633  0.2630 -0.1495
 5984SOL    HW120972   5.475   1.202   7.834  0.1107  0.5311  0.1794
 5984SOL    HW220973   5.588   1.102   7.839 -0.5985 -0.3199 -0.5484
 5985SOL     OW20974   8.077   0.832   3.561 -0.1643 -0.0602 -0.3169
 5985SOL    HW120975   8.141   0.872   3.620  0.2979  0.0239 -0.8767
 5985SOL    HW220976   8.010   0.900   3.549 -1.1821 -0.6897  1.5122
 5986SOL     OW20977   7.833   0.285   0.179 -0.5815 -0.1440  0.5073
 5986SOL    HW120978   7.921   0.265   0.211 -0.4917  0.6474  0.7510
 5986SOL    HW220979   7.774   0.245   0.243 -0.3992  0.0512  0.7945
 5987SOL     OW20980   3.133   2.832   7.955  0.4863 -0.6914  0.0735
 5987SOL    HW120981   3.043   2.821   7.922  0.8471 -1.5026 -0.6808
 5987SOL    HW220982   3.155   2.923   7.935  0.3921 -0.9328 -1.2056
 5988SOL     OW20983   5.919   1.277   8.719 -0.1890 -0.4648  0.2698
 5988SOL    HW120984   5.830   1.302   8.741 -1.4430 -0.7955 -4.0262
 5988SOL    HW220985   5.958   1.356   8.683  0.0398 -1.2895 -1.3072
 5989SOL     OW20986   0.271   5.501   0.804 -0.1036  0.3307  0.0516
 5989SOL    HW120987   0.199   5.443   0.827 -0.3276 -0.0464 -1.5564
 5989SOL    HW220988   0.324   5.452   0.741  1.1347  0.8889  0.6408
 5990SOL     OW20989   5.351   8.784   5.878 -0.2158  0.5127 -0.4123
 5990SOL    HW120990   5.444   8.766   5.865 -0.3293 -1.3847  1.3268
 5990SOL    HW220991   5.309   8.698   5.880 -1.8246  1.2892  0.1501
 5991SOL     OW20992   0.787   4.893   3.160  0.1397 -0.3958 -0.6259
 5991SOL    HW120993   0.740   4.975   3.148  0.1672 -0.5322 -1.7349
 5991SOL    HW220994   0.737   4.828   3.110  0.7790 -0.8111 -0.7346
 5992SOL     OW20995   8.535   1.125   5.280  0.1741  0.7737 -0.0311
 5992SOL    HW120996   8.619   1.079   5.276 -0.9227 -1.3966  1.0608
 5992SOL    HW220997   8.507   1.132   5.189 -0.3898 -2.1986 -0.1353
 5993SOL     OW20998   4.745   0.907   7.465 -0.3540  0.0067  0.0733
 5993SOL    HW120999   4.687   0.981   7.447  0.1422  0.7152  1.3085
 5993SOL    HW221000   4.686   0.831   7.466 -0.8822  0.3960 -1.0820
 5994SOL     OW21001   3.715   0.902   2.865  0.2961  0.8550  0.0682
 5994SOL    HW121002   3.677   0.917   2.952 -0.2982 -0.2619  0.0157
 5994SOL    HW221003   3.700   0.983   2.818 -0.6866  0.9569  0.5419
 5995SOL     OW21004   6.610   3.526   0.862 -0.5461 -0.3057  0.7039
 5995SOL    HW121005   6.620   3.620   0.848 -3.3852  0.0503  0.7130
 5995SOL    HW221006   6.699   3.493   0.868  0.4993  2.3897  0.7598
 5996SOL     OW21007   0.581   8.339   5.265 -0.1841 -0.2606 -0.0353
 5996SOL    HW121008   0.514   8.276   5.238 -0.8276  0.1216  0.6500
 5996SOL    HW221009   0.549   8.423   5.234  0.7082 -0.2688 -1.0020
 5997SOL     OW21010   0.146   0.667   2.452 -0.0903 -0.2812  0.4215
 5997SOL    HW121011   0.210   0.708   2.395  0.2064 -0.7723  0.4011
 5997SOL    HW221012   0.130   0.732   2.521  1.1010 -0.5064  0.9267
 5998SOL     OW21013   2.120   4.137   7.064  0.0006 -0.2259 -0.3600
 5998SOL    HW121014   2.158   4.109   7.148  0.0066 -0.3908 -0.4166
 5998SOL    HW221015   2.099   4.055   7.019 -2.2366 -0.1717  0.4860
 5999SOL     OW21016   2.033   9.276   7.465  0.4368  0.1548  0.0418
 5999SOL    HW121017   2.113   9.293   7.515  1.2670 -2.0065 -0.4819
 5999SOL    HW221018   1.986   9.359   7.466  2.3652  1.2766  0.9423
 6000SOL     OW21019   4.478   4.865   5.632  0.6053  0.2123  0.3795
 6000SOL    HW121020   4.530   4.796   5.590 -2.5585 -1.7019 -0.5492
 6000SOL    HW221021   4.476   4.936   5.568  1.8297  0.2019  0.3154
 6001SOL     OW21022   8.747   6.122   7.279  0.4633  0.3872  0.2719
 6001SOL    HW121023   8.678   6.148   7.339  0.0216 -0.1034 -0.0228
 6001SOL    HW221024   8.779   6.039   7.314  0.7496  0.4941  0.2719
 6002SOL     OW21025   8.711   1.400   0.188 -0.2289 -0.4369 -0.3948
 6002SOL    HW121026   8.805   1.418   0.200 -0.1228 -1.8270  1.0308
 6002SOL    HW221027   8.675   1.402   0.277 -2.1469  3.0195 -1.1464
 6003SOL     OW21028   6.727   9.119   8.355  0.5176 -0.2566 -0.3182
 6003SOL    HW121029   6.697   9.178   8.425  1.4877 -0.3350  0.1804
 6003SOL    HW221030   6.820   9.105   8.375  1.1199  0.6867 -2.3076
 6004SOL     OW21031   3.471   2.605   8.647 -0.9882  0.1007  0.1641
 6004SOL    HW121032   3.380   2.595   8.675 -1.1550 -1.0837 -0.7681
 6004SOL    HW221033   3.483   2.538   8.580  1.0241 -0.7970  1.3742
 6005SOL     OW21034   6.639   2.763   2.214 -0.4425 -0.7171  0.7958
 6005SOL    HW121035   6.553   2.756   2.173  0.1823 -1.1960 -0.4513
 6005SOL    HW221036   6.625   2.823   2.287 -1.9897 -1.3272  1.0368
 6006SOL     OW21037   2.692   7.589   3.540 -0.0376  0.0129  0.2874
 6006SOL    HW121038   2.653   7.501   3.540  0.8502 -0.3888 -0.0043
 6006SOL    HW221039   2.661   7.628   3.458  0.6459 -0.5197 -0.2269
 6007SOL     OW21040   3.128   5.233   8.312  0.2617  0.0651  0.6053
 6007SOL    HW121041   3.151   5.313   8.267  2.7325 -0.1160  1.4860
 6007SOL    HW221042   3.042   5.209   8.277  0.8812  1.4174 -1.8839
 6008SOL     OW21043   5.566   1.539   0.020 -0.2534  0.4879 -0.3402
 6008SOL    HW121044   5.478   1.504   0.003  0.2520 -0.8760 -0.2650
 6008SOL    HW221045   5.577   1.609  -0.043 -1.5939  1.0002 -0.0117
 6009SOL     OW21046   1.776   5.078   5.860  0.4818  0.3529  0.1954
 6009SOL    HW121047   1.784   5.144   5.791 -0.6228  0.6137  0.3065
 6009SOL    HW221048   1.753   5.129   5.938 -1.4911 -0.2498  0.0438
 6010SOL     OW21049   4.762   9.073   5.252  0.4150 -0.2143  0.1315
 6010SOL    HW121050   4.804   9.118   5.325  0.3304 -2.1353  1.3918
 6010SOL    HW221051   4.732   8.990   5.289 -1.9710 -0.0859 -1.4579
 6011SOL     OW21052   8.235   2.862   8.874 -0.0393  0.1212 -0.5142
 6011SOL    HW121053   8.195   2.936   8.827  0.0441 -0.1982 -1.0976
 6011SOL    HW221054   8.236   2.889   8.965 -1.1002  0.3533 -0.5702
 6012SOL     OW21055   3.676   3.030   6.080  0.1212 -0.1739  0.2025
 6012SOL    HW121056   3.699   3.113   6.038 -0.3522 -0.6109 -0.9313
 6012SOL    HW221057   3.597   3.049   6.131 -1.5458 -0.5443 -2.1822
 6013SOL     OW21058   3.229   8.869   0.671 -0.3045 -0.5571  0.4250
 6013SOL    HW121059   3.269   8.955   0.661 -0.6570 -0.5233 -0.7552
 6013SOL    HW221060   3.302   8.807   0.661 -0.6953 -0.5575 -3.1555
 6014SOL     OW21061   3.396   4.033   1.362  0.2426 -0.0823  0.4775
 6014SOL    HW121062   3.316   4.000   1.321 -0.4085  0.2458  1.4539
 6014SOL    HW221063   3.430   3.959   1.411 -0.4657  0.2700  1.5377
 6015SOL     OW21064   6.674   1.556   6.078 -0.0150 -0.2531 -0.3462
 6015SOL    HW121065   6.590   1.595   6.053 -0.6919 -3.1373 -2.8240
 6015SOL    HW221066   6.650   1.478   6.127  1.2927  0.1392  0.9747
 6016SOL     OW21067   8.532   5.677   7.706  0.7384  0.4150  0.0335
 6016SOL    HW121068   8.483   5.687   7.787  0.6985 -0.4811  0.1186
 6016SOL    HW221069   8.514   5.758   7.657  0.9740  1.0709  1.0235
 6017SOL     OW21070   0.877   3.607   1.893  0.4053  0.6386 -0.0487
 6017SOL    HW121071   0.806   3.563   1.939 -0.6541  2.6838  0.3033
 6017SOL    HW221072   0.879   3.564   1.807 -0.8477  0.1598  0.1467
 6018SOL     OW21073   1.309   2.442   6.006 -0.5362 -0.2268  0.0187
 6018SOL    HW121074   1.215   2.444   5.988 -0.9397 -1.9048  1.8070
 6018SOL    HW221075   1.328   2.350   6.024  1.8656 -0.2396 -2.3102
 6019SOL     OW21076   3.219   5.676   7.457  0.3962 -0.7221 -0.2024
 6019SOL    HW121077   3.198   5.766   7.432 -0.6008 -0.5414  1.2243
 6019SOL    HW221078   3.145   5.649   7.512  2.5699 -1.0302  2.6710
 6020SOL     OW21079   5.459   0.820   5.994  0.1911  0.2157  0.0404
 6020SOL    HW121080   5.413   0.889   6.042  2.3328 -0.4434  3.2065
 6020SOL    HW221081   5.406   0.742   6.008 -0.5434  0.5458 -0.8575
 6021SOL     OW21082   4.572   1.141   4.137  0.8714  0.2133  0.2140
 6021SOL    HW121083   4.628   1.217   4.122  0.6983  0.6744  1.7850
 6021SOL    HW221084   4.604   1.105   4.220  0.1517 -0.7034  0.0937
 6022SOL     OW21085   7.409   6.678   1.412  0.5811  0.1837 -0.1310
 6022SOL    HW121086   7.428   6.621   1.486  1.5901  0.2379 -0.3408
 6022SOL    HW221087   7.386   6.618   1.341 -1.7511  0.1819  0.5862
 6023SOL     OW21088   7.657   2.799   0.119 -0.4098 -0.7566 -0.5750
 6023SOL    HW121089   7.648   2.831   0.208  1.2486 -1.7588 -0.0337
 6023SOL    HW221090   7.568   2.775   0.093 -0.7519 -1.3993  1.1599
 6024SOL     OW21091   2.942   3.819   7.953  0.6388  0.1368  0.3926
 6024SOL    HW121092   2.967   3.842   8.042 -0.3548  0.7854  0.5113
 6024SOL    HW221093   2.887   3.892   7.924  0.1250 -0.5569 -0.3909
 6025SOL     OW21094   5.128   4.653   3.734 -0.0709 -0.2362 -0.1543
 6025SOL    HW121095   5.072   4.643   3.657 -0.4023 -0.0695  0.0674
 6025SOL    HW221096   5.136   4.747   3.745  0.4858 -0.2562 -0.3545
 6026SOL     OW21097   9.086   7.472   9.161 -0.0361 -0.1333 -0.3729
 6026SOL    HW121098   9.114   7.557   9.195 -1.2515  0.7188 -1.4627
 6026SOL    HW221099   9.151   7.451   9.093 -0.5254  0.6107 -1.0849
 6027SOL     OW21100   3.472   3.542   1.926  0.2384 -0.2163  0.3162
 6027SOL    HW121101   3.419   3.463   1.930 -0.7533  0.4739  1.3547
 6027SOL    HW221102   3.551   3.520   1.975  0.9304 -1.2635 -1.2643
 6028SOL     OW21103   1.167   4.244   2.758 -0.2735 -0.3336  0.4887
 6028SOL    HW121104   1.221   4.198   2.694  0.6449  0.5671  0.6123
 6028SOL    HW221105   1.179   4.337   2.738 -1.3768 -0.0996  0.8400
 6029SOL     OW21106   5.278   4.474   1.238 -0.2514  0.2364  0.2784
 6029SOL    HW121107   5.244   4.390   1.206 -1.4947  1.5523 -2.0111
 6029SOL    HW221108   5.322   4.453   1.320 -1.3343 -2.5128  0.1964
 6030SOL     OW21109   2.805   1.064   8.387  0.1786  0.0717 -1.0527
 6030SOL    HW121110   2.846   1.076   8.301 -0.9391 -1.5861 -1.8670
 6030SOL    HW221111   2.729   1.008   8.369 -1.2686  1.4005  0.7106
 6031SOL     OW21112   4.319   7.958   4.204 -0.0910  0.1947 -0.7155
 6031SOL    HW121113   4.272   8.013   4.267  2.2693  0.0443  1.2166
 6031SOL    HW221114   4.393   8.012   4.176  2.3332 -1.9928  1.2884
 6032SOL     OW21115   0.741   0.062   6.528 -0.1281 -0.0645 -0.3185
 6032SOL    HW121116   0.811   0.095   6.473 -0.3101  0.0838 -0.4616
 6032SOL    HW221117   0.769  -0.026   6.552  0.9254  0.6127  1.0267
 6033SOL     OW21118   0.525   6.458   3.754  0.0401 -0.0038 -0.7630
 6033SOL    HW121119   0.446   6.472   3.807 -1.0628 -0.2010 -2.3084
 6033SOL    HW221120   0.492   6.422   3.672  1.6487  0.8812 -1.8206
 6034SOL     OW21121   3.368   2.072   3.593  0.1220 -0.6785 -0.1424
 6034SOL    HW121122   3.331   2.160   3.591  0.3734 -0.5897 -0.8717
 6034SOL    HW221123   3.308   2.022   3.649 -0.2634 -0.1557 -0.0860
 6035SOL     OW21124   6.371   3.851   5.366  0.2972  0.4650 -0.0033
 6035SOL    HW121125   6.355   3.945   5.371 -0.2588  0.4633 -1.3985
 6035SOL    HW221126   6.455   3.844   5.320  0.4660  0.2841  0.3330
 6036SOL     OW21127   6.569   5.026   2.590 -0.2639  0.3971 -0.5783
 6036SOL    HW121128   6.610   4.965   2.528  0.1837  1.0971 -0.9806
 6036SOL    HW221129   6.475   5.016   2.573 -0.2039 -0.3318 -0.4960
 6037SOL     OW21130   3.048   5.756   1.183 -0.5264  0.9165  0.1244
 6037SOL    HW121131   3.115   5.718   1.126  0.2532  1.7155  0.4918
 6037SOL    HW221132   2.974   5.697   1.175  0.1693  0.0947 -0.4038
 6038SOL     OW21133   3.934   0.328   2.500 -0.1511  0.6570  0.2249
 6038SOL    HW121134   3.921   0.354   2.409 -0.1253  2.7954  0.8029
 6038SOL    HW221135   4.018   0.282   2.500  0.5485  1.8963 -0.5927
 6039SOL     OW21136   2.104   5.049   7.600 -0.5775  0.4342 -0.0343
 6039SOL    HW121137   2.061   5.006   7.675 -0.1602 -0.1537 -0.1289
 6039SOL    HW221138   2.191   5.072   7.633  0.0133 -0.8381 -0.6769
 6040SOL     OW21139   7.444   3.273   3.721  0.1607  0.3926 -0.0738
 6040SOL    HW121140   7.525   3.222   3.718 -0.5144 -0.5900 -1.9894
 6040SOL    HW221141   7.431   3.302   3.631 -2.2810 -0.4766 -0.0075
 6041SOL     OW21142   4.663   8.571   8.772  0.5216 -0.7844 -0.2147
 6041SOL    HW121143   4.728   8.639   8.791 -0.6261 -0.2647  2.0504
 6041SOL    HW221144   4.707   8.489   8.796  0.9737 -0.5974 -0.3982
 6042SOL     OW21145   4.082   7.850   2.801  0.1569 -0.3041 -0.2373
 6042SOL    HW121146   4.158   7.792   2.805  1.4885  1.4694  1.2641
 6042SOL    HW221147   4.008   7.796   2.827  1.1451 -1.6622 -0.2002
 6043SOL     OW21148   0.557   6.213   5.067 -0.6377 -0.1602 -0.1847
 6043SOL    HW121149   0.534   6.296   5.024  0.6093 -0.1012 -0.7454
 6043SOL    HW221150   0.642   6.229   5.106 -0.9707 -0.7917  0.8053
 6044SOL     OW21151   3.883   8.765   5.789  0.0824  0.3654  0.1704
 6044SOL    HW121152   3.844   8.692   5.837  1.7051 -0.3197  0.5083
 6044SOL    HW221153   3.879   8.739   5.697 -0.7678  0.5571  0.1526
 6045SOL     OW21154   1.677   4.609   2.805 -0.2224 -0.1361 -0.0494
 6045SOL    HW121155   1.700   4.517   2.822 -1.5844 -0.6498 -0.9105
 6045SOL    HW221156   1.756   4.658   2.829  0.8396 -1.6177 -0.4156
 6046SOL     OW21157   8.492   5.304   4.680 -0.6990  0.5171 -0.7026
 6046SOL    HW121158   8.475   5.307   4.774  2.3821 -1.0792 -0.0119
 6046SOL    HW221159   8.513   5.212   4.662 -3.6536  0.2733 -3.4586
 6047SOL     OW21160   2.187   0.021   4.689 -0.4685 -0.2172 -0.9025
 6047SOL    HW121161   2.242  -0.056   4.696 -2.1904 -1.4178 -0.2168
 6047SOL    HW221162   2.214   0.077   4.762  0.0310 -0.6650 -0.7450
 6048SOL     OW21163   8.131   1.718   3.516  0.3844  0.3835 -0.4009
 6048SOL    HW121164   8.150   1.684   3.603  0.5324  0.3168 -0.4596
 6048SOL    HW221165   8.042   1.687   3.497 -0.9719  3.1834  1.1050
 6049SOL     OW21166   5.980   1.846   6.538  0.1619  0.7193 -0.2476
 6049SOL    HW121167   6.007   1.783   6.604  0.6635  0.6767 -0.4921
 6049SOL    HW221168   5.884   1.850   6.547  0.3039  1.3830  1.0647
 6050SOL     OW21169   4.379   5.249   5.045 -0.0126  0.3715  0.5715
 6050SOL    HW121170   4.322   5.224   5.117 -1.3148  1.1000 -0.1892
 6050SOL    HW221171   4.333   5.220   4.966  1.6950 -1.0164  0.0464
 6051SOL     OW21172   4.621   7.104   6.017 -0.5065 -0.1159 -0.3077
 6051SOL    HW121173   4.654   7.191   6.036 -0.2576 -0.3583  0.3838
 6051SOL    HW221174   4.549   7.118   5.955  0.2243  0.4889 -1.0274
 6052SOL     OW21175   4.849   5.724   4.425 -0.0846 -0.0880 -0.3442
 6052SOL    HW121176   4.902   5.646   4.438 -1.3580 -0.7688  0.9343
 6052SOL    HW221177   4.782   5.718   4.493 -0.3003  2.0264 -0.3494
 6053SOL     OW21178   3.214   3.388   2.995  0.3037  0.4884 -0.4842
 6053SOL    HW121179   3.182   3.386   3.086  0.2900  0.6839 -0.4839
 6053SOL    HW221180   3.257   3.303   2.983 -1.6590 -0.4640 -1.0074
 6054SOL     OW21181   3.249   5.074   8.605  0.2859  0.0808 -0.5722
 6054SOL    HW121182   3.246   5.155   8.657 -2.3719 -0.8566  0.8321
 6054SOL    HW221183   3.210   5.098   8.521  0.4335  0.4920 -0.5286
 6055SOL     OW21184   1.035   8.616   7.043 -0.3382  0.0250  0.6267
 6055SOL    HW121185   0.993   8.533   7.064  0.2977 -0.0757  1.5652
 6055SOL    HW221186   0.964   8.680   7.043 -1.1547 -0.8071 -2.0796
 6056SOL     OW21187   2.098   1.894   2.737  0.2168  0.2943  0.1086
 6056SOL    HW121188   2.036   1.956   2.700 -0.8406  0.3857  1.9712
 6056SOL    HW221189   2.126   1.841   2.662  0.6570  2.5722 -1.3846
 6057SOL     OW21190   8.371   0.102   0.544 -0.0909 -0.2944  0.7327
 6057SOL    HW121191   8.335   0.164   0.607 -0.3432 -0.2126  0.5086
 6057SOL    HW221192   8.448   0.066   0.587 -0.3053 -0.2941  1.1191
 6058SOL     OW21193   1.386   8.846   0.693 -0.0577 -0.3179 -0.4224
 6058SOL    HW121194   1.398   8.768   0.748 -0.0667 -0.7263 -1.0001
 6058SOL    HW221195   1.303   8.883   0.722 -0.2854 -0.7888 -0.4699
 6059SOL     OW21196   1.147   4.822   8.053  0.1447  0.0940 -0.3727
 6059SOL    HW121197   1.119   4.758   8.118 -4.4481  1.7478 -0.5508
 6059SOL    HW221198   1.137   4.907   8.096 -0.3836  1.0635 -2.3022
 6060SOL     OW21199   3.462   0.991   5.718  0.2480  0.1111 -0.9146
 6060SOL    HW121200   3.448   0.920   5.781  1.0464  0.2905 -0.5267
 6060SOL    HW221201   3.381   1.043   5.722  0.7858  0.8541  0.9157
 6061SOL     OW21202   3.177   9.254   0.002  0.0257  0.1662  0.2718
 6061SOL    HW121203   3.237   9.179   0.000  1.1284  1.0517 -0.8110
 6061SOL    HW221204   3.229   9.327  -0.030 -0.5640  1.7577  2.7488
 6062SOL     OW21205   8.811   0.329   3.718 -0.1520 -0.4890 -0.1881
 6062SOL    HW121206   8.895   0.372   3.733 -0.7667 -0.0968  2.4254
 6062SOL    HW221207   8.782   0.361   3.633  2.4174 -0.7862 -1.2151
 6063SOL     OW21208   2.530   0.872   6.624  0.1758  0.1840 -0.1574
 6063SOL    HW121209   2.478   0.862   6.704 -0.4593 -2.5180 -0.8272
 6063SOL    HW221210   2.605   0.814   6.638 -0.3806 -0.9762 -1.8309
 6064SOL     OW21211   7.206   3.475   7.619 -0.1577 -0.1601 -0.1862
 6064SOL    HW121212   7.230   3.423   7.696  0.3701  1.0036  0.4370
 6064SOL    HW221213   7.141   3.538   7.652 -0.8536 -0.4536 -0.9562
 6065SOL     OW21214   1.660   2.002   1.135  0.5622  0.4574 -0.2703
 6065SOL    HW121215   1.726   1.975   1.071 -0.2299  0.1164 -0.9467
 6065SOL    HW221216   1.636   1.921   1.180 -0.5867  0.2978 -1.1513
 6066SOL     OW21217   8.817   5.043   3.896  0.0295 -0.2325  0.8737
 6066SOL    HW121218   8.738   5.009   3.939 -0.0494  0.6675  1.4561
 6066SOL    HW221219   8.840   4.976   3.832 -2.0253  0.1625 -0.2920
 6067SOL     OW21220   7.456   7.917   1.052 -0.6368  0.0085 -0.1223
 6067SOL    HW121221   7.383   7.899   1.111 -0.9703  0.9768 -0.2344
 6067SOL    HW221222   7.524   7.952   1.109  0.2460 -2.1491  0.1968
 6068SOL     OW21223   8.647   7.749   4.284  0.4406 -0.7861  0.1849
 6068SOL    HW121224   8.661   7.748   4.189 -0.7251  0.1118 -0.0071
 6068SOL    HW221225   8.588   7.675   4.300  0.1911 -0.6028  0.1275
 6069SOL     OW21226   8.734   4.032   0.215  0.0214 -0.1908  0.4582
 6069SOL    HW121227   8.704   4.076   0.295  0.1543  0.3832  0.1968
 6069SOL    HW221228   8.802   4.089   0.181 -0.2858 -0.2540 -0.2603
 6070SOL     OW21229   4.874   1.074   7.636 -0.1611 -0.0471 -0.0297
 6070SOL    HW121230   4.853   0.990   7.595 -0.2715 -0.7298  1.4036
 6070SOL    HW221231   4.791   1.123   7.633 -0.9322 -1.1693  1.8854
 6071SOL     OW21232   8.629   9.072   4.865 -0.0187 -0.2926 -0.0267
 6071SOL    HW121233   8.642   9.100   4.956 -2.1880  1.0412 -0.1112
 6071SOL    HW221234   8.718   9.062   4.831  0.8449 -1.6593  2.4817
 6072SOL     OW21235   7.077   4.651   4.247  0.0014  0.7082  0.1273
 6072SOL    HW121236   7.033   4.576   4.207  0.7946  0.0161  0.5631
 6072SOL    HW221237   7.007   4.717   4.255 -0.7232 -0.0149 -0.1357
 6073SOL     OW21238   7.625   2.726   2.432 -0.1322 -0.3795  0.3617
 6073SOL    HW121239   7.643   2.736   2.526  0.4855 -2.6854  0.5238
 6073SOL    HW221240   7.531   2.714   2.426 -0.0605 -1.1743  0.7895
 6074SOL     OW21241   6.591   4.815   3.645 -0.3662  0.4661  0.2282
 6074SOL    HW121242   6.586   4.808   3.550 -0.4377  1.0718  0.1833
 6074SOL    HW221243   6.682   4.835   3.663 -0.4924  1.0467  0.2361
 6075SOL     OW21244   4.072   1.596   3.674  0.4604 -0.1511  0.7960
 6075SOL    HW121245   4.155   1.583   3.721  1.0501  1.3919  0.2468
 6075SOL    HW221246   4.087   1.557   3.588  1.0375  1.0967  0.3100
 6076SOL     OW21247   7.776   5.810   9.354  0.2010 -0.3083  0.0039
 6076SOL    HW121248   7.782   5.715   9.345  1.9596 -0.1595 -0.6064
 6076SOL    HW221249   7.690   5.832   9.319  1.0766 -1.3490 -3.0157
 6077SOL     OW21250   4.383   9.182   5.002  0.6403 -0.2433 -0.1241
 6077SOL    HW121251   4.443   9.236   5.053  0.2879  1.2662 -1.2789
 6077SOL    HW221252   4.408   9.198   4.911 -2.1033  1.1160 -0.6689
 6078SOL     OW21253   7.955   7.610   1.156  0.4412  0.3620 -0.5109
 6078SOL    HW121254   8.042   7.605   1.118  0.5437  0.1530 -0.2468
 6078SOL    HW221255   7.965   7.670   1.230  0.6908 -0.8403  0.4409
 6079SOL     OW21256   1.678   2.402   0.564  0.2723 -0.0406 -0.3218
 6079SOL    HW121257   1.637   2.455   0.495  1.6178  0.3125 -0.8566
 6079SOL    HW221258   1.609   2.391   0.630 -0.8706  0.0534 -1.4808
 6080SOL     OW21259   4.659   0.605   7.747 -0.2362  0.0579 -0.3920
 6080SOL    HW121260   4.589   0.569   7.693  0.0471  1.0900 -1.4822
 6080SOL    HW221261   4.729   0.626   7.684  0.4819  0.3543  0.5014
 6081SOL     OW21262   2.993   6.609   0.742 -0.5943  0.2519 -0.5267
 6081SOL    HW121263   2.930   6.643   0.679 -0.1492 -1.9382 -2.2420
 6081SOL    HW221264   3.078   6.641   0.711 -0.6375  1.4215  0.5425
 6082SOL     OW21265   2.001   8.455   6.405 -0.5136  0.5895  0.1361
 6082SOL    HW121266   2.044   8.490   6.327 -0.8761  2.6767  0.8624
 6082SOL    HW221267   2.055   8.484   6.478 -0.0618 -1.5289  0.6781
 6083SOL     OW21268   2.549   2.489   6.188 -0.0902  0.2202 -0.4297
 6083SOL    HW121269   2.491   2.427   6.146 -0.0110  0.7586 -1.3521
 6083SOL    HW221270   2.637   2.454   6.174 -0.1094  0.0543 -0.1321
 6084SOL     OW21271   7.796   5.696   4.545 -0.6015  0.2648 -0.0625
 6084SOL    HW121272   7.767   5.694   4.637 -0.4934  1.5599  0.0117
 6084SOL    HW221273   7.891   5.704   4.550 -0.6762  1.3497 -0.2742
 6085SOL     OW21274   0.117   1.772   5.666  0.0518 -0.5976 -0.7759
 6085SOL    HW121275   0.159   1.843   5.713 -0.4045 -0.6494 -0.2816
 6085SOL    HW221276   0.123   1.797   5.574 -1.8043  1.0305 -0.4840
 6086SOL     OW21277   7.255   3.361   7.383 -0.3254  0.3997  0.0986
 6086SOL    HW121278   7.167   3.344   7.349 -0.4939 -0.5122  0.9757
 6086SOL    HW221279   7.241   3.414   7.461 -0.0769  0.4714  0.0951
 6087SOL     OW21280   9.248   7.591   6.756 -0.3561  0.0666  0.4162
 6087SOL    HW121281   9.342   7.605   6.745 -0.1859 -1.0576  0.3402
 6087SOL    HW221282   9.237   7.568   6.848 -0.2317 -2.1080 -0.0787
 6088SOL     OW21283   1.007   1.292   8.766  0.3139 -0.7815  0.0249
 6088SOL    HW121284   0.965   1.283   8.852  1.3210  0.9009  0.7157
 6088SOL    HW221285   1.089   1.243   8.775  0.6494 -0.1944  0.1934
 6089SOL     OW21286   1.187   6.577   0.875  0.5091 -0.1720  0.4336
 6089SOL    HW121287   1.231   6.500   0.840 -0.0740 -0.6029  0.6289
 6089SOL    HW221288   1.118   6.596   0.811  0.8416  0.3647  0.2369
 6090SOL     OW21289   1.491   4.232   5.658 -0.8426 -0.5824  0.4054
 6090SOL    HW121290   1.459   4.153   5.702 -1.2506  0.5881  2.2507
 6090SOL    HW221291   1.413   4.286   5.644 -0.5456 -0.4129 -0.7185
 6091SOL     OW21292   0.891   2.689   9.005 -0.2451  0.0710 -0.0300
 6091SOL    HW121293   0.826   2.671   9.072  0.2070 -0.5933  0.2356
 6091SOL    HW221294   0.947   2.612   9.004  0.8437  0.8380  0.1067
 6092SOL     OW21295   7.794   4.550   6.755  0.0613 -0.0683 -0.3459
 6092SOL    HW121296   7.715   4.527   6.704  0.3111  0.5960 -1.0408
 6092SOL    HW221297   7.865   4.502   6.712  0.4049  1.1239 -1.1243
 6093SOL     OW21298   6.946   2.211   0.365 -0.4830  0.3348 -0.0276
 6093SOL    HW121299   6.974   2.254   0.446  1.0806 -0.4933 -0.1010
 6093SOL    HW221300   6.870   2.261   0.336 -0.1409  1.5624  1.1465
 6094SOL     OW21301   1.304   2.569   9.017  0.2304  0.6731 -0.1427
 6094SOL    HW121302   1.347   2.565   8.932  1.4553  1.2442  0.4308
 6094SOL    HW221303   1.323   2.658   9.049  0.3472  0.2449  1.0044
 6095SOL     OW21304   5.242   7.253   5.023 -0.1775 -0.1745  0.0468
 6095SOL    HW121305   5.280   7.233   5.109  0.4908  1.6159  0.1867
 6095SOL    HW221306   5.155   7.286   5.042  0.4893  1.5612  0.1465
 6096SOL     OW21307   7.511   3.064   5.422 -0.4570 -0.3286  0.0300
 6096SOL    HW121308   7.442   3.072   5.356  0.7558  1.1529 -1.0988
 6096SOL    HW221309   7.491   3.131   5.487 -0.1677  0.0286 -0.2428
 6097SOL     OW21310   6.993   0.827   4.911  0.1475 -0.2685  0.3021
 6097SOL    HW121311   6.995   0.872   4.826 -0.7966 -1.2231 -0.2339
 6097SOL    HW221312   6.912   0.856   4.952  0.5103  0.0420  0.8053
 6098SOL     OW21313   0.104   0.615   9.188 -0.4473  0.2698 -0.3961
 6098SOL    HW121314   0.135   0.678   9.123 -1.0098  1.9004  0.8721
 6098SOL    HW221315   0.012   0.602   9.166 -1.0103  1.8881  0.8487
 6099SOL     OW21316   6.582   3.833   5.209 -0.3784 -0.4715  0.0404
 6099SOL    HW121317   6.668   3.865   5.183 -0.4428  0.5153  0.9737
 6099SOL    HW221318   6.522   3.872   5.145 -0.2515 -0.2215  0.0732
 6100SOL     OW21319   3.552   6.838   0.692  0.2926 -0.0550 -0.4062
 6100SOL    HW121320   3.614   6.900   0.732 -0.0797  0.4034 -0.5415
 6100SOL    HW221321   3.538   6.772   0.760  1.1702 -0.3255 -0.4857
 6101SOL     OW21322   0.051   0.000   5.127  0.2122 -0.2557 -0.1963
 6101SOL    HW121323   0.129   0.050   5.153  0.5011 -1.0373  0.4817
 6101SOL    HW221324   0.004   0.058   5.067 -0.0042  1.2696  1.3967
 6102SOL     OW21325   0.719   6.254   3.887 -0.6800 -0.3055  0.3791
 6102SOL    HW121326   0.723   6.174   3.836 -0.0255  0.5556 -0.9571
 6102SOL    HW221327   0.644   6.302   3.852  1.7697  1.8261 -2.1508
 6103SOL     OW21328   4.108   3.684   7.532 -0.9563  0.1753 -0.7555
 6103SOL    HW121329   4.116   3.729   7.615 -2.4300 -0.0868 -0.4589
 6103SOL    HW221330   4.042   3.617   7.547 -1.5994  0.4391 -2.2624
 6104SOL     OW21331   2.380   3.499   6.939  0.0399  0.0305 -0.4405
 6104SOL    HW121332   2.345   3.588   6.936  0.0136  0.0375  0.1548
 6104SOL    HW221333   2.358   3.466   7.026  2.0321  0.2527  0.1624
 6105SOL     OW21334   0.781   3.880   5.933  0.4201  0.0967  0.1969
 6105SOL    HW121335   0.713   3.855   5.870 -0.4314 -0.5197  1.3521
 6105SOL    HW221336   0.845   3.809   5.929 -0.4387 -0.7601  1.1804
 6106SOL     OW21337   7.180   7.007   4.234 -0.3980  0.2252 -0.7144
 6106SOL    HW121338   7.109   6.989   4.172  0.4822 -0.2191 -1.6096
 6106SOL    HW221339   7.242   7.060   4.183  0.2621 -0.0183 -0.1601
 6107SOL     OW21340   5.969   2.182   5.095  0.0618  0.1456  0.1158
 6107SOL    HW121341   6.034   2.112   5.098 -1.3901 -1.2151  0.3075
 6107SOL    HW221342   5.976   2.217   5.006  0.9681 -0.0726  0.0966
 6108SOL     OW21343   0.831   9.188   0.623  0.3640  0.1375 -0.0436
 6108SOL    HW121344   0.808   9.109   0.576  0.2452  0.6778 -0.9106
 6108SOL    HW221345   0.915   9.215   0.586 -0.5972  1.5726 -1.2767
 6109SOL     OW21346   4.895   2.800   4.234  0.4720 -0.0134  0.1557
 6109SOL    HW121347   4.844   2.754   4.167  0.8318  0.1391 -0.2316
 6109SOL    HW221348   4.843   2.794   4.313 -0.2181  0.2668 -0.2692
 6110SOL     OW21349   4.604   7.844   1.820  0.0110 -0.8894  0.2855
 6110SOL    HW121350   4.514   7.816   1.834  0.2742 -2.3330 -0.7532
 6110SOL    HW221351   4.636   7.867   1.907 -1.5178  0.1622  0.5799
 6111SOL     OW21352   8.090   6.892   6.038  0.1759 -0.5589  0.0967
 6111SOL    HW121353   8.098   6.815   6.095  0.7022 -1.9147 -1.7654
 6111SOL    HW221354   8.017   6.871   5.979 -0.1246  0.6655  0.0237
 6112SOL     OW21355   5.009   2.096   6.378 -0.2718  0.6983 -0.4871
 6112SOL    HW121356   4.963   2.012   6.375 -0.4187  0.8349 -2.8209
 6112SOL    HW221357   5.069   2.094   6.304  0.5831  2.1963  0.1293
 6113SOL     OW21358   8.880   4.682   4.175 -0.0546  0.1490 -0.5608
 6113SOL    HW121359   8.801   4.692   4.228 -0.7961 -0.0239 -1.6107
 6113SOL    HW221360   8.930   4.613   4.219 -0.4793  0.2751  0.1227
 6114SOL     OW21361   1.626   4.956   1.544 -0.1941  0.6129  0.2414
 6114SOL    HW121362   1.652   4.939   1.635 -2.9546 -1.0095  0.8074
 6114SOL    HW221363   1.620   4.869   1.504 -1.1548  1.1684 -0.8475
 6115SOL     OW21364   4.422   0.328   5.358  0.0116 -0.0106 -0.0054
 6115SOL    HW121365   4.392   0.286   5.439  0.4386 -1.3442 -0.5245
 6115SOL    HW221366   4.448   0.255   5.302  1.2665  0.9930 -0.7339
 6116SOL     OW21367   4.685   4.687   3.580 -0.4608  0.1309 -0.3730
 6116SOL    HW121368   4.623   4.748   3.538 -2.0977  0.5321  2.5169
 6116SOL    HW221369   4.762   4.741   3.598 -0.3457  0.3360 -1.4073
 6117SOL     OW21370   6.955   1.507   6.774  0.0918 -0.0943  0.1124
 6117SOL    HW121371   6.862   1.501   6.752 -0.4231 -3.6838  2.9704
 6117SOL    HW221372   6.958   1.568   6.848 -0.1170 -0.9426  0.8155
 6118SOL     OW21373   0.150   6.714   8.647 -0.1644 -0.3010 -0.1438
 6118SOL    HW121374   0.062   6.745   8.626 -0.0378  0.1583 -0.0088
 6118SOL    HW221375   0.208   6.771   8.597  0.0528 -0.6995 -0.3485
 6119SOL     OW21376   2.992   1.352   2.197 -0.1520  0.2407 -0.0544
 6119SOL    HW121377   3.041   1.272   2.182 -1.3989 -0.9343  1.8459
 6119SOL    HW221378   2.900   1.326   2.184 -0.3591  2.1804 -2.7309
 6120SOL     OW21379   2.351   8.925   1.332  0.9365 -0.5796 -0.6481
 6120SOL    HW121380   2.266   8.914   1.289  0.5194  1.4030 -0.3563
 6120SOL    HW221381   2.410   8.955   1.262  0.5741  1.3390 -0.1648
 6121SOL     OW21382   4.158   4.373   0.533  0.1219 -0.2540  0.0846
 6121SOL    HW121383   4.219   4.366   0.460 -0.9485  0.7162 -0.9418
 6121SOL    HW221384   4.071   4.371   0.491 -0.4946  1.0374  1.2499
 6122SOL     OW21385   2.713   6.148   5.023  0.1913 -0.3646 -0.3509
 6122SOL    HW121386   2.677   6.235   5.043 -1.0075 -0.8301 -0.4561
 6122SOL    HW221387   2.802   6.166   4.993 -0.3491  0.9186 -1.2824
 6123SOL     OW21388   9.008   8.375   6.670  0.1783 -0.6471 -0.6957
 6123SOL    HW121389   9.104   8.371   6.668  0.2873  0.2701  1.6630
 6123SOL    HW221390   8.988   8.454   6.719 -1.8129 -0.3400 -1.9450
 6124SOL     OW21391   7.040   4.540   4.977  0.1412 -0.0998 -0.4687
 6124SOL    HW121392   7.109   4.568   5.037  1.0195  1.3931 -2.1371
 6124SOL    HW221393   7.083   4.476   4.920 -0.4971 -0.9588  0.0011
 6125SOL     OW21394   7.725   0.962   6.271  0.5291 -0.0299  0.2934
 6125SOL    HW121395   7.819   0.972   6.255  1.0705 -1.5204  2.2228
 6125SOL    HW221396   7.712   0.999   6.358 -0.8547  0.9717 -0.3258
 6126SOL     OW21397   7.164   1.374   4.135 -0.3473 -0.1856  0.2172
 6126SOL    HW121398   7.150   1.282   4.160  1.3578 -0.9417 -1.5443
 6126SOL    HW221399   7.258   1.381   4.121 -0.5270  1.7287 -0.1146
 6127SOL     OW21400   5.981   0.641   3.668 -0.0717  0.1861 -0.5472
 6127SOL    HW121401   5.943   0.656   3.581  0.3775 -1.3818 -1.0298
 6127SOL    HW221402   6.063   0.594   3.651  2.3614  3.9174  0.4623
 6128SOL     OW21403   7.238   6.826   1.016 -0.9143 -0.1250 -0.0646
 6128SOL    HW121404   7.206   6.858   1.100 -0.1540 -1.1495  0.6335
 6128SOL    HW221405   7.329   6.801   1.034  0.4661  3.2053 -2.1104
 6129SOL     OW21406   6.381   3.214   6.414 -0.1320 -0.6335  0.4985
 6129SOL    HW121407   6.390   3.155   6.488  0.8216 -0.7314  0.3032
 6129SOL    HW221408   6.470   3.243   6.395 -0.5462  0.5760  0.3580
 6130SOL     OW21409   2.621   1.666   0.654 -0.2779  0.1985 -0.2777
 6130SOL    HW121410   2.595   1.633   0.568 -1.2556  1.3206 -0.4173
 6130SOL    HW221411   2.583   1.603   0.716  0.4190 -0.6049 -0.6515
 6131SOL     OW21412   0.751   6.920   2.393 -0.3168  0.7225  0.3778
 6131SOL    HW121413   0.690   6.867   2.342 -0.0409  0.0940  0.6951
 6131SOL    HW221414   0.697   6.962   2.460 -0.1202 -1.3634  1.8900
 6132SOL     OW21415   2.319   5.599   1.915 -0.2195  0.2057  0.5077
 6132SOL    HW121416   2.272   5.596   1.831 -0.5366  0.1993  0.6879
 6132SOL    HW221417   2.303   5.513   1.954 -2.0572  1.0566  1.6693
 6133SOL     OW21418   4.378   2.692   8.904 -0.0834  0.0902  0.0507
 6133SOL    HW121419   4.414   2.777   8.931  1.1848 -0.9260  1.6067
 6133SOL    HW221420   4.450   2.650   8.856 -0.8700  0.0796 -1.1383
 6134SOL     OW21421   9.357   0.414   0.119  0.2207  0.1574  0.2959
 6134SOL    HW121422   9.418   0.431   0.191 -0.4725 -0.9952  1.1728
 6134SOL    HW221423   9.317   0.499   0.101 -0.0552  0.3370  1.6921
 6135SOL     OW21424   1.436   1.556   7.631 -0.0451  0.6591 -0.3112
 6135SOL    HW121425   1.384   1.487   7.671 -0.8866  0.9044 -0.9531
 6135SOL    HW221426   1.526   1.524   7.633 -0.3940 -0.3152 -0.3281
 6136SOL     OW21427   4.201   2.985   5.630 -0.3798 -0.4583 -0.7464
 6136SOL    HW121428   4.222   2.894   5.649  0.1207 -0.0575  0.6611
 6136SOL    HW221429   4.279   3.018   5.585  1.3317  0.4745  2.7095
 6137SOL     OW21430   5.966   7.112   4.487  0.6108  0.2503  0.2349
 6137SOL    HW121431   5.981   7.018   4.496 -0.6060  0.2767  2.7744
 6137SOL    HW221432   5.928   7.122   4.400  0.9103 -1.5870 -0.1167
 6138SOL     OW21433   8.444   9.054   3.597 -0.2456 -0.2402  0.0989
 6138SOL    HW121434   8.536   9.039   3.575 -0.6512  0.1414 -1.9030
 6138SOL    HW221435   8.399   9.060   3.513 -2.0249  0.1442  1.0453
 6139SOL     OW21436   4.674   1.312   8.548  0.2091  0.4969 -0.2920
 6139SOL    HW121437   4.594   1.271   8.582 -0.7090  3.1350  0.8952
 6139SOL    HW221438   4.650   1.341   8.460  0.2617  0.1439 -0.4218
 6140SOL     OW21439   8.508   4.403   7.819 -0.5927  0.3310 -0.0581
 6140SOL    HW121440   8.487   4.329   7.761 -0.8654  0.7633 -0.5218
 6140SOL    HW221441   8.562   4.460   7.765  0.0242  0.2352  0.4589
 6141SOL     OW21442   4.247   3.179   8.246  0.1725  0.2782  0.0841
 6141SOL    HW121443   4.274   3.088   8.257  0.9840  0.3083 -1.4757
 6141SOL    HW221444   4.270   3.200   8.155  0.8751  2.3281  0.6940
 6142SOL     OW21445   2.707   1.842   0.258 -0.0604  0.2254  0.0687
 6142SOL    HW121446   2.701   1.937   0.250 -0.7603  0.2254  0.5070
 6142SOL    HW221447   2.754   1.813   0.180  1.1284  1.0322  0.4704
 6143SOL     OW21448   6.721   8.994   8.822 -0.0919  0.6527 -0.0468
 6143SOL    HW121449   6.748   9.062   8.883 -2.5306  1.0990  0.6031
 6143SOL    HW221450   6.777   8.919   8.843 -0.3810  1.0395  2.2618
 6144SOL     OW21451   3.552   5.544   0.027 -0.1396 -0.1409 -0.2397
 6144SOL    HW121452   3.570   5.631   0.062 -1.9038 -0.6382  2.0353
 6144SOL    HW221453   3.587   5.484   0.093 -0.4771 -1.1345 -0.9597
 6145SOL     OW21454   2.336   8.068   5.073 -0.6955  0.3588  0.7034
 6145SOL    HW121455   2.323   7.998   5.009 -1.5202  0.1768  1.0552
 6145SOL    HW221456   2.267   8.131   5.054 -1.9171 -0.4219  2.3540
 6146SOL     OW21457   5.114   2.643   5.984 -0.4633 -0.3468 -0.6611
 6146SOL    HW121458   5.080   2.725   6.020  2.0315  0.5564 -0.3357
 6146SOL    HW221459   5.046   2.614   5.923 -1.6182  1.6649 -0.3659
 6147SOL     OW21460   7.048   7.761   4.336  0.2360 -0.1635 -0.1713
 6147SOL    HW121461   7.028   7.854   4.337 -0.7505 -0.3619 -0.8585
 6147SOL    HW221462   7.086   7.744   4.422 -0.5627  0.6616  0.3551
 6148SOL     OW21463   3.844   0.449   3.697 -0.1662  0.4718 -0.2981
 6148SOL    HW121464   3.772   0.395   3.729 -0.4388  0.5348 -0.7931
 6148SOL    HW221465   3.857   0.515   3.765 -1.3352  1.1466 -0.7185
 6149SOL     OW21466   7.509   5.175   3.509 -0.1249 -0.2522  0.5613
 6149SOL    HW121467   7.514   5.235   3.584 -0.4569 -1.1037  1.2818
 6149SOL    HW221468   7.418   5.183   3.479  0.1016  0.3501  0.0221
 6150SOL     OW21469   0.481   8.377   4.634  0.0968  0.1789  0.5400
 6150SOL    HW121470   0.555   8.353   4.689 -0.5080 -2.5531  0.2207
 6150SOL    HW221471   0.441   8.452   4.679  2.7808  1.4507  0.9112
 6151SOL     OW21472   4.933   4.943   8.823  0.3166 -0.3385 -0.1353
 6151SOL    HW121473   4.917   5.013   8.886  0.7990  0.1348 -0.5382
 6151SOL    HW221474   4.893   4.974   8.742 -0.6950 -1.1385  0.0480
 6152SOL     OW21475   9.125   3.379   6.202  0.0946 -0.0116 -0.4673
 6152SOL    HW121476   9.137   3.360   6.295  0.0715  0.5027 -0.3611
 6152SOL    HW221477   9.093   3.297   6.165  1.2894 -0.5887 -0.2459
 6153SOL     OW21478   9.039   1.086   4.166 -0.0786  0.1526 -0.2496
 6153SOL    HW121479   8.996   1.153   4.219 -2.3011  0.3845 -2.2776
 6153SOL    HW221480   9.039   1.008   4.222 -0.1569  1.0228  1.0000
 6154SOL     OW21481   6.646   3.527   6.275  0.6758  0.2608  0.6613
 6154SOL    HW121482   6.658   3.488   6.361 -0.2189 -0.9084  0.2600
 6154SOL    HW221483   6.615   3.616   6.293 -1.1823 -0.5493  1.5309
 6155SOL     OW21484   2.534   9.005   8.072  0.2601  0.4265  0.5063
 6155SOL    HW121485   2.597   9.078   8.076  0.5277  0.1817  0.7198
 6155SOL    HW221486   2.466   9.037   8.013  0.6833  0.6211  0.1106
 6156SOL     OW21487   6.849   1.148   7.098 -0.4434  0.1853 -0.6529
 6156SOL    HW121488   6.844   1.195   7.182 -0.3656  0.4627 -0.8031
 6156SOL    HW221489   6.804   1.205   7.036 -0.8322 -0.1964 -0.7245
 6157SOL     OW21490   0.247   6.120   8.849  0.0046  0.4979 -0.1972
 6157SOL    HW121491   0.281   6.203   8.815 -1.1844  0.7099 -0.8906
 6157SOL    HW221492   0.156   6.138   8.872  0.1221 -0.2667  0.9188
 6158SOL     OW21493   1.711   7.406   7.634 -0.1681  0.4053 -0.3633
 6158SOL    HW121494   1.737   7.433   7.546  0.3043  0.0798 -0.3190
 6158SOL    HW221495   1.783   7.352   7.666 -1.8776 -2.4763 -1.1519
 6159SOL     OW21496   6.393   5.690   8.120  0.7507 -0.3039 -0.8324
 6159SOL    HW121497   6.419   5.781   8.113  1.1845 -0.4224 -0.7525
 6159SOL    HW221498   6.362   5.666   8.032 -1.6787  0.6228 -0.2778
 6160SOL     OW21499   0.383   2.485   5.480  0.2750  0.5473 -0.0192
 6160SOL    HW121500   0.339   2.569   5.495  0.4841  0.6983 -0.2644
 6160SOL    HW221501   0.329   2.442   5.414 -0.6219 -0.0997  1.1052
 6161SOL     OW21502   8.201   0.321   1.390  0.0204  0.2058 -0.5820
 6161SOL    HW121503   8.238   0.386   1.449  0.8098  1.6899 -2.6657
 6161SOL    HW221504   8.222   0.353   1.302 -4.9713  0.4466 -1.8419
 6162SOL     OW21505   6.518   4.945   8.741  0.0672 -0.5750 -0.3219
 6162SOL    HW121506   6.429   4.978   8.748  0.5922  0.4186  2.3150
 6162SOL    HW221507   6.572   5.024   8.738  0.8951 -1.1697 -1.7863
 6163SOL     OW21508   4.783   7.243   2.534  0.1533  0.2960  0.0453
 6163SOL    HW121509   4.867   7.269   2.571 -1.4330  1.7751  2.7972
 6163SOL    HW221510   4.779   7.149   2.547  1.4743  0.1686 -0.3591
 6164SOL     OW21511   0.569   9.388   8.753  0.6918  0.0049 -0.3896
 6164SOL    HW121512   0.531   9.391   8.841  1.6462 -0.2094  0.0359
 6164SOL    HW221513   0.609   9.474   8.741 -1.1158  0.7355 -1.3909
 6165SOL     OW21514   3.084   6.004   0.030 -0.0769 -0.2960  0.2870
 6165SOL    HW121515   3.130   6.085   0.007  0.6884 -0.7774  0.1324
 6165SOL    HW221516   3.108   5.941  -0.038  0.5945 -1.1234  1.2751
 6166SOL     OW21517   9.028   9.120   1.070  0.0052 -0.0776  0.3141
 6166SOL    HW121518   8.945   9.117   1.022  0.7071  0.0953 -0.9302
 6166SOL    HW221519   9.093   9.147   1.004  0.9218  0.5077  1.4455
 6167SOL     OW21520   9.287   3.870   7.803  0.1301  0.5290  0.5055
 6167SOL    HW121521   9.193   3.881   7.790  0.1925  0.2411 -0.2044
 6167SOL    HW221522   9.311   3.799   7.743  0.5161 -0.4603  1.8107
 6168SOL     OW21523   5.606   6.000   7.242  0.0276 -0.3709 -0.1498
 6168SOL    HW121524   5.636   5.912   7.267  0.7782  0.0722  0.5135
 6168SOL    HW221525   5.514   6.002   7.266  0.3713 -0.4693  1.2257
 6169SOL     OW21526   4.850   8.850   8.802  0.2655  0.2700  0.1228
 6169SOL    HW121527   4.934   8.806   8.794 -0.3369 -0.7331 -0.8165
 6169SOL    HW221528   4.866   8.940   8.774  1.0439  0.1080  0.0474
 6170SOL     OW21529   8.050   4.699   8.802 -0.1789 -0.3614  0.0064
 6170SOL    HW121530   8.003   4.744   8.732  0.2296  0.3781  0.1991
 6170SOL    HW221531   7.989   4.701   8.876 -0.8045 -1.5876 -0.4733
 6171SOL     OW21532   2.082   0.379   0.509 -0.1718  0.7081  0.6362
 6171SOL    HW121533   2.067   0.451   0.448 -1.3075 -0.7563 -0.8672
 6171SOL    HW221534   2.159   0.334   0.475  0.0866  0.7491  1.1508
 6172SOL     OW21535   6.274   1.762   5.557 -0.0994  0.5623 -0.4311
 6172SOL    HW121536   6.221   1.714   5.494 -0.4952 -0.3074  0.5614
 6172SOL    HW221537   6.211   1.806   5.614  0.1963 -1.0412  1.1917
 6173SOL     OW21538   9.389   7.875   1.554 -0.2729 -0.9907  0.3426
 6173SOL    HW121539   9.311   7.865   1.499 -0.3819 -0.0379  0.3137
 6173SOL    HW221540   9.410   7.786   1.582 -0.7306 -1.3841 -0.5354
 6174SOL     OW21541   7.453   4.529   0.902  0.0251  0.7077 -0.3503
 6174SOL    HW121542   7.377   4.494   0.949 -1.2469  0.8792 -2.2389
 6174SOL    HW221543   7.513   4.454   0.895 -1.1307 -0.1556 -1.2075
 6175SOL     OW21544   1.356   1.890   3.115 -0.5810  0.0337  0.3356
 6175SOL    HW121545   1.403   1.971   3.134  0.0764 -0.9862  3.3801
 6175SOL    HW221546   1.421   1.836   3.070  0.5673 -0.5445  2.5835
 6176SOL     OW21547   7.408   4.137   6.547 -0.2254 -0.2864  0.2693
 6176SOL    HW121548   7.366   4.188   6.479 -0.6817 -1.1533 -0.1120
 6176SOL    HW221549   7.460   4.071   6.500  1.4166  0.6502  0.7409
 6177SOL     OW21550   4.145   1.439   4.661 -0.0342 -0.3001  0.0117
 6177SOL    HW121551   4.219   1.380   4.641  0.1458  0.7585 -2.6591
 6177SOL    HW221552   4.173   1.524   4.628 -1.1279  0.8675  2.0187
 6178SOL     OW21553   7.768   3.204   1.910 -0.4731 -0.1608 -0.1776
 6178SOL    HW121554   7.815   3.223   1.828 -1.2403 -0.0743 -0.6016
 6178SOL    HW221555   7.685   3.251   1.901 -1.5431 -2.0213 -0.3599
 6179SOL     OW21556   5.291   9.278   6.648  0.0475 -0.0181  1.1861
 6179SOL    HW121557   5.381   9.310   6.660 -0.4429  1.9103 -0.0451
 6179SOL    HW221558   5.247   9.298   6.730  0.7648 -1.1102  1.8541
 6180SOL     OW21559   3.296   1.990   2.591 -0.6054 -0.6771  0.2390
 6180SOL    HW121560   3.324   1.976   2.681  1.8013 -0.4057 -0.4188
 6180SOL    HW221561   3.294   1.902   2.553  1.0487 -0.5630 -0.1569
 6181SOL     OW21562   8.660   4.949   0.153  0.0286  0.5365  0.3740
 6181SOL    HW121563   8.569   4.928   0.131 -0.5476  0.2876  2.8543
 6181SOL    HW221564   8.656   4.975   0.245  2.0928  2.9351 -0.1824
 6182SOL     OW21565   2.397   1.787   5.260  0.0598  0.5692 -0.0294
 6182SOL    HW121566   2.379   1.693   5.258 -1.5100  0.8219  1.4890
 6182SOL    HW221567   2.375   1.814   5.349  1.4758  2.2064 -0.1456
 6183SOL     OW21568   7.734   1.681   0.341  0.4456 -0.4341 -0.5148
 6183SOL    HW121569   7.642   1.657   0.334  0.2467  0.4038 -0.7315
 6183SOL    HW221570   7.739   1.770   0.306  1.5337 -0.9223 -1.6614
 6184SOL     OW21571   2.030   8.495   2.883 -0.0182 -0.0516  0.2175
 6184SOL    HW121572   1.972   8.555   2.930 -0.2311  0.5534 -0.8104
 6184SOL    HW221573   2.100   8.550   2.849  0.0915 -0.4754 -0.2496
 6185SOL     OW21574   6.067   0.369   3.109 -0.2721  0.5501  0.0493
 6185SOL    HW121575   6.028   0.290   3.146  1.3979 -0.4804 -0.3275
 6185SOL    HW221576   6.159   0.363   3.131  0.2382  1.3619 -1.7574
 6186SOL     OW21577   1.071   4.313   1.058 -0.4375  0.4920 -0.1955
 6186SOL    HW121578   1.090   4.332   0.966 -0.4768 -1.3974 -0.6249
 6186SOL    HW221579   0.975   4.309   1.062 -0.4552  1.0504  0.0443
 6187SOL     OW21580   0.007   2.896   1.218 -0.0427  0.5640 -0.6395
 6187SOL    HW121581   0.016   2.865   1.128 -0.2209  1.0239 -0.8148
 6187SOL    HW221582   0.039   2.823   1.272 -0.4889  0.0706 -1.0495
 6188SOL     OW21583   3.425   8.147   6.128 -0.1637 -0.0633 -0.0467
 6188SOL    HW121584   3.387   8.107   6.049 -1.2006 -1.1290  0.9689
 6188SOL    HW221585   3.354   8.145   6.192  0.8848  0.1695  1.1353
 6189SOL     OW21586   2.463   0.212   7.275 -0.3428  0.3000 -0.0835
 6189SOL    HW121587   2.474   0.297   7.319 -1.9325  0.3153  0.3002
 6189SOL    HW221588   2.467   0.233   7.182  0.1283  0.6695  0.0145
 6190SOL     OW21589   8.775   5.021   3.102 -0.0184  0.4420  0.2054
 6190SOL    HW121590   8.691   5.037   3.146 -0.7885 -0.9387 -0.7119
 6190SOL    HW221591   8.804   4.936   3.134  0.8162  0.7029  0.1624
 6191SOL     OW21592   2.447   1.431   4.782 -0.3021  0.3891 -0.1228
 6191SOL    HW121593   2.515   1.400   4.842 -0.6519 -0.0342  0.0566
 6191SOL    HW221594   2.434   1.358   4.721 -1.0997  0.1915  0.2773
 6192SOL     OW21595   5.963   5.522   4.665  0.4931 -0.2039  0.1368
 6192SOL    HW121596   6.023   5.527   4.590 -0.0950  0.6585 -0.2768
 6192SOL    HW221597   5.941   5.429   4.672  0.0061 -0.1928 -1.1930
 6193SOL     OW21598   0.709   4.324   4.687 -0.7272  0.0016 -0.4249
 6193SOL    HW121599   0.669   4.256   4.632  0.6883  0.4216 -2.0128
 6193SOL    HW221600   0.784   4.280   4.727 -0.5852  0.2578 -0.4115
 6194SOL     OW21601   1.300   1.355   4.975 -0.4521  0.1504 -0.0888
 6194SOL    HW121602   1.328   1.431   4.925  0.2062 -0.9867 -1.4769
 6194SOL    HW221603   1.205   1.354   4.966 -0.4473  0.7028 -0.2040
 6195SOL     OW21604   3.540   9.090   2.794  0.3947  0.0984  0.5002
 6195SOL    HW121605   3.505   9.103   2.882 -1.6923  1.4404 -0.4973
 6195SOL    HW221606   3.512   9.002   2.770  0.9414 -0.2578  1.1410
 6196SOL     OW21607   1.882   2.794   3.576 -0.0666  0.7921 -0.2649
 6196SOL    HW121608   1.964   2.754   3.606 -0.5040  1.5672  2.0664
 6196SOL    HW221609   1.910   2.861   3.513  0.8505 -1.0837 -1.9178
 6197SOL     OW21610   6.867   8.323   2.811  0.4429  0.5283 -0.1762
 6197SOL    HW121611   6.872   8.400   2.754  1.2266 -0.2985 -1.2448
 6197SOL    HW221612   6.953   8.318   2.852  0.1967  0.5610  0.3452
 6198SOL     OW21613   0.673   6.123   2.911  0.5845 -0.0496 -0.0304
 6198SOL    HW121614   0.605   6.190   2.918  1.6928  1.1987 -1.1348
 6198SOL    HW221615   0.634   6.055   2.856 -0.4505 -0.2257  0.8872
 6199SOL     OW21616   1.788   7.970   6.195 -0.1171  0.1021 -0.2413
 6199SOL    HW121617   1.879   7.999   6.190 -0.4884  1.1740 -1.0060
 6199SOL    HW221618   1.782   7.899   6.131  0.3766 -0.5353  0.4085
 6200SOL     OW21619   4.390   8.144   2.805 -0.7319 -0.0197  0.5369
 6200SOL    HW121620   4.456   8.077   2.823  0.4974  0.8598 -0.5694
 6200SOL    HW221621   4.413   8.216   2.864 -1.5052 -0.1995  1.0716
 6201SOL     OW21622   4.349   1.221   6.966 -0.0495 -0.2540 -0.2137
 6201SOL    HW121623   4.375   1.276   7.040 -1.2029  1.7320 -1.2486
 6201SOL    HW221624   4.348   1.281   6.891 -0.8773 -1.8016 -1.4549
 6202SOL     OW21625   2.627   9.300   5.438  0.4332  0.9722  0.2622
 6202SOL    HW121626   2.621   9.346   5.355 -2.2517  2.7221  1.3458
 6202SOL    HW221627   2.599   9.210   5.418  1.2669  0.9931 -1.0049
 6203SOL     OW21628   5.349   0.130   3.536  0.7659  0.3331 -0.0134
 6203SOL    HW121629   5.378   0.104   3.449 -0.6604 -0.2577 -0.3250
 6203SOL    HW221630   5.308   0.216   3.523 -1.2315 -0.6246 -0.3036
 6204SOL     OW21631   6.727   0.445   8.865  1.0666 -0.4155  0.0644
 6204SOL    HW121632   6.697   0.524   8.819  2.1558 -0.3058 -0.4596
 6204SOL    HW221633   6.703   0.373   8.807  0.1131 -0.4791  0.5214
 6205SOL     OW21634   3.657   2.442   6.233 -0.0615  0.1069  0.2878
 6205SOL    HW121635   3.588   2.376   6.241  0.6495 -0.5729  0.7938
 6205SOL    HW221636   3.632   2.511   6.294 -0.9445  0.4432 -0.4316
 6206SOL     OW21637   1.672   2.596   5.099 -0.3242  0.4014  0.2377
 6206SOL    HW121638   1.634   2.508   5.094 -1.4432  0.8886  0.0669
 6206SOL    HW221639   1.719   2.607   5.017 -0.0862 -0.0852  0.3083
 6207SOL     OW21640   5.968   0.321   7.085  0.1212 -0.3257  0.1895
 6207SOL    HW121641   5.886   0.275   7.067  0.1109  0.0415 -0.7081
 6207SOL    HW221642   5.998   0.351   6.999 -0.9735  3.2682  1.0221
 6208SOL     OW21643   7.338   0.262   3.509  0.4849 -0.3265 -0.9451
 6208SOL    HW121644   7.330   0.222   3.423 -0.0086 -1.0935 -0.5459
 6208SOL    HW221645   7.432   0.279   3.519  0.3399  1.4809 -2.3879
 6209SOL     OW21646   0.479   7.648   6.755 -0.4335  0.5524  0.1484
 6209SOL    HW121647   0.401   7.631   6.701  0.8945  0.6530 -1.8833
 6209SOL    HW221648   0.530   7.568   6.748  0.6354  1.2659 -0.3047
 6210SOL     OW21649   5.722   1.690   8.387  0.4531  0.3367 -0.2044
 6210SOL    HW121650   5.673   1.608   8.391 -0.5939  0.9894  0.3050
 6210SOL    HW221651   5.783   1.678   8.314  0.6094 -1.0567  0.1431
 6211SOL     OW21652   7.867   8.625   8.378 -0.0706 -0.3672 -0.1851
 6211SOL    HW121653   7.958   8.653   8.366 -0.3490  0.3226 -0.7071
 6211SOL    HW221654   7.817   8.677   8.315 -0.9837  0.1381  0.9295
 6212SOL     OW21655   9.055   0.436   0.125  0.2261  0.5273 -0.0013
 6212SOL    HW121656   9.145   0.428   0.158 -0.3029  0.4201  1.4733
 6212SOL    HW221657   9.001   0.439   0.204 -0.9420  2.3112 -0.8351
 6213SOL     OW21658   7.253   2.387   5.722  0.3700  0.7101  0.2146
 6213SOL    HW121659   7.213   2.323   5.663 -0.9591  1.7545 -0.0538
 6213SOL    HW221660   7.279   2.460   5.665  1.3549  0.6655  0.5926
 6214SOL     OW21661   3.784   1.064   1.550  0.1340 -0.2401 -0.2640
 6214SOL    HW121662   3.833   1.133   1.596 -0.7901  0.1781  0.1038
 6214SOL    HW221663   3.693   1.094   1.553 -0.1310 -0.9801 -1.0052
 6215SOL     OW21664   9.119   3.173   4.574  0.0837 -0.0265  0.4329
 6215SOL    HW121665   9.054   3.243   4.566  0.7871  0.4013 -2.3210
 6215SOL    HW221666   9.073   3.095   4.544  0.4140  0.0171 -0.2014
 6216SOL     OW21667   5.437   6.427   9.437 -0.0813 -0.2710  0.9987
 6216SOL    HW121668   5.513   6.478   9.464 -0.2051  0.3641  0.1768
 6216SOL    HW221669   5.442   6.347   9.489  1.8041 -0.7557  0.1119
 6217SOL     OW21670   4.092   9.378   5.598  0.2951 -0.8882  0.3943
 6217SOL    HW121671   4.167   9.332   5.561  1.7684  2.4295 -0.9227
 6217SOL    HW221672   4.030   9.385   5.525  0.8370  0.7297  0.0696
 6218SOL     OW21673   7.512   5.143   9.217 -0.5128 -0.0430 -0.4642
 6218SOL    HW121674   7.516   5.235   9.240  0.3768 -0.2730  0.3471
 6218SOL    HW221675   7.570   5.135   9.141  1.4394 -0.3682  1.0159
 6219SOL     OW21676   0.354   2.043   3.431  0.2749  0.0211  0.1775
 6219SOL    HW121677   0.282   2.086   3.477  1.2221  0.6772  1.0626
 6219SOL    HW221678   0.401   1.996   3.500 -0.3846 -1.9698 -0.6734
 6220SOL     OW21679   2.869   4.330   4.862 -0.0843  0.6100 -0.2939
 6220SOL    HW121680   2.908   4.416   4.852 -0.3842  0.8426  0.4598
 6220SOL    HW221681   2.775   4.344   4.854 -0.3480  0.8171  2.5553
 6221SOL     OW21682   2.375   0.757   1.386  0.2231 -0.0902 -0.0682
 6221SOL    HW121683   2.358   0.696   1.458  0.5803  1.2211  1.1465
 6221SOL    HW221684   2.447   0.716   1.337 -1.2431 -1.8815 -0.7600
 6222SOL     OW21685   2.711   1.635   7.992  0.1676 -0.3247 -0.5369
 6222SOL    HW121686   2.770   1.709   8.008 -0.2964  0.2031 -1.2741
 6222SOL    HW221687   2.765   1.570   7.948  0.4821 -0.2883 -0.2100
 6223SOL     OW21688   8.947   5.256   4.220  0.1858 -0.3325  0.0241
 6223SOL    HW121689   8.998   5.327   4.259  0.9703  0.0586 -1.6556
 6223SOL    HW221690   8.876   5.241   4.282  0.8461  0.9116  1.1229
 6224SOL     OW21691   3.306   2.860   9.430  0.1878 -0.3792  0.6337
 6224SOL    HW121692   3.254   2.932   9.465 -0.1024 -1.2755  2.0963
 6224SOL    HW221693   3.270   2.844   9.343 -1.5058 -0.4768  1.3324
 6225SOL     OW21694   7.116   8.719   5.766  0.5615  0.1124 -0.3907
 6225SOL    HW121695   7.078   8.683   5.686 -1.6468 -0.1504  0.7436
 6225SOL    HW221696   7.131   8.644   5.822  0.0543  0.5044  0.2805
 6226SOL     OW21697   8.563   5.726   1.321  0.0570 -0.1514 -0.1543
 6226SOL    HW121698   8.600   5.648   1.362  1.5738  0.2776 -0.6998
 6226SOL    HW221699   8.607   5.733   1.237 -0.3193  1.1030 -0.2606
 6227SOL     OW21700   8.228   6.591   8.768 -0.2219 -0.2418 -0.1094
 6227SOL    HW121701   8.173   6.585   8.846 -0.3302 -1.1426 -0.2500
 6227SOL    HW221702   8.268   6.677   8.774 -1.8670  0.5480 -0.1509
 6228SOL     OW21703   4.827   2.170   0.960  0.3699 -0.2995  0.0069
 6228SOL    HW121704   4.823   2.076   0.971  2.8262 -0.2404  1.7181
 6228SOL    HW221705   4.828   2.205   1.049  0.0673  1.3200 -0.6049
 6229SOL     OW21706   1.513   0.907   8.659  0.2261  0.5179  0.2490
 6229SOL    HW121707   1.548   0.831   8.705 -2.0777 -1.3014 -0.9426
 6229SOL    HW221708   1.545   0.899   8.569 -1.3470  0.0673 -0.2833
 6230SOL     OW21709   8.039   9.128   0.324 -0.5785  0.0703 -0.2167
 6230SOL    HW121710   7.980   9.192   0.285  0.1711  1.0279  0.1834
 6230SOL    HW221711   8.100   9.181   0.375  0.6498 -0.8989 -0.6689
 6231SOL     OW21712   3.938   5.776   4.304  0.4938  0.1428  0.0313
 6231SOL    HW121713   3.863   5.743   4.256 -1.0559  1.5710  1.3808
 6231SOL    HW221714   3.982   5.836   4.243  1.5858 -2.0496 -1.3715
 6232SOL     OW21715   7.417   7.271   5.651  0.2816 -0.3318 -0.4802
 6232SOL    HW121716   7.451   7.305   5.733  0.1405 -1.0472 -0.1260
 6232SOL    HW221717   7.486   7.214   5.617 -0.2804 -1.2562 -0.0918
 6233SOL     OW21718   1.525   6.446   7.024  1.1268 -0.2971  0.1895
 6233SOL    HW121719   1.493   6.356   7.017  0.4275 -0.0602  0.2688
 6233SOL    HW221720   1.468   6.486   7.090  0.4587  0.6208 -0.9256
 6234SOL     OW21721   5.976   8.137   5.239 -0.1162 -0.2728 -0.3518
 6234SOL    HW121722   5.949   8.072   5.304  0.0632 -1.5156 -1.4817
 6234SOL    HW221723   5.939   8.105   5.156  0.0698  1.0180 -0.9534
 6235SOL     OW21724   1.707   4.725   7.741  0.2320 -0.1630  0.0786
 6235SOL    HW121725   1.643   4.698   7.675 -0.7067 -0.1942  0.9826
 6235SOL    HW221726   1.663   4.709   7.824  1.7513 -0.9892  0.7395
 6236SOL     OW21727   4.224   7.218   3.800  0.0969 -0.1127 -0.6142
 6236SOL    HW121728   4.256   7.303   3.772 -0.2748  0.4088  0.5300
 6236SOL    HW221729   4.137   7.235   3.836 -0.1081 -1.0129 -0.6738
 6237SOL     OW21730   4.220   8.415   6.947 -0.1184 -0.0492  0.5807
 6237SOL    HW121731   4.265   8.395   7.029  0.2887 -0.2498  0.3059
 6237SOL    HW221732   4.214   8.511   6.946 -0.5460 -0.0653  1.0726
 6238SOL     OW21733   5.402   6.485   1.035 -0.4865 -0.0385 -0.3607
 6238SOL    HW121734   5.374   6.487   1.127  0.6715 -3.3598  0.1609
 6238SOL    HW221735   5.450   6.402   1.027  1.3937  1.2645 -3.4234
 6239SOL     OW21736   4.523   1.765   1.663  0.1057  0.9239  0.2059
 6239SOL    HW121737   4.569   1.837   1.704 -0.3633  0.6005  1.3112
 6239SOL    HW221738   4.482   1.718   1.735 -0.7843  0.3925 -0.6315
 6240SOL     OW21739   5.835   4.885   3.137 -0.3825 -0.2094  0.6202
 6240SOL    HW121740   5.740   4.888   3.146 -0.2948  1.8737  1.1849
 6240SOL    HW221741   5.859   4.797   3.165 -2.0616 -0.4617  1.3473
 6241SOL     OW21742   6.959   4.319   3.547  0.9224 -0.2581 -0.1657
 6241SOL    HW121743   6.868   4.344   3.530  0.9210  0.4747  0.8720
 6241SOL    HW221744   7.008   4.358   3.475  0.3268 -1.3362 -1.1767
 6242SOL     OW21745   1.695   2.996   3.650  0.2599 -0.0281  0.5796
 6242SOL    HW121746   1.688   3.040   3.565 -0.3827 -0.0154  0.6398
 6242SOL    HW221747   1.763   2.930   3.637 -0.8231 -0.9861 -0.3648
 6243SOL     OW21748   7.088   8.405   7.648 -1.1378 -0.2391  0.1672
 6243SOL    HW121749   7.112   8.455   7.726  2.7351  2.6879 -2.7446
 6243SOL    HW221750   7.153   8.335   7.643  0.0092  0.9124 -1.5815
 6244SOL     OW21751   6.890   8.285   1.219  0.0676  0.0028  0.1176
 6244SOL    HW121752   6.976   8.325   1.233  1.0489 -1.2942 -1.9369
 6244SOL    HW221753   6.828   8.359   1.221  1.6858  1.5285 -2.3707
 6245SOL     OW21754   6.221   5.203   3.236 -0.7096  0.0381  0.5814
 6245SOL    HW121755   6.145   5.184   3.181 -1.0095  2.7679 -0.0331
 6245SOL    HW221756   6.184   5.213   3.324 -0.6841 -1.1484  0.7354
 6246SOL     OW21757   8.058   4.404   6.043 -0.2577 -0.2951  0.6885
 6246SOL    HW121758   8.098   4.453   5.971  0.7748 -2.1642 -0.0479
 6246SOL    HW221759   7.968   4.438   6.048 -0.5534 -0.5969 -1.9117
 6247SOL     OW21760   9.267   7.173   3.417 -0.0853 -0.1822 -0.4417
 6247SOL    HW121761   9.332   7.220   3.365 -0.9048 -0.4310 -1.6957
 6247SOL    HW221762   9.188   7.175   3.364 -0.7656 -0.9548  0.5382
 6248SOL     OW21763   2.170   1.049   6.930 -0.0795  0.4457  0.1564
 6248SOL    HW121764   2.181   1.141   6.953 -1.4084  0.7243 -0.2822
 6248SOL    HW221765   2.192   1.001   7.010  2.3035  1.0394 -0.1073
 6249SOL     OW21766   8.182   1.780   5.898  0.2411  0.1740  0.3251
 6249SOL    HW121767   8.154   1.758   5.987 -1.3681 -2.7915 -0.8357
 6249SOL    HW221768   8.240   1.708   5.873 -0.9360 -0.0935 -1.7404
 6250SOL     OW21769   0.007   3.658   3.242  0.1749  0.0747  0.5832
 6250SOL    HW121770   0.043   3.707   3.316  1.6745 -0.9503  0.5490
 6250SOL    HW221771   0.079   3.654   3.179 -0.8357  0.2527 -0.6076
 6251SOL     OW21772   0.572   9.296   2.180 -1.0019  0.3135 -0.4167
 6251SOL    HW121773   0.491   9.328   2.140 -1.2521 -1.4914 -1.4262
 6251SOL    HW221774   0.583   9.208   2.144  0.4074 -0.1897  1.1843
 6252SOL     OW21775   8.143   3.896   7.690 -0.0429 -0.1545 -0.5868
 6252SOL    HW121776   8.049   3.894   7.708 -0.0112  0.4825 -0.3208
 6252SOL    HW221777   8.149   3.901   7.595 -0.2938  0.5967 -0.5675
 6253SOL     OW21778   8.379   2.759   2.489 -0.0450 -0.1748  0.0595
 6253SOL    HW121779   8.365   2.850   2.512  1.3049  0.7751 -2.6496
 6253SOL    HW221780   8.454   2.732   2.543 -0.3378  0.3676  0.7427
 6254SOL     OW21781   0.682   4.140   2.210  0.1091 -0.1876  0.2532
 6254SOL    HW121782   0.615   4.126   2.142 -0.0638 -1.3003  0.6476
 6254SOL    HW221783   0.632   4.162   2.288  0.2178 -0.7146  0.4711
 6255SOL     OW21784   2.191   9.217   3.858  0.5302 -0.2927 -0.1842
 6255SOL    HW121785   2.246   9.294   3.849 -0.0616  0.0636 -0.7618
 6255SOL    HW221786   2.170   9.213   3.951 -0.6258  1.0715 -0.3786
 6256SOL     OW21787   1.305   3.146   5.801 -0.0313  0.4212 -0.5781
 6256SOL    HW121788   1.287   3.145   5.707 -0.2161  0.5118 -0.5438
 6256SOL    HW221789   1.369   3.076   5.813 -2.4678 -1.8144 -0.2824
 6257SOL     OW21790   2.101   6.519   1.095  0.0818  0.0556  0.2233
 6257SOL    HW121791   2.132   6.607   1.076  0.4980  0.1520  1.3223
 6257SOL    HW221792   2.179   6.464   1.089  0.0264 -0.0676  0.6461
 6258SOL     OW21793   1.912   0.937   2.834 -0.3658 -0.0041 -0.0327
 6258SOL    HW121794   2.001   0.944   2.802 -0.2192 -1.0842  0.1207
 6258SOL    HW221795   1.882   1.027   2.844  1.0266  0.3711  0.8049
 6259SOL     OW21796   0.101   5.227   3.045  0.3171 -0.1766  0.4853
 6259SOL    HW121797   0.069   5.137   3.034  2.0284 -0.6408 -0.8967
 6259SOL    HW221798   0.105   5.239   3.140  1.3532 -2.0403  0.7075
 6260SOL     OW21799   8.597   7.457   7.566  0.2039 -0.4204  0.3314
 6260SOL    HW121800   8.617   7.540   7.523 -1.4524  0.1369  0.6075
 6260SOL    HW221801   8.506   7.465   7.595  0.1254 -2.1935  0.6841
 6261SOL     OW21802   8.209   6.864   5.011 -1.0353  0.4259 -0.0898
 6261SOL    HW121803   8.180   6.790   4.957  0.9660 -1.1699  0.9376
 6261SOL    HW221804   8.257   6.920   4.950  1.8483 -1.7336  0.0666
 6262SOL     OW21805   0.896   9.359   8.741 -0.2661  0.1643  0.2959
 6262SOL    HW121806   0.824   9.296   8.738 -2.3666  2.3905  1.9221
 6262SOL    HW221807   0.950   9.330   8.815 -1.1287  0.1694  0.9297
 6263SOL     OW21808   2.495   1.457   7.082 -0.0929  0.2897 -0.2495
 6263SOL    HW121809   2.430   1.424   7.019  1.0894  1.2276 -2.0121
 6263SOL    HW221810   2.445   1.474   7.162 -2.0074  0.8587 -1.5388
 6264SOL     OW21811   4.024   4.230   5.734  0.5796 -0.0656 -0.2752
 6264SOL    HW121812   4.005   4.143   5.771 -0.8549  0.6707  0.7712
 6264SOL    HW221813   3.997   4.291   5.803  1.7355  1.2069 -0.9503
 6265SOL     OW21814   7.764   2.457   5.897 -0.0133 -0.1970 -0.3911
 6265SOL    HW121815   7.806   2.416   5.972 -0.9377 -2.0761 -0.8795
 6265SOL    HW221816   7.833   2.507   5.854  0.7029  0.2483  1.2342
 6266SOL     OW21817   2.350   6.801   3.506 -0.3496  0.1173  0.5493
 6266SOL    HW121818   2.258   6.797   3.479  0.3570  2.7774 -2.6245
 6266SOL    HW221819   2.399   6.806   3.424  2.8566 -3.2926  2.0759
 6267SOL     OW21820   8.115   4.765   6.494 -0.4271 -0.2324  0.3127
 6267SOL    HW121821   8.089   4.833   6.432  1.4269  0.0257 -0.2196
 6267SOL    HW221822   8.039   4.754   6.551 -0.9146  1.9546  0.1316
 6268SOL     OW21823   8.260   7.651   8.246  0.3888 -0.5776  0.5530
 6268SOL    HW121824   8.267   7.555   8.248  1.3033 -0.4896  1.5681
 6268SOL    HW221825   8.327   7.682   8.306  2.7543  0.8797 -2.6920
 6269SOL     OW21826   9.043   4.408   4.198  0.2141  0.7736 -0.4419
 6269SOL    HW121827   9.063   4.336   4.138 -1.5707  0.9887 -1.3157
 6269SOL    HW221828   9.115   4.408   4.261  1.4953 -0.2158 -1.8858
 6270SOL     OW21829   0.831   7.927   5.214  0.3031  0.0083 -0.1360
 6270SOL    HW121830   0.795   7.846   5.178 -1.4646  0.6456  0.1239
 6270SOL    HW221831   0.904   7.949   5.156  1.4608 -2.2943  0.3953
 6271SOL     OW21832   7.069   7.185   2.658  0.1846 -0.1344 -0.2517
 6271SOL    HW121833   7.048   7.107   2.607 -1.1541 -0.4307  0.7237
 6271SOL    HW221834   7.008   7.252   2.626  1.5951  0.6528 -1.3686
 6272SOL     OW21835   5.529   5.045   0.545  0.0620  0.1419  0.9718
 6272SOL    HW121836   5.502   5.064   0.635 -0.0591 -1.4450  1.2977
 6272SOL    HW221837   5.549   4.951   0.546  0.5991  0.2269 -0.5250
 6273SOL     OW21838   6.861   8.602   2.027 -0.1814  0.0614 -0.2516
 6273SOL    HW121839   6.949   8.637   2.041  0.2340 -1.8375  2.3108
 6273SOL    HW221840   6.874   8.507   2.019 -1.8285 -0.0659 -1.6615
 6274SOL     OW21841   2.247   6.301   5.301 -0.1700 -0.8081  0.7835
 6274SOL    HW121842   2.201   6.217   5.300  1.1178 -1.5216  1.0425
 6274SOL    HW221843   2.325   6.286   5.353 -0.4870  0.8680  1.8015
 6275SOL     OW21844   9.118   4.905   8.320 -0.3768 -0.3505  0.2601
 6275SOL    HW121845   9.092   4.878   8.232 -0.0257 -1.0612  0.3726
 6275SOL    HW221846   9.121   5.001   8.316 -2.4192 -0.2675  0.0680
 6276SOL     OW21847   6.160   2.568   1.615 -0.4230  0.1885 -0.2053
 6276SOL    HW121848   6.121   2.514   1.546  0.3978 -1.8524  0.8843
 6276SOL    HW221849   6.203   2.505   1.673 -0.1197  1.9656  1.5474
 6277SOL     OW21850   3.611   9.244   1.743 -0.3447 -0.3725  0.5317
 6277SOL    HW121851   3.644   9.192   1.816 -1.4461 -2.6667 -0.5388
 6277SOL    HW221852   3.670   9.223   1.671 -0.0573  0.8513  0.4004
 6278SOL     OW21853   5.117   1.045   9.397 -0.1753 -0.5879 -0.0976
 6278SOL    HW121854   5.208   1.070   9.379 -0.0232 -2.0199 -1.3713
 6278SOL    HW221855   5.123   0.983   9.470 -0.1636 -0.4706  0.0025
 6279SOL     OW21856   6.236   8.572   3.476  0.5377 -0.0520 -0.4607
 6279SOL    HW121857   6.200   8.487   3.453 -0.9930  1.0100 -2.1347
 6279SOL    HW221858   6.283   8.557   3.558 -2.4288 -1.8486  1.0200
 6280SOL     OW21859   4.899   4.849   3.149  0.0105 -0.3684 -0.3208
 6280SOL    HW121860   4.855   4.914   3.205  0.1746 -0.2183 -0.3671
 6280SOL    HW221861   4.831   4.821   3.087  0.0205 -0.0328 -0.4817
 6281SOL     OW21862   9.165   7.886   0.014 -0.2880  0.7498  0.2937
 6281SOL    HW121863   9.177   7.911   0.105 -0.9924  1.1767  0.2704
 6281SOL    HW221864   9.193   7.795   0.010 -0.5609  0.6371  1.0001
 6282SOL     OW21865   7.345   3.793   4.037 -0.0799  0.1970  0.1902
 6282SOL    HW121866   7.331   3.713   4.087  0.1632 -0.2019 -0.3747
 6282SOL    HW221867   7.310   3.863   4.093  0.5499 -0.1936  1.0955
 6283SOL     OW21868   8.832   9.388   9.048 -0.1833  0.1381 -0.0915
 6283SOL    HW121869   8.760   9.371   9.109 -0.9119  2.2491 -0.3110
 6283SOL    HW221870   8.898   9.432   9.102 -0.4981  1.2911 -0.6375
 6284SOL     OW21871   7.640   4.343   3.098 -0.5788  0.2169  0.4811
 6284SOL    HW121872   7.647   4.390   3.181  0.4577  1.9610 -0.5540
 6284SOL    HW221873   7.685   4.260   3.113 -0.6895  0.3804  1.7573
 6285SOL     OW21874   8.528   6.989   7.470  0.3196  0.3285  0.0880
 6285SOL    HW121875   8.533   6.914   7.410  2.7183  0.4373  0.1067
 6285SOL    HW221876   8.519   6.949   7.557  0.9629  0.0623  0.0375
 6286SOL     OW21877   4.257   1.964   3.157 -0.1237  0.4192 -0.1486
 6286SOL    HW121878   4.289   2.041   3.111  3.0250 -0.7554 -0.0673
 6286SOL    HW221879   4.279   1.980   3.249  2.0444 -1.2280 -0.3453
 6287SOL     OW21880   6.071   2.468   1.376  0.4551  0.3913 -0.3033
 6287SOL    HW121881   6.115   2.487   1.294  1.5959 -1.1400 -0.0701
 6287SOL    HW221882   5.990   2.519   1.373 -0.0493 -0.5208 -2.8577
 6288SOL     OW21883   7.306   0.509   4.480 -0.5571 -0.1488 -0.5017
 6288SOL    HW121884   7.232   0.505   4.540  0.0183 -0.2964  0.2013
 6288SOL    HW221885   7.343   0.421   4.481 -0.6385 -0.1932 -1.1915
 6289SOL     OW21886   5.090   2.489   3.656  0.4937  0.4692  0.2376
 6289SOL    HW121887   5.025   2.533   3.710 -0.0716 -1.6776  1.3243
 6289SOL    HW221888   5.150   2.560   3.629 -0.6374  1.9717  1.5657
 6290SOL     OW21889   5.358   3.982   9.215 -0.6923  0.3304  0.0967
 6290SOL    HW121890   5.397   4.064   9.183  0.6684 -0.0781  0.6682
 6290SOL    HW221891   5.332   4.002   9.305 -0.5755  0.2071  0.1592
 6291SOL     OW21892   8.525   8.079   5.067  0.0547  0.2128  0.2706
 6291SOL    HW121893   8.614   8.090   5.100 -0.0131  0.1993  0.4573
 6291SOL    HW221894   8.469   8.083   5.145 -0.0637 -0.3412  0.2153
 6292SOL     OW21895   9.357   9.310   7.990 -0.3514 -0.4622  0.4045
 6292SOL    HW121896   9.323   9.296   7.901 -0.8689  0.7101  0.4035
 6292SOL    HW221897   9.426   9.375   7.979 -0.6487 -0.0599  0.9003
 6293SOL     OW21898   3.210   2.961   3.571  0.5738  0.8565 -0.2219
 6293SOL    HW121899   3.195   2.950   3.477  0.5932 -0.1106 -0.1151
 6293SOL    HW221900   3.205   2.872   3.607 -0.9853  1.3903  0.9368
 6294SOL     OW21901   1.949   2.145   8.656 -0.1225  0.3231 -0.2767
 6294SOL    HW121902   1.857   2.135   8.628  0.0964 -2.1736 -0.2386
 6294SOL    HW221903   1.999   2.128   8.576  0.3150  1.8157 -0.3228
 6295SOL     OW21904   5.838   0.738   8.318 -0.1712  0.7071  0.0948
 6295SOL    HW121905   5.766   0.741   8.255 -0.1535  1.4850  0.1074
 6295SOL    HW221906   5.814   0.667   8.378  0.2582 -0.6286 -1.3029
 6296SOL     OW21907   7.055   6.677   5.463 -0.0358 -0.3540  0.2340
 6296SOL    HW121908   7.063   6.607   5.528  0.4817  0.1810  0.7554
 6296SOL    HW221909   6.974   6.657   5.415 -1.8048  0.6502  2.7339
 6297SOL     OW21910   2.818   6.447   9.108  0.0824  0.0794  0.1266
 6297SOL    HW121911   2.779   6.492   9.183 -1.0896  0.9014 -0.9608
 6297SOL    HW221912   2.909   6.478   9.107 -0.0670  0.5646  0.8135
 6298SOL     OW21913   3.818   0.272   9.113  0.3923 -0.5344  0.5205
 6298SOL    HW121914   3.891   0.211   9.116  0.4116 -0.4329  3.2340
 6298SOL    HW221915   3.811   0.306   9.202 -0.3708  2.5223 -0.6323
 6299SOL     OW21916   2.730   4.663   7.284 -0.5302 -0.1159  0.4764
 6299SOL    HW121917   2.786   4.712   7.344 -0.8923  0.1418  0.6013
 6299SOL    HW221918   2.694   4.592   7.338 -0.1817 -0.3908  0.3507
 6300SOL     OW21919   4.480   2.836   2.027  0.1166 -0.5405 -0.2612
 6300SOL    HW121920   4.490   2.826   2.121 -0.2179 -0.5293 -0.2234
 6300SOL    HW221921   4.529   2.763   1.990  1.9971  0.6285 -0.1514
 6301SOL     OW21922   8.691   8.325   2.877  0.5783 -1.2540 -0.1469
 6301SOL    HW121923   8.645   8.406   2.899  1.4519 -1.1977  1.5466
 6301SOL    HW221924   8.722   8.339   2.787 -1.9480 -0.9745 -1.0144
 6302SOL     OW21925   0.940   8.077   6.106  0.1340  0.1814  0.6659
 6302SOL    HW121926   0.989   8.013   6.157  0.7993 -0.7011 -1.0507
 6302SOL    HW221927   0.857   8.034   6.085  0.4376  0.0013 -0.1880
 6303SOL     OW21928   3.488   8.605   6.041 -0.0977  0.4183 -0.1472
 6303SOL    HW121929   3.560   8.616   6.103 -1.3888  1.1678  1.2792
 6303SOL    HW221930   3.411   8.590   6.096 -0.9713 -0.7771 -1.6453
 6304SOL     OW21931   3.055   1.360   4.216  0.2355  0.0349 -0.5162
 6304SOL    HW121932   3.110   1.387   4.142  0.9218  1.5290  0.5173
 6304SOL    HW221933   2.966   1.371   4.185  0.4901  2.8622 -0.4074
 6305SOL     OW21934   3.200   5.161   6.880  0.4808  0.0345 -0.2260
 6305SOL    HW121935   3.132   5.143   6.945 -0.0428 -0.0714 -0.7958
 6305SOL    HW221936   3.232   5.249   6.903 -0.5129  0.4830 -0.5273
 6306SOL     OW21937   1.271   4.429   6.857 -0.0111 -0.4147  0.0613
 6306SOL    HW121938   1.194   4.383   6.889 -0.9441  1.3951  0.4999
 6306SOL    HW221939   1.303   4.478   6.933  1.5482 -1.0809 -0.1286
 6307SOL     OW21940   5.244   7.553   1.501 -0.2033 -0.2638  0.1285
 6307SOL    HW121941   5.269   7.590   1.585 -0.1813  1.0839 -0.4590
 6307SOL    HW221942   5.154   7.584   1.487 -0.1033 -0.2345 -0.4762
 6308SOL     OW21943   0.968   2.490   7.549 -0.0179  0.2846  0.6674
 6308SOL    HW121944   0.982   2.579   7.580 -0.5642  0.5033  0.3112
 6308SOL    HW221945   0.916   2.501   7.469  1.8599 -0.2211 -0.6398
 6309SOL     OW21946   7.898   6.376   3.565 -0.0878  0.1007  0.5626
 6309SOL    HW121947   7.881   6.281   3.564 -0.8940  0.2407  0.3838
 6309SOL    HW221948   7.869   6.404   3.651 -1.1496  0.4099  0.1096
 6310SOL     OW21949   0.049   8.070   1.167 -0.2080 -0.1915  0.4658
 6310SOL    HW121950  -0.016   8.127   1.209 -0.8254  0.4448 -1.2860
 6310SOL    HW221951   0.004   7.987   1.155 -1.0117  0.4977 -1.4894
 6311SOL     OW21952   4.403   7.381   3.242  0.1872  0.0433 -0.1645
 6311SOL    HW121953   4.434   7.322   3.173 -0.8442 -0.8637  0.1292
 6311SOL    HW221954   4.348   7.325   3.298 -3.1451  1.8963 -1.4450
 6312SOL     OW21955   9.062   6.984   8.739  0.5165 -0.2435  0.2977
 6312SOL    HW121956   9.145   7.032   8.744  1.2424 -1.4219 -0.2854
 6312SOL    HW221957   8.995   7.052   8.748  1.5380  0.6544  1.3992
 6313SOL     OW21958   6.575   7.389   1.911  0.4940  0.3721  0.0452
 6313SOL    HW121959   6.663   7.351   1.915  0.1121 -0.5546 -0.2254
 6313SOL    HW221960   6.589   7.483   1.924  1.7748  0.5512 -2.4028
 6314SOL     OW21961   8.971   5.006   1.889 -0.1216  0.0237  0.3723
 6314SOL    HW121962   9.013   4.953   1.821  1.2031 -0.1859  1.3390
 6314SOL    HW221963   9.003   5.095   1.872 -0.4071  0.1002  0.2404
 6315SOL     OW21964   6.846   0.943   6.250 -0.2591 -0.2794 -0.3385
 6315SOL    HW121965   6.801   0.880   6.308  0.7231 -0.1815  0.5481
 6315SOL    HW221966   6.936   0.945   6.283  0.1077  0.3995 -1.3742
 6316SOL     OW21967   5.028   7.728   4.020  0.0372  0.5917  0.4713
 6316SOL    HW121968   4.990   7.663   3.960  2.2076 -1.4196  1.2208
 6316SOL    HW221969   5.077   7.787   3.962  0.6767 -0.3121  0.0749
 6317SOL     OW21970   6.503   2.227   2.108 -0.2829  0.0768 -0.5212
 6317SOL    HW121971   6.562   2.271   2.047 -2.3702  1.1898 -1.7897
 6317SOL    HW221972   6.502   2.282   2.186  0.6461 -0.1540 -0.3471
 6318SOL     OW21973   9.145   7.795   1.415  0.6575  0.1275 -0.3662
 6318SOL    HW121974   9.078   7.792   1.483  2.5785  0.2633  1.5614
 6318SOL    HW221975   9.099   7.829   1.338 -1.6506 -0.4739  0.6981
 6319SOL     OW21976   5.034   4.065   8.123 -0.1376  0.3753  0.4304
 6319SOL    HW121977   5.093   4.107   8.186  0.8994 -0.4738  0.0468
 6319SOL    HW221978   5.044   3.972   8.140  1.5925  0.0210 -2.2165
 6320SOL     OW21979   1.715   5.623   1.068 -0.5680  0.4984 -0.6145
 6320SOL    HW121980   1.708   5.602   0.975  1.0473 -0.0601 -0.6197
 6320SOL    HW221981   1.680   5.545   1.112 -0.9674  0.6055 -0.7322
 6321SOL     OW21982   0.815   4.968   4.979  0.6017  0.1367  0.6514
 6321SOL    HW121983   0.775   4.900   4.924 -2.0648  1.0802  1.3091
 6321SOL    HW221984   0.769   4.960   5.063  1.7114  1.4013  1.3996
 6322SOL     OW21985   5.376   5.039   5.402 -0.3401  0.1457 -0.4341
 6322SOL    HW121986   5.415   4.981   5.336 -2.0423 -1.6153  0.0870
 6322SOL    HW221987   5.417   5.012   5.484  0.5776  1.2543 -0.5174
 6323SOL     OW21988   6.502   5.381   6.688  0.2462 -0.1392  0.7330
 6323SOL    HW121989   6.586   5.362   6.730  1.0188 -1.3777 -1.3041
 6323SOL    HW221990   6.456   5.297   6.687 -1.0659  0.5336  1.8447
 6324SOL     OW21991   5.377   0.344   1.350 -0.3760  0.6829  0.2985
 6324SOL    HW121992   5.288   0.339   1.383 -0.3217  1.2076  0.5275
 6324SOL    HW221993   5.379   0.424   1.297 -0.2628  0.2413 -0.3727
 6325SOL     OW21994   8.065   7.772   8.079 -0.2019  0.1036 -0.4880
 6325SOL    HW121995   8.074   7.867   8.086  2.3175  0.0764 -2.5704
 6325SOL    HW221996   8.116   7.737   8.152 -0.6751  0.3460 -0.0448
 6326SOL     OW21997   8.304   7.804   7.876  0.2299  0.2060 -0.0114
 6326SOL    HW121998   8.226   7.807   7.931  1.1407 -0.9780  1.3689
 6326SOL    HW221999   8.304   7.889   7.831 -2.9780 -0.5910 -1.6478
 6327SOL     OW22000   3.754   2.487   6.889 -0.3433  0.2371  0.1842
 6327SOL    HW122001   3.685   2.442   6.938  0.5192 -1.9815 -0.5744
 6327SOL    HW222002   3.715   2.506   6.804  0.0607 -1.3559 -0.3802
 6328SOL     OW22003   3.128   8.101   7.998 -0.3005  0.0864  0.1037
 6328SOL    HW122004   3.051   8.045   8.010 -1.5665  1.3241 -1.9427
 6328SOL    HW222005   3.105   8.184   8.037  0.3899  0.1518  0.3809
 6329SOL     OW22006   2.057   1.409   0.354 -0.1740 -0.1065  0.1141
 6329SOL    HW122007   2.121   1.351   0.395  0.5934 -0.4966 -1.6104
 6329SOL    HW222008   2.097   1.436   0.272 -1.8601  0.3219 -0.5971
 6330SOL     OW22009   6.596   4.343   6.785 -0.0495 -0.3052  0.1861
 6330SOL    HW122010   6.543   4.347   6.864  0.5484 -0.8042  0.6194
 6330SOL    HW222011   6.686   4.336   6.816  0.0747 -2.1024 -0.5082
 6331SOL     OW22012   2.941   1.316   7.123  0.0784 -0.1946  0.5924
 6331SOL    HW122013   2.856   1.293   7.161 -0.4879  0.1127 -0.4587
 6331SOL    HW222014   2.975   1.234   7.089  0.6519 -0.4981  1.8650
 6332SOL     OW22015   5.758   7.718   5.553  0.2216 -0.1268 -0.0159
 6332SOL    HW122016   5.741   7.629   5.583  0.6412 -0.4118 -0.6256
 6332SOL    HW222017   5.819   7.708   5.480  0.2763  0.6590 -0.0825
 6333SOL     OW22018   5.288   9.441   0.877 -0.0415  0.0689 -0.3632
 6333SOL    HW122019   5.258   9.531   0.864  1.4188  0.5278 -0.5905
 6333SOL    HW222020   5.379   9.450   0.906  0.4767 -1.3700 -1.5239
 6334SOL     OW22021   8.714   4.967   1.933 -0.1392 -0.0087 -0.5107
 6334SOL    HW122022   8.809   4.976   1.932 -0.0601 -0.8680 -0.9591
 6334SOL    HW222023   8.683   5.027   1.866  0.1483 -0.3707 -0.9686
 6335SOL     OW22024   5.017   7.408   1.744 -0.5023  0.7077 -0.1548
 6335SOL    HW122025   5.008   7.458   1.663  3.0650 -0.0151 -1.0618
 6335SOL    HW222026   4.989   7.319   1.721 -0.3156  0.6990 -0.3403
 6336SOL     OW22027   6.066   9.408   2.626  0.6458  0.4976 -0.9607
 6336SOL    HW122028   5.998   9.356   2.583 -1.5578  0.7115  2.1153
 6336SOL    HW222029   6.044   9.499   2.603  0.6504  0.4782 -1.0401
 6337SOL     OW22030   2.076   3.474   0.811  0.0267 -0.1863  0.0937
 6337SOL    HW122031   2.155   3.427   0.783 -0.4185 -0.0561 -1.4287
 6337SOL    HW222032   2.048   3.522   0.733 -0.3397  1.4793  1.2333
 6338SOL     OW22033   1.450   3.443   2.804  0.1463 -0.5875  0.0885
 6338SOL    HW122034   1.398   3.473   2.730 -0.5746 -0.8935  0.4676
 6338SOL    HW222035   1.400   3.370   2.841 -0.4008  0.6951  1.9466
 6339SOL     OW22036   4.281   4.974   3.128  0.1023 -0.2007  0.2774
 6339SOL    HW122037   4.244   4.939   3.209 -1.8189 -1.3149 -1.0401
 6339SOL    HW222038   4.313   4.897   3.081  0.1791  0.3028 -0.5124
 6340SOL     OW22039   3.087   6.292   5.860 -0.1588  0.0030  0.0051
 6340SOL    HW122040   3.074   6.387   5.854  0.0871  0.0259 -0.1705
 6340SOL    HW222041   3.151   6.272   5.792  1.1850 -0.0329  1.2774
 6341SOL     OW22042   3.050   6.218   0.326  0.9934 -0.1226  0.0137
 6341SOL    HW122043   3.123   6.158   0.314  1.8125  0.8531  0.0402
 6341SOL    HW222044   3.091   6.300   0.354 -0.0980  0.4766 -0.1222
 6342SOL     OW22045   0.603   5.857   1.705 -0.5433 -0.0241 -0.1683
 6342SOL    HW122046   0.658   5.929   1.675  0.1570 -0.4203  0.1614
 6342SOL    HW222047   0.649   5.822   1.782 -2.9222  1.7771  2.1681
 6343SOL     OW22048   6.482   0.766   4.271 -0.3561  0.5157  0.2682
 6343SOL    HW122049   6.404   0.769   4.217 -0.5239 -0.6811  0.4485
 6343SOL    HW222050   6.458   0.814   4.351 -1.7728 -2.0842  1.4411
 6344SOL     OW22051   1.174   0.816   8.359 -0.1423  0.0814 -0.1945
 6344SOL    HW122052   1.177   0.911   8.355 -0.5470  0.1944  1.5212
 6344SOL    HW222053   1.151   0.797   8.450  0.7042 -1.6686 -0.3265
 6345SOL     OW22054   1.594   6.727   2.315  0.0106  0.0181  0.6852
 6345SOL    HW122055   1.509   6.695   2.345 -0.5112  0.9061  0.1709
 6345SOL    HW222056   1.600   6.816   2.351 -0.5980  1.0793 -1.7246
 6346SOL     OW22057   1.473   3.014   1.026 -0.3423 -0.2424  0.3858
 6346SOL    HW122058   1.507   3.068   0.955  1.4272  0.8342  1.9791
 6346SOL    HW222059   1.402   3.066   1.063  0.1687  0.2082  0.7582
 6347SOL     OW22060   0.297   2.245   0.890 -0.4615  0.3631 -0.3527
 6347SOL    HW122061   0.304   2.339   0.903 -2.4329  0.4920  0.0061
 6347SOL    HW222062   0.351   2.207   0.959 -1.9110  1.2104  1.2826
 6348SOL     OW22063   3.578   3.057   0.436 -0.6954 -0.3292  0.1507
 6348SOL    HW122064   3.622   3.042   0.520 -0.5261 -0.6093  0.0164
 6348SOL    HW222065   3.513   2.987   0.430 -1.0892  0.0281  0.3043
 6349SOL     OW22066   9.145   2.135   9.083  0.5202  0.2045  0.2437
 6349SOL    HW122067   9.102   2.207   9.036 -0.2306  0.9115  1.9921
 6349SOL    HW222068   9.202   2.178   9.147  0.1576 -0.7468  1.2206
 6350SOL     OW22069   6.451   3.812   7.561  0.0692  0.1483 -0.1354
 6350SOL    HW122070   6.485   3.802   7.649  0.6316  0.2061 -0.3401
 6350SOL    HW222071   6.358   3.834   7.572 -0.3283 -1.7665  0.3813
 6351SOL     OW22072   1.210   0.902   0.051  0.1306  0.2061 -0.7489
 6351SOL    HW122073   1.289   0.860   0.017 -1.4354 -1.5295 -2.3764
 6351SOL    HW222074   1.218   0.897   0.146  1.9515  0.0384 -0.9033
 6352SOL     OW22075   6.813   1.606   5.462 -0.0252  0.2217  0.5285
 6352SOL    HW122076   6.839   1.698   5.473 -1.9018  1.0179 -1.4156
 6352SOL    HW222077   6.879   1.569   5.403 -1.1786  1.2873 -1.4995
 6353SOL     OW22078   2.962   9.352   1.654  0.2895  0.4581 -0.5835
 6353SOL    HW122079   2.992   9.341   1.563  0.3282  2.7226 -0.8863
 6353SOL    HW222080   2.886   9.295   1.661  0.9458 -0.6013 -1.6995
 6354SOL     OW22081   3.884   0.752   3.517 -0.4541  0.0248 -0.0103
 6354SOL    HW122082   3.805   0.698   3.519  1.1611 -2.4489 -0.2419
 6354SOL    HW222083   3.919   0.747   3.607  1.3364 -1.8882 -0.7777
 6355SOL     OW22084   5.798   8.576   5.034 -0.3084  0.4333  0.0321
 6355SOL    HW122085   5.758   8.624   4.961 -0.0188  1.2604  0.4229
 6355SOL    HW222086   5.830   8.495   4.994  2.0705  1.9599 -1.2638
 6356SOL     OW22087   2.503   9.302   6.730 -1.0091 -0.8828  0.1897
 6356SOL    HW122088   2.441   9.315   6.658  1.2192  0.4848 -1.5575
 6356SOL    HW222089   2.461   9.344   6.805 -3.2194 -2.0270 -0.3704
 6357SOL     OW22090   4.693   1.887   2.894  0.2938 -0.1386  0.3530
 6357SOL    HW122091   4.720   1.892   2.986 -1.0054  0.5898  0.7143
 6357SOL    HW222092   4.599   1.866   2.898 -0.0102  0.9445 -0.7791
 6358SOL     OW22093   9.017   4.359   5.151 -0.2378 -0.0972 -0.0073
 6358SOL    HW122094   9.074   4.388   5.222  0.8144  1.1675 -1.3453
 6358SOL    HW222095   9.070   4.297   5.100 -1.2429 -1.5872  0.7246
 6359SOL     OW22096   0.843   0.491   6.845  0.1503 -0.6678 -0.5435
 6359SOL    HW122097   0.757   0.488   6.887  0.1453 -0.6184 -0.5495
 6359SOL    HW222098   0.825   0.486   6.752  0.1150 -0.0522 -0.5726
 6360SOL     OW22099   6.661   9.320   0.145  0.2437 -0.1556 -0.4615
 6360SOL    HW122100   6.701   9.342   0.229 -0.6714 -0.5499  0.0853
 6360SOL    HW222101   6.607   9.243   0.163 -0.2159 -0.0497 -1.3342
 6361SOL     OW22102   5.990   0.670   4.376 -0.4490 -0.2532 -0.3000
 6361SOL    HW122103   5.916   0.633   4.425 -1.6626  0.7134 -1.3627
 6361SOL    HW222104   6.056   0.688   4.443 -0.5044 -2.6649  0.4754
 6362SOL     OW22105   3.586   4.952   9.391 -0.0331  1.1707 -0.0006
 6362SOL    HW122106   3.592   5.047   9.386  0.1347  1.2431  1.4013
 6362SOL    HW222107   3.671   4.921   9.361 -0.2571  1.4372 -0.9289
 6363SOL     OW22108   1.891   5.367   6.672 -0.0966 -0.3825  0.0238
 6363SOL    HW122109   1.937   5.294   6.713 -0.8141 -0.5996  0.4517
 6363SOL    HW222110   1.829   5.327   6.612 -0.1054 -0.1079 -0.1524
 6364SOL     OW22111   9.026   5.330   1.965 -0.3134  0.1801  0.6638
 6364SOL    HW122112   9.028   5.291   1.878 -1.5492 -0.2898  0.8295
 6364SOL    HW222113   9.003   5.422   1.949 -1.5431 -0.1356  0.5501
 6365SOL     OW22114   1.297   1.257   3.169 -0.4477 -0.4205  0.3108
 6365SOL    HW122115   1.312   1.169   3.136  3.1416  1.5575 -3.9580
 6365SOL    HW222116   1.213   1.283   3.132 -1.4284 -1.9504  1.4315
 6366SOL     OW22117   6.705   2.476   5.983 -0.0592 -0.0375 -0.0059
 6366SOL    HW122118   6.666   2.553   6.023  2.6663  2.2756 -1.5712
 6366SOL    HW222119   6.775   2.511   5.927  2.2175 -3.7212  0.3434
 6367SOL     OW22120   8.541   8.427   7.120  0.0051 -0.4313 -0.6778
 6367SOL    HW122121   8.476   8.451   7.186 -1.3606  1.5306 -2.6860
 6367SOL    HW222122   8.516   8.340   7.091  0.8095 -1.4521  1.5832
 6368SOL     OW22123   5.389   2.191   2.936 -0.3116  0.0492  0.1049
 6368SOL    HW122124   5.338   2.118   2.900 -1.6795  0.4067  1.2824
 6368SOL    HW222125   5.353   2.205   3.024 -0.9551  2.9741 -0.5660
 6369SOL     OW22126   8.036   4.273   2.260  0.0193 -0.4740 -0.8255
 6369SOL    HW122127   7.973   4.213   2.300 -0.7253  0.1944 -0.9864
 6369SOL    HW222128   7.988   4.315   2.189  0.4595  0.4939 -0.5605
 6370SOL     OW22129   1.845   7.813   1.635  0.1987 -0.0749 -0.3523
 6370SOL    HW122130   1.926   7.859   1.612  0.3397  0.4671  1.2008
 6370SOL    HW222131   1.848   7.804   1.730 -1.8274  0.4437 -0.2148
 6371SOL     OW22132   4.299   0.626   2.604  0.3996 -0.2923  0.1161
 6371SOL    HW122133   4.299   0.530   2.599  0.0864 -0.3904  1.9680
 6371SOL    HW222134   4.207   0.651   2.596  0.3870 -0.1972  0.5411
 6372SOL     OW22135   4.077   8.795   5.506 -0.3214 -0.6590 -0.1273
 6372SOL    HW122136   3.997   8.743   5.506 -0.4106 -0.5327 -1.6858
 6372SOL    HW222137   4.057   8.870   5.563 -0.7512 -1.4450  0.7785
 6373SOL     OW22138   6.749   0.310   4.483  0.4105 -0.2222 -0.1478
 6373SOL    HW122139   6.682   0.365   4.442  1.6365  0.8598 -0.7448
 6373SOL    HW222140   6.803   0.371   4.533  0.9575 -1.0742  0.3163
 6374SOL     OW22141   1.022   5.866   4.964 -0.3352  0.3624  0.1288
 6374SOL    HW122142   1.116   5.856   4.950 -0.5152  0.2517 -1.0677
 6374SOL    HW222143   1.014   5.947   5.016  0.3398  1.1527 -0.9751
 6375SOL     OW22144   3.253   6.949   0.898 -0.6921  0.0070 -0.0723
 6375SOL    HW122145   3.214   6.862   0.903 -1.6136  0.4676  0.7193
 6375SOL    HW222146   3.341   6.938   0.935 -1.1069 -0.4134  0.7940
 6376SOL     OW22147   7.011   0.093   1.511 -0.5982 -0.6533 -0.1555
 6376SOL    HW122148   7.085   0.144   1.477  0.2525 -2.0007 -0.3804
 6376SOL    HW222149   7.030   0.085   1.605 -0.6900 -0.6111 -0.1340
 6377SOL     OW22150   0.782   0.285   3.098  0.2129  0.6688 -0.2386
 6377SOL    HW122151   0.749   0.327   3.177 -0.5336  0.6055 -0.5072
 6377SOL    HW222152   0.858   0.234   3.126 -1.0931 -0.7470  0.7430
 6378SOL     OW22153   0.334   8.034   0.863 -0.1287  0.2472  0.2008
 6378SOL    HW122154   0.251   7.989   0.850 -0.5395  1.1483 -0.3247
 6378SOL    HW222155   0.385   8.015   0.784  0.2833 -0.5216  0.6353
 6379SOL     OW22156   9.345   3.511   4.157  0.4316 -0.0651 -0.1646
 6379SOL    HW122157   9.326   3.500   4.064  0.6481 -0.3086 -0.1795
 6379SOL    HW222158   9.393   3.593   4.162 -0.3910  0.4203 -0.1589
 6380SOL     OW22159   0.700   0.549   9.398 -0.4866 -0.1697  0.4823
 6380SOL    HW122160   0.665   0.512   9.479 -0.9587 -0.3210  0.2145
 6380SOL    HW222161   0.648   0.507   9.329  1.0076 -1.2689  0.0185
 6381SOL     OW22162   4.602   1.514   6.751 -0.0693  0.4765  0.4711
 6381SOL    HW122163   4.677   1.512   6.810  2.3232  1.8152 -2.4243
 6381SOL    HW222164   4.637   1.488   6.666 -3.1123  0.1449 -0.7561
 6382SOL     OW22165   1.431   3.247   1.931 -0.4812  0.2248  0.5828
 6382SOL    HW122166   1.497   3.181   1.910  0.6029  1.7671 -0.9003
 6382SOL    HW222167   1.348   3.203   1.915  0.2283 -0.9070 -0.0521
 6383SOL     OW22168   2.952   2.983   9.049 -0.3555  0.3867 -0.0560
 6383SOL    HW122169   2.879   3.020   9.000 -2.1884 -1.0539  1.5376
 6383SOL    HW222170   3.001   2.932   8.985 -1.7415 -0.0828 -0.7450
 6384SOL     OW22171   6.072   0.270   0.650 -0.7067 -0.1629  0.7913
 6384SOL    HW122172   5.994   0.215   0.656 -0.0586 -1.3686 -1.3135
 6384SOL    HW222173   6.142   0.210   0.625 -0.1185  1.7139 -2.3240
 6385SOL     OW22174   3.414   4.972   2.625  1.1056  0.5631 -0.3254
 6385SOL    HW122175   3.373   4.903   2.572  0.0771  0.4869  0.5759
 6385SOL    HW222176   3.344   5.007   2.679  2.1038  0.8089  0.8286
 6386SOL     OW22177   0.256   9.090   8.767  0.6256 -0.2384  0.2506
 6386SOL    HW122178   0.231   9.014   8.714  0.0966  0.9062 -1.1629
 6386SOL    HW222179   0.268   9.161   8.704  2.4293  0.5464  1.4132
 6387SOL     OW22180   8.493   6.728   6.600  0.1188 -0.1320 -0.6091
 6387SOL    HW122181   8.553   6.716   6.673 -2.0537  1.4357  1.5302
 6387SOL    HW222182   8.492   6.822   6.585 -1.8038 -0.1281 -0.5713
 6388SOL     OW22183   0.222   6.144   2.714 -0.0562  0.0390 -0.1698
 6388SOL    HW122184   0.137   6.112   2.685 -0.2303 -0.4115  0.8210
 6388SOL    HW222185   0.202   6.205   2.785  0.4732 -0.4953  0.4466
 6389SOL     OW22186   1.759   3.986   7.227  0.3536  0.0899  0.5197
 6389SOL    HW122187   1.721   4.008   7.312  1.7705 -0.0324  1.2070
 6389SOL    HW222188   1.838   3.936   7.248  1.1006  0.6521 -0.8459
 6390SOL     OW22189   4.552   2.661   6.514 -0.7115  0.2034  0.2094
 6390SOL    HW122190   4.489   2.690   6.579 -0.1715  0.5039  0.6045
 6390SOL    HW222191   4.527   2.706   6.433 -0.4269  1.0762  0.5987
 6391SOL     OW22192   4.250   5.166   0.793  0.6818 -0.0588 -0.1640
 6391SOL    HW122193   4.197   5.089   0.775 -1.9446  1.5567  0.4028
 6391SOL    HW222194   4.286   5.191   0.708 -0.4364 -0.5156 -0.7825
 6392SOL     OW22195   3.763   8.646   3.270  0.0200  0.0783 -0.5051
 6392SOL    HW122196   3.829   8.705   3.234 -0.5467  0.2846 -1.2256
 6392SOL    HW222197   3.788   8.634   3.361  0.2347  1.2933 -0.4018
 6393SOL     OW22198   7.216   1.844   5.585  0.5107 -0.1967  0.5230
 6393SOL    HW122199   7.220   1.760   5.540  2.2667 -0.9168  1.9577
 6393SOL    HW222200   7.260   1.828   5.669  0.5001  2.0423  0.9797
 6394SOL     OW22201   6.415   7.349   8.434  0.2251  0.4506  0.0962
 6394SOL    HW122202   6.396   7.279   8.496  1.1163  0.6907  0.6457
 6394SOL    HW222203   6.360   7.421   8.462  0.4154  0.4636  0.4413
 6395SOL     OW22204   8.546   9.068   6.424  0.0470  0.3278 -0.7262
 6395SOL    HW122205   8.563   9.060   6.330  1.1638 -1.1316 -0.4069
 6395SOL    HW222206   8.601   9.002   6.465  0.9456  2.1498  1.1222
 6396SOL     OW22207   2.700   0.579   4.268 -0.0393  0.5454  0.3568
 6396SOL    HW122208   2.692   0.534   4.184  0.0148  1.3473 -0.0847
 6396SOL    HW222209   2.612   0.577   4.306  0.1470 -0.7229  0.7646
 6397SOL     OW22210   4.087   3.518   3.482  0.3788  0.0572  0.1210
 6397SOL    HW122211   4.167   3.520   3.535 -0.0009 -0.4101  0.7091
 6397SOL    HW222212   4.016   3.530   3.544  0.0604  1.9518 -0.5943
 6398SOL     OW22213   7.306   4.107   1.487 -0.2816 -0.0121  0.0488
 6398SOL    HW122214   7.294   4.013   1.503  3.3493 -0.5075  0.2839
 6398SOL    HW222215   7.341   4.140   1.570  2.8585  0.6035 -1.4433
 6399SOL     OW22216   5.421   0.580   8.329  0.2566 -0.3834 -0.2466
 6399SOL    HW122217   5.361   0.638   8.375  0.4293  0.3620 -0.9531
 6399SOL    HW222218   5.392   0.492   8.351 -0.9323 -0.0260 -0.3818
 6400SOL     OW22219   5.643   3.603   6.613  0.4943 -0.5189 -0.0772
 6400SOL    HW122220   5.726   3.619   6.658  1.6342 -1.3946 -1.8580
 6400SOL    HW222221   5.636   3.507   6.609 -0.0205 -0.4434 -1.0012
 6401SOL     OW22222   5.093   0.190   4.874  0.0767  0.1220  0.2411
 6401SOL    HW122223   5.089   0.115   4.933  0.0988 -0.4852 -0.5223
 6401SOL    HW222224   5.026   0.250   4.906  0.2046 -0.1307  0.9790
 6402SOL     OW22225   2.574   3.569   3.978  0.3233 -0.8708  0.6010
 6402SOL    HW122226   2.644   3.626   4.010 -1.0788  1.6356 -0.6657
 6402SOL    HW222227   2.514   3.561   4.052  1.4177 -2.2286  1.3686
 6403SOL     OW22228   0.391   4.519   7.245  0.1738  0.2656 -0.5662
 6403SOL    HW122229   0.368   4.426   7.238 -0.0230  0.2587  0.1722
 6403SOL    HW222230   0.319   4.565   7.202  0.3232  0.0698 -1.0249
 6404SOL     OW22231   1.043   1.575   3.639  0.0160  0.4974  0.6154
 6404SOL    HW122232   1.015   1.641   3.575 -1.2096 -1.3179 -0.7739
 6404SOL    HW222233   1.139   1.575   3.632 -0.1690 -1.1828 -2.8384
 6405SOL     OW22234   1.367   4.385   5.271  0.0208 -0.6360 -0.0089
 6405SOL    HW122235   1.333   4.311   5.322  0.4886 -1.0839 -0.3357
 6405SOL    HW222236   1.314   4.459   5.298  0.0003 -0.9515  0.8394
 6406SOL     OW22237   6.445   1.645   0.905 -0.3652  0.2873  0.2718
 6406SOL    HW122238   6.423   1.738   0.900  0.0781  0.3258 -0.9918
 6406SOL    HW222239   6.532   1.639   0.866 -0.7171 -0.7677 -0.3555
 6407SOL     OW22240   2.614   4.676   4.051 -0.2529 -0.1780  0.0926
 6407SOL    HW122241   2.702   4.705   4.073  0.6137 -1.8333 -1.0359
 6407SOL    HW222242   2.600   4.598   4.105 -1.1103  0.2248  0.4473
 6408SOL     OW22243   8.400   5.666   9.049 -0.0494  0.0080 -0.3994
 6408SOL    HW122244   8.473   5.613   9.017 -0.0064 -0.9007  1.1592
 6408SOL    HW222245   8.423   5.686   9.140 -1.7346 -0.2866  0.1158
 6409SOL     OW22246   0.882   3.462   1.614  0.4133  0.4967  0.0707
 6409SOL    HW122247   0.937   3.496   1.543 -0.1352 -0.7160 -0.9490
 6409SOL    HW222248   0.848   3.379   1.581  0.3364 -0.2171  1.8544
 6410SOL     OW22249   5.143   6.376   2.533  0.2454 -0.5576  0.1648
 6410SOL    HW122250   5.188   6.456   2.560  0.1492  0.5225 -2.6427
 6410SOL    HW222251   5.052   6.403   2.520  0.2810 -1.0129 -1.1377
 6411SOL     OW22252   9.334   7.675   4.921  0.1006  0.0598 -0.2512
 6411SOL    HW122253   9.390   7.705   4.992  0.6228 -1.1510 -0.1476
 6411SOL    HW222254   9.258   7.636   4.964 -0.3294  0.7139 -0.3870
 6412SOL     OW22255   0.623   3.598   5.065  0.1464  0.4544 -0.1304
 6412SOL    HW122256   0.679   3.653   5.119  0.2144 -0.8163  1.1238
 6412SOL    HW222257   0.536   3.607   5.104 -0.1128  0.7518 -0.7675
 6413SOL     OW22258   4.270   1.282   5.954  0.0431  0.3472  0.0192
 6413SOL    HW122259   4.185   1.251   5.923  0.1729 -0.3345  0.3333
 6413SOL    HW222260   4.250   1.362   6.003 -0.1290  1.6227 -2.0628
 6414SOL     OW22261   4.622   7.578   7.402 -0.7982 -0.5506 -0.1705
 6414SOL    HW122262   4.612   7.523   7.480  2.7983 -1.4870 -0.3102
 6414SOL    HW222263   4.692   7.536   7.352 -0.1868  2.3886 -1.8591
 6415SOL     OW22264   1.435   2.448   7.619 -0.1040  0.2232 -0.2891
 6415SOL    HW122265   1.392   2.363   7.627 -0.5052  0.4558  0.0058
 6415SOL    HW222266   1.410   2.495   7.698 -0.0066  0.6734 -0.5272
 6416SOL     OW22267   5.092   3.691   3.477  0.2247 -0.1042  0.4184
 6416SOL    HW122268   5.068   3.761   3.539 -0.2951  1.6492 -1.6862
 6416SOL    HW222269   5.008   3.659   3.444  0.5335  0.2820 -0.7634
 6417SOL     OW22270   6.018   3.704   1.271  0.0200  0.2714 -0.2781
 6417SOL    HW122271   5.930   3.736   1.291 -0.0199  0.8463 -1.3315
 6417SOL    HW222272   6.077   3.767   1.311 -0.0186 -1.1665  2.1155
 6418SOL     OW22273   8.557   1.749   4.209 -0.7157  0.5783 -0.6821
 6418SOL    HW122274   8.466   1.779   4.213 -0.8202  0.2152 -0.3527
 6418SOL    HW222275   8.608   1.830   4.207 -0.9983  0.7793  0.1421
 6419SOL     OW22276   5.517   6.331   2.366 -0.0123  0.1653 -0.3957
 6419SOL    HW122277   5.510   6.329   2.462 -0.4062 -3.9553 -0.4178
 6419SOL    HW222278   5.611   6.341   2.349  0.4391 -2.2411  0.5057
 6420SOL     OW22279   3.886   0.195   0.317 -0.3061  0.1731 -0.3903
 6420SOL    HW122280   3.971   0.209   0.360 -0.8111  1.9205  0.0979
 6420SOL    HW222281   3.901   0.218   0.226  0.3800 -2.0428 -0.8633
 6421SOL     OW22282   8.287   4.015   1.711  0.1686  0.0823  0.5321
 6421SOL    HW122283   8.230   4.015   1.788 -0.7847  0.3834 -0.1653
 6421SOL    HW222284   8.235   3.971   1.643  0.2440  1.5113 -0.4845
 6422SOL     OW22285   8.142   5.597   5.919 -0.8936  0.1242 -0.3101
 6422SOL    HW122286   8.151   5.503   5.906  0.3811  0.1827  0.0908
 6422SOL    HW222287   8.127   5.607   6.013 -0.9983  0.3292 -0.3468
 6423SOL     OW22288   0.688   7.077   4.116  0.3491 -0.3996 -0.1415
 6423SOL    HW122289   0.658   7.157   4.159  2.4501  1.0456 -1.3120
 6423SOL    HW222290   0.752   7.040   4.176  0.7407 -0.2224 -0.4510
 6424SOL     OW22291   2.055   1.276   5.205 -0.4550  0.1834  0.5838
 6424SOL    HW122292   2.036   1.336   5.278  1.4019  0.7989  0.5736
 6424SOL    HW222293   2.142   1.241   5.225  1.1483  2.2020 -2.5563
 6425SOL     OW22294   6.619   4.191   1.729 -0.4887  0.1293  0.1587
 6425SOL    HW122295   6.636   4.149   1.813 -0.0928  0.2560  0.1410
 6425SOL    HW222296   6.579   4.122   1.675  1.8024 -0.7472 -0.4594
 6426SOL     OW22297   3.180   2.475   5.635  0.4045 -0.2647  0.0278
 6426SOL    HW122298   3.108   2.537   5.644  1.7799  1.1621  1.6389
 6426SOL    HW222299   3.144   2.392   5.666 -1.1474 -0.0563 -1.1628
 6427SOL     OW22300   1.426   6.499   6.309 -0.3754 -0.4357  0.1635
 6427SOL    HW122301   1.519   6.518   6.325 -0.4128  0.5270 -0.6838
 6427SOL    HW222302   1.388   6.585   6.290 -1.2083 -0.9852 -0.6537
 6428SOL     OW22303   0.579   0.918   2.158  1.3386 -0.1122  0.5168
 6428SOL    HW122304   0.598   0.824   2.151  0.4144 -0.3110  0.5603
 6428SOL    HW222305   0.642   0.960   2.099  0.7942 -0.8804 -0.6212
 6429SOL     OW22306   2.130   7.519   6.833  0.5092  0.9198  0.0345
 6429SOL    HW122307   2.056   7.569   6.868  0.2187  0.4402  0.1126
 6429SOL    HW222308   2.107   7.428   6.850  1.6832  0.8281  1.1444
 6430SOL     OW22309   1.421   7.046   5.323 -0.0495  0.3725 -0.2218
 6430SOL    HW122310   1.368   7.103   5.268  0.4529  0.4534 -0.6308
 6430SOL    HW222311   1.362   6.977   5.352 -0.1754  0.0063 -1.3363
 6431SOL     OW22312   6.561   6.468   5.421  0.5153 -0.1405 -0.1754
 6431SOL    HW122313   6.521   6.382   5.410 -1.0423  0.3411  1.6132
 6431SOL    HW222314   6.601   6.466   5.508 -0.6756  1.3904  0.4352
 6432SOL     OW22315   3.885   8.159   6.005  0.6617  0.3283  0.4399
 6432SOL    HW122316   3.862   8.248   6.028  0.1652  0.6856 -1.3395
 6432SOL    HW222317   3.824   8.104   6.055  0.0844  1.0462  0.5331
 6433SOL     OW22318   3.299   4.292   2.478 -0.0111 -0.0546  0.2941
 6433SOL    HW122319   3.283   4.220   2.418 -0.3330 -1.2903  1.8171
 6433SOL    HW222320   3.213   4.315   2.512  0.0017  1.5463 -0.7165
 6434SOL     OW22321   2.829   4.043   8.258 -0.0690  0.1065  0.2986
 6434SOL    HW122322   2.866   4.035   8.170  2.7463  0.3423  1.4037
 6434SOL    HW222323   2.854   4.131   8.287 -1.6573  0.3283  1.0590
 6435SOL     OW22324   6.842   9.172   3.172  0.1092 -0.6514 -0.1975
 6435SOL    HW122325   6.756   9.140   3.198  0.2595  0.8125  2.2108
 6435SOL    HW222326   6.824   9.243   3.110 -0.4166 -0.0718  0.6204
 6436SOL     OW22327   6.802   5.697   6.962  0.3594 -0.7453  0.0702
 6436SOL    HW122328   6.784   5.611   6.999 -1.2141 -0.5604 -0.2145
 6436SOL    HW222329   6.858   5.740   7.026 -0.7884 -1.1217  1.3541
 6437SOL     OW22330   6.261   5.098   5.186 -0.4216  0.3814 -0.2059
 6437SOL    HW122331   6.196   5.113   5.118 -1.7622 -2.0342  0.4796
 6437SOL    HW222332   6.216   5.117   5.268  0.1583  0.0180  0.2047
 6438SOL     OW22333   3.463   2.483   8.395 -0.8180  0.3814  0.3079
 6438SOL    HW122334   3.383   2.442   8.362 -0.8217  0.4327  0.2533
 6438SOL    HW222335   3.477   2.559   8.338 -1.6619  1.3375  1.3500
 6439SOL     OW22336   1.154   0.873   6.908 -0.2709  0.2370  0.4045
 6439SOL    HW122337   1.184   0.873   6.998 -0.3099  0.3521  0.4172
 6439SOL    HW222338   1.126   0.963   6.891  2.3510  0.8963 -0.6144
 6440SOL     OW22339   7.169   6.183   8.829 -0.2808 -0.2354  0.0267
 6440SOL    HW122340   7.151   6.188   8.735 -0.9920  1.6748  0.2468
 6440SOL    HW222341   7.237   6.250   8.843 -0.5099 -0.2032  0.9534
 6441SOL     OW22342   0.502   5.659   4.598  0.1768  0.3791 -0.4338
 6441SOL    HW122343   0.421   5.702   4.570  0.6302  1.3950 -0.1823
 6441SOL    HW222344   0.493   5.651   4.693 -0.0479 -0.3840 -0.5153
 6442SOL     OW22345   3.700   7.573   8.893  0.4872  0.8033  0.6756
 6442SOL    HW122346   3.746   7.653   8.869  1.1476  0.5917  1.2087
 6442SOL    HW222347   3.722   7.512   8.822  1.3838  0.5750  1.1374
 6443SOL     OW22348   6.877   5.434   5.989 -0.5425 -0.5374 -0.0634
 6443SOL    HW122349   6.842   5.346   6.003 -0.3810 -0.6303 -0.2421
 6443SOL    HW222350   6.887   5.441   5.894  0.4130 -0.7008  0.0229
 6444SOL     OW22351   3.863   2.834   6.256  0.0332 -0.5822  0.5028
 6444SOL    HW122352   3.930   2.898   6.278 -0.5728  0.4097 -0.5069
 6444SOL    HW222353   3.791   2.886   6.219 -1.1162 -1.6698  1.1643
 6445SOL     OW22354   4.086   5.657   0.551  0.0153  0.2008  0.3196
 6445SOL    HW122355   4.065   5.662   0.644 -0.9545  1.6759  0.0430
 6445SOL    HW222356   4.003   5.675   0.507  0.0645 -2.1947 -0.8532
 6446SOL     OW22357   3.958   5.148   2.826 -0.2099  0.2954  1.1488
 6446SOL    HW122358   3.869   5.180   2.841 -0.5332 -0.8918  1.8584
 6446SOL    HW222359   3.981   5.101   2.906  0.1011 -1.5522  0.0186
 6447SOL     OW22360   0.907   0.180   5.504  0.1149 -0.1642 -0.3223
 6447SOL    HW122361   0.824   0.136   5.484 -0.1355  0.3109 -0.3245
 6447SOL    HW222362   0.944   0.129   5.576 -0.9423  0.5699  0.7604
 6448SOL     OW22363   0.723   7.848   6.202 -0.0687 -0.9014  0.4499
 6448SOL    HW122364   0.816   7.833   6.218 -0.2747 -1.6348  0.9582
 6448SOL    HW222365   0.690   7.764   6.169 -0.4134 -0.4544 -0.3685
 6449SOL     OW22366   7.260   2.792   4.243  0.0334  0.7586  0.0208
 6449SOL    HW122367   7.229   2.709   4.208 -0.2076  1.1177 -0.6267
 6449SOL    HW222368   7.184   2.850   4.240 -0.1516  0.6417  1.6728
 6450SOL     OW22369   3.595   7.662   5.945 -0.1218 -0.0643 -0.1967
 6450SOL    HW122370   3.526   7.726   5.966  0.3426  1.0681 -2.0157
 6450SOL    HW222371   3.583   7.592   6.010 -1.9579  0.8745  0.5269
 6451SOL     OW22372   3.095   2.692   0.947 -0.3920  0.1439  0.3689
 6451SOL    HW122373   3.131   2.612   0.986 -0.5744 -1.1057 -1.9008
 6451SOL    HW222374   3.149   2.706   0.868 -1.3815  1.3527 -0.1129
 6452SOL     OW22375   6.680   2.238   0.284  0.0987 -0.2660 -0.1254
 6452SOL    HW122376   6.617   2.223   0.355  0.4109 -1.7530 -0.1406
 6452SOL    HW222377   6.653   2.177   0.215 -0.8671  1.9378 -1.7495
 6453SOL     OW22378   4.225   3.977   4.616  0.1403 -0.3793  0.2210
 6453SOL    HW122379   4.275   3.985   4.697 -0.5538 -0.4272  0.6604
 6453SOL    HW222380   4.202   4.067   4.593  0.8142 -0.3192 -0.2295
 6454SOL     OW22381   3.058   8.374   5.030  0.5008  0.6716 -0.2375
 6454SOL    HW122382   2.993   8.355   5.097 -1.3426  0.9828 -1.8823
 6454SOL    HW222383   3.099   8.289   5.012 -0.9022  0.0670 -0.6400
 6455SOL     OW22384   1.654   3.623   4.243 -0.1182  1.0143  1.0251
 6455SOL    HW122385   1.584   3.611   4.178  0.1967  3.3505  0.1722
 6455SOL    HW222386   1.644   3.550   4.303 -0.7675 -0.9377 -1.3634
 6456SOL     OW22387   1.019   2.441   9.001 -0.1289  0.0088  0.4028
 6456SOL    HW122388   1.075   2.420   9.076  0.5908 -1.6800 -0.5818
 6456SOL    HW222389   1.078   2.440   8.926 -0.8103  1.8954 -0.1767
 6457SOL     OW22390   2.864   6.638   3.422 -0.5042  0.1312 -0.5188
 6457SOL    HW122391   2.956   6.663   3.431 -0.8095  0.2932  3.0710
 6457SOL    HW222392   2.850   6.629   3.328  2.8137  1.4526 -1.1978
 6458SOL     OW22393   4.121   1.984   0.484 -0.3702  0.4826 -0.5311
 6458SOL    HW122394   4.213   1.976   0.511 -0.7695 -1.9732  0.2821
 6458SOL    HW222395   4.125   1.987   0.388  0.5660  0.1069 -0.5150
 6459SOL     OW22396   1.100   6.024   8.694  0.0655 -0.6046 -0.4800
 6459SOL    HW122397   1.044   6.089   8.652  0.7660 -0.1341 -0.7001
 6459SOL    HW222398   1.092   6.043   8.788  0.1580 -0.2931 -0.5347
 6460SOL     OW22399   2.841   7.316   8.955  0.3623 -0.2726 -0.1524
 6460SOL    HW122400   2.910   7.357   8.904 -0.3383  0.8279 -0.2249
 6460SOL    HW222401   2.824   7.377   9.027 -0.2552 -0.7216  0.0889
 6461SOL     OW22402   6.794   5.789   5.693 -0.0401  0.5639 -0.1964
 6461SOL    HW122403   6.738   5.861   5.721 -0.6598  1.2228 -2.9904
 6461SOL    HW222404   6.743   5.710   5.713 -1.5314  1.1166 -1.7315
 6462SOL     OW22405   8.518   4.649   2.579 -0.0925 -0.1101  0.3284
 6462SOL    HW122406   8.595   4.638   2.523 -0.9295  3.4123 -1.7062
 6462SOL    HW222407   8.553   4.646   2.668  1.9079 -1.7181 -0.4661
 6463SOL     OW22408   4.070   3.535   8.642  0.2579 -0.3231  0.2972
 6463SOL    HW122409   4.007   3.483   8.692 -0.4245  0.4821  0.2923
 6463SOL    HW222410   4.122   3.471   8.594 -0.0326 -1.0348  0.9261
 6464SOL     OW22411   2.231   3.915   1.297  0.1342  0.1696  0.4355
 6464SOL    HW122412   2.184   3.864   1.363  1.8750 -1.4607  0.4527
 6464SOL    HW222413   2.164   3.937   1.232 -0.7056 -2.0364  0.5098
 6465SOL     OW22414   5.656   1.949   4.642  0.3897 -0.8665  0.3918
 6465SOL    HW122415   5.729   1.886   4.637  1.7118  0.5931  0.7441
 6465SOL    HW222416   5.586   1.901   4.684  1.2138 -2.2664  0.2059
 6466SOL     OW22417   4.302   8.216   0.311 -0.6263  0.1532  0.1953
 6466SOL    HW122418   4.312   8.162   0.232 -1.0279 -0.1816  0.3761
 6466SOL    HW222419   4.322   8.305   0.281  0.1283 -0.1046 -0.0785
 6467SOL     OW22420   8.837   3.940   6.036 -0.2298 -0.4103  0.1690
 6467SOL    HW122421   8.796   4.025   6.047  1.4045  0.5660 -0.9514
 6467SOL    HW222422   8.837   3.926   5.941  1.2541 -0.7607  0.2106
 6468SOL     OW22423   0.749   6.532   8.841 -0.1010 -0.3768  0.0557
 6468SOL    HW122424   0.716   6.531   8.931 -2.2271 -1.4141 -0.7104
 6468SOL    HW222425   0.836   6.494   8.847  0.1151  0.3665  1.8074
 6469SOL     OW22426   6.387   4.347   0.608  0.5391 -0.1739 -0.7801
 6469SOL    HW122427   6.377   4.330   0.515  0.8061 -1.3756 -0.6071
 6469SOL    HW222428   6.481   4.340   0.624  0.2514 -2.7380  0.0498
 6470SOL     OW22429   2.066   2.428   1.355 -0.1744 -0.0794  0.3172
 6470SOL    HW122430   2.042   2.475   1.435  0.1118 -0.6439  0.7366
 6470SOL    HW222431   2.161   2.427   1.355 -0.1357  1.5473 -0.9901
 6471SOL     OW22432   0.773   3.547   7.197 -0.0742 -0.5179  0.3151
 6471SOL    HW122433   0.842   3.588   7.144 -0.3766 -0.1946  0.1749
 6471SOL    HW222434   0.810   3.462   7.222  0.6250 -0.0992  0.7411
 6472SOL     OW22435   2.635   1.908   6.064 -0.4959  0.5267 -0.0906
 6472SOL    HW122436   2.680   1.897   6.148 -2.3444 -0.9306  0.7312
 6472SOL    HW222437   2.545   1.928   6.087 -1.2512 -0.8652 -1.7272
 6473SOL     OW22438   3.037   5.043   7.098 -0.0975 -0.2040 -0.3399
 6473SOL    HW122439   3.003   5.025   7.010 -1.2307 -3.7793  0.7653
 6473SOL    HW222440   2.960   5.063   7.150  0.1018 -2.2764  0.7893
 6474SOL     OW22441   3.212   8.083   9.086  0.6988  0.0107 -0.3701
 6474SOL    HW122442   3.282   8.056   9.146 -0.1689 -1.4441  0.0223
 6474SOL    HW222443   3.256   8.095   9.002  1.5046 -0.4941 -0.0338
 6475SOL     OW22444   2.646   1.130   3.122  0.2875  0.2526  0.0317
 6475SOL    HW122445   2.601   1.100   3.044  0.6156  1.0579 -0.4724
 6475SOL    HW222446   2.737   1.105   3.109  0.8124  2.5338 -0.9731
 6476SOL     OW22447   2.397   2.345   0.160  0.6802 -0.0537  0.1135
 6476SOL    HW122448   2.363   2.425   0.199  0.8062  0.9821 -1.8056
 6476SOL    HW222449   2.411   2.368   0.068 -0.8219 -2.7522 -0.8572
 6477SOL     OW22450   0.028   4.763   5.107 -0.2195 -0.2105  0.1153
 6477SOL    HW122451   0.098   4.701   5.129  0.3433  0.5038  0.3478
 6477SOL    HW222452  -0.003   4.795   5.192  0.8862  1.3622 -0.0360
 6478SOL     OW22453   1.933   3.511   4.431 -0.2422  0.1254 -0.2386
 6478SOL    HW122454   2.006   3.572   4.424 -0.9177  0.9949  0.2669
 6478SOL    HW222455   1.866   3.558   4.481 -0.5045 -1.2621  0.7624
 6479SOL     OW22456   4.104   6.339   6.294  0.5599  0.1724  0.5552
 6479SOL    HW122457   4.063   6.364   6.211  0.2680 -0.4064  0.5156
 6479SOL    HW222458   4.191   6.378   6.292  1.9184 -2.7921 -1.6134
 6480SOL     OW22459   9.294   3.839   0.895  0.0194  0.0173 -0.4435
 6480SOL    HW122460   9.218   3.783   0.878  0.6752 -0.7362 -0.9212
 6480SOL    HW222461   9.342   3.794   0.965 -0.0672  0.5897 -0.0081
 6481SOL     OW22462   0.345   9.072   3.365  0.1518  0.2131 -0.2764
 6481SOL    HW122463   0.416   9.008   3.367  1.3401  1.5268  1.3777
 6481SOL    HW222464   0.265   9.020   3.361  1.0733 -1.4090  1.5225
 6482SOL     OW22465   5.657   0.242   0.805  0.4619 -0.3244  0.3321
 6482SOL    HW122466   5.614   0.280   0.728  1.5152 -0.0150 -0.1099
 6482SOL    HW222467   5.680   0.317   0.859 -0.7644 -0.5693  1.2323
 6483SOL     OW22468   8.495   2.034   8.530  0.4068 -0.5518 -0.7045
 6483SOL    HW122469   8.432   2.044   8.602  0.8945 -0.3741 -0.2993
 6483SOL    HW222470   8.451   2.073   8.455 -0.2215 -0.9773 -0.5712
 6484SOL     OW22471   1.583   8.764   6.930  0.1483 -0.3764 -0.0536
 6484SOL    HW122472   1.658   8.822   6.940 -0.0319 -0.3176  1.0394
 6484SOL    HW222473   1.610   8.702   6.862  1.6397 -1.0553  1.1100
 6485SOL     OW22474   8.636   1.509   2.586 -0.4797  0.1054  0.8437
 6485SOL    HW122475   8.628   1.560   2.505  1.5502  0.0742  0.5973
 6485SOL    HW222476   8.551   1.520   2.629 -1.3448  0.7080 -0.9393
 6486SOL     OW22477   7.438   0.102   5.534 -0.5259 -0.1795 -0.0294
 6486SOL    HW122478   7.485   0.119   5.615 -0.1078 -1.9534  0.0993
 6486SOL    HW222479   7.495   0.045   5.483 -0.6182  1.2196 -1.7491
 6487SOL     OW22480   6.963   2.008   4.920 -0.3122 -0.0345  0.4435
 6487SOL    HW122481   7.013   1.945   4.971  1.3208  1.3215  0.5657
 6487SOL    HW222482   7.002   2.006   4.833 -2.1895 -1.3296 -0.4079
 6488SOL     OW22483   4.470   7.800   6.210  0.1728  0.0240 -0.6595
 6488SOL    HW122484   4.376   7.786   6.201 -0.1759  2.9752 -2.3176
 6488SOL    HW222485   4.478   7.868   6.276  1.2979 -1.6351  0.9612
 6489SOL     OW22486   6.639   7.673   4.330 -0.1056 -0.0331  0.1316
 6489SOL    HW122487   6.628   7.768   4.342  0.8160  0.2469 -1.0953
 6489SOL    HW222488   6.658   7.663   4.236 -1.9814 -1.6119 -0.1109
 6490SOL     OW22489   4.914   4.306   3.987 -0.1489 -0.2713  0.0441
 6490SOL    HW122490   4.855   4.272   4.054  1.8738  0.3062  2.1954
 6490SOL    HW222491   4.948   4.388   4.024  0.7444  0.2547 -1.8512
 6491SOL     OW22492   0.660   9.101   3.488  0.0772 -0.5247 -0.1091
 6491SOL    HW122493   0.622   9.044   3.422 -0.3932 -0.8453  0.4295
 6491SOL    HW222494   0.675   9.184   3.443  0.6536 -1.0308 -0.8605
 6492SOL     OW22495   0.142   2.899   3.837  0.0419  0.1543  0.0934
 6492SOL    HW122496   0.210   2.943   3.785 -0.4021  0.4857 -0.2069
 6492SOL    HW222497   0.172   2.808   3.843  1.7661  0.7903  2.0130
 6493SOL     OW22498   1.392   8.464   6.879  0.6129  0.3001  0.0695
 6493SOL    HW122499   1.332   8.434   6.948  1.1064  0.6506  0.6551
 6493SOL    HW222500   1.479   8.446   6.912  0.8706  0.8822 -0.2689
 6494SOL     OW22501   2.341   8.222   6.113  0.0169 -0.3160  0.5803
 6494SOL    HW122502   2.371   8.228   6.203  0.2295  0.5452  0.4574
 6494SOL    HW222503   2.322   8.129   6.100  1.6313 -0.7181  0.9669
 6495SOL     OW22504   2.341   2.366   1.352 -0.0533 -0.1767 -0.1576
 6495SOL    HW122505   2.357   2.297   1.288  1.1929 -0.3302  0.2909
 6495SOL    HW222506   2.381   2.444   1.313 -2.3180  0.5526 -1.1132
 6496SOL     OW22507   1.686   5.055   2.297 -0.2456  0.3813 -0.4288
 6496SOL    HW122508   1.728   5.036   2.213 -0.3648 -1.1034 -0.1560
 6496SOL    HW222509   1.604   5.006   2.294 -0.3180  0.4453  0.4911
 6497SOL     OW22510   2.387   4.628   7.142  0.3967  0.6705 -0.2635
 6497SOL    HW122511   2.441   4.698   7.106  1.4063  0.4156  0.7234
 6497SOL    HW222512   2.441   4.550   7.133  0.1473  0.3929  0.6469
 6498SOL     OW22513   1.757   4.071   2.158 -0.2779 -0.6372 -0.4956
 6498SOL    HW122514   1.697   4.135   2.197  1.5577  1.4116 -0.9393
 6498SOL    HW222515   1.771   4.103   2.069  1.5271 -1.0441 -0.3665
 6499SOL     OW22516   6.420   8.298   1.911 -0.5075 -0.3222  0.2522
 6499SOL    HW122517   6.438   8.218   1.861 -1.5080 -0.5520  0.2475
 6499SOL    HW222518   6.427   8.368   1.846  1.6218 -0.2516  0.5087
 6500SOL     OW22519   4.728   8.226   0.070 -0.5055  0.6232  0.0396
 6500SOL    HW122520   4.814   8.231   0.028  1.4258 -0.4133  3.6478
 6500SOL    HW222521   4.704   8.134   0.065 -0.2148  0.4742  1.2400
 6501SOL     OW22522   5.196   3.067   3.235  0.3371  0.0759 -0.1910
 6501SOL    HW122523   5.249   3.067   3.155 -1.0102  0.8614 -1.0987
 6501SOL    HW222524   5.193   3.159   3.261  0.7408 -0.1756  0.7429
 6502SOL     OW22525   2.677   5.410   1.269 -0.0908 -0.2168  0.2466
 6502SOL    HW122526   2.625   5.366   1.201  0.6156 -1.6045  0.5999
 6502SOL    HW222527   2.618   5.415   1.344  0.4117 -2.2212  0.8030
 6503SOL     OW22528   6.595   3.552   3.705 -0.6854 -0.2151  0.3712
 6503SOL    HW122529   6.686   3.524   3.719 -0.5068 -0.2434 -0.8194
 6503SOL    HW222530   6.599   3.647   3.710 -0.6962 -0.2365  0.8808
 6504SOL     OW22531   7.397   5.639   6.639  0.7045 -0.2585  0.0245
 6504SOL    HW122532   7.490   5.630   6.617  0.5753  0.0310 -0.6524
 6504SOL    HW222533   7.378   5.563   6.694  1.1084 -0.8225 -0.6067
 6505SOL     OW22534   6.481   4.710   1.715 -0.4559  0.1270 -0.1691
 6505SOL    HW122535   6.429   4.767   1.659  0.6922 -1.0307 -2.4807
 6505SOL    HW222536   6.500   4.634   1.661  0.9348 -0.9088  1.7168
 6506SOL     OW22537   9.069   8.968   0.071  0.5206  0.4308  0.5746
 6506SOL    HW122538   9.145   9.018   0.041 -1.6857  3.1528 -0.7517
 6506SOL    HW222539   9.065   8.986   0.165 -0.1305  2.6755  0.1467
 6507SOL     OW22540   2.839   3.223   4.306  0.1999  0.1482 -0.1804
 6507SOL    HW122541   2.870   3.313   4.318  1.8894 -0.3571 -0.6816
 6507SOL    HW222542   2.847   3.183   4.393 -0.5626  0.4776  0.0454
 6508SOL     OW22543   5.348   8.091   5.613  0.0988  0.1657 -0.5052
 6508SOL    HW122544   5.396   8.011   5.635  0.0811  0.3490  0.2189
 6508SOL    HW222545   5.258   8.073   5.637  0.0270  0.2673 -0.6984
 6509SOL     OW22546   6.092   2.645   2.333 -0.0455 -1.0278 -0.5269
 6509SOL    HW122547   6.050   2.637   2.418 -1.6999 -0.0806 -1.2077
 6509SOL    HW222548   6.019   2.666   2.273  0.9927 -2.2262 -2.2508
 6510SOL     OW22549   3.174   3.908   6.367 -0.1848 -0.5546 -0.6569
 6510SOL    HW122550   3.258   3.921   6.323 -0.9185  1.1852 -1.5644
 6510SOL    HW222551   3.115   3.969   6.325 -1.4137 -0.2810  1.4119
 6511SOL     OW22552   6.536   1.929   5.821  0.1420 -0.3078 -0.6574
 6511SOL    HW122553   6.542   1.888   5.734  0.7835  1.4850 -1.4864
 6511SOL    HW222554   6.488   2.010   5.806  0.3926  0.0951  0.6389
 6512SOL     OW22555   6.050   1.293   0.510 -0.5944  0.2014 -0.2852
 6512SOL    HW122556   5.978   1.357   0.515 -0.4489  0.6638 -3.1896
 6512SOL    HW222557   6.010   1.216   0.469 -0.0253 -0.4785  0.4279
 6513SOL     OW22558   0.328   5.066   0.044 -0.5957 -0.1058  0.6705
 6513SOL    HW122559   0.290   5.153   0.052  0.0198  0.1651  0.7061
 6513SOL    HW222560   0.257   5.006   0.067 -0.9850  0.3905  0.7613
 6514SOL     OW22561   0.142   3.374   6.120 -0.0391  0.4239  0.4725
 6514SOL    HW122562   0.079   3.401   6.053  1.4894  0.1117 -1.0956
 6514SOL    HW222563   0.127   3.280   6.130  0.8716  0.1452 -0.6638
 6515SOL     OW22564   3.617   8.278   5.886 -0.3151 -0.2621  0.2712
 6515SOL    HW122565   3.614   8.359   5.938 -0.3544  0.2794 -0.5643
 6515SOL    HW222566   3.638   8.308   5.797  2.8480 -1.4443  0.5408
 6516SOL     OW22567   3.658   0.497   4.695 -0.1274 -0.5356  0.0072
 6516SOL    HW122568   3.604   0.575   4.686  1.5580  0.6529 -0.0541
 6516SOL    HW222569   3.661   0.459   4.607 -0.0065 -0.0240 -0.2086
 6517SOL     OW22570   6.862   1.054   3.637 -0.6701  0.5040  0.0872
 6517SOL    HW122571   6.933   1.050   3.701  1.5542  1.0931 -2.2670
 6517SOL    HW222572   6.814   0.972   3.649 -0.5011  0.7603  2.7154
 6518SOL     OW22573   1.567   1.792   9.004 -0.2912  0.7322  0.1171
 6518SOL    HW122574   1.563   1.742   9.086 -1.7291 -1.1322 -1.0350
 6518SOL    HW222575   1.594   1.880   9.030 -0.7768  0.1738  2.5992
 6519SOL     OW22576   6.455   1.192   6.887  0.3555  0.3618 -0.1214
 6519SOL    HW122577   6.425   1.197   6.796  0.5187 -1.0173 -0.2528
 6519SOL    HW222578   6.374   1.185   6.938  0.2688  1.0362 -0.1539
 6520SOL     OW22579   6.756   6.655   3.609 -0.6015 -0.2026  0.0456
 6520SOL    HW122580   6.737   6.738   3.652 -1.6399 -0.7779  0.7355
 6520SOL    HW222581   6.693   6.594   3.647  1.6475 -1.8430  1.2222
 6521SOL     OW22582   7.525   4.108   9.245  0.5383 -0.3508 -0.2010
 6521SOL    HW122583   7.601   4.162   9.224 -0.9437  1.4705 -1.1177
 6521SOL    HW222584   7.484   4.152   9.319  0.2659 -1.2220  0.1746
 6522SOL     OW22585   5.341   2.440   8.665  0.2088 -0.0574  0.0472
 6522SOL    HW122586   5.410   2.479   8.720  0.2306  0.7982 -0.5778
 6522SOL    HW222587   5.389   2.403   8.591  0.0165  0.3898 -0.3023
 6523SOL     OW22588   0.530   1.088   3.813 -0.2315  0.9505  0.4368
 6523SOL    HW122589   0.548   1.092   3.719  2.3444  3.0485  0.9718
 6523SOL    HW222590   0.440   1.121   3.821 -0.3763  1.0091 -1.2456
 6524SOL     OW22591   2.846   3.291   6.865 -0.0846  0.5962 -0.3867
 6524SOL    HW122592   2.797   3.256   6.791 -1.8499  0.5394  0.7796
 6524SOL    HW222593   2.811   3.379   6.877  1.4414  1.2661 -0.7118
 6525SOL     OW22594   1.943   1.678   0.979 -0.0168 -0.0610 -0.2161
 6525SOL    HW122595   1.872   1.621   1.010 -1.2553  1.0966 -0.8561
 6525SOL    HW222596   2.020   1.651   1.030 -1.3049 -0.2381  1.6963
 6526SOL     OW22597   4.054   7.478   8.702  0.0487  0.4124  0.0910
 6526SOL    HW122598   4.121   7.413   8.722  0.7149  1.1041  0.1167
 6526SOL    HW222599   4.100   7.547   8.654 -0.4680  1.2589  0.7739
 6527SOL     OW22600   2.195   9.066   0.673  0.2409  0.1935  0.2549
 6527SOL    HW122601   2.272   9.019   0.705  1.1527  0.6071 -1.2508
 6527SOL    HW222602   2.231   9.141   0.625 -1.0074 -0.6450 -2.0936
 6528SOL     OW22603   9.033   6.048   5.742 -0.1704 -0.0223  0.3798
 6528SOL    HW122604   9.042   6.107   5.666 -0.2657 -0.4495  0.0371
 6528SOL    HW222605   8.952   6.001   5.726  0.1358 -0.5692  0.4326
 6529SOL     OW22606   2.178   7.717   6.231 -0.5480  0.3343  0.5420
 6529SOL    HW122607   2.245   7.683   6.289  0.0696 -0.0600 -0.3868
 6529SOL    HW222608   2.095   7.689   6.270 -0.1113 -0.5919  0.8004
 6530SOL     OW22609   2.377   1.950   3.269  0.8081 -0.1705  0.0535
 6530SOL    HW122610   2.338   1.894   3.335 -0.1825  0.0489 -0.3447
 6530SOL    HW222611   2.309   2.013   3.246  1.4867  0.4052 -0.4224
 6531SOL     OW22612   3.804   2.307   4.731  0.1463 -0.3521  0.3012
 6531SOL    HW122613   3.764   2.261   4.805  0.1544 -0.0223  0.5139
 6531SOL    HW222614   3.781   2.399   4.746 -2.2228 -0.5909 -1.5833
 6532SOL     OW22615   6.622   3.127   1.724 -0.3982 -0.6282 -0.6436
 6532SOL    HW122616   6.529   3.142   1.741 -0.3747  1.3369 -1.9854
 6532SOL    HW222617   6.662   3.124   1.810 -1.4736  0.2848 -0.0953
 6533SOL     OW22618   0.552   7.356   0.042 -0.3749 -0.3177  0.1471
 6533SOL    HW122619   0.606   7.432   0.019  0.5615 -0.9216  0.2987
 6533SOL    HW222620   0.470   7.370  -0.005 -0.6126  1.3058  0.9945
 6534SOL     OW22621   2.017   5.250   2.681  0.0493 -0.1342 -0.3727
 6534SOL    HW122622   2.087   5.263   2.617 -0.3700  1.1560 -0.5780
 6534SOL    HW222623   1.987   5.160   2.665  2.2892 -1.0552  0.3698
 6535SOL     OW22624   0.669   7.287   1.679 -0.2607 -0.3324 -0.0565
 6535SOL    HW122625   0.631   7.216   1.627 -0.3515 -0.7053  0.5195
 6535SOL    HW222626   0.603   7.357   1.676  0.3014  0.1643 -1.5482
 6536SOL     OW22627   6.511   3.560   7.820 -0.0889  0.7666  0.2323
 6536SOL    HW122628   6.581   3.588   7.762 -0.0931  1.6000  0.6178
 6536SOL    HW222629   6.521   3.615   7.898 -0.1771 -0.2219  0.9603
 6537SOL     OW22630   5.641   8.336   6.923  0.2023  0.0124 -0.2752
 6537SOL    HW122631   5.719   8.332   6.978  0.3048 -0.9236 -0.4855
 6537SOL    HW222632   5.675   8.343   6.834  0.0648 -1.0541 -0.4220
 6538SOL     OW22633   7.696   9.270   0.677  0.1308 -0.4801  0.1589
 6538SOL    HW122634   7.662   9.359   0.681  0.2713 -0.4212  0.0336
 6538SOL    HW222635   7.657   9.226   0.752 -2.4364 -1.2034 -1.5498
 6539SOL     OW22636   3.054   7.955   7.747  0.2489  0.3072  0.1909
 6539SOL    HW122637   3.051   8.017   7.821  1.5289  0.9048 -0.2541
 6539SOL    HW222638   2.963   7.924   7.739 -1.4689  5.4269 -2.3477
 6540SOL     OW22639   5.161   0.720   7.628  0.2071  0.4278  0.3586
 6540SOL    HW122640   5.254   0.713   7.652 -0.0035  1.9614  1.7243
 6540SOL    HW222641   5.159   0.696   7.535  2.2809  2.2864 -0.2315
 6541SOL     OW22642   0.026   3.057   6.585  0.5095 -0.0063 -0.2168
 6541SOL    HW122643  -0.045   3.121   6.592 -0.3364 -0.9976  0.3322
 6541SOL    HW222644   0.092   3.101   6.531  1.1696  2.4186  2.4108
 6542SOL     OW22645   6.507   0.655   7.704 -0.5729 -0.0390 -0.7713
 6542SOL    HW122646   6.586   0.652   7.759 -1.6455  0.0787  0.8200
 6542SOL    HW222647   6.474   0.565   7.705 -1.5435  0.3215  0.2045
 6543SOL     OW22648   6.368   4.887   7.338  0.5974  0.0004  0.6398
 6543SOL    HW122649   6.452   4.919   7.306 -0.0049  1.0089  0.0166
 6543SOL    HW222650   6.303   4.927   7.279 -0.3420 -0.4416  1.3530
 6544SOL     OW22651   4.972   7.190   2.965  0.5736 -0.1566 -0.3854
 6544SOL    HW122652   5.053   7.223   2.928  1.0938 -1.0664 -0.0590
 6544SOL    HW222653   4.985   7.194   3.060 -0.4060  1.2940 -0.2826
 6545SOL     OW22654   1.784   5.447   8.139  0.4303 -0.0533 -0.0867
 6545SOL    HW122655   1.856   5.407   8.188  2.0245  0.8418 -1.6402
 6545SOL    HW222656   1.736   5.373   8.102  0.9814 -0.6339  0.3506
 6546SOL     OW22657   8.762   0.128   7.939 -0.7298 -0.3396 -0.5959
 6546SOL    HW122658   8.856   0.111   7.945 -0.9330 -1.1865  0.3630
 6546SOL    HW222659   8.755   0.223   7.927  0.2365 -0.2115 -0.1616
 6547SOL     OW22660   3.524   2.743   0.155  0.4098  0.6250 -0.3649
 6547SOL    HW122661   3.478   2.712   0.234 -1.1823  0.1693 -1.4382
 6547SOL    HW222662   3.458   2.795   0.108  1.6270  1.6674 -0.9476
 6548SOL     OW22663   5.758   1.391   2.934  0.1738 -0.3435  0.2179
 6548SOL    HW122664   5.742   1.392   3.028 -0.6193 -0.5432  0.0926
 6548SOL    HW222665   5.688   1.446   2.897  0.1611 -0.7019 -0.2981
 6549SOL     OW22666   6.070   3.553   9.006 -0.7402 -0.1521 -0.3921
 6549SOL    HW122667   6.006   3.621   9.028 -1.6298 -0.9636 -0.4597
 6549SOL    HW222668   6.124   3.592   8.938  0.1611  1.3059  1.1267
 6550SOL     OW22669   1.604   8.939   6.390  0.6761 -0.2906  0.2189
 6550SOL    HW122670   1.587   8.934   6.484  1.1656  0.7965  0.3685
 6550SOL    HW222671   1.651   9.021   6.378 -1.1742  0.5845 -1.2620
 6551SOL     OW22672   5.619   4.372   2.807 -0.4692  0.2831 -0.3566
 6551SOL    HW122673   5.559   4.392   2.880 -1.9635 -0.2617 -1.4030
 6551SOL    HW222674   5.592   4.431   2.737  0.0178 -0.1843 -0.9459
 6552SOL     OW22675   0.371   2.175   6.309  0.0965  0.0329 -0.5334
 6552SOL    HW122676   0.443   2.124   6.343 -0.3998 -1.2020 -1.2996
 6552SOL    HW222677   0.294   2.119   6.319 -0.2665  0.1329 -2.4434
 6553SOL     OW22678   0.017   6.317   0.839  0.3860  0.2111  0.4005
 6553SOL    HW122679   0.040   6.316   0.932  0.7941 -1.7333  0.3144
 6553SOL    HW222680  -0.078   6.304   0.838  0.5176 -0.7848  0.5235
 6554SOL     OW22681   7.858   2.944   7.671 -0.3460 -0.4988  0.0699
 6554SOL    HW122682   7.806   2.997   7.732 -0.3097 -0.6397  0.2224
 6554SOL    HW222683   7.862   2.857   7.711 -1.1638 -0.8609 -0.6240
 6555SOL     OW22684   8.365   5.347   8.754  0.1279  0.3573 -0.5302
 6555SOL    HW122685   8.283   5.353   8.802  0.0855  2.6716 -0.8207
 6555SOL    HW222686   8.350   5.277   8.690  0.1278 -2.6555  2.6034
 6556SOL     OW22687   3.534   6.548   2.652  0.4701 -0.7581  0.0928
 6556SOL    HW122688   3.598   6.506   2.594  0.7758  1.0477 -0.9143
 6556SOL    HW222689   3.586   6.609   2.705 -0.2468 -0.1143  0.0579
 6557SOL     OW22690   6.882   5.470   3.176  0.1271  0.4394 -0.8740
 6557SOL    HW122691   6.956   5.431   3.131 -0.9391 -2.0328 -0.5593
 6557SOL    HW222692   6.822   5.496   3.106  0.1424  0.0537 -1.0320
 6558SOL     OW22693   4.826   2.004   1.357  0.6173  0.1962 -0.2625
 6558SOL    HW122694   4.784   1.987   1.273  1.0818  0.2060 -0.4974
 6558SOL    HW222695   4.900   2.060   1.336  2.8217 -2.6362 -0.3322
 6559SOL     OW22696   7.427   7.074   5.063  0.0445 -0.2236 -0.1289
 6559SOL    HW122697   7.458   6.986   5.086  2.1516  0.3151 -0.8738
 6559SOL    HW222698   7.467   7.131   5.128  0.5322  0.4662 -1.0320
 6560SOL     OW22699   3.462   2.415   4.574  0.2857 -0.0354  0.1687
 6560SOL    HW122700   3.429   2.372   4.494 -0.7820  0.3022  0.4141
 6560SOL    HW222701   3.544   2.456   4.547  0.3649 -0.6351 -0.5428
 6561SOL     OW22702   0.180   7.159   8.179  0.3189 -0.7111 -0.4106
 6561SOL    HW122703   0.185   7.226   8.110  0.5156 -0.1255  0.1702
 6561SOL    HW222704   0.267   7.120   8.181  0.2727 -0.8268 -0.5836
 6562SOL     OW22705   2.889   1.270   8.120 -0.2351 -0.5285 -0.4095
 6562SOL    HW122706   2.955   1.218   8.165 -1.5617 -0.9315  1.1351
 6562SOL    HW222707   2.906   1.360   8.146  1.6139 -0.2447 -2.5050
 6563SOL     OW22708   3.186   9.358   1.835  0.1747 -0.0469  0.7624
 6563SOL    HW122709   3.108   9.369   1.782 -0.8935  0.5966  2.4279
 6563SOL    HW222710   3.239   9.294   1.788 -0.6239  0.7151 -1.1866
 6564SOL     OW22711   9.175   3.918   1.344 -0.0553 -0.7463 -0.3811
 6564SOL    HW122712   9.261   3.960   1.340 -1.0069  1.9025  3.7815
 6564SOL    HW222713   9.135   3.936   1.258  1.7090  2.1666 -0.6508
 6565SOL     OW22714   6.121   2.196   1.735  0.1123 -0.1872  0.1843
 6565SOL    HW122715   6.207   2.239   1.738  0.9260 -1.7381 -0.6935
 6565SOL    HW222716   6.133   2.122   1.676 -1.2340 -1.7619  1.8463
 6566SOL     OW22717   6.328   6.592   2.360  0.3965  0.0911  0.1443
 6566SOL    HW122718   6.385   6.515   2.351 -0.3020 -0.2598 -1.4132
 6566SOL    HW222719   6.345   6.643   2.281  1.1234  1.7419  1.3443
 6567SOL     OW22720   6.820   8.874   2.129 -0.1453  0.3802 -0.5487
 6567SOL    HW122721   6.809   8.796   2.075  2.7199  0.3794 -1.2076
 6567SOL    HW222722   6.802   8.947   2.069  0.9894  0.3202 -0.9728
 6568SOL     OW22723   2.922   3.932   1.067 -0.6431 -0.8447  0.0378
 6568SOL    HW122724   2.880   3.981   0.996 -0.1908 -0.6569 -0.0993
 6568SOL    HW222725   2.876   3.961   1.146 -1.2267 -1.1391 -0.1852
 6569SOL     OW22726   0.370   6.703   8.841 -0.1716  0.7453  0.4559
 6569SOL    HW122727   0.281   6.700   8.805  0.1129  1.5905 -0.3537
 6569SOL    HW222728   0.427   6.682   8.767  0.3776  1.6787  0.5990
 6570SOL     OW22729   8.749   8.739   6.274 -0.0512  0.3831 -0.2128
 6570SOL    HW122730   8.821   8.687   6.311  1.2420  0.4368 -2.5407
 6570SOL    HW222731   8.709   8.782   6.349  1.8854 -0.2540  1.2226
 6571SOL     OW22732   1.147   7.343   6.179  0.0983  0.4337 -0.1374
 6571SOL    HW122733   1.097   7.394   6.243  0.3619 -0.0299  0.4485
 6571SOL    HW222734   1.228   7.392   6.167  1.3374 -0.9397  2.1195
 6572SOL     OW22735   1.293   2.549   7.399  0.1941  0.3342 -0.1002
 6572SOL    HW122736   1.313   2.535   7.491  0.0191  0.5454 -0.0324
 6572SOL    HW222737   1.275   2.642   7.391 -1.3213  0.0644 -0.0569
 6573SOL     OW22738   0.490   4.485   0.060  0.1779  0.8230  0.4213
 6573SOL    HW122739   0.514   4.467  -0.031  0.9102  1.4615  0.4844
 6573SOL    HW222740   0.461   4.400   0.094  0.4701  0.4544 -0.2383
 6574SOL     OW22741   0.442   5.916   6.073 -0.5461  0.2824  0.6153
 6574SOL    HW122742   0.446   5.939   5.980  0.6243 -1.4994  0.1952
 6574SOL    HW222743   0.500   5.979   6.115  0.3491 -0.0303 -0.1291
 6575SOL     OW22744   9.285   0.640   9.094 -0.5124 -0.4874 -0.0073
 6575SOL    HW122745   9.216   0.700   9.064 -1.3726 -1.2814  0.3711
 6575SOL    HW222746   9.238   0.562   9.123  0.4621 -0.5630  1.3935
 6576SOL     OW22747   0.165   3.631   7.705 -0.0635  0.0673 -0.1638
 6576SOL    HW122748   0.190   3.564   7.767 -1.2118  1.3681  1.7566
 6576SOL    HW222749   0.072   3.616   7.688  0.4204 -0.7925 -2.2533
 6577SOL     OW22750   2.504   6.852   2.810  0.1475 -0.5127  0.1841
 6577SOL    HW122751   2.543   6.814   2.732  1.5572  1.1358  0.0609
 6577SOL    HW222752   2.562   6.826   2.882  0.0622 -0.2277  0.3609
 6578SOL     OW22753   2.026   6.576   0.032 -0.6418 -0.3700  0.1464
 6578SOL    HW122754   2.114   6.600   0.002 -1.0265  0.8827  0.0153
 6578SOL    HW222755   1.967   6.628  -0.021 -1.4694 -1.0794  0.3609
 6579SOL     OW22756   1.520   2.016   7.054 -0.0454  0.0995 -0.1969
 6579SOL    HW122757   1.527   2.052   6.966  1.5164  1.2325  0.3641
 6579SOL    HW222758   1.485   1.928   7.042  1.2117 -0.1655 -2.0441
 6580SOL     OW22759   2.611   0.052   3.184  0.3755 -0.4976 -0.1815
 6580SOL    HW122760   2.546   0.053   3.114 -0.0857  0.5251  0.2505
 6580SOL    HW222761   2.563   0.020   3.261  0.4485  0.0107  0.0748
 6581SOL     OW22762   0.465   1.055   4.562 -0.2743 -0.9858  0.3483
 6581SOL    HW122763   0.462   0.987   4.496  0.0600  1.3421 -2.1376
 6581SOL    HW222764   0.373   1.081   4.573 -0.1823 -0.4145 -0.2284
 6582SOL     OW22765   3.936   0.439   5.135  0.1044 -0.0680 -0.6003
 6582SOL    HW122766   3.852   0.432   5.089  0.5232 -1.6104 -1.1489
 6582SOL    HW222767   3.922   0.509   5.199 -1.8641 -0.8560 -0.1317
 6583SOL     OW22768   6.525   0.775   8.846 -0.2678 -0.4807 -0.0150
 6583SOL    HW122769   6.509   0.859   8.802 -2.1917 -0.3132  0.9519
 6583SOL    HW222770   6.548   0.715   8.775 -0.3737  0.4874 -0.8959
 6584SOL     OW22771   8.799   8.603   9.208 -0.0858 -0.3090  0.4511
 6584SOL    HW122772   8.833   8.581   9.294  0.8993 -0.7859 -0.0563
 6584SOL    HW222773   8.864   8.662   9.170 -0.0154 -0.8884 -0.3554
 6585SOL     OW22774   0.595   0.132   7.899 -0.2444  0.1277 -0.3596
 6585SOL    HW122775   0.663   0.098   7.840 -0.2783 -2.0682  0.8265
 6585SOL    HW222776   0.644   0.177   7.967 -0.1069  0.7978 -0.8960
 6586SOL     OW22777   5.532   2.691   6.870 -0.1045 -0.3379 -0.1741
 6586SOL    HW122778   5.453   2.680   6.817  0.3015  0.0377 -0.8535
 6586SOL    HW222779   5.546   2.785   6.874  1.3985 -0.4697 -1.6824
 6587SOL     OW22780   3.836   1.780   2.463  0.6108  0.0615  0.2106
 6587SOL    HW122781   3.770   1.756   2.528  1.5552 -0.1949  1.0936
 6587SOL    HW222782   3.837   1.707   2.401 -2.6154  1.7658 -1.9963
 6588SOL     OW22783   1.236   0.902   7.199  0.1752  0.3874 -0.5164
 6588SOL    HW122784   1.242   0.967   7.269  0.7189  0.1882 -0.3725
 6588SOL    HW222785   1.149   0.863   7.209  0.1579  0.5314 -0.0999
 6589SOL     OW22786   8.058   3.338   4.247 -0.1304 -0.3259  0.4525
 6589SOL    HW122787   8.104   3.275   4.192 -1.0151 -0.8990  0.3801
 6589SOL    HW222788   7.990   3.288   4.291 -1.8217  0.8785 -0.7567
 6590SOL     OW22789   0.156   4.249   7.969  0.5283  0.3943 -0.4957
 6590SOL    HW122790   0.099   4.257   7.893  0.7814  1.3111 -0.5914
 6590SOL    HW222791   0.177   4.156   7.974  1.1612  0.4390 -2.0359
 6591SOL     OW22792   1.658   8.329   0.801  0.4557 -0.2077  0.0495
 6591SOL    HW122793   1.715   8.403   0.777 -1.2417  0.7263 -1.2010
 6591SOL    HW222794   1.655   8.275   0.722 -0.7041 -0.0412 -0.0249
 6592SOL     OW22795   2.062   6.121   9.408 -0.4559 -0.2699  0.3876
 6592SOL    HW122796   1.978   6.078   9.425  0.4879 -2.2629  0.1971
 6592SOL    HW222797   2.087   6.092   9.320  1.2979 -1.2360  1.1599
 6593SOL     OW22798   9.172   5.211   5.457 -0.2817 -1.1185  0.0452
 6593SOL    HW122799   9.266   5.220   5.439 -0.7983  2.4751 -1.3732
 6593SOL    HW222800   9.159   5.253   5.541 -0.8331 -0.1652 -0.5056
 6594SOL     OW22801   7.550   8.875   1.201 -0.4531 -0.3144  0.1143
 6594SOL    HW122802   7.541   8.780   1.193 -1.3739 -0.1885 -0.3231
 6594SOL    HW222803   7.529   8.909   1.115  1.3664  0.1996 -0.1520
 6595SOL     OW22804   8.640   4.144   9.062 -0.1503 -0.0083 -0.4799
 6595SOL    HW122805   8.610   4.146   8.971  0.4940  0.5360 -0.6914
 6595SOL    HW222806   8.657   4.236   9.083  0.5484 -0.2169 -0.0987
 6596SOL     OW22807   3.088   7.354   9.251  0.0122  0.5291  0.2870
 6596SOL    HW122808   3.015   7.408   9.283 -0.5345  0.2711 -0.5043
 6596SOL    HW222809   3.145   7.342   9.327 -0.1771  1.7146  0.6205
 6597SOL     OW22810   4.344   7.688   4.117 -0.2625  0.1665  0.2505
 6597SOL    HW122811   4.354   7.779   4.144 -0.1175  0.4494 -0.7312
 6597SOL    HW222812   4.333   7.640   4.198 -0.9523  1.1412  0.7492
 6598SOL     OW22813   3.292   1.760   6.684 -0.4700 -0.1183  0.2541
 6598SOL    HW122814   3.309   1.670   6.658 -2.0422 -0.5801  0.7865
 6598SOL    HW222815   3.233   1.753   6.758 -1.6996  1.3844 -0.5560
 6599SOL     OW22816   1.919   9.111   6.758 -0.1126 -0.2273  0.5423
 6599SOL    HW122817   1.991   9.171   6.779  0.3658 -0.5141 -0.2432
 6599SOL    HW222818   1.943   9.074   6.673  0.1135 -2.3418  1.5219
 6600SOL     OW22819   0.322   3.238   7.943 -0.5185  0.0135  0.1213
 6600SOL    HW122820   0.387   3.249   8.012 -0.1824 -0.9546 -0.0403
 6600SOL    HW222821   0.363   3.278   7.866 -1.0408  1.4175  0.5514
 6601SOL     OW22822   3.313   2.962   8.827  0.0986  0.2360 -0.1080
 6601SOL    HW122823   3.337   3.018   8.754 -0.4421 -0.2213 -0.6459
 6601SOL    HW222824   3.352   3.004   8.904 -0.4052  1.4120 -0.4870
 6602SOL     OW22825   0.701   5.779   2.437 -0.2152 -0.3469 -0.5546
 6602SOL    HW122826   0.606   5.781   2.448 -0.3425 -1.7601 -1.2702
 6602SOL    HW222827   0.736   5.806   2.522 -1.2432 -1.2756  0.1763
 6603SOL     OW22828   7.328   4.499   8.675 -0.3383 -0.4484 -0.7873
 6603SOL    HW122829   7.257   4.445   8.640 -0.2661 -0.8550 -0.3091
 6603SOL    HW222830   7.388   4.509   8.601 -0.4596 -0.8486 -0.9438
 6604SOL     OW22831   6.634   5.178   1.202  0.6084  0.0850 -0.2604
 6604SOL    HW122832   6.635   5.211   1.112 -0.0107 -1.4517 -0.8561
 6604SOL    HW222833   6.557   5.217   1.242  0.3615  0.0348 -0.6887
 6605SOL     OW22834   7.122   7.699   2.207  0.0242 -0.2860 -0.1765
 6605SOL    HW122835   7.093   7.609   2.219  1.5722 -0.7691  0.0460
 6605SOL    HW222836   7.052   7.752   2.245 -0.8664 -1.3899 -0.2516
 6606SOL     OW22837   2.735   8.619   4.099 -0.3949 -0.3570 -0.2671
 6606SOL    HW122838   2.747   8.525   4.087  1.1626 -0.0883 -0.9754
 6606SOL    HW222839   2.802   8.659   4.043 -0.5900  1.1499  0.5506
 6607SOL     OW22840   3.996   4.118   8.239 -0.7659 -0.5004 -0.5327
 6607SOL    HW122841   4.088   4.106   8.263 -0.7534 -2.9468 -1.6937
 6607SOL    HW222842   3.949   4.119   8.323  0.0877 -1.3868 -0.0483
 6608SOL     OW22843   1.374   3.156   2.850  0.2653 -0.5180  0.2904
 6608SOL    HW122844   1.399   3.066   2.828  0.2319 -0.5293  0.2992
 6608SOL    HW222845   1.439   3.183   2.915 -1.5789 -1.6463  2.6988
 6609SOL     OW22846   2.366   5.771   8.133  0.9965 -0.9399  0.0549
 6609SOL    HW122847   2.379   5.866   8.123 -1.4799 -0.2475  2.6018
 6609SOL    HW222848   2.271   5.761   8.136  1.2097 -3.6624 -1.1971
 6610SOL     OW22849   0.855   3.032   2.426  0.2572  0.2545  0.6769
 6610SOL    HW122850   0.888   3.012   2.339 -2.1797 -0.5008 -0.1236
 6610SOL    HW222851   0.873   3.125   2.438  1.8502  0.0484 -0.0601
 6611SOL     OW22852   3.126   2.788   1.705 -0.0087  0.0463 -0.7903
 6611SOL    HW122853   3.033   2.768   1.719  0.3687 -1.9378 -0.8750
 6611SOL    HW222854   3.137   2.783   1.610 -0.0557  1.4745 -0.8762
 6612SOL     OW22855   3.398   4.666   2.745 -0.1205 -0.1603 -0.0571
 6612SOL    HW122856   3.399   4.725   2.820 -3.3272 -0.4589  0.3006
 6612SOL    HW222857   3.449   4.712   2.678  2.1135  0.4708  2.0034
 6613SOL     OW22858   0.241   2.424   6.035  0.4500  0.1313  0.3251
 6613SOL    HW122859   0.187   2.500   6.055  0.1730  0.1850 -0.5908
 6613SOL    HW222860   0.293   2.451   5.959  2.6076  0.4988  1.8711
 6614SOL     OW22861   3.410   1.377   2.627  0.0168  0.1229  0.3107
 6614SOL    HW122862   3.321   1.408   2.612  0.0559 -0.0233 -0.2570
 6614SOL    HW222863   3.399   1.290   2.666 -0.1010 -0.7452 -1.5998
 6615SOL     OW22864   9.402   4.995   2.992  0.1577 -0.0926 -0.2768
 6615SOL    HW122865   9.331   5.048   2.954 -1.5162  0.0708  2.8693
 6615SOL    HW222866   9.407   4.918   2.937 -2.2894  0.0523 -0.7583
 6616SOL     OW22867   1.035   4.111   8.870  0.1391  0.1085 -0.2182
 6616SOL    HW122868   1.069   4.114   8.959  1.4280 -0.3440 -0.6771
 6616SOL    HW222869   1.050   4.199   8.835 -0.4517  0.3126  0.0478
 6617SOL     OW22870   4.343   4.117   0.952 -0.0474  0.6187  0.6337
 6617SOL    HW122871   4.418   4.108   1.011 -0.0659 -0.6958  0.4766
 6617SOL    HW222872   4.331   4.212   0.942  2.6381  0.8472 -0.6869
 6618SOL     OW22873   9.201   1.065   6.331  0.1324 -0.3549 -0.1399
 6618SOL    HW122874   9.150   1.020   6.399  0.7699 -1.2901 -0.2705
 6618SOL    HW222875   9.277   1.100   6.378  0.2460 -0.4455 -0.2571
 6619SOL     OW22876   8.393   5.266   3.633 -0.2519  0.1276  0.3765
 6619SOL    HW122877   8.478   5.296   3.667 -0.3573  0.1843  0.5944
 6619SOL    HW222878   8.329   5.312   3.686 -0.4328  0.8280 -0.4467
 6620SOL     OW22879   3.775   7.446   8.684 -0.1105  0.2780  0.5091
 6620SOL    HW122880   3.766   7.443   8.589 -0.3228 -0.8624  0.5596
 6620SOL    HW222881   3.864   7.477   8.699 -0.1730  0.7322 -0.0590
 6621SOL     OW22882   6.681   8.229   6.633  0.3219  0.4762  0.1439
 6621SOL    HW122883   6.762   8.250   6.680  0.7929 -0.3605 -0.2857
 6621SOL    HW222884   6.650   8.313   6.601  1.5577  0.6837 -0.5479
 6622SOL     OW22885   3.267   5.832   0.574  0.3712 -0.1849  0.1039
 6622SOL    HW122886   3.312   5.753   0.604  1.6683  0.7299  0.6263
 6622SOL    HW222887   3.254   5.818   0.480  2.1457 -0.3000 -0.1426
 6623SOL     OW22888   4.577   0.890   3.995 -0.0809  0.3821 -0.2641
 6623SOL    HW122889   4.581   0.981   4.026 -2.1289  1.0516 -1.8373
 6623SOL    HW222890   4.525   0.895   3.915 -1.3167 -2.3788  0.3205
 6624SOL     OW22891   0.609   1.937   0.518 -0.4600 -0.0931  0.1037
 6624SOL    HW122892   0.514   1.931   0.528 -0.6607  1.3941 -0.6573
 6624SOL    HW222893   0.628   1.894   0.435 -0.3338 -1.3771  0.8005
 6625SOL     OW22894   0.870   5.767   3.723  0.1808 -0.8708 -0.1129
 6625SOL    HW122895   0.898   5.841   3.777  1.4267 -0.6188 -1.0789
 6625SOL    HW222896   0.809   5.719   3.778  1.3860 -0.6042  1.4950
 6626SOL     OW22897   4.106   4.990   9.066 -0.0527 -0.0213 -0.7230
 6626SOL    HW122898   4.179   5.038   9.105  0.4268 -0.7814 -0.6607
 6626SOL    HW222899   4.032   5.007   9.124  0.8334 -1.7543  0.9921
 6627SOL     OW22900   1.480   3.408   9.048  0.2903 -0.2765  0.5604
 6627SOL    HW122901   1.476   3.485   8.992 -0.1261 -1.2672 -0.7965
 6627SOL    HW222902   1.502   3.442   9.135 -0.6365  1.4275  0.1341
 6628SOL     OW22903   2.002   3.658   2.382  0.1084 -0.2017 -0.2411
 6628SOL    HW122904   1.997   3.672   2.476  0.8604 -0.2465 -0.1896
 6628SOL    HW222905   1.961   3.735   2.343 -2.5016 -1.3372  0.1516
 6629SOL     OW22906   8.215   3.047   5.269  0.6779 -0.6188 -0.2714
 6629SOL    HW122907   8.208   3.141   5.251 -0.2817  0.1343  3.4203
 6629SOL    HW222908   8.309   3.030   5.274  0.8495  0.4203  0.1612
 6630SOL     OW22909   7.674   6.268   9.295 -0.0897  0.1710  0.1259
 6630SOL    HW122910   7.613   6.234   9.229  0.5874 -0.0546 -0.3989
 6630SOL    HW222911   7.619   6.290   9.370 -0.5959 -1.8580  0.3941
 6631SOL     OW22912   1.530   7.539   5.811 -0.2935  0.1283 -0.3897
 6631SOL    HW122913   1.582   7.602   5.762  3.2574 -2.0059  0.4363
 6631SOL    HW222914   1.537   7.458   5.760 -2.0703 -0.4520  0.2453
 6632SOL     OW22915   2.701   1.965   8.111  0.6466  0.4308  0.1244
 6632SOL    HW122916   2.695   1.995   8.202  1.8347 -0.7401  0.6029
 6632SOL    HW222917   2.785   1.920   8.107 -0.4933 -1.6403 -0.9485
 6633SOL     OW22918   0.778   1.010   8.019 -0.1844 -0.0232 -0.6469
 6633SOL    HW122919   0.818   0.963   8.092 -3.2734  0.4984  1.5151
 6633SOL    HW222920   0.746   0.942   7.960 -1.6566 -0.6429  0.7976
 6634SOL     OW22921   5.112   3.089   5.346 -0.4886 -0.2708 -0.9080
 6634SOL    HW122922   5.105   3.181   5.371  0.6012  0.0751 -1.8485
 6634SOL    HW222923   5.041   3.046   5.394 -1.1775  1.0977 -0.6808
 6635SOL     OW22924   8.443   7.546   6.050  0.3642 -0.0456 -0.3916
 6635SOL    HW122925   8.410   7.620   6.000  0.2655  0.5074  0.4715
 6635SOL    HW222926   8.398   7.470   6.014 -1.9447  0.7079  0.8269
 6636SOL     OW22927   5.428   5.340   0.905  0.0163 -0.0613 -0.2353
 6636SOL    HW122928   5.483   5.408   0.866  0.9037 -0.4618  0.2922
 6636SOL    HW222929   5.489   5.268   0.924 -0.5935 -0.2814  0.9111
 6637SOL     OW22930   1.467   5.769   7.788  0.3894  0.3166 -0.1852
 6637SOL    HW122931   1.517   5.690   7.809 -2.0090 -1.1928  0.0412
 6637SOL    HW222932   1.524   5.819   7.730  1.8903 -1.6641 -0.4749
 6638SOL     OW22933   5.237   1.513   2.709 -0.5489 -0.4836 -0.0719
 6638SOL    HW122934   5.278   1.457   2.775  0.6146  1.5989  1.0617
 6638SOL    HW222935   5.154   1.539   2.749 -0.1391  0.2535  0.3174
 6639SOL     OW22936   7.823   7.271   3.091  0.0371  0.2668 -0.1954
 6639SOL    HW122937   7.878   7.201   3.057  1.1044  1.1558 -0.3461
 6639SOL    HW222938   7.757   7.226   3.144 -0.1498 -0.9402 -1.4305
 6640SOL     OW22939   4.642   3.086   2.202  0.0311 -0.2000  0.2396
 6640SOL    HW122940   4.581   3.142   2.249 -0.6456  0.9528 -1.9356
 6640SOL    HW222941   4.597   3.002   2.194  0.1267 -0.3818  1.5751
 6641SOL     OW22942   0.929   4.443   8.859 -0.1844 -0.1095  0.2755
 6641SOL    HW122943   0.889   4.424   8.774 -0.7624  0.8746  0.3196
 6641SOL    HW222944   0.878   4.516   8.894  0.9403  0.4357  0.8244
 6642SOL     OW22945   1.490   5.632   0.061  0.3332 -0.2525 -0.5080
 6642SOL    HW122946   1.512   5.691  -0.011  1.2293  2.4109  1.8332
 6642SOL    HW222947   1.572   5.585   0.080  0.4685  0.0349 -0.3690
 6643SOL     OW22948   8.740   6.303   3.330 -0.1787  0.0808 -0.2830
 6643SOL    HW122949   8.708   6.282   3.418  0.4370 -0.8770 -0.2870
 6643SOL    HW222950   8.791   6.383   3.341 -0.2718  0.0715  0.1992
 6644SOL     OW22951   0.094   7.925   2.464 -0.1887 -0.0593  0.5519
 6644SOL    HW122952   0.152   7.952   2.393 -0.1645  0.6529  0.8390
 6644SOL    HW222953   0.132   7.844   2.496  1.2512  0.9451  1.4193
 6645SOL     OW22954   9.277   5.636   6.721  0.3952  0.4171 -0.7337
 6645SOL    HW122955   9.248   5.660   6.808  2.3480  2.2389 -0.5411
 6645SOL    HW222956   9.364   5.674   6.713  0.4719 -0.1713 -3.2814
 6646SOL     OW22957   0.264   7.037   5.852  0.4781 -0.0759 -0.1034
 6646SOL    HW122958   0.170   7.055   5.847  0.4657  0.3007  1.1990
 6646SOL    HW222959   0.301   7.078   5.774 -0.2126  1.3382  0.3025
 6647SOL     OW22960   1.514   6.117   1.097 -0.2015 -0.3536  0.5822
 6647SOL    HW122961   1.579   6.098   1.165  0.5957 -0.3669 -0.1632
 6647SOL    HW222962   1.528   6.049   1.031 -0.2751  0.2481 -0.0660
 6648SOL     OW22963   6.587   7.731   6.415 -0.4019 -0.4791 -0.1572
 6648SOL    HW122964   6.583   7.810   6.469  0.7633  0.2082 -1.0641
 6648SOL    HW222965   6.552   7.662   6.472 -1.0538  0.6027  0.7798
 6649SOL     OW22966   4.004   8.404   0.353  0.1866 -0.0574 -0.1675
 6649SOL    HW122967   3.941   8.372   0.288  1.6286 -0.0404 -1.6103
 6649SOL    HW222968   4.079   8.432   0.301  1.0685  0.6747  1.4754
 6650SOL     OW22969   7.871   5.767   8.544 -0.1786 -0.4809 -0.1278
 6650SOL    HW122970   7.804   5.727   8.489  0.4689 -0.2488 -1.0962
 6650SOL    HW222971   7.950   5.715   8.528  0.4992  0.7604 -0.8862
 6651SOL     OW22972   7.260   0.251   3.212 -0.1830 -0.0924 -0.4219
 6651SOL    HW122973   7.260   0.294   3.127 -0.2220 -0.1933 -0.4714
 6651SOL    HW222974   7.268   0.158   3.193 -1.0184 -0.1798 -0.3414
 6652SOL     OW22975   8.293   9.148   8.571 -0.3430 -0.0945  0.4858
 6652SOL    HW122976   8.244   9.205   8.510  0.1454 -1.1045 -0.8859
 6652SOL    HW222977   8.279   9.187   8.657  0.2996  2.3433 -0.4609
 6653SOL     OW22978   0.101   1.308   9.310  0.2063 -0.0696  0.2681
 6653SOL    HW122979   0.005   1.307   9.315  0.2749  1.0549  2.8667
 6653SOL    HW222980   0.129   1.334   9.398  2.9363 -1.2196 -0.2169
 6654SOL     OW22981   1.746   7.217   5.287 -0.0261  0.3522  0.3209
 6654SOL    HW122982   1.836   7.243   5.273  0.1242 -0.5512 -0.4476
 6654SOL    HW222983   1.749   7.165   5.368  0.1028  0.5039  0.4148
 6655SOL     OW22984   2.403   2.685   1.982  0.0659  0.1026  0.7221
 6655SOL    HW122985   2.446   2.625   1.921  0.4817  0.3315  0.7883
 6655SOL    HW222986   2.464   2.759   1.990 -0.7588  0.8592  0.0867
 6656SOL     OW22987   5.212   4.363   2.927 -0.2806 -0.2830  0.3122
 6656SOL    HW122988   5.131   4.343   2.973  1.1581 -1.6425  2.3506
 6656SOL    HW222989   5.243   4.278   2.895  1.4017 -0.0862  1.3660
 6657SOL     OW22990   5.582   7.385   5.018 -0.4215 -0.2025 -0.2758
 6657SOL    HW122991   5.572   7.292   4.999  1.7395 -0.1530 -1.8037
 6657SOL    HW222992   5.554   7.429   4.937  0.9459  0.3630 -0.4512
 6658SOL     OW22993   7.210   2.509   4.174 -0.7198 -0.6425 -0.2013
 6658SOL    HW122994   7.142   2.446   4.150 -0.8806 -0.6915  0.3948
 6658SOL    HW222995   7.281   2.490   4.112 -1.5835  0.0069 -1.4248
 6659SOL     OW22996   0.977   1.203   2.775 -0.1434 -0.7296  0.2888
 6659SOL    HW122997   0.890   1.217   2.738 -0.8462 -0.8167  1.8503
 6659SOL    HW222998   1.037   1.240   2.710 -1.3180 -0.9182 -0.9376
 6660SOL     OW22999   7.167   4.085   5.096  0.0073  0.3035  0.0942
 6660SOL    HW123000   7.121   4.074   5.179 -0.0717 -0.8415 -0.0875
 6660SOL    HW223001   7.115   4.034   5.034 -0.5970  2.1070 -0.9148
 6661SOL     OW23002   1.898   8.256   0.167  0.0305  0.4051 -0.1438
 6661SOL    HW123003   1.880   8.212   0.085 -1.7286  0.2711  0.2999
 6661SOL    HW223004   1.888   8.188   0.234  1.6066  0.4714  0.1740
 6662SOL     OW23005   2.308   0.097   1.082  1.0374 -0.1186 -0.3184
 6662SOL    HW123006   2.340   0.186   1.098  0.6165 -0.0909  0.3576
 6662SOL    HW223007   2.229   0.109   1.030  0.8491 -0.0911 -0.0230
 6663SOL     OW23008   4.394   3.333   6.197  0.3202 -0.1823  0.2007
 6663SOL    HW123009   4.415   3.302   6.109  1.1298 -0.2523  0.4082
 6663SOL    HW223010   4.366   3.255   6.244  1.2486 -0.4072  0.3969
 6664SOL     OW23011   4.972   8.501   9.433  0.0980  0.0319  0.5848
 6664SOL    HW123012   4.956   8.428   9.373  0.8268  0.7904 -0.5542
 6664SOL    HW223013   4.957   8.464   9.520  1.5661 -1.7836  0.1040
 6665SOL     OW23014   1.784   4.280   1.074 -0.5978  0.2754  0.4515
 6665SOL    HW123015   1.871   4.320   1.064 -0.0110 -1.0368  0.2273
 6665SOL    HW223016   1.729   4.351   1.107  0.2191  1.5191 -0.7684
 6666SOL     OW23017   2.062   0.064   3.083 -0.3661  0.6175 -0.5415
 6666SOL    HW123018   2.024  -0.018   3.052 -0.5000 -0.0554  1.3742
 6666SOL    HW223019   2.031   0.073   3.173  1.4539  1.6444  0.0134
 6667SOL     OW23020   0.092   3.216   5.125  0.1160  0.3292 -0.4657
 6667SOL    HW123021   0.179   3.184   5.150 -0.0279 -1.0978 -1.7224
 6667SOL    HW223022   0.096   3.311   5.142  1.3308  0.0304  1.0958
 6668SOL     OW23023   1.074   6.636   8.187 -0.2619 -0.5089  0.2242
 6668SOL    HW123024   1.050   6.606   8.099 -0.9462 -1.3842  0.6949
 6668SOL    HW223025   1.046   6.727   8.189 -2.2688 -1.1025  0.2597
 6669SOL     OW23026   4.179   0.599   4.121  0.0665 -0.5605 -0.0388
 6669SOL    HW123027   4.248   0.554   4.170  0.2458 -0.3652 -0.1121
 6669SOL    HW223028   4.165   0.544   4.044 -0.4164 -1.0237  0.3743
 6670SOL     OW23029   3.920   2.347   6.360  0.1399  0.5908 -0.2710
 6670SOL    HW123030   3.851   2.398   6.317 -0.5548 -0.2403 -0.1506
 6670SOL    HW223031   3.887   2.258   6.361  0.5917  0.4278  1.0940
 6671SOL     OW23032   6.997   0.669   1.081 -0.1635 -0.3576  0.4717
 6671SOL    HW123033   6.980   0.589   1.131 -0.8222  0.5513  1.7323
 6671SOL    HW223034   6.935   0.733   1.116 -0.1731  0.4924 -1.0537
 6672SOL     OW23035   1.048   1.087   1.488 -0.3315 -0.2269  0.3650
 6672SOL    HW123036   1.133   1.124   1.465 -1.2898  1.6127 -0.3810
 6672SOL    HW223037   0.994   1.163   1.512 -2.0974 -1.2170 -0.3239
 6673SOL     OW23038   1.425   0.746   0.055  0.2235  0.0788 -0.5408
 6673SOL    HW123039   1.473   0.711   0.131  1.2414 -0.6139 -1.4943
 6673SOL    HW223040   1.489   0.799   0.008 -0.5729  0.9968 -0.6014
 6674SOL     OW23041   3.029   8.562   5.379  0.0412  0.2384 -0.3690
 6674SOL    HW123042   3.017   8.642   5.430 -2.9185  0.2229 -0.9372
 6674SOL    HW223043   2.976   8.497   5.424  2.8789 -1.6102  0.4104
 6675SOL     OW23044   0.258   6.494   1.369  0.3676  0.1550 -0.1000
 6675SOL    HW123045   0.325   6.549   1.410 -0.6675  2.0949 -0.9481
 6675SOL    HW223046   0.277   6.500   1.275 -0.5098  0.0630 -0.2839
 6676SOL     OW23047   8.384   8.589   7.357 -0.7268  0.2775 -0.3892
 6676SOL    HW123048   8.364   8.683   7.346 -0.8698  0.5750  2.1860
 6676SOL    HW223049   8.458   8.587   7.418 -1.1670 -1.3173  0.1128
 6677SOL     OW23050   8.676   2.373   6.380  0.3093 -0.6726 -0.1046
 6677SOL    HW123051   8.660   2.291   6.332  0.9205 -0.7258 -0.2307
 6677SOL    HW223052   8.670   2.348   6.472 -0.7075 -0.6048 -0.1575
 6678SOL     OW23053   3.055   6.121   6.843 -0.1157 -0.0609 -0.9977
 6678SOL    HW123054   3.116   6.105   6.772  0.7884 -0.8460 -0.0584
 6678SOL    HW223055   3.110   6.145   6.917 -1.0588  0.9119 -0.6092
 6679SOL     OW23056   2.510   1.677   4.692 -0.1746 -0.1320  1.0579
 6679SOL    HW123057   2.480   1.588   4.714 -1.0591  0.2642  1.4975
 6679SOL    HW223058   2.595   1.685   4.734  1.9120 -2.2684 -2.4785
 6680SOL     OW23059   4.692   3.806   9.288  0.1146  0.1737 -0.0306
 6680SOL    HW123060   4.604   3.814   9.251  0.6957  0.4150 -1.3897
 6680SOL    HW223061   4.741   3.878   9.250  1.1837 -0.5787 -0.1041
 6681SOL     OW23062   2.389   8.206   0.129  0.4434  0.5919 -0.1527
 6681SOL    HW123063   2.330   8.146   0.174 -0.0156  0.0500 -1.4340
 6681SOL    HW223064   2.370   8.292   0.168 -2.0576  0.6279 -1.3338
 6682SOL     OW23065   7.158   7.931   7.299  0.3859 -0.2801  0.6141
 6682SOL    HW123066   7.068   7.900   7.296  0.4468 -0.4643  0.6654
 6682SOL    HW223067   7.175   7.966   7.212 -0.2927  1.3446  1.1151
 6683SOL     OW23068   4.936   3.213   4.752  0.4607  0.3323 -0.0994
 6683SOL    HW123069   4.913   3.241   4.841 -0.4305 -3.3676  0.9123
 6683SOL    HW223070   5.024   3.176   4.761  0.9165  1.1467 -1.0587
 6684SOL     OW23071   6.035   5.083   3.056 -0.1374 -0.3044  0.1252
 6684SOL    HW123072   6.006   5.127   2.976  1.5309  0.5123 -0.0595
 6684SOL    HW223073   6.017   4.990   3.040  2.4143 -0.4634 -2.2567
 6685SOL     OW23074   4.012   2.784   8.278 -0.5258 -0.4482 -0.6756
 6685SOL    HW123075   4.029   2.821   8.365  0.7371 -1.1268 -0.6213
 6685SOL    HW223076   4.067   2.706   8.275 -1.3426 -0.9918 -1.7039
 6686SOL     OW23077   1.325   1.854   7.600  0.2294  0.3718 -0.9771
 6686SOL    HW123078   1.394   1.916   7.576  1.1212  0.0465  0.7134
 6686SOL    HW223079   1.370   1.770   7.604 -0.5325 -0.0399 -1.0717
 6687SOL     OW23080   6.207   2.378   2.683 -0.1660 -0.2556  0.2163
 6687SOL    HW123081   6.202   2.298   2.632 -0.3274  0.6257 -1.1813
 6687SOL    HW223082   6.140   2.435   2.645  1.7003  1.4995 -0.5361
 6688SOL     OW23083   3.503   1.546   6.168  0.1205  0.1472 -0.4570
 6688SOL    HW123084   3.446   1.484   6.213  1.7685 -1.2249 -0.2418
 6688SOL    HW223085   3.443   1.613   6.135 -1.4048 -0.3035  1.3407
 6689SOL     OW23086   5.805   3.790   0.437  0.1720 -0.2879 -0.5963
 6689SOL    HW123087   5.713   3.765   0.449  0.4682 -0.3594  1.7930
 6689SOL    HW223088   5.829   3.752   0.353 -1.6251 -1.3497 -0.6729
 6690SOL     OW23089   4.298   0.569   8.101  0.1954  0.7634 -0.0510
 6690SOL    HW123090   4.363   0.502   8.123 -2.2112 -1.2668  1.1868
 6690SOL    HW223091   4.290   0.564   8.005  2.1690  1.3766 -0.2688
 6691SOL     OW23092   5.786   0.658   0.251  0.2901 -0.5043 -0.0622
 6691SOL    HW123093   5.748   0.745   0.237 -0.8117 -1.1845 -1.4974
 6691SOL    HW223094   5.734   0.600   0.195  0.8891 -2.1204  1.0112
 6692SOL     OW23095   2.430   3.660   6.513 -0.3163 -0.0117  0.6899
 6692SOL    HW123096   2.377   3.679   6.436 -2.3131 -0.3730  1.9107
 6692SOL    HW223097   2.460   3.745   6.544  2.3135 -0.0243 -1.6816
 6693SOL     OW23098   4.824   1.408   4.893 -0.2220 -0.2277  0.0853
 6693SOL    HW123099   4.857   1.324   4.926 -0.7555 -0.0761  1.0337
 6693SOL    HW223100   4.767   1.440   4.963  1.7429  2.0137  0.7124
 6694SOL     OW23101   4.354   6.121   5.879  0.3591 -0.0144 -0.0160
 6694SOL    HW123102   4.435   6.158   5.915  1.1264 -1.1580 -0.5416
 6694SOL    HW223103   4.357   6.028   5.902 -1.2678  0.1127  0.7707
 6695SOL     OW23104   9.299   0.770   6.542 -0.1472 -0.3483  0.3630
 6695SOL    HW123105   9.219   0.818   6.563 -0.7431 -0.6370 -1.1927
 6695SOL    HW223106   9.273   0.678   6.544  0.5272 -0.5361  1.3530
 6696SOL     OW23107   4.616   7.333   8.901 -0.3374 -0.8249  0.3898
 6696SOL    HW123108   4.566   7.381   8.835  2.4912  0.9060 -0.5863
 6696SOL    HW223109   4.638   7.399   8.967  2.0717 -1.1455 -0.0528
 6697SOL     OW23110   7.549   6.307   8.233  0.2649  0.3218  0.6937
 6697SOL    HW123111   7.609   6.259   8.176  0.7616  0.7428  0.8478
 6697SOL    HW223112   7.503   6.240   8.282 -0.7364 -0.0809 -0.7557
 6698SOL     OW23113   1.020   7.502   6.380  0.2615  0.2828 -0.5762
 6698SOL    HW123114   0.986   7.424   6.423 -0.6668  0.7092 -0.5256
 6698SOL    HW223115   0.964   7.573   6.411  1.3129  1.0237 -0.3598
 6699SOL     OW23116   1.444   8.538   8.805 -0.1765 -0.3490 -0.1233
 6699SOL    HW123117   1.385   8.485   8.750  1.2524 -2.3446  0.2157
 6699SOL    HW223118   1.504   8.474   8.843  0.8592  1.4147  1.2384
 6700SOL     OW23119   2.732   4.561   5.392  0.5060  0.6697  0.2250
 6700SOL    HW123120   2.777   4.549   5.309  0.5029  2.2588 -0.0223
 6700SOL    HW223121   2.656   4.615   5.371 -1.1776 -1.3975  0.7497
 6701SOL     OW23122   1.733   5.080   0.338 -0.4227 -0.3827  0.3982
 6701SOL    HW123123   1.732   5.039   0.251 -1.1603  0.5037 -0.0212
 6701SOL    HW223124   1.790   5.156   0.327  0.6489 -1.0860  1.0775
 6702SOL     OW23125   9.298   1.808   5.400 -0.0271 -0.7690 -0.2968
 6702SOL    HW123126   9.391   1.820   5.384  0.3486 -1.0090  1.5686
 6702SOL    HW223127   9.256   1.879   5.351  1.1664 -0.3700 -0.7636
 6703SOL     OW23128   5.577   6.664   5.694 -0.0869 -0.1557 -0.5967
 6703SOL    HW123129   5.665   6.684   5.662 -1.9041  3.6670 -3.5826
 6703SOL    HW223130   5.534   6.620   5.621 -0.9469 -1.2295  0.5385
 6704SOL     OW23131   6.778   7.259   2.486  0.3443  0.0353  0.2609
 6704SOL    HW123132   6.735   7.254   2.571 -0.5951 -1.3048 -0.2745
 6704SOL    HW223133   6.773   7.352   2.462 -1.0803  0.1098  0.8006
 6705SOL     OW23134   9.113   7.268   0.894 -0.0457 -0.0644 -0.0361
 6705SOL    HW123135   9.166   7.346   0.910 -0.5530  0.4605 -0.8865
 6705SOL    HW223136   9.023   7.298   0.905 -0.2137 -0.7156  0.3943
 6706SOL     OW23137   4.301   0.241   5.950  0.6702  0.8894 -0.2687
 6706SOL    HW123138   4.263   0.182   5.885 -1.5725  1.8658  0.1159
 6706SOL    HW223139   4.269   0.328   5.926 -0.7557  1.1897  2.4882
 6707SOL     OW23140   4.417   0.100   2.700  0.4260 -0.3841  0.0544
 6707SOL    HW123141   4.473   0.078   2.626 -0.8521 -1.4962 -0.5788
 6707SOL    HW223142   4.474   0.086   2.777  0.6697 -2.7247 -0.5069
 6708SOL     OW23143   3.381   2.005   8.529  0.4946  0.5524  0.4616
 6708SOL    HW123144   3.333   2.074   8.575  0.9687  2.5143 -1.8275
 6708SOL    HW223145   3.473   2.024   8.548  0.5453 -1.4687  2.4844
 6709SOL     OW23146   6.909   4.825   2.871 -0.1902  0.3927 -0.2689
 6709SOL    HW123147   6.892   4.781   2.954 -0.2105  1.9294  0.5670
 6709SOL    HW223148   6.836   4.887   2.862  0.9653  1.7727 -0.3425
 6710SOL     OW23149   1.330   4.184   8.274  0.1424 -0.0326 -0.4762
 6710SOL    HW123150   1.245   4.178   8.317 -0.3434  1.2637 -1.2221
 6710SOL    HW223151   1.393   4.196   8.346 -0.2528 -1.3700  0.1013
 6711SOL     OW23152   2.542   3.022   3.397  0.1635 -0.3121  0.3400
 6711SOL    HW123153   2.549   3.086   3.468  0.3949 -0.1993  0.2159
 6711SOL    HW223154   2.613   2.959   3.414  0.7162  0.1543 -0.2335
 6712SOL     OW23155   4.230   9.282   8.245  0.5674  0.3384 -0.3744
 6712SOL    HW123156   4.280   9.206   8.274  0.1563 -0.3388 -1.4117
 6712SOL    HW223157   4.182   9.310   8.323 -0.2494 -1.2416 -0.2831
 6713SOL     OW23158   6.558   2.850   1.505  0.2194 -0.4382 -0.2128
 6713SOL    HW123159   6.503   2.777   1.476 -0.6962  0.8652 -1.8525
 6713SOL    HW223160   6.498   2.911   1.547  0.4237  0.8518 -1.7361
 6714SOL     OW23161   7.133   0.966   8.578 -0.5052  0.0139 -0.0502
 6714SOL    HW123162   7.213   1.016   8.558 -0.0027 -0.0179  1.7880
 6714SOL    HW223163   7.066   1.004   8.521  1.1549 -1.0107 -2.7673
 6715SOL     OW23164   8.056   8.432   8.944  0.0714 -0.8805  0.4403
 6715SOL    HW123165   8.129   8.405   8.887  0.9763 -0.7518  1.5286
 6715SOL    HW223166   8.070   8.384   9.025 -0.0112  0.5670  1.3226
 6716SOL     OW23167   8.578   8.721   7.533 -0.2184 -0.2373 -0.2450
 6716SOL    HW123168   8.652   8.693   7.586 -0.4569  0.4104  0.4315
 6716SOL    HW223169   8.520   8.766   7.594 -2.2241 -2.6349 -0.2676
 6717SOL     OW23170   3.059   5.954   1.394  0.8436 -0.0745 -0.0035
 6717SOL    HW123171   3.046   5.904   1.313  0.4160  0.6102 -0.3690
 6717SOL    HW223172   2.971   5.985   1.416  1.1753  0.8877 -0.0331
 6718SOL     OW23173   7.672   7.526   3.419  0.0129 -0.4123 -0.8710
 6718SOL    HW123174   7.679   7.488   3.506 -3.2922 -0.3632 -0.5378
 6718SOL    HW223175   7.693   7.619   3.432  0.0994 -0.5145 -0.2666
 6719SOL     OW23176   7.183   5.649   6.257  0.1251 -0.2433 -0.1051
 6719SOL    HW123177   7.138   5.681   6.179  1.0898 -1.0608 -1.0091
 6719SOL    HW223178   7.146   5.562   6.271  0.7205 -0.5303 -0.2914
 6720SOL     OW23179   2.890   1.507   7.846  0.3757 -0.6214 -0.3929
 6720SOL    HW123180   2.938   1.429   7.873  1.0266 -0.9345 -2.3475
 6720SOL    HW223181   2.825   1.474   7.783 -0.2575  0.2309 -0.1871
 6721SOL     OW23182   6.389   0.353   7.043 -0.4753 -0.1275 -0.4015
 6721SOL    HW123183   6.452   0.386   7.107  1.2413 -0.9121 -1.6541
 6721SOL    HW223184   6.310   0.406   7.058  0.3663  0.6699  1.3762
 6722SOL     OW23185   3.131   8.181   9.385 -0.3150  0.2689 -0.0710
 6722SOL    HW123186   3.194   8.125   9.341  1.2291 -0.8090  3.3108
 6722SOL    HW223187   3.061   8.121   9.413 -0.8106  0.7741 -0.2023
 6723SOL     OW23188   2.955   4.322   6.143  0.0467 -0.2348 -0.9780
 6723SOL    HW123189   2.951   4.394   6.080 -1.0879  2.0095  1.5655
 6723SOL    HW223190   3.011   4.355   6.214  1.2516 -2.6722 -0.7186
 6724SOL     OW23191   0.490   5.292   8.775 -0.1549 -0.2392 -0.6086
 6724SOL    HW123192   0.579   5.327   8.782  0.4173 -1.5922 -0.8712
 6724SOL    HW223193   0.475   5.283   8.680  0.2108 -1.9030 -0.5270
 6725SOL     OW23194   3.854   4.773   5.666 -0.5030  0.0590 -0.3800
 6725SOL    HW123195   3.916   4.788   5.737 -0.9580  0.5579 -0.0833
 6725SOL    HW223196   3.771   4.753   5.710 -0.5171 -0.7723 -0.7684
 6726SOL     OW23197   4.566   2.016   7.470  0.4385 -0.1427 -0.1953
 6726SOL    HW123198   4.619   2.048   7.543  0.3480  1.4450 -0.7968
 6726SOL    HW223199   4.481   1.996   7.509 -0.0184  1.9231 -0.0539
 6727SOL     OW23200   4.715   3.082   8.133  0.1542  0.2038 -0.0413
 6727SOL    HW123201   4.652   3.017   8.101 -0.1919  1.1172 -1.2702
 6727SOL    HW223202   4.800   3.045   8.111  0.0184 -0.6328  0.8303
 6728SOL     OW23203   5.862   4.630   8.337 -0.1206  0.1493 -1.3188
 6728SOL    HW123204   5.949   4.660   8.363 -0.0191  0.3383 -1.8673
 6728SOL    HW223205   5.859   4.539   8.366 -0.1492  0.4635 -0.3246
 6729SOL     OW23206   3.054   8.237   5.767  0.5010  0.0942  0.6122
 6729SOL    HW123207   2.973   8.186   5.769  0.4264  0.1999  0.2879
 6729SOL    HW223208   3.030   8.321   5.805  0.3795  0.2362  0.2297
 6730SOL     OW23209   6.735   4.839   7.750  0.9766 -0.0346 -0.3423
 6730SOL    HW123210   6.709   4.776   7.818  0.0404  1.0305  0.3153
 6730SOL    HW223211   6.826   4.858   7.770  1.8134 -2.4851 -1.6041
 6731SOL     OW23212   8.773   1.109   1.094  0.0191  0.2923 -0.0317
 6731SOL    HW123213   8.721   1.051   1.150 -4.0050  4.1689  0.5358
 6731SOL    HW223214   8.819   1.166   1.155  0.8944  0.2395 -0.6316
 6732SOL     OW23215   8.968   9.249   0.425 -0.0324  0.0179  0.1949
 6732SOL    HW123216   8.898   9.314   0.419 -0.9207 -0.8949  0.7708
 6732SOL    HW223217   9.048   9.301   0.413 -0.7178  1.2667  0.8376
 6733SOL     OW23218   2.642   8.593   7.026  0.1026 -0.9381  0.5470
 6733SOL    HW123219   2.607   8.617   7.112  0.7622 -0.3677  0.6549
 6733SOL    HW223220   2.735   8.578   7.041  0.3449 -0.1809 -0.2012
 6734SOL     OW23221   3.071   8.483   2.908 -0.1424  0.2099  0.0900
 6734SOL    HW123222   3.002   8.452   2.850  0.4862 -1.5310  0.2682
 6734SOL    HW223223   3.152   8.449   2.870  0.6909  2.4882 -0.2887
 6735SOL     OW23224   6.094   0.492   8.552  0.5225  0.0429  0.1273
 6735SOL    HW123225   6.019   0.506   8.495  1.1407  1.3315 -0.3763
 6735SOL    HW223226   6.084   0.401   8.581 -0.6983 -0.1091 -0.7011
 6736SOL     OW23227   8.792   7.965   2.851 -0.3085 -0.4030 -0.3259
 6736SOL    HW123228   8.861   7.956   2.785 -0.1867 -2.7099  0.0883
 6736SOL    HW223229   8.839   7.984   2.932 -0.2540 -0.6919 -0.2907
 6737SOL     OW23230   3.917   8.863   3.135  0.2827  0.2605  0.3117
 6737SOL    HW123231   3.839   8.838   3.087 -0.7521  1.6371  1.2198
 6737SOL    HW223232   3.988   8.857   3.071 -0.7366  0.0318 -0.8135
 6738SOL     OW23233   6.896   5.145   1.016 -0.1643  0.0084  0.1398
 6738SOL    HW123234   6.967   5.197   1.055 -1.3274 -0.1365  2.5090
 6738SOL    HW223235   6.816   5.185   1.050 -1.1125 -2.4206  0.8368
 6739SOL     OW23236   0.498   2.514   4.008  0.3450  0.4540 -0.2676
 6739SOL    HW123237   0.487   2.460   3.930  1.1414  0.5076 -0.4200
 6739SOL    HW223238   0.503   2.604   3.974  0.4681  0.4957 -0.1397
 6740SOL     OW23239   7.798   5.392   5.514  0.0346 -0.0506 -0.5468
 6740SOL    HW123240   7.723   5.423   5.565  0.4061  0.0623 -0.0696
 6740SOL    HW223241   7.844   5.472   5.489 -0.1166 -0.1094 -1.0151
 6741SOL     OW23242   3.352   5.068   2.256  0.1182  0.3434 -0.2508
 6741SOL    HW123243   3.341   4.974   2.268  0.6484  0.4193  0.9210
 6741SOL    HW223244   3.393   5.077   2.170 -1.2621 -0.3989 -1.0136
 6742SOL     OW23245   5.953   4.801   6.269  0.0840  0.0273 -0.2999
 6742SOL    HW123246   5.870   4.814   6.223  0.1645 -0.6902 -0.6729
 6742SOL    HW223247   5.980   4.888   6.297 -1.2990  0.1479  0.7078
 6743SOL     OW23248   9.401   5.543   1.524  0.4624 -0.6554  0.3769
 6743SOL    HW123249   9.435   5.626   1.557  1.4155 -0.6077 -0.7169
 6743SOL    HW223250   9.433   5.478   1.586  1.2086 -0.4220  0.2427
 6744SOL     OW23251   4.776   4.822   4.603  0.2220  0.1850  0.4000
 6744SOL    HW123252   4.757   4.863   4.519  0.9681  0.0503  0.1609
 6744SOL    HW223253   4.698   4.771   4.622 -0.3298  0.9576  0.2437
 6745SOL     OW23254   2.168   1.370   1.875 -0.0194  0.0732 -0.6698
 6745SOL    HW123255   2.250   1.392   1.831  0.5440  0.8868  0.7637
 6745SOL    HW223256   2.149   1.281   1.847  1.3546 -0.1265 -1.0032
 6746SOL     OW23257   4.403   3.271   3.751 -0.3077  0.3416 -0.6583
 6746SOL    HW123258   4.362   3.184   3.749 -0.9675  0.6015  0.8283
 6746SOL    HW223259   4.494   3.254   3.778  0.1033 -0.0633 -2.2514
 6747SOL     OW23260   3.659   8.300   4.295 -0.7099 -0.5616  0.3986
 6747SOL    HW123261   3.670   8.295   4.390 -1.7941 -0.4207  0.5348
 6747SOL    HW223262   3.584   8.243   4.276 -1.2871  0.3979 -0.2207
 6748SOL     OW23263   6.657   2.333   2.795  0.3278  0.0457 -0.9489
 6748SOL    HW123264   6.609   2.274   2.853  2.3599 -1.6101 -0.8511
 6748SOL    HW223265   6.591   2.392   2.759 -1.5098 -1.2241  0.2765
 6749SOL     OW23266   6.078   0.491   2.596 -0.3957  0.2824  0.2297
 6749SOL    HW123267   6.064   0.566   2.654  0.0353 -0.3518  1.1591
 6749SOL    HW223268   6.110   0.530   2.514 -0.8021  1.1590  0.4810
 6750SOL     OW23269   0.534   2.382   8.235 -0.1100 -0.1864  0.0915
 6750SOL    HW123270   0.595   2.313   8.260 -0.3528 -0.4344  0.0047
 6750SOL    HW223271   0.448   2.339   8.236 -0.5995  0.7501  2.5984
 6751SOL     OW23272   6.900   2.919   6.133 -0.3571 -0.1705  0.0252
 6751SOL    HW123273   6.846   2.928   6.055 -0.5758  2.0827  0.3806
 6751SOL    HW223274   6.949   3.001   6.137  1.8053 -1.4512  0.6725
 6752SOL     OW23275   8.458   2.469   4.621  0.0516  0.4538  0.4065
 6752SOL    HW123276   8.416   2.384   4.607  1.5065  0.1067 -2.3034
 6752SOL    HW223277   8.396   2.533   4.586  0.1471  0.2556 -0.1382
 6753SOL     OW23278   5.810   9.282   2.442  0.3935  0.0905 -0.5902
 6753SOL    HW123279   5.724   9.320   2.459  0.9978 -0.1144  3.2607
 6753SOL    HW223280   5.791   9.191   2.417 -0.5373  0.1996 -0.2857
 6754SOL     OW23281   0.630   6.062   4.711 -0.3013 -0.1915  0.1703
 6754SOL    HW123282   0.671   5.975   4.714 -2.4425 -1.2130  0.5617
 6754SOL    HW223283   0.561   6.058   4.777 -0.6632  1.6913 -0.0845
 6755SOL     OW23284   9.212   3.667   1.773  0.0430 -0.0035  0.1476
 6755SOL    HW123285   9.177   3.578   1.778 -0.1592  0.0568 -0.2013
 6755SOL    HW223286   9.271   3.674   1.848 -0.8445 -0.0322  0.8513
 6756SOL     OW23287   6.064   4.886   5.414  0.3234  0.1692  0.0649
 6756SOL    HW123288   6.076   4.980   5.401  2.6127 -0.3444 -1.9343
 6756SOL    HW223289   6.063   4.849   5.325  0.6842 -1.8249  0.8469
 6757SOL     OW23290   0.749   6.134   7.905  0.1262  0.8237 -0.1999
 6757SOL    HW123291   0.682   6.145   7.837 -0.2671 -1.7467 -0.2468
 6757SOL    HW223292   0.701   6.107   7.983  0.9239  0.6713  0.2486
 6758SOL     OW23293   9.100   2.481   2.889 -0.6573 -0.0788 -0.3434
 6758SOL    HW123294   9.132   2.391   2.889 -0.5808 -0.0624 -1.3677
 6758SOL    HW223295   9.159   2.527   2.949 -0.6841 -0.6999  0.1697
 6759SOL     OW23296   7.353   0.933   3.512 -0.2869  0.6427 -0.4735
 6759SOL    HW123297   7.302   0.916   3.591  1.2539  0.7141  0.5749
 6759SOL    HW223298   7.373   0.846   3.477 -2.2297  0.6444 -1.6416
 6760SOL     OW23299   0.102   9.396   4.493 -0.2258  0.2941  0.4140
 6760SOL    HW123300   0.063   9.381   4.406  1.2316 -0.3186 -0.1443
 6760SOL    HW223301   0.030   9.379   4.554 -1.6065  1.9141 -0.7081
 6761SOL     OW23302   8.216   2.917   5.710 -0.6185  0.0070  0.8043
 6761SOL    HW123303   8.296   2.869   5.688 -0.6123 -0.3402  1.5723
 6761SOL    HW223304   8.172   2.930   5.626  1.4397  2.3570  0.0188
 6762SOL     OW23305   0.327   0.941   1.001  0.3139  0.6004  0.4278
 6762SOL    HW123306   0.361   0.937   0.912 -1.5864  0.0140 -0.3129
 6762SOL    HW223307   0.402   0.921   1.057  1.0722 -1.0895 -1.1484
 6763SOL     OW23308   4.821   6.317   4.263  0.4529 -0.3597  0.5158
 6763SOL    HW123309   4.763   6.269   4.322  0.3361 -0.8365  0.0239
 6763SOL    HW223310   4.864   6.249   4.211 -0.9779  0.1225 -1.3478
 6764SOL     OW23311   3.313   5.756   4.300  0.0418  0.7572 -0.0124
 6764SOL    HW123312   3.329   5.829   4.360  0.5534  1.4409 -0.9554
 6764SOL    HW223313   3.378   5.690   4.325  1.8208  1.9662 -1.2924
 6765SOL     OW23314   8.580   4.168   4.835 -0.0687  0.4104  0.1890
 6765SOL    HW123315   8.614   4.233   4.896 -0.4645  0.4297  0.3919
 6765SOL    HW223316   8.567   4.216   4.754 -1.9320  0.9896  0.8002
 6766SOL     OW23317   8.089   3.038   5.506  0.3212  0.1756  0.1818
 6766SOL    HW123318   8.098   3.036   5.411 -0.4783  1.1734  0.0742
 6766SOL    HW223319   8.006   2.993   5.523  1.0800 -1.1440  0.5155
 6767SOL     OW23320   2.151   3.392   4.611  0.3315 -0.0680 -0.0194
 6767SOL    HW123321   2.223   3.356   4.559 -0.2465  1.1241 -1.6977
 6767SOL    HW223322   2.145   3.335   4.688  1.0209 -2.0402 -1.4006
 6768SOL     OW23323   8.772   1.672   1.686 -0.3666  0.1039  0.0064
 6768SOL    HW123324   8.681   1.649   1.665  0.0403 -0.1078 -1.5530
 6768SOL    HW223325   8.766   1.758   1.728 -1.1824  0.6492 -1.1946
 6769SOL     OW23326   0.787   4.042   3.849  0.3240 -0.2957  0.3232
 6769SOL    HW123327   0.762   4.128   3.814  0.5112 -1.0971 -1.8919
 6769SOL    HW223328   0.708   4.011   3.894 -0.1339  0.5315  0.1043
 6770SOL     OW23329   2.923   7.034   3.599  0.3114  0.3915 -0.3697
 6770SOL    HW123330   2.990   7.102   3.588  1.3515 -0.0131  2.8905
 6770SOL    HW223331   2.886   7.051   3.686 -0.9321 -1.8980 -0.4248
 6771SOL     OW23332   0.044   5.829   4.818 -0.0444  0.3492  0.0421
 6771SOL    HW123333   0.004   5.778   4.748  0.9804  0.0787 -0.3570
 6771SOL    HW223334   0.060   5.915   4.778  1.6705 -0.1849 -0.4462
 6772SOL     OW23335   2.002   3.521   0.239  0.1624  0.0846 -0.0962
 6772SOL    HW123336   1.984   3.531   0.146 -0.9425  0.8501  0.1859
 6772SOL    HW223337   2.017   3.427   0.251  0.5191  0.0114 -1.0708
 6773SOL     OW23338   1.218   6.190   4.272 -0.1382  0.6462  0.1691
 6773SOL    HW123339   1.138   6.188   4.325 -0.8302  0.2928 -0.8664
 6773SOL    HW223340   1.186   6.202   4.183  0.9632  0.2862 -0.2735
 6774SOL     OW23341   3.723   1.936   8.246  0.0949 -0.5653  0.1902
 6774SOL    HW123342   3.655   1.872   8.226  1.0262 -1.7060  0.6388
 6774SOL    HW223343   3.702   1.967   8.334 -0.6715  0.1646 -0.2442
 6775SOL     OW23344   3.466   3.570   5.602 -0.0170 -0.2925  0.1081
 6775SOL    HW123345   3.381   3.527   5.588  1.8290 -3.7149 -1.3130
 6775SOL    HW223346   3.468   3.641   5.538 -0.8751 -1.6948 -1.5120
 6776SOL     OW23347   3.529   1.738   1.164  0.1367 -0.0636  0.0917
 6776SOL    HW123348   3.571   1.763   1.082 -1.3119  0.7497 -0.4239
 6776SOL    HW223349   3.585   1.669   1.200  1.4301  0.4093 -0.9838
 6777SOL     OW23350   5.652   0.084   3.942  0.1652  0.1625  0.4140
 6777SOL    HW123351   5.613   0.169   3.964  2.5265  0.9006  2.0002
 6777SOL    HW223352   5.605   0.021   3.996 -1.7428  0.4166 -0.9166
 6778SOL     OW23353   4.139   2.904   3.931 -0.0465 -0.3459 -0.1697
 6778SOL    HW123354   4.053   2.869   3.908 -1.4085  0.9054  2.8365
 6778SOL    HW223355   4.190   2.828   3.957 -0.5565 -0.9605 -0.9382
 6779SOL     OW23356   4.825   1.785   0.548  0.2000 -0.1203 -0.1693
 6779SOL    HW123357   4.890   1.855   0.557 -0.0444  0.4375 -2.2737
 6779SOL    HW223358   4.877   1.705   0.544  0.8490  0.3666 -2.3545
 6780SOL     OW23359   0.838   1.529   7.477 -0.2202 -0.3918  0.0055
 6780SOL    HW123360   0.886   1.472   7.537  0.2529 -0.4866 -0.4590
 6780SOL    HW223361   0.789   1.588   7.534  2.2024  1.1939  0.5137
 6781SOL     OW23362   8.626   7.046   8.806 -0.2426  0.4582  0.0741
 6781SOL    HW123363   8.607   6.952   8.808  0.6424  0.1628 -2.9993
 6781SOL    HW223364   8.576   7.082   8.879 -3.7848 -1.8364 -1.0656
 6782SOL     OW23365   8.997   7.329   2.310 -0.4084 -0.0683 -0.2517
 6782SOL    HW123366   8.970   7.239   2.327  0.6485 -0.4629 -0.6184
 6782SOL    HW223367   8.922   7.382   2.335 -0.6908 -0.9858  0.8778
 6783SOL     OW23368   5.224   9.094   9.088 -0.6592  0.3402 -0.6815
 6783SOL    HW123369   5.253   9.142   9.010 -1.3310  1.5443 -0.2088
 6783SOL    HW223370   5.140   9.056   9.063 -0.2478 -0.3921 -0.9712
 6784SOL     OW23371   2.576   9.078   3.070  0.0434  0.5000 -0.6148
 6784SOL    HW123372   2.562   8.991   3.033 -0.2437  0.9733 -1.6719
 6784SOL    HW223373   2.630   9.123   3.004  0.5270  0.9875  0.1095
 6785SOL     OW23374   6.150   4.587   2.393  0.4479  0.2138 -0.2222
 6785SOL    HW123375   6.226   4.530   2.380 -1.3629 -3.0752  2.6267
 6785SOL    HW223376   6.169   4.633   2.474 -1.1517 -1.7415  1.3195
 6786SOL     OW23377   2.876   5.952   0.714  0.0539  0.2567 -0.1620
 6786SOL    HW123378   2.813   6.024   0.718  1.0907  1.2303 -1.3751
 6786SOL    HW223379   2.898   5.944   0.622 -0.2585 -1.8152 -0.0747
 6787SOL     OW23380   1.184   5.863   3.203  0.0592  0.3826  0.4750
 6787SOL    HW123381   1.222   5.786   3.247 -1.9415  0.1304  1.8373
 6787SOL    HW223382   1.222   5.862   3.115  0.4493 -1.8769  0.6476
 6788SOL     OW23383   0.386   2.224   5.761 -0.5804 -0.1891 -0.1895
 6788SOL    HW123384   0.326   2.208   5.834  0.4219 -0.4972  0.5748
 6788SOL    HW223385   0.371   2.315   5.737 -2.2967 -0.6335 -0.8794
 6789SOL     OW23386   6.594   8.968   5.078  0.5689 -0.0593  0.5937
 6789SOL    HW123387   6.681   9.002   5.057  0.0851  1.0197  0.2977
 6789SOL    HW223388   6.581   8.992   5.170 -0.7680  2.7892 -0.2880
 6790SOL     OW23389   6.886   2.782   3.367 -0.0554  0.4177 -0.6558
 6790SOL    HW123390   6.884   2.703   3.420 -0.3467 -0.0247 -1.3176
 6790SOL    HW223391   6.863   2.753   3.279 -0.4379  1.2812 -0.8519
 6791SOL     OW23392   4.803   4.012   8.417 -0.2329  0.7804  0.1362
 6791SOL    HW123393   4.736   4.053   8.363 -2.2598 -0.4020  1.6714
 6791SOL    HW223394   4.839   4.083   8.470  0.6552  1.6483 -1.6001
 6792SOL     OW23395   5.071   9.073   0.399 -0.3266  0.0070  0.0923
 6792SOL    HW123396   5.019   9.071   0.479  1.7099 -0.3996  1.4367
 6792SOL    HW223397   5.136   9.141   0.414 -0.1128  0.1350 -1.3443
 6793SOL     OW23398   8.973   6.859   7.020  0.3462  0.1262  0.3986
 6793SOL    HW123399   8.939   6.904   7.098  0.9616  0.6431  0.3702
 6793SOL    HW223400   9.019   6.783   7.055  0.3733  0.1995  0.5238
 6794SOL     OW23401   0.433   8.030   3.003  0.2191 -0.1219  0.1920
 6794SOL    HW123402   0.524   8.001   3.007  0.5957  0.9062 -0.7093
 6794SOL    HW223403   0.382   7.954   3.033  1.4911 -0.0047  2.7330
 6795SOL     OW23404   7.579   3.604   8.053 -0.2980  0.4214 -0.6656
 6795SOL    HW123405   7.508   3.572   8.109  0.9659 -1.4087 -0.0765
 6795SOL    HW223406   7.568   3.558   7.970  1.1654 -1.1695 -0.0143
 6796SOL     OW23407   3.511   1.681   2.420 -0.1557 -0.4926 -0.4647
 6796SOL    HW123408   3.564   1.712   2.493  1.1463  0.6938 -1.8617
 6796SOL    HW223409   3.550   1.597   2.396 -1.0206 -1.2135  0.6332
 6797SOL     OW23410   2.254   6.707   5.173  0.5303 -0.2979  0.0675
 6797SOL    HW123411   2.182   6.698   5.235  0.5384 -0.7006  0.0227
 6797SOL    HW223412   2.314   6.635   5.196 -0.0838 -1.2478 -1.2320
 6798SOL     OW23413   6.038   1.030   5.660 -0.2544  0.4056  0.2269
 6798SOL    HW123414   6.064   1.069   5.744  2.7769 -1.3195  0.1715
 6798SOL    HW223415   6.074   1.090   5.594  0.8315 -0.3080  0.1610
 6799SOL     OW23416   7.591   8.490   9.046 -0.1625  0.3091  0.4560
 6799SOL    HW123417   7.659   8.546   9.082 -0.4313  0.5821  0.5423
 6799SOL    HW223418   7.594   8.410   9.098 -1.7375  1.3868  2.2526
 6800SOL     OW23419   7.031   3.011   3.162 -0.2321 -0.4805 -0.6373
 6800SOL    HW123420   6.986   2.929   3.145 -0.4698 -0.4575 -0.1216
 6800SOL    HW223421   7.123   2.992   3.144  0.0202 -1.4644  1.5139
 6801SOL     OW23422   5.591   3.979   6.725  0.2332  0.0177  0.1775
 6801SOL    HW123423   5.645   4.055   6.701 -0.0321 -0.2839 -1.4157
 6801SOL    HW223424   5.581   3.930   6.643 -1.3775 -0.6212  0.7503
 6802SOL     OW23425   7.202   6.161   0.650  0.5111  0.5540  0.0395
 6802SOL    HW123426   7.134   6.093   0.659  2.0440 -0.9839  0.2111
 6802SOL    HW223427   7.174   6.230   0.710 -2.6306  1.4166 -2.3061
 6803SOL     OW23428   5.863   8.477   2.891  0.6013 -0.3855  0.3960
 6803SOL    HW123429   5.939   8.462   2.948  0.7402 -0.2119  0.2578
 6803SOL    HW223430   5.796   8.512   2.950  0.9618  0.4230  0.3364
 6804SOL     OW23431   4.964   3.897   8.770 -0.1181  0.8535  0.1169
 6804SOL    HW123432   4.905   3.883   8.843 -1.0619  1.4231 -0.5315
 6804SOL    HW223433   4.957   3.991   8.751 -1.4458  0.3498 -2.0232
 6805SOL     OW23434   7.353   2.857   3.641  0.3005  0.0756 -0.2104
 6805SOL    HW123435   7.311   2.906   3.712  0.0723  0.7367 -0.8020
 6805SOL    HW223436   7.308   2.886   3.562  0.3700 -0.8678 -0.5981
 6806SOL     OW23437   2.773   0.327   3.687 -0.4470 -0.0697 -0.0429
 6806SOL    HW123438   2.777   0.251   3.629  2.4746 -0.3232  0.4084
 6806SOL    HW223439   2.841   0.311   3.753 -1.1743  1.9686  1.2468
 6807SOL     OW23440   2.221   2.243   8.045 -0.5359  0.2987 -0.2193
 6807SOL    HW123441   2.275   2.164   8.036 -1.1426 -0.1279 -0.1795
 6807SOL    HW223442   2.222   2.263   8.139 -1.2516 -0.2855 -0.0857
 6808SOL     OW23443   2.558   7.947   8.366  0.0556  0.0261 -0.5932
 6808SOL    HW123444   2.597   7.909   8.288 -0.3489 -0.6600 -0.4653
 6808SOL    HW223445   2.575   7.882   8.435 -2.5387 -0.9606 -0.8363
 6809SOL     OW23446   2.965   5.069   3.507 -0.3875  0.5228 -0.3299
 6809SOL    HW123447   3.042   5.122   3.526 -0.2044 -0.0357  0.4804
 6809SOL    HW223448   2.979   5.037   3.418 -0.7184  2.2050 -1.0108
 6810SOL     OW23449   1.275   5.278   2.659 -0.1661 -1.0466 -0.4307
 6810SOL    HW123450   1.370   5.279   2.649  0.1110 -1.1625  1.8241
 6810SOL    HW223451   1.243   5.347   2.601  1.4386  0.0972  0.0254
 6811SOL     OW23452   2.520   4.525   3.849 -0.0408  0.5738 -0.2597
 6811SOL    HW123453   2.564   4.588   3.906  0.5828  0.4518 -0.5981
 6811SOL    HW223454   2.519   4.568   3.763  2.4510 -0.8118 -1.0234
 6812SOL     OW23455   4.704   0.072   3.292  0.4578 -0.2849 -0.6100
 6812SOL    HW123456   4.648   0.147   3.270  0.6022  0.5953  1.9398
 6812SOL    HW223457   4.791   0.109   3.304  0.1443 -0.4975  2.7012
 6813SOL     OW23458   0.101   8.541   3.634 -0.0916 -0.1298 -0.3785
 6813SOL    HW123459   0.181   8.578   3.596  1.0707 -0.3485  1.7986
 6813SOL    HW223460   0.048   8.617   3.658  0.2552  0.0382 -0.1491
 6814SOL     OW23461   1.358   7.070   2.949 -0.0810 -0.2146  0.8491
 6814SOL    HW123462   1.298   7.070   2.874 -0.2746 -1.4185  0.9942
 6814SOL    HW223463   1.371   7.162   2.969 -1.6767  0.0799  0.6387
 6815SOL     OW23464   6.312   1.898   6.756  0.2947  0.3100  1.0369
 6815SOL    HW123465   6.351   1.927   6.674  0.6076  0.5756  1.2755
 6815SOL    HW223466   6.314   1.802   6.752 -0.2588  0.3214  0.4685
 6816SOL     OW23467   7.835   4.208   5.444 -0.6327 -0.3190 -0.5993
 6816SOL    HW123468   7.892   4.204   5.521 -2.1648 -0.3761  0.5477
 6816SOL    HW223469   7.829   4.301   5.423 -0.3840 -0.2879 -0.5338
 6817SOL     OW23470   7.155   7.431   3.217 -0.3402  0.5079 -0.0239
 6817SOL    HW123471   7.229   7.370   3.217 -0.3272  0.5220 -0.4784
 6817SOL    HW223472   7.189   7.510   3.258 -0.5708 -0.0457  1.2735
 6818SOL     OW23473   8.880   3.434   4.794  0.1920 -0.1207 -0.6275
 6818SOL    HW123474   8.958   3.450   4.847 -0.0845  3.7049 -1.1985
 6818SOL    HW223475   8.913   3.428   4.704  0.0065  0.2488 -0.7254
 6819SOL     OW23476   2.465   2.916   8.486 -0.0215  0.3047  0.6093
 6819SOL    HW123477   2.378   2.905   8.447  0.8704  0.2674 -1.4385
 6819SOL    HW223478   2.494   3.002   8.456  1.5367 -0.6001 -0.5368
 6820SOL     OW23479   0.854   1.601   6.662 -0.5938  0.3337 -0.5701
 6820SOL    HW123480   0.910   1.646   6.724 -0.8141 -1.7015  1.1598
 6820SOL    HW223481   0.904   1.601   6.580  1.8849 -1.2939  0.8856
 6821SOL     OW23482   7.128   4.450   2.850 -0.3618 -0.0056  0.0900
 6821SOL    HW123483   7.150   4.542   2.863  0.0615 -0.1493  0.4055
 6821SOL    HW223484   7.095   4.421   2.935 -0.6057 -0.1151 -0.0410
 6822SOL     OW23485   7.554   7.296   7.460 -0.0454 -1.0588  0.3417
 6822SOL    HW123486   7.645   7.313   7.482  0.3405  0.4868 -2.1772
 6822SOL    HW223487   7.553   7.207   7.426  0.9029 -0.4565 -1.3336
 6823SOL     OW23488   2.954   6.651   6.634  0.2488  0.3196 -0.2535
 6823SOL    HW123489   3.000   6.609   6.707  0.2747  0.8249  0.0211
 6823SOL    HW223490   2.993   6.612   6.555  0.8944  0.4746 -0.0181
 6824SOL     OW23491   6.746   0.671   7.865 -0.4855 -0.4510  0.1384
 6824SOL    HW123492   6.817   0.618   7.901  1.4086  1.6206 -0.4052
 6824SOL    HW223493   6.698   0.703   7.941  0.5482 -0.0609  0.6395
 6825SOL     OW23494   8.301   0.060   3.543 -0.1133  0.0182 -0.0567
 6825SOL    HW123495   8.316   0.154   3.550 -1.2950  0.2147 -0.0432
 6825SOL    HW223496   8.348   0.034   3.464  1.1808  0.3999  0.5647
 6826SOL     OW23497   1.938   6.071   5.570  0.4635 -0.4332  0.2210
 6826SOL    HW123498   1.878   5.996   5.566  1.7167 -1.4046 -0.6646
 6826SOL    HW223499   1.896   6.132   5.632 -1.7462 -0.8025 -0.8770
 6827SOL     OW23500   7.654   1.685   6.372  1.2345  0.3732  0.9135
 6827SOL    HW123501   7.677   1.617   6.308  0.1828  1.7459 -0.9565
 6827SOL    HW223502   7.560   1.700   6.359  0.7612 -0.0258  3.4896
 6828SOL     OW23503   4.270   1.597   8.144 -0.0831 -0.8487 -0.0727
 6828SOL    HW123504   4.268   1.637   8.231  0.3778 -2.5019  0.7173
 6828SOL    HW223505   4.313   1.662   8.089  0.3929 -0.1375  1.1273
 6829SOL     OW23506   3.261   0.856   1.669  0.0044  0.2512 -0.2031
 6829SOL    HW123507   3.345   0.830   1.630 -0.5733 -0.9548 -0.6692
 6829SOL    HW223508   3.279   0.942   1.709  1.8905 -0.7428  1.1776
 6830SOL     OW23509   4.049   3.594   3.795 -0.0242 -0.0184 -0.3035
 6830SOL    HW123510   4.129   3.544   3.785 -0.2205 -0.5630  0.7415
 6830SOL    HW223511   3.982   3.529   3.815 -0.6129  0.4903 -0.5916
 6831SOL     OW23512   8.607   6.149   4.124  1.1821 -0.0154 -0.3982
 6831SOL    HW123513   8.634   6.078   4.181  0.2145  1.6205  2.1818
 6831SOL    HW223514   8.610   6.112   4.036  0.1142 -3.3880  0.9318
 6832SOL     OW23515   4.891   0.542   1.967  0.4078 -0.4544  0.1883
 6832SOL    HW123516   4.882   0.566   1.875 -1.9632  0.8167  0.7348
 6832SOL    HW223517   4.952   0.607   2.002  1.5588 -1.1257 -0.5301
 6833SOL     OW23518   6.336   8.871   9.080 -0.5415  0.4168 -0.1502
 6833SOL    HW123519   6.306   8.895   9.168 -0.6780 -1.3599  0.3105
 6833SOL    HW223520   6.367   8.953   9.042 -0.4202  1.1999  1.5835
 6834SOL     OW23521   6.091   4.705   4.702  0.0006 -0.3564 -0.3531
 6834SOL    HW123522   6.044   4.723   4.621 -1.9792 -0.2375  0.7934
 6834SOL    HW223523   6.108   4.611   4.699  1.6893 -0.0353 -1.7933
 6835SOL     OW23524   7.514   6.792   7.482  0.3627  0.2393  0.1142
 6835SOL    HW123525   7.602   6.800   7.447  0.5105 -1.8716 -0.0264
 6835SOL    HW223526   7.470   6.728   7.426 -1.7021  2.2015 -0.6227
 6836SOL     OW23527   6.317   5.058   8.916  0.1769 -0.3757 -0.4763
 6836SOL    HW123528   6.329   5.034   9.007 -1.4925 -0.7524 -0.3327
 6836SOL    HW223529   6.254   5.131   8.918 -1.1582 -1.4776 -1.3975
 6837SOL     OW23530   9.134   1.552   3.596  0.2754  0.0597  0.6108
 6837SOL    HW123531   9.106   1.552   3.504 -1.0974 -0.7813  1.0047
 6837SOL    HW223532   9.224   1.582   3.593 -0.1314  1.2389 -0.8957
 6838SOL     OW23533   4.181   3.389   8.994 -0.4371  0.2441  0.1017
 6838SOL    HW123534   4.158   3.425   8.908  0.0750 -0.0813 -0.1716
 6838SOL    HW223535   4.162   3.296   8.986 -2.1498  0.5069  0.9379
 6839SOL     OW23536   5.945   2.889   4.687 -0.0136 -0.1747  0.0455
 6839SOL    HW123537   6.018   2.829   4.704  1.4559  1.5046 -0.2051
 6839SOL    HW223538   5.944   2.948   4.763 -0.5593  0.3665 -0.3748
 6840SOL     OW23539   7.934   7.009   0.739 -0.2373  0.1819 -0.2768
 6840SOL    HW123540   7.878   6.933   0.723  1.8790 -1.1298 -1.6407
 6840SOL    HW223541   7.873   7.083   0.741 -2.0803 -1.2600 -1.2264
 6841SOL     OW23542   8.072   1.917   5.049  0.1142 -0.1546  0.4979
 6841SOL    HW123543   8.120   1.962   4.980 -0.8924  0.5824  0.2852
 6841SOL    HW223544   8.125   1.839   5.067  1.8866  1.0989  0.8976
 6842SOL     OW23545   1.233   2.226   1.227 -0.4015  0.0529  0.1821
 6842SOL    HW123546   1.140   2.202   1.236  0.0410 -1.8376 -0.1819
 6842SOL    HW223547   1.267   2.166   1.160  1.3316  0.0286  1.0647
 6843SOL     OW23548   7.820   5.243   2.837  0.4158  0.2324 -0.2892
 6843SOL    HW123549   7.837   5.203   2.752  0.7467  0.9844 -0.5800
 6843SOL    HW223550   7.867   5.326   2.834  0.0464  0.4689  0.4570
 6844SOL     OW23551   4.380   5.694   3.786 -0.2841 -0.0592 -0.5309
 6844SOL    HW123552   4.319   5.647   3.729 -0.5145 -0.0825 -0.2659
 6844SOL    HW223553   4.462   5.644   3.780 -0.9065 -1.2696  0.7900
 6845SOL     OW23554   3.464   2.547   8.125 -0.2673 -0.0320 -0.7353
 6845SOL    HW123555   3.447   2.478   8.060 -0.6452 -0.8791  0.2612
 6845SOL    HW223556   3.390   2.606   8.117 -0.9751 -0.8343 -0.1724
 6846SOL     OW23557   0.327   1.816   0.526  0.3291  0.1662 -0.5890
 6846SOL    HW123558   0.350   1.880   0.593  0.5325  0.1556 -0.6494
 6846SOL    HW223559   0.335   1.732   0.570  0.4952  0.1573 -0.6363
 6847SOL     OW23560   7.792   3.107   5.531  0.3576  0.2997 -0.1380
 6847SOL    HW123561   7.746   3.182   5.493  0.0875  0.0346 -0.3412
 6847SOL    HW223562   7.839   3.143   5.607  0.2023  0.6664 -0.2148
 6848SOL     OW23563   9.179   6.984   6.601  0.0381  0.0457 -0.1734
 6848SOL    HW123564   9.112   6.947   6.658 -0.3492  1.6928  0.4650
 6848SOL    HW223565   9.134   7.054   6.554  1.4962  1.7049  0.8503
 6849SOL     OW23566   1.064   3.328   1.102  0.0363 -0.0639  0.4289
 6849SOL    HW123567   1.040   3.418   1.124  0.7013 -0.0829  1.2513
 6849SOL    HW223568   0.993   3.297   1.045 -0.3850  0.8501  0.4528
 6850SOL     OW23569   1.171   4.546   2.849  0.0524  0.0952  0.4691
 6850SOL    HW123570   1.101   4.610   2.837  0.8436  0.4493 -2.8496
 6850SOL    HW223571   1.241   4.594   2.893 -0.2900  0.8450  0.1902
 6851SOL     OW23572   0.515   8.211   4.917  0.0763 -0.2501 -0.1537
 6851SOL    HW123573   0.550   8.155   4.848 -1.1793  1.0023 -1.8384
 6851SOL    HW223574   0.591   8.259   4.949  0.7228 -1.0717 -0.4369
 6852SOL     OW23575   0.352   4.019   1.190 -0.1356  0.1595  0.0341
 6852SOL    HW123576   0.332   4.058   1.104  3.5331  1.1938 -0.4248
 6852SOL    HW223577   0.354   3.924   1.173 -1.1911  0.2463 -0.6214
 6853SOL     OW23578   6.592   6.630   6.588 -0.6081 -0.1529  0.4459
 6853SOL    HW123579   6.622   6.712   6.627  0.3174 -0.5379  0.5437
 6853SOL    HW223580   6.567   6.653   6.499  0.5184  0.0543  0.1878
 6854SOL     OW23581   4.940   2.071   3.780 -0.1855 -0.0134  0.5915
 6854SOL    HW123582   4.920   2.046   3.870  0.3848  0.8896  0.9822
 6854SOL    HW223583   5.029   2.106   3.784 -0.5489  1.0278 -0.1202
 6855SOL     OW23584   6.129   4.275   5.290  0.4347 -0.2804 -0.0133
 6855SOL    HW123585   6.114   4.248   5.199 -0.8304 -0.4334  0.2347
 6855SOL    HW223586   6.049   4.321   5.315  1.4978  1.3553  0.4461
 6856SOL     OW23587   8.938   9.396   3.948  0.2104  0.2098  0.0861
 6856SOL    HW123588   8.860   9.344   3.927  0.5037 -0.1314 -0.1678
 6856SOL    HW223589   8.951   9.451   3.871  0.1310  0.3743  0.1909
 6857SOL     OW23590   4.381   7.637   4.823  0.0434  0.0870  0.2773
 6857SOL    HW123591   4.334   7.675   4.749  0.0867 -0.0051  0.2019
 6857SOL    HW223592   4.402   7.711   4.880  0.5540  0.2377 -0.1046
 6858SOL     OW23593   7.347   3.471   8.128  0.0034  0.1310  0.0522
 6858SOL    HW123594   7.299   3.545   8.164  1.2512  0.0746  1.9073
 6858SOL    HW223595   7.298   3.394   8.158 -1.9065  0.1822 -2.7702
 6859SOL     OW23596   8.357   1.093   9.077  0.1584 -0.2518 -0.0852
 6859SOL    HW123597   8.345   1.144   8.997  1.0922 -0.4595 -0.3674
 6859SOL    HW223598   8.380   1.157   9.144  0.7180 -0.2368 -0.2955
 6860SOL     OW23599   5.961   5.772   4.763  0.4054 -0.4581 -0.1086
 6860SOL    HW123600   5.972   5.687   4.722 -0.4526 -2.2672  3.2131
 6860SOL    HW223601   6.032   5.778   4.827  0.6891  1.5112 -0.5590
 6861SOL     OW23602   5.997   2.044   2.612 -0.4509  0.1944 -0.5979
 6861SOL    HW123603   6.065   1.977   2.621 -2.1473 -1.8124 -2.4013
 6861SOL    HW223604   6.021   2.091   2.532 -1.6383 -1.0359 -1.6722
 6862SOL     OW23605   7.406   6.790   0.340  0.1746  0.7053 -0.1312
 6862SOL    HW123606   7.363   6.798   0.256 -0.4956  0.3446  0.1737
 6862SOL    HW223607   7.337   6.806   0.404  0.6766  0.9762  0.3485
 6863SOL     OW23608   1.355   2.316   3.963  0.4309  0.2267 -0.2668
 6863SOL    HW123609   1.263   2.333   3.984  0.7500 -0.5037  1.8644
 6863SOL    HW223610   1.352   2.249   3.895 -0.6232  0.4719 -0.4702
 6864SOL     OW23611   8.647   8.801   7.268 -0.2233 -0.1865 -0.0763
 6864SOL    HW123612   8.633   8.785   7.362 -0.1333  0.6086  0.0737
 6864SOL    HW223613   8.708   8.731   7.242 -0.6522 -0.7224  0.3417
 6865SOL     OW23614   1.719   7.450   5.540 -0.0094  0.0275  0.1795
 6865SOL    HW123615   1.717   7.546   5.545 -2.1266  0.1166 -1.7352
 6865SOL    HW223616   1.759   7.431   5.455  2.4912 -0.8537  1.5149
 6866SOL     OW23617   8.565   0.563   0.686  0.6172 -0.3927  0.2972
 6866SOL    HW123618   8.641   0.592   0.736 -0.8059  2.2419  1.0606
 6866SOL    HW223619   8.579   0.598   0.598  0.7200 -0.6861  0.1971
 6867SOL     OW23620   7.903   3.620   2.972 -0.0639  0.3678  0.5304
 6867SOL    HW123621   7.834   3.556   2.986 -2.1055  2.6890  1.2873
 6867SOL    HW223622   7.984   3.573   2.994 -1.5607 -1.7058  1.7712
 6868SOL     OW23623   4.022   3.931   8.644  0.3402  0.2316 -0.0255
 6868SOL    HW123624   3.944   3.877   8.645  0.1260  0.4375 -2.2309
 6868SOL    HW223625   4.024   3.973   8.730 -3.2317  2.0068 -0.7390
 6869SOL     OW23626   4.238   3.003   3.184  0.2997 -0.4403 -0.6277
 6869SOL    HW123627   4.233   2.963   3.271  0.4404 -1.2207 -0.9726
 6869SOL    HW223628   4.288   2.940   3.132 -0.9339 -0.6167 -1.6201
 6870SOL     OW23629   4.706   0.947   4.840 -0.3787 -0.2621 -0.1132
 6870SOL    HW123630   4.744   0.884   4.902 -0.5582 -0.4594 -0.2053
 6870SOL    HW223631   4.665   0.893   4.773 -1.1964 -0.0502  0.2120
 6871SOL     OW23632   2.741   0.842   5.422 -0.3743 -0.5473  0.1796
 6871SOL    HW123633   2.689   0.780   5.371  1.7027 -1.8386 -0.4338
 6871SOL    HW223634   2.816   0.791   5.453  1.6329  1.7188 -0.7190
 6872SOL     OW23635   9.428   6.144   8.602 -0.2112  0.2340 -0.3262
 6872SOL    HW123636   9.457   6.223   8.648  0.8255 -0.6365  0.5536
 6872SOL    HW223637   9.366   6.102   8.662 -0.4746  0.1896 -0.6274
 6873SOL     OW23638   3.621   9.296   7.889  0.2967 -0.6258  0.5961
 6873SOL    HW123639   3.586   9.254   7.810 -0.6467  1.1434  0.0502
 6873SOL    HW223640   3.675   9.367   7.856  2.4394 -1.8073  1.5001
 6874SOL     OW23641   8.734   7.587   4.072 -0.5101 -0.2753  0.7217
 6874SOL    HW123642   8.716   7.502   4.111  0.9442 -0.2818  1.3797
 6874SOL    HW223643   8.813   7.574   4.020 -0.3133  0.6663  0.7811
 6875SOL     OW23644   3.310   5.137   8.019 -0.8552 -0.4552 -0.8268
 6875SOL    HW123645   3.375   5.196   7.981 -1.4765  0.9667  0.2872
 6875SOL    HW223646   3.226   5.179   8.001 -1.2786 -0.8017  0.3073
 6876SOL     OW23647   7.930   3.140   7.320  0.2206  0.2755  0.2119
 6876SOL    HW123648   7.906   3.222   7.361  0.2391 -0.6711  2.1504
 6876SOL    HW223649   7.992   3.165   7.251 -0.4633  1.9463  0.1843
 6877SOL     OW23650   9.186   3.106   2.723  0.0102 -0.4647 -0.1568
 6877SOL    HW123651   9.173   3.099   2.628  0.3741  0.9608 -0.3130
 6877SOL    HW223652   9.244   3.181   2.734 -2.2103  1.0524  1.3809
 6878SOL     OW23653   8.022   0.450   5.419  0.1065  0.4214  0.2301
 6878SOL    HW123654   7.942   0.431   5.468  1.4547 -1.1431  1.8968
 6878SOL    HW223655   8.003   0.420   5.330 -1.8495  1.9240  0.1187
 6879SOL     OW23656   5.220   0.871   5.112 -0.5231 -0.5480 -0.4082
 6879SOL    HW123657   5.200   0.928   5.038 -1.1347 -1.0667 -0.6422
 6879SOL    HW223658   5.313   0.852   5.103 -0.0505  1.2560  0.2602
 6880SOL     OW23659   7.008   0.834   5.540  0.1679  0.0109  0.0545
 6880SOL    HW123660   6.926   0.872   5.573  0.6840  1.2297 -0.0847
 6880SOL    HW223661   7.077   0.877   5.590  0.8151 -0.0233 -0.7976
 6881SOL     OW23662   2.673   2.171   2.921 -0.3154  0.2213 -0.8174
 6881SOL    HW123663   2.689   2.080   2.897 -0.4347  0.5067 -2.0359
 6881SOL    HW223664   2.583   2.188   2.893 -0.2270  0.7659 -0.7815
 6882SOL     OW23665   2.649   6.752   4.952 -0.2771  0.0943 -0.2198
 6882SOL    HW123666   2.695   6.818   5.003 -0.9657  0.2057  0.2651
 6882SOL    HW223667   2.715   6.718   4.892  0.6195 -0.2403  0.9355
 6883SOL     OW23668   6.791   2.067   5.642  0.0496 -0.3045  0.5944
 6883SOL    HW123669   6.877   2.027   5.647 -0.4603 -1.6239 -0.6636
 6883SOL    HW223670   6.737   2.015   5.702 -0.2121 -0.4477  0.2384
 6884SOL     OW23671   5.247   7.717   4.954  0.2051 -0.1205  0.6074
 6884SOL    HW123672   5.248   7.641   4.897  0.2019  0.7108 -0.5285
 6884SOL    HW223673   5.171   7.768   4.925 -1.4331 -0.9894  3.1401
 6885SOL     OW23674   1.633   5.025   4.025 -0.3570 -0.9913 -0.4463
 6885SOL    HW123675   1.685   5.045   3.948 -0.3436  0.3922 -0.0821
 6885SOL    HW223676   1.695   4.988   4.088  0.1803  0.5109 -0.0693
 6886SOL     OW23677   2.201   0.197   1.860  0.1773  0.1644 -0.1681
 6886SOL    HW123678   2.209   0.110   1.821  0.6583  0.6155 -1.1074
 6886SOL    HW223679   2.201   0.257   1.785 -1.4280  0.8997  0.3894
 6887SOL     OW23680   8.102   1.448   8.321 -0.1246  0.0706 -0.2298
 6887SOL    HW123681   8.128   1.517   8.382  1.1236 -1.2844  0.8205
 6887SOL    HW223682   8.079   1.494   8.240  0.0654  1.7494  0.6524
 6888SOL     OW23683   2.626   4.852   7.877 -0.2062  0.6982  0.1525
 6888SOL    HW123684   2.717   4.827   7.894 -0.1290  1.0625  0.2729
 6888SOL    HW223685   2.631   4.922   7.812 -0.3480  1.3664  0.8512
 6889SOL     OW23686   1.152   4.199   6.681  0.1114  0.2014 -0.2495
 6889SOL    HW123687   1.208   4.268   6.716  1.1032 -0.3368 -0.7445
 6889SOL    HW223688   1.205   4.157   6.614 -0.1367 -1.6241  0.6628
 6890SOL     OW23689   1.938   8.323   1.373 -0.3468 -0.2990  0.2003
 6890SOL    HW123690   1.895   8.400   1.335 -0.2541  0.2204  1.1223
 6890SOL    HW223691   1.872   8.286   1.432 -0.7884 -1.5871 -1.0855
 6891SOL     OW23692   6.035   0.503   6.857  0.3370  0.3916  0.2536
 6891SOL    HW123693   6.014   0.562   6.930 -1.1064  0.2658 -0.0491
 6891SOL    HW223694   6.037   0.559   6.780  0.8078  0.3398  0.2220
 6892SOL     OW23695   5.012   9.027   8.189 -0.7406  0.2333 -0.5819
 6892SOL    HW123696   4.951   8.957   8.215  0.5682 -0.8212 -0.2871
 6892SOL    HW223697   4.993   9.041   8.096 -0.8496 -0.6939 -0.7099
 6893SOL     OW23698   8.387   4.746   0.829 -0.2068 -0.5628 -0.6205
 6893SOL    HW123699   8.389   4.654   0.856  0.6560 -0.4269 -0.2260
 6893SOL    HW223700   8.465   4.756   0.775  0.3510  0.2432  0.3250
 6894SOL     OW23701   0.048   2.202   0.231  0.2361 -0.1307 -0.2855
 6894SOL    HW123702   0.086   2.263   0.168  1.7521  2.2911  2.8629
 6894SOL    HW223703  -0.043   2.231   0.240  0.7833  1.3428  0.7227
 6895SOL     OW23704   8.471   5.879   7.517 -0.2700  0.7992 -0.0029
 6895SOL    HW123705   8.414   5.837   7.453  1.9380  0.0756 -1.5871
 6895SOL    HW223706   8.439   5.969   7.523 -2.8511 -0.1514  0.7448
 6896SOL     OW23707   5.686   4.043   7.331  0.5074 -0.1944 -0.6092
 6896SOL    HW123708   5.707   3.997   7.412  0.6416 -2.1057 -1.7049
 6896SOL    HW223709   5.605   4.091   7.351  0.1507 -1.2070  0.4387
 6897SOL     OW23710   3.673   1.785   0.929 -0.1715  0.7186 -0.3218
 6897SOL    HW123711   3.734   1.721   0.892 -0.3197 -0.3503  1.2169
 6897SOL    HW223712   3.615   1.808   0.857 -0.3767 -1.2162 -0.8077
 6898SOL     OW23713   5.245   8.083   5.019 -0.5099  0.1122  0.1981
 6898SOL    HW123714   5.236   8.029   5.098 -0.8913 -1.1898 -0.7212
 6898SOL    HW223715   5.191   8.160   5.036 -0.3904 -0.0382  1.3034
 6899SOL     OW23716   7.251   2.157   0.146 -0.4540  0.2076  0.4070
 6899SOL    HW123717   7.173   2.106   0.166 -0.3713  0.2777  0.8984
 6899SOL    HW223718   7.225   2.212   0.072 -0.5322 -0.5690 -0.1537
 6900SOL     OW23719   1.555   9.417   2.282  0.2623 -0.4280  0.6845
 6900SOL    HW123720   1.617   9.486   2.304  1.2703 -1.6940  1.9821
 6900SOL    HW223721   1.479   9.462   2.246  1.6697  1.1972 -0.2855
 6901SOL     OW23722   2.328   0.679   2.059  0.6391  0.3654 -0.0350
 6901SOL    HW123723   2.347   0.678   2.153  1.7540  1.5866 -0.2285
 6901SOL    HW223724   2.412   0.700   2.018 -0.0312  0.7205 -1.2513
 6902SOL     OW23725   1.764   8.690   8.553 -0.3295 -0.2229  0.0769
 6902SOL    HW123726   1.764   8.746   8.475  2.0071  0.2305  0.3599
 6902SOL    HW223727   1.701   8.731   8.612 -0.6216  0.5800 -0.7784
 6903SOL     OW23728   6.491   5.375   0.151  0.6405 -0.4264  0.4402
 6903SOL    HW123729   6.540   5.387   0.070 -1.2808 -0.3846 -0.7527
 6903SOL    HW223730   6.540   5.309   0.200  0.9566 -1.6470 -1.4753
 6904SOL     OW23731   0.987   3.577   0.028 -0.3175  0.2217  0.6687
 6904SOL    HW123732   1.080   3.592   0.014  0.1233  0.6666  3.6695
 6904SOL    HW223733   0.982   3.491   0.070 -1.2234  0.3358  0.8079
 6905SOL     OW23734   7.996   5.834   3.391 -0.1249 -0.6407 -0.6496
 6905SOL    HW123735   8.086   5.856   3.370  0.1975  0.5355  1.7883
 6905SOL    HW223736   7.944   5.876   3.323  1.0957 -0.4239 -1.4592
 6906SOL     OW23737   9.077   6.946   7.352  0.1958  0.8729  0.2542
 6906SOL    HW123738   9.059   6.875   7.413 -0.5008  0.1739 -0.7502
 6906SOL    HW223739   9.161   6.922   7.312  0.7560  1.4386  1.0869
 6907SOL     OW23740   3.342   8.739   2.239  0.4074 -0.0732 -0.5834
 6907SOL    HW123741   3.381   8.827   2.245 -1.6936  0.7468  2.1676
 6907SOL    HW223742   3.313   8.733   2.148  0.4221  2.1782 -0.7876
 6908SOL     OW23743   8.921   6.900   6.369  0.1323  0.0917 -0.0952
 6908SOL    HW123744   8.899   6.813   6.335  0.3383 -0.0518  0.1363
 6908SOL    HW223745   8.845   6.954   6.347  0.0351 -0.1296 -0.3058
 6909SOL     OW23746   4.473   5.494   5.867 -0.2386 -0.3788 -0.1825
 6909SOL    HW123747   4.472   5.398   5.871 -1.2686 -0.3389  0.6124
 6909SOL    HW223748   4.529   5.521   5.939 -1.1093 -0.3511  0.4991
 6910SOL     OW23749   0.196   6.189   1.922  0.5010 -0.3610  0.0179
 6910SOL    HW123750   0.236   6.261   1.971 -0.3610 -0.9150  1.5831
 6910SOL    HW223751   0.183   6.120   1.988 -0.9844 -1.0092 -0.9248
 6911SOL     OW23752   8.012   7.101   1.605  0.5075 -0.3952 -0.3446
 6911SOL    HW123753   7.943   7.128   1.665  2.6344  1.9812  1.1477
 6911SOL    HW223754   8.009   7.005   1.606 -0.9602 -0.3521  1.7980
 6912SOL     OW23755   7.699   3.880   8.090  0.1002  0.1723  0.1505
 6912SOL    HW123756   7.646   3.956   8.114  0.5098  0.0984  1.3545
 6912SOL    HW223757   7.636   3.809   8.078 -0.2446  0.5895 -0.5185
 6913SOL     OW23758   6.614   4.815   4.619 -0.2823 -0.3952 -0.3064
 6913SOL    HW123759   6.535   4.761   4.609 -0.7915  0.6119 -1.7997
 6913SOL    HW223760   6.622   4.827   4.714 -1.5294 -1.0861 -0.0928
 6914SOL     OW23761   8.918   9.342   5.511  0.5824 -0.4748 -0.1554
 6914SOL    HW123762   8.916   9.263   5.564  1.5628 -0.2441  0.2373
 6914SOL    HW223763   8.944   9.312   5.423 -0.3649 -0.7610 -0.3402
 6915SOL     OW23764   2.059   3.973   2.776  0.1424  0.1888  0.1201
 6915SOL    HW123765   2.043   3.888   2.736 -0.8384 -0.4907  1.8911
 6915SOL    HW223766   2.154   3.978   2.786  0.3300  0.0175 -1.4914
 6916SOL     OW23767   6.388   8.710   4.161 -0.1128  0.5223 -0.2031
 6916SOL    HW123768   6.468   8.658   4.173 -0.5380 -0.4476 -1.5117
 6916SOL    HW223769   6.412   8.797   4.194  1.9364  0.6177 -1.8123
 6917SOL     OW23770   1.855   4.264   6.274  0.6338  0.4449  0.3226
 6917SOL    HW123771   1.934   4.213   6.256  0.4192  0.9115 -2.0987
 6917SOL    HW223772   1.860   4.283   6.368  2.9277 -0.3026  0.3889
 6918SOL     OW23773   3.483   6.843   7.404 -0.2329 -0.1601 -0.0131
 6918SOL    HW123774   3.436   6.759   7.406 -0.6818  0.1066  1.5695
 6918SOL    HW223775   3.415   6.908   7.388 -0.2412  0.0999  0.9918
 6919SOL     OW23776   1.163   4.579   3.364 -0.4539 -0.2237  0.5190
 6919SOL    HW123777   1.186   4.594   3.272  0.1240 -4.1225 -0.0312
 6919SOL    HW223778   1.240   4.606   3.413  0.2807 -0.7261 -0.3517
 6920SOL     OW23779   7.826   6.076   7.670 -0.1170  0.3613  0.0606
 6920SOL    HW123780   7.919   6.060   7.689 -0.0183 -0.1790 -0.8252
 6920SOL    HW223781   7.810   6.028   7.589 -1.3855 -0.2330  0.6404
 6921SOL     OW23782   1.000   6.211   4.473  0.5560 -0.1673 -0.0760
 6921SOL    HW123783   0.953   6.288   4.442  1.7432  0.8402  0.5739
 6921SOL    HW223784   1.039   6.239   4.556  1.4080 -1.3225 -0.0818
 6922SOL     OW23785   7.811   0.792   1.994  0.3375 -0.2985  0.3884
 6922SOL    HW123786   7.844   0.845   1.922  0.5366  0.0808  0.7580
 6922SOL    HW223787   7.885   0.784   2.055 -0.0913  0.1132  0.9683
 6923SOL     OW23788   1.821   1.894   0.220  0.2626 -0.4062  0.7866
 6923SOL    HW123789   1.890   1.838   0.255  0.5871  0.0978  0.9531
 6923SOL    HW223790   1.823   1.879   0.126  1.2713  0.3749  0.6847
 6924SOL     OW23791   0.609   7.573   6.305  0.2916  0.4263  0.1609
 6924SOL    HW123792   0.547   7.642   6.329  1.3527  2.0677 -1.7603
 6924SOL    HW223793   0.686   7.591   6.359 -0.3448 -0.7717  1.5017
 6925SOL     OW23794   5.933   7.970   7.063  0.2083 -0.7670  0.4442
 6925SOL    HW123795   5.963   7.989   7.152  2.1036 -0.7317 -0.1906
 6925SOL    HW223796   5.987   7.896   7.034  0.2579 -0.1779 -1.0116
 6926SOL     OW23797   9.283   0.637   0.425  0.4550  0.3030  0.2024
 6926SOL    HW123798   9.260   0.723   0.461 -0.6510  0.3233 -0.5335
 6926SOL    HW223799   9.308   0.655   0.335  0.5705 -0.1136  0.1539
 6927SOL     OW23800   4.901   1.097   7.148 -0.0820 -0.0584  0.1925
 6927SOL    HW123801   4.986   1.057   7.130 -0.4141 -0.4500 -0.5128
 6927SOL    HW223802   4.890   1.088   7.243  0.0512 -1.2304  0.1029
 6928SOL     OW23803   4.764   9.011   6.007 -0.3371  0.0136  0.1325
 6928SOL    HW123804   4.837   9.020   6.067 -1.0621 -1.4898  1.2846
 6928SOL    HW223805   4.800   9.031   5.921  1.9908 -2.8979  0.3661
 6929SOL     OW23806   6.242   6.294   9.008 -0.1647  0.4299 -0.3280
 6929SOL    HW123807   6.255   6.221   8.948  1.9118 -0.0962  0.7300
 6929SOL    HW223808   6.252   6.373   8.953  1.7925 -0.0377 -0.6642
 6930SOL     OW23809   7.493   0.323   1.293 -0.4410  0.1442  0.1326
 6930SOL    HW123810   7.432   0.381   1.248 -2.4813 -2.3062 -0.4317
 6930SOL    HW223811   7.572   0.324   1.240 -2.0065 -0.9247 -2.3163
 6931SOL     OW23812   9.025   8.781   6.162  0.3468 -0.2412 -0.0718
 6931SOL    HW123813   8.944   8.771   6.211  1.4575  0.7384  2.0306
 6931SOL    HW223814   9.010   8.856   6.104 -0.1151  0.1590  0.5704
 6932SOL     OW23815   0.487   0.193   0.717  0.0712 -0.0832  0.6708
 6932SOL    HW123816   0.422   0.216   0.649 -0.8331 -2.2793  0.7345
 6932SOL    HW223817   0.554   0.260   0.710 -1.4205  1.3248 -0.5168
 6933SOL     OW23818   3.256   2.060   1.318  0.0700  0.4510 -0.3622
 6933SOL    HW123819   3.262   1.971   1.283 -1.9601  0.0592  0.2356
 6933SOL    HW223820   3.272   2.050   1.412 -0.2600  0.6963 -0.2787
 6934SOL     OW23821   1.551   7.862   9.130 -0.3735 -0.6133 -0.3219
 6934SOL    HW123822   1.611   7.865   9.205 -0.9633  0.8780  0.1052
 6934SOL    HW223823   1.471   7.824   9.165 -0.4418 -0.4829 -0.3352
 6935SOL     OW23824   2.341   4.671   5.061  0.0837  0.0631 -0.1064
 6935SOL    HW123825   2.303   4.609   5.123  1.7918 -1.8413 -0.8955
 6935SOL    HW223826   2.282   4.669   4.986 -0.9158  0.8753  0.6530
 6936SOL     OW23827   2.089   6.426   7.400 -0.3136 -0.5268  0.1629
 6936SOL    HW123828   2.112   6.482   7.325 -3.7820  0.9419  0.1116
 6936SOL    HW223829   2.113   6.477   7.477  1.5148 -1.2561  0.0957
 6937SOL     OW23830   0.726   5.431   8.779  0.1304 -0.4588  0.1181
 6937SOL    HW123831   0.782   5.455   8.853  0.6128  1.4757 -0.8460
 6937SOL    HW223832   0.787   5.394   8.715  0.0043 -0.3156 -0.0858
 6938SOL     OW23833   1.055   5.747   5.445 -0.0292 -0.1378 -0.1746
 6938SOL    HW123834   1.077   5.804   5.518 -1.5176  0.8521 -0.4877
 6938SOL    HW223835   1.024   5.666   5.486 -1.0746  0.4940  0.2992
 6939SOL     OW23836   7.102   6.279   3.570 -0.5239  0.5558  0.1465
 6939SOL    HW123837   7.101   6.203   3.627  0.0075 -1.3433 -2.2962
 6939SOL    HW223838   7.044   6.343   3.614 -0.9737 -1.2178  2.2149
 6940SOL     OW23839   4.890   1.600   6.222 -0.0368  0.3738 -0.0370
 6940SOL    HW123840   4.893   1.595   6.126  1.0002 -0.5987  0.0371
 6940SOL    HW223841   4.898   1.509   6.251  2.7325  0.8951  1.0336
 6941SOL     OW23842   0.175   8.594   6.315 -0.2187 -0.4961 -0.2319
 6941SOL    HW123843   0.122   8.517   6.294  0.7008 -1.2824  0.3113
 6941SOL    HW223844   0.260   8.559   6.342  0.2383  0.7095 -0.0622
 6942SOL     OW23845   9.323   7.769   3.005 -0.1507  0.2118 -0.0250
 6942SOL    HW123846   9.410   7.790   2.970  0.0376  1.1491  0.9507
 6942SOL    HW223847   9.306   7.680   2.976  1.1209  0.0348 -0.2671
 6943SOL     OW23848   8.345   4.523   5.669 -0.0803 -0.0161  0.4913
 6943SOL    HW123849   8.355   4.430   5.651 -1.3427 -0.1056  0.1843
 6943SOL    HW223850   8.279   4.527   5.739  0.3569  0.6208  0.8742
 6944SOL     OW23851   1.382   6.193   2.545 -0.0557  0.3420  0.2399
 6944SOL    HW123852   1.310   6.166   2.602 -0.8418  0.7586 -0.5377
 6944SOL    HW223853   1.371   6.138   2.467  1.8220 -1.1995  1.0330
 6945SOL     OW23854   2.755   8.086   5.569  0.1535  0.5442  0.3279
 6945SOL    HW123855   2.721   8.027   5.501 -0.0558 -0.1666  1.0403
 6945SOL    HW223856   2.795   8.028   5.634 -1.5438  1.0538  1.8752
 6946SOL     OW23857   8.609   3.606   3.759  0.0961  0.0645 -0.4861
 6946SOL    HW123858   8.698   3.637   3.778 -0.1500  0.1757  0.4978
 6946SOL    HW223859   8.616   3.566   3.672  1.0237  0.4093 -0.5797
 6947SOL     OW23860   0.829   5.712   6.201  0.7482  0.2725  0.4025
 6947SOL    HW123861   0.824   5.761   6.119  0.3613  0.2987  0.4383
 6947SOL    HW223862   0.922   5.704   6.219  0.8966 -1.0571 -0.8395
 6948SOL     OW23863   1.629   7.531   4.352  0.1608  0.0837 -0.2656
 6948SOL    HW123864   1.605   7.456   4.298 -0.2259  0.9197 -1.2710
 6948SOL    HW223865   1.725   7.531   4.352  0.1626  0.1542 -1.0606
 6949SOL     OW23866   6.085   3.261   0.744  0.0875 -0.0038 -0.6352
 6949SOL    HW123867   6.002   3.215   0.759  0.3154  0.1695  1.2248
 6949SOL    HW223868   6.065   3.322   0.673 -1.3359 -0.0743 -0.3215
 6950SOL     OW23869   0.942   2.163   7.909  0.3934  0.0967 -0.3389
 6950SOL    HW123870   1.003   2.215   7.857  1.3373 -0.8092 -0.1385
 6950SOL    HW223871   0.891   2.114   7.844 -0.6602  1.4088 -0.5417
 6951SOL     OW23872   1.141   4.102   0.717  0.4283 -0.2329  0.4796
 6951SOL    HW123873   1.195   4.152   0.656  0.4010 -0.0182  0.6318
 6951SOL    HW223874   1.092   4.168   0.766  0.1252 -0.4245  0.4343
 6952SOL     OW23875   7.364   2.432   1.490 -0.3479  0.1338 -0.0738
 6952SOL    HW123876   7.407   2.396   1.413  1.7042  1.6248  0.3187
 6952SOL    HW223877   7.283   2.472   1.457  1.1443  1.9075 -1.6804
 6953SOL     OW23878   3.730   2.314   5.164  0.3995  0.2396 -0.6413
 6953SOL    HW123879   3.672   2.389   5.177  1.2535  0.6322  1.0997
 6953SOL    HW223880   3.673   2.244   5.133 -0.9980  0.6770  0.8374
 6954SOL     OW23881   4.000   2.185   6.089  0.2473 -0.3053  0.1695
 6954SOL    HW123882   3.941   2.163   6.017  0.5268  1.6695 -0.6823
 6954SOL    HW223883   3.949   2.169   6.168 -1.2977  0.9788 -0.5528
 6955SOL     OW23884   3.160   5.497   6.931  0.1022 -0.5172  0.4041
 6955SOL    HW123885   3.227   5.477   6.996  0.5286 -1.1106 -0.2075
 6955SOL    HW223886   3.207   5.540   6.860  0.1493 -2.4291 -0.7663
 6956SOL     OW23887   9.437   5.992   3.159 -0.3990  0.0602 -0.3919
 6956SOL    HW123888   9.365   5.970   3.218 -0.5377  0.1554 -0.5236
 6956SOL    HW223889   9.514   5.995   3.215 -0.6582  0.9470 -0.0788
 6957SOL     OW23890   5.474   7.853   3.007  0.4454 -0.0464  0.1622
 6957SOL    HW123891   5.480   7.854   3.103 -0.9564 -1.0078  0.2861
 6957SOL    HW223892   5.516   7.771   2.981  0.0824 -0.1947  0.0315
 6958SOL     OW23893   0.633   0.434   2.327  0.2672 -0.4578  0.2110
 6958SOL    HW123894   0.606   0.342   2.323  2.3488 -1.0194 -1.7264
 6958SOL    HW223895   0.694   0.438   2.400  1.4642 -0.9885 -0.7469
 6959SOL     OW23896   6.389   7.730   7.164 -0.5661 -0.3694 -0.1952
 6959SOL    HW123897   6.404   7.661   7.099 -2.0519 -0.6646 -0.2469
 6959SOL    HW223898   6.321   7.694   7.222 -0.5943  0.6282  0.4030
 6960SOL     OW23899   7.964   7.642   5.742  0.5142 -0.3316 -0.0079
 6960SOL    HW123900   7.882   7.617   5.699  0.1960 -0.1506  0.4963
 6960SOL    HW223901   7.973   7.735   5.723  1.6549 -0.7747 -1.8092
 6961SOL     OW23902   4.174   2.613   6.542 -0.1909  0.0675  0.3968
 6961SOL    HW123903   4.100   2.608   6.603  0.2363  3.3611  1.2564
 6961SOL    HW223904   4.251   2.604   6.598  0.1510  1.1413  0.1050
 6962SOL     OW23905   4.046   5.906   2.917 -0.4591  0.3307  0.5144
 6962SOL    HW123906   4.028   5.906   3.011 -0.1142  0.1248  0.5829
 6962SOL    HW223907   4.141   5.890   2.911 -0.9332 -2.6462  0.0490
 6963SOL     OW23908   0.643   6.554   0.437  0.6441 -0.0256  0.2011
 6963SOL    HW123909   0.549   6.539   0.432  0.0795  3.2345 -0.6147
 6963SOL    HW223910   0.662   6.553   0.531 -0.1909 -0.7254  0.3730
 6964SOL     OW23911   1.885   0.081   8.203  0.2142  0.3135  0.3991
 6964SOL    HW123912   1.895   0.168   8.241 -1.1842  0.6241  0.1031
 6964SOL    HW223913   1.895   0.021   8.277  0.0037  0.7918  0.8228
 6965SOL     OW23914   8.271   1.843   6.163  0.3014 -0.5359  0.4774
 6965SOL    HW123915   8.258   1.855   6.257  0.0611 -2.8438  0.7895
 6965SOL    HW223916   8.209   1.902   6.121 -0.8453 -0.7724  1.8054
 6966SOL     OW23917   1.139   3.402   1.864 -0.0938  0.8693  0.0255
 6966SOL    HW123918   1.190   3.323   1.880 -1.1571  0.5041  1.6774
 6966SOL    HW223919   1.065   3.372   1.811 -0.9815  0.5807  1.4135
 6967SOL     OW23920   8.986   1.654   8.604 -0.2259 -0.4102 -0.4374
 6967SOL    HW123921   8.930   1.674   8.529  2.5590 -0.2054 -2.5908
 6967SOL    HW223922   8.988   1.735   8.654 -1.3215 -0.2175 -0.6915
 6968SOL     OW23923   9.170   2.908   3.952  0.7054  0.7198 -0.0327
 6968SOL    HW123924   9.211   2.984   3.993 -1.3618  1.4804  0.7419
 6968SOL    HW223925   9.148   2.937   3.864  1.6261  0.3884 -0.3711
 6969SOL     OW23926   0.500   7.300   8.325  0.1511 -0.1823  0.5340
 6969SOL    HW123927   0.431   7.361   8.353 -0.4818 -1.3055  1.4755
 6969SOL    HW223928   0.515   7.244   8.402  1.4550 -0.5512  0.0256
 6970SOL     OW23929   9.253   3.842   3.221  0.2423  0.6197 -0.1656
 6970SOL    HW123930   9.299   3.761   3.197 -2.5088 -1.2233  0.5760
 6970SOL    HW223931   9.264   3.848   3.316 -1.4350 -0.1210  0.0922
 6971SOL     OW23932   1.996   2.613   0.676 -0.1467 -0.0802 -0.6270
 6971SOL    HW123933   1.925   2.676   0.666  0.4254  0.8399  0.9227
 6971SOL    HW223934   2.032   2.631   0.763  2.0598 -0.4424 -1.4241
 6972SOL     OW23935   8.743   6.984   4.346 -0.2328 -0.2119 -0.0197
 6972SOL    HW123936   8.798   6.953   4.418 -0.8006  1.8588  1.3662
 6972SOL    HW223937   8.655   6.955   4.369 -0.9402  3.0766  1.8050
 6973SOL     OW23938   2.481   1.912   9.107 -0.2463  0.3904  0.4992
 6973SOL    HW123939   2.436   1.939   9.187 -0.2226  2.0631 -0.0239
 6973SOL    HW223940   2.545   1.982   9.091 -0.3854  0.1768 -1.0879
 6974SOL     OW23941   8.779   6.049   4.973  0.1537  0.1737 -0.2810
 6974SOL    HW123942   8.703   6.099   4.943  0.8168  2.0009  1.0023
 6974SOL    HW223943   8.848   6.115   4.982  1.4542 -1.2248  0.0536
 6975SOL     OW23944   4.551   2.731   4.302  0.1291  0.2047 -0.5189
 6975SOL    HW123945   4.515   2.820   4.304 -0.9949 -0.2468  0.0533
 6975SOL    HW223946   4.519   2.694   4.220 -0.8454 -0.2489  0.0631
 6976SOL     OW23947   4.398   4.465   1.765 -0.3901  0.0631 -0.4819
 6976SOL    HW123948   4.376   4.538   1.707 -0.4117 -0.9078 -1.7195
 6976SOL    HW223949   4.353   4.389   1.726  0.4171 -0.7996  0.2437
 6977SOL     OW23950   8.203   7.598   6.985  0.1887  0.1485 -0.1327
 6977SOL    HW123951   8.222   7.634   7.072 -0.3181 -1.2597  0.5670
 6977SOL    HW223952   8.182   7.506   7.001 -3.0005  0.6224 -1.4025
 6978SOL     OW23953   7.450   2.322   8.304  0.3640 -0.1679  0.0119
 6978SOL    HW123954   7.493   2.282   8.228 -1.2281 -1.2657 -0.3279
 6978SOL    HW223955   7.419   2.407   8.273  1.5712  0.2893  0.0352
 6979SOL     OW23956   6.012   1.340   6.137  0.3355 -0.2238 -0.1945
 6979SOL    HW123957   5.966   1.276   6.192  0.2120  0.2017  0.2002
 6979SOL    HW223958   6.079   1.376   6.195 -0.6855  1.2241  0.0997
 6980SOL     OW23959   7.844   8.220   0.708  0.1006  0.0467 -0.2753
 6980SOL    HW123960   7.855   8.134   0.667 -1.6360  0.1393 -0.9676
 6980SOL    HW223961   7.922   8.269   0.680  1.3204 -1.4106  0.4695
 6981SOL     OW23962   9.139   6.869   0.438 -0.2769 -0.2072  0.1671
 6981SOL    HW123963   9.067   6.907   0.489 -0.2188  0.9859 -0.6153
 6981SOL    HW223964   9.104   6.859   0.350  0.4740  0.3185 -0.2022
 6982SOL     OW23965   2.800   4.480   7.068 -0.1988 -0.2028 -0.4624
 6982SOL    HW123966   2.729   4.418   7.055 -1.6192  1.1331  0.8256
 6982SOL    HW223967   2.757   4.561   7.095  1.6621  1.1968 -1.5983
 6983SOL     OW23968   8.433   5.215   3.929  0.5621 -0.2925 -0.4895
 6983SOL    HW123969   8.424   5.125   3.898 -1.5844 -0.3799  0.3129
 6983SOL    HW223970   8.492   5.209   4.004  0.8141 -0.9370 -0.7365
 6984SOL     OW23971   2.871   5.974   1.041 -0.2168  0.1246 -0.2179
 6984SOL    HW123972   2.887   5.922   0.962 -1.1924  0.0539 -0.3776
 6984SOL    HW223973   2.885   5.913   1.113 -0.2362 -0.0576 -0.3674
 6985SOL     OW23974   8.073   7.180   0.452 -0.0094 -0.4938 -0.4944
 6985SOL    HW123975   8.074   7.101   0.398 -0.0164 -1.0302  0.2736
 6985SOL    HW223976   8.055   7.148   0.541 -1.4564  0.5304 -0.4047
 6986SOL     OW23977   0.588   3.853   5.739  0.1459  0.0596  0.1592
 6986SOL    HW123978   0.577   3.758   5.731  1.5717 -0.1263  0.3045
 6986SOL    HW223979   0.530   3.878   5.811 -1.9412 -0.3591 -1.3297
 6987SOL     OW23980   4.682   3.497   6.909 -0.1190 -0.2824  0.0364
 6987SOL    HW123981   4.687   3.435   6.836  0.5164 -0.0801 -0.0956
 6987SOL    HW223982   4.652   3.444   6.983 -1.0962 -0.4189 -0.4446
 6988SOL     OW23983   0.795   7.310   1.912 -0.6282 -0.1786 -0.5064
 6988SOL    HW123984   0.762   7.285   1.825 -0.1382 -0.5323 -0.5885
 6988SOL    HW223985   0.845   7.390   1.897 -0.4897 -0.2755 -0.5603
 6989SOL     OW23986   1.660   6.218   7.837 -0.0600  0.4237  0.4153
 6989SOL    HW123987   1.695   6.166   7.763 -1.0283 -1.1632  1.0451
 6989SOL    HW223988   1.733   6.225   7.898  0.2202  0.2148  0.1058
 6990SOL     OW23989   4.780   1.458   0.481 -0.4050  0.2876  0.4505
 6990SOL    HW123990   4.812   1.444   0.392 -1.3753  2.4103 -0.2529
 6990SOL    HW223991   4.689   1.429   0.479 -0.4649  0.4511  0.7430
 6991SOL     OW23992   0.273   5.169   2.008 -0.2673  0.0860 -0.4894
 6991SOL    HW123993   0.328   5.101   2.048 -2.6573 -0.3391  2.2310
 6991SOL    HW223994   0.302   5.250   2.050  0.3083  0.3031 -1.2885
 6992SOL     OW23995   4.499   4.299   0.600  0.2394  0.7954 -0.2834
 6992SOL    HW123996   4.423   4.242   0.611  0.5839  0.0690 -1.5794
 6992SOL    HW223997   4.559   4.274   0.671 -0.3556  0.7686  0.2110
 6993SOL     OW23998   3.768   1.889   7.952  0.4292  0.1897  0.1363
 6993SOL    HW123999   3.750   1.912   8.044  0.7722  0.1734  0.2067
 6993SOL    HW224000   3.857   1.854   7.953  0.3992  0.1069 -0.1898
 6994SOL     OW24001   7.300   6.587   5.849  0.4014 -0.2022 -0.2189
 6994SOL    HW124002   7.282   6.506   5.896  1.2760 -0.5749 -0.5327
 6994SOL    HW224003   7.222   6.641   5.865  0.5438 -0.4382  1.4005
 6995SOL     OW24004   8.613   3.596   2.415  0.1640 -0.3794  0.5352
 6995SOL    HW124005   8.669   3.520   2.428  0.4377 -0.0885  1.0672
 6995SOL    HW224006   8.672   3.671   2.425 -0.0236 -0.0988 -0.3649
 6996SOL     OW24007   6.570   4.929   1.326 -0.0194  0.6485  0.1466
 6996SOL    HW124008   6.616   4.984   1.264  1.9171 -0.3522  0.6512
 6996SOL    HW224009   6.569   4.842   1.285 -0.3568  0.3947  0.6788
 6997SOL     OW24010   3.307   5.534   9.138  0.3578 -0.4784 -0.3821
 6997SOL    HW124011   3.388   5.492   9.110  0.5316 -1.5564  1.6621
 6997SOL    HW224012   3.319   5.626   9.115  1.8402 -0.7517 -0.7818
 6998SOL     OW24013   0.752   5.835   6.868  0.3554 -0.4686  0.2148
 6998SOL    HW124014   0.847   5.823   6.874  0.1661 -1.3522  1.5090
 6998SOL    HW224015   0.720   5.820   6.956 -0.7812  1.9347  0.2515
 6999SOL     OW24016   8.707   3.404   5.015 -0.0490  0.3894 -0.6491
 6999SOL    HW124017   8.619   3.387   4.981 -0.2696  1.7138 -0.7858
 6999SOL    HW224018   8.758   3.431   4.938 -0.2550  2.2945 -0.1325
 7000SOL     OW24019   3.224   3.484   8.673 -0.3692  0.0375 -0.2216
 7000SOL    HW124020   3.286   3.536   8.623  1.2662 -0.7828  0.8993
 7000SOL    HW224021   3.215   3.532   8.756  0.5970 -1.0445  0.5334
 7001SOL     OW24022   4.203   6.474   4.606 -0.2984 -0.1647 -0.2720
 7001SOL    HW124023   4.176   6.390   4.644  0.2727  0.5033  1.6244
 7001SOL    HW224024   4.120   6.520   4.590 -0.5384 -0.3575  0.3891
 7002SOL     OW24025   2.475   7.459   6.084 -0.1139  0.3813  0.1161
 7002SOL    HW124026   2.475   7.497   6.171 -0.4642 -0.2947  0.4132
 7002SOL    HW224027   2.402   7.396   6.085 -2.2316  2.6846 -1.6576
 7003SOL     OW24028   2.904   0.430   0.195 -0.9020 -0.0705 -0.2541
 7003SOL    HW124029   2.860   0.345   0.197 -2.6434  0.8360  1.5133
 7003SOL    HW224030   2.988   0.415   0.238 -1.0635 -0.9511 -0.2437
 7004SOL     OW24031   8.861   3.138   9.061  0.3954 -0.6928 -0.1170
 7004SOL    HW124032   8.884   3.050   9.030 -1.0983 -1.4401  0.8001
 7004SOL    HW224033   8.856   3.129   9.156  0.0213  0.3264 -0.0397
 7005SOL     OW24034   4.420   5.608   9.258 -0.2409  0.4088 -0.1435
 7005SOL    HW124035   4.499   5.626   9.207  0.5826  1.3343  1.4516
 7005SOL    HW224036   4.434   5.521   9.295 -0.0908  0.4682 -0.0650
 7006SOL     OW24037   6.555   8.277   8.279 -0.0139  0.1994 -0.3943
 7006SOL    HW124038   6.555   8.319   8.193  0.9791  0.6478 -0.1819
 7006SOL    HW224039   6.625   8.211   8.274  0.0883  0.2689  0.0908
 7007SOL     OW24040   9.417   5.275   6.123  0.1835  0.0759 -0.1624
 7007SOL    HW124041   9.325   5.261   6.101  0.0425  1.9404 -0.8226
 7007SOL    HW224042   9.416   5.344   6.190  0.9810 -1.4254  1.4470
 7008SOL     OW24043   5.169   7.380   3.524  0.2035  0.0392 -0.0861
 7008SOL    HW124044   5.216   7.427   3.593 -0.8527  0.6420  0.2270
 7008SOL    HW224045   5.163   7.442   3.452  0.6845 -0.3515 -0.4725
 7009SOL     OW24046   7.900   7.917   1.887  1.1273 -0.4620  0.3349
 7009SOL    HW124047   7.868   7.992   1.938  1.1337  1.4919 -2.4161
 7009SOL    HW224048   7.978   7.950   1.843  1.2566 -2.1738 -0.7394
 7010SOL     OW24049   6.834   3.641   1.521  0.1332  0.0235  0.4296
 7010SOL    HW124050   6.820   3.606   1.609  0.0021  2.3441  1.3754
 7010SOL    HW224051   6.929   3.649   1.513  0.0716  2.0897  1.3399
 7011SOL     OW24052   8.678   7.280   1.158 -0.1657  0.1523 -0.7822
 7011SOL    HW124053   8.604   7.230   1.192 -0.3359  1.0428  0.1607
 7011SOL    HW224054   8.699   7.342   1.227  0.9873  0.4065 -1.3533
 7012SOL     OW24055   4.516   1.283   1.633 -0.1610  0.3277  0.0712
 7012SOL    HW124056   4.574   1.211   1.659  0.4071  1.3779  1.7830
 7012SOL    HW224057   4.464   1.247   1.562  2.6550 -0.6320 -1.5950
 7013SOL     OW24058   4.112   5.514   1.635 -0.3271 -0.1080  0.0570
 7013SOL    HW124059   4.202   5.515   1.669 -0.9616 -0.1649  1.7839
 7013SOL    HW224060   4.114   5.448   1.566  1.3102  0.9408 -0.9371
 7014SOL     OW24061   1.481   3.207   4.119 -0.2488 -0.2775  0.2904
 7014SOL    HW124062   1.471   3.253   4.036  0.6105 -1.5206 -0.5225
 7014SOL    HW224063   1.571   3.226   4.146  0.4319 -2.1856 -0.5169
 7015SOL     OW24064   4.022   4.738   3.600 -0.0437  0.0789 -0.2849
 7015SOL    HW124065   3.978   4.760   3.517  2.1006 -0.3958 -1.5780
 7015SOL    HW224066   4.102   4.693   3.573  1.9105  2.0660  1.9734
 7016SOL     OW24067   9.122   8.417   1.202  0.4611 -0.0512 -0.0974
 7016SOL    HW124068   9.154   8.473   1.273 -0.6983  1.4348 -0.7303
 7016SOL    HW224069   9.168   8.447   1.124  0.7191 -0.7679 -0.2222
 7017SOL     OW24070   3.444   8.707   0.678 -0.3819  0.0164 -0.3187
 7017SOL    HW124071   3.440   8.620   0.718  0.1025 -0.4034 -1.1478
 7017SOL    HW224072   3.492   8.693   0.596 -0.9183  0.9361 -0.8028
 7018SOL     OW24073   8.680   1.682   9.356  0.0035 -0.0664  0.6355
 7018SOL    HW124074   8.635   1.763   9.333  0.7090  0.2177  0.2539
 7018SOL    HW224075   8.743   1.706   9.423 -0.4005 -0.4683  1.1698
 7019SOL     OW24076   1.410   6.938   1.441  0.4048  0.0589 -0.3978
 7019SOL    HW124077   1.319   6.911   1.433  0.8507 -0.9339 -2.3110
 7019SOL    HW224078   1.406   7.028   1.474 -1.1768 -0.8729  2.1405
 7020SOL     OW24079   0.172   7.735   4.613 -0.1555 -0.0999 -0.5350
 7020SOL    HW124080   0.115   7.799   4.570 -1.5558 -1.3749 -0.6242
 7020SOL    HW224081   0.116   7.694   4.679  1.6367  1.0105  1.7442
 7021SOL     OW24082   3.129   5.520   5.450 -0.1400  0.1478 -1.0395
 7021SOL    HW124083   3.035   5.530   5.468 -0.0962 -1.5647  0.3525
 7021SOL    HW224084   3.163   5.609   5.451 -1.8917  0.8693 -2.4471
 7022SOL     OW24085   4.456   5.827   4.517 -0.5256  0.1843 -0.4687
 7022SOL    HW124086   4.507   5.828   4.436 -1.0600  0.2276 -0.8076
 7022SOL    HW224087   4.482   5.907   4.563 -0.9607  0.6770 -1.0636
 7023SOL     OW24088   3.811   3.758   8.724 -0.1870 -0.4421  0.0679
 7023SOL    HW124089   3.832   3.715   8.807 -0.8977 -0.0100  0.4738
 7023SOL    HW224090   3.718   3.779   8.730  0.2280  1.5433  0.0695
 7024SOL     OW24091   0.383   7.758   8.503 -0.0824 -0.2723 -1.0541
 7024SOL    HW124092   0.330   7.835   8.524  1.1264  0.7825 -1.7949
 7024SOL    HW224093   0.447   7.789   8.439  2.2056 -1.1976  0.6788
 7025SOL     OW24094   4.143   0.178   0.829 -0.2026  0.3446  0.0953
 7025SOL    HW124095   4.206   0.122   0.874 -0.0249  1.2472  1.0001
 7025SOL    HW224096   4.121   0.131   0.749  0.7034 -0.5391  0.3592
 7026SOL     OW24097   0.307   1.410   9.165  0.3943 -0.0875  0.3168
 7026SOL    HW124098   0.241   1.357   9.209  0.4503  1.0321  1.7848
 7026SOL    HW224099   0.291   1.499   9.196  1.5321  0.4505 -0.6055
 7027SOL     OW24100   4.838   1.005   1.809 -0.4175  0.3554 -0.6925
 7027SOL    HW124101   4.823   1.066   1.737  1.3289  0.2984 -1.1313
 7027SOL    HW224102   4.807   0.920   1.776  0.6507  0.2710 -1.4869
 7028SOL     OW24103   3.451   2.349   0.129 -0.6347  0.1119  0.3504
 7028SOL    HW124104   3.451   2.292   0.052  0.5818  1.1916 -0.4749
 7028SOL    HW224105   3.544   2.368   0.145 -0.9899  1.4976  0.8672
 7029SOL     OW24106   6.118   7.828   2.904  0.2134  0.1068 -0.5944
 7029SOL    HW124107   6.162   7.810   2.821 -1.9406 -1.4728 -1.4413
 7029SOL    HW224108   6.061   7.902   2.885  1.7101  1.5134  0.2430
 7030SOL     OW24109   5.565   1.988   2.385 -0.1084  0.1775 -0.0048
 7030SOL    HW124110   5.473   1.969   2.403 -0.4990  1.5337 -0.5486
 7030SOL    HW224111   5.601   2.011   2.470 -0.7160  1.4420 -0.0783
 7031SOL     OW24112   7.962   2.005   7.706 -0.0153 -0.5655  0.9349
 7031SOL    HW124113   8.050   2.044   7.703 -0.2552 -0.1224 -1.0158
 7031SOL    HW224114   7.954   1.959   7.623 -2.1467  0.4922  0.5481
 7032SOL     OW24115   5.940   0.668   7.044  0.2941 -0.4434 -0.3603
 7032SOL    HW124116   5.962   0.638   7.132  1.0456 -1.2363 -0.8065
 7032SOL    HW224117   5.992   0.747   7.031  1.4941 -1.2660 -0.7087
 7033SOL     OW24118   1.254   6.126   2.043 -0.4481 -0.5203 -0.5181
 7033SOL    HW124119   1.217   6.193   1.986 -1.0321 -0.5721 -0.2062
 7033SOL    HW224120   1.327   6.089   1.993 -0.2608  0.1923 -0.7773
 7034SOL     OW24121   8.878   3.142   2.724 -0.3826  0.6386  0.4304
 7034SOL    HW124122   8.925   3.221   2.749  2.9738  0.4230 -4.2954
 7034SOL    HW224123   8.908   3.075   2.785  1.6323  1.6692  0.5959
 7035SOL     OW24124   0.703   3.566   2.154  0.3222  0.2972  0.7635
 7035SOL    HW124125   0.711   3.471   2.152 -1.0544  0.1919 -2.0732
 7035SOL    HW224126   0.619   3.582   2.198 -1.0647  0.0146 -1.6673
 7036SOL     OW24127   2.714   3.317   1.435  0.2814 -0.1370 -0.3908
 7036SOL    HW124128   2.663   3.253   1.485 -0.5768  0.7978 -0.0485
 7036SOL    HW224129   2.703   3.291   1.343 -0.5653 -0.1319 -0.2938
 7037SOL     OW24130   7.500   5.887   9.307 -0.0389 -0.2893 -0.4468
 7037SOL    HW124131   7.431   5.951   9.293 -0.2952 -0.9910 -2.5763
 7037SOL    HW224132   7.475   5.842   9.387  0.1279  2.2053  1.0503
 7038SOL     OW24133   4.517   3.956   3.888 -0.2204 -0.7110  1.1285
 7038SOL    HW124134   4.498   4.016   3.816 -0.3376  0.5697  2.2222
 7038SOL    HW224135   4.567   3.886   3.847  0.1913  0.2819 -0.1002
 7039SOL     OW24136   3.303   0.949   4.640 -0.5159  0.1211 -0.0045
 7039SOL    HW124137   3.329   0.878   4.700 -0.9277  1.3418  1.6359
 7039SOL    HW224138   3.379   1.007   4.638 -0.7835  0.4645 -0.1195
 7040SOL     OW24139   7.406   0.810   5.106  0.7627 -0.0923 -0.3527
 7040SOL    HW124140   7.474   0.801   5.172  1.6540 -0.6459 -1.3335
 7040SOL    HW224141   7.435   0.754   5.034 -1.0952 -0.9229 -0.4859
 7041SOL     OW24142   7.248   0.960   4.600  0.1529 -0.1282  0.5441
 7041SOL    HW124143   7.256   0.967   4.505  1.5214 -2.0083  0.5027
 7041SOL    HW224144   7.333   0.928   4.630 -0.4474 -0.1206  2.3498
 7042SOL     OW24145   1.182   9.223   1.636  0.0813  0.0784  0.0670
 7042SOL    HW124146   1.269   9.246   1.671  0.0220 -0.4056  0.5273
 7042SOL    HW224147   1.176   9.128   1.646 -0.9367  0.2312  1.0340
 7043SOL     OW24148   1.870   7.285   5.685 -0.3207  0.2311  0.3306
 7043SOL    HW124149   1.799   7.336   5.646 -1.3517 -0.7946  0.8523
 7043SOL    HW224150   1.875   7.316   5.776  0.1916  0.6074  0.1772
 7044SOL     OW24151   8.303   2.985   3.672 -0.5316  0.3309  0.0046
 7044SOL    HW124152   8.302   2.980   3.576  0.6621  0.9740 -0.0558
 7044SOL    HW224153   8.251   3.062   3.693  0.2519  0.9291 -0.2017
 7045SOL     OW24154   6.387   7.615   3.485 -0.0833  0.6531  0.1656
 7045SOL    HW124155   6.381   7.588   3.576 -1.4048 -1.7211 -0.5665
 7045SOL    HW224156   6.305   7.660   3.467 -1.0953 -1.4196 -0.5867
 7046SOL     OW24157   4.291   0.672   1.522 -0.3071  0.4065  0.2013
 7046SOL    HW124158   4.237   0.693   1.598  1.0055  1.0764  0.9654
 7046SOL    HW224159   4.363   0.734   1.526  0.3177 -0.2154 -1.0333
 7047SOL     OW24160   5.732   2.619   8.381  0.6822  0.5447 -0.6304
 7047SOL    HW124161   5.785   2.650   8.454  0.0885  0.3512 -0.1130
 7047SOL    HW224162   5.671   2.690   8.363 -2.9136 -1.5323  2.7375
 7048SOL     OW24163   5.698   9.056   5.697 -0.0117  0.4472 -0.6342
 7048SOL    HW124164   5.751   9.125   5.656 -0.4339  0.2191 -1.5798
 7048SOL    HW224165   5.669   9.001   5.624 -0.1366 -0.4164  0.0552
 7049SOL     OW24166   5.373   7.726   2.505  0.3514 -0.1963  0.1627
 7049SOL    HW124167   5.398   7.723   2.412  1.6060  2.1470  0.3968
 7049SOL    HW224168   5.454   7.712   2.553  0.1586  1.1698  0.9110
 7050SOL     OW24169   8.201   8.754   9.009 -0.1078  0.3818  0.2743
 7050SOL    HW124170   8.144   8.695   8.961  1.8808 -0.1104 -1.6072
 7050SOL    HW224171   8.277   8.700   9.033  0.1725  1.3210  1.5576
 7051SOL     OW24172   8.860   1.020   1.741 -0.1421 -0.6582  0.2597
 7051SOL    HW124173   8.950   1.053   1.741 -0.0483 -0.9182  0.7680
 7051SOL    HW224174   8.863   0.941   1.794 -0.6257 -0.7926  0.0880
 7052SOL     OW24175   6.468   2.939   9.317 -0.1729  0.4170  0.1810
 7052SOL    HW124176   6.424   2.867   9.362 -0.3751  0.6808  0.3969
 7052SOL    HW224177   6.407   3.012   9.321 -0.2084  0.4288 -0.5503
 7053SOL     OW24178   5.794   4.643   7.194  0.5045 -0.2637  0.4041
 7053SOL    HW124179   5.766   4.596   7.115  2.8277  0.1491 -0.6989
 7053SOL    HW224180   5.880   4.678   7.172 -0.2666  2.7357  1.9686
 7054SOL     OW24181   6.478   5.266   9.135  0.2274  0.2843  0.2008
 7054SOL    HW124182   6.556   5.296   9.088  0.7521  0.0285  0.9006
 7054SOL    HW224183   6.406   5.314   9.094  1.0137  2.2609  1.0937
 7055SOL     OW24184   7.477   1.879   1.318  0.2929 -0.3858 -0.2248
 7055SOL    HW124185   7.454   1.834   1.400  0.9101 -0.9915 -0.3772
 7055SOL    HW224186   7.545   1.824   1.279  1.3112  0.8633 -0.2507
 7056SOL     OW24187   3.075   3.791   7.508  0.1379  0.1497  1.0214
 7056SOL    HW124188   3.008   3.854   7.535  0.0305  0.0452  0.9995
 7056SOL    HW224189   3.027   3.710   7.490  0.2546  0.1099  0.8839
 7057SOL     OW24190   3.040   4.638   3.571  0.1361 -0.3688  0.6520
 7057SOL    HW124191   3.062   4.555   3.613  1.3069 -0.4157 -0.0466
 7057SOL    HW224192   2.993   4.687   3.639 -0.3768 -1.5113  1.1285
 7058SOL     OW24193   1.691   4.851   4.809 -0.3966 -0.2166 -0.4427
 7058SOL    HW124194   1.633   4.780   4.783 -0.2591  0.1255 -1.7015
 7058SOL    HW224195   1.715   4.830   4.899  0.5022 -2.3320 -1.1448
 7059SOL     OW24196   6.109   0.965   6.575 -0.6092  0.5664 -0.1526
 7059SOL    HW124197   6.031   0.988   6.625  0.1930 -2.0924  2.4486
 7059SOL    HW224198   6.181   1.003   6.624  0.0134 -0.1227 -0.5314
 7060SOL     OW24199   0.937   1.945   5.592 -0.4631 -0.2793 -0.5517
 7060SOL    HW124200   0.865   1.915   5.537 -1.3938 -0.8930  0.9947
 7060SOL    HW224201   0.899   2.013   5.647 -0.2401 -1.6397  1.3071
 7061SOL     OW24202   2.350   6.274   5.769  0.2957 -0.4193  0.7789
 7061SOL    HW124203   2.336   6.276   5.863 -0.2472 -1.9701  0.7549
 7061SOL    HW224204   2.422   6.212   5.757  0.0042 -0.6458  0.1495
 7062SOL     OW24205   4.364   0.957   5.622 -0.3384 -0.0173 -0.2266
 7062SOL    HW124206   4.350   0.891   5.554 -0.5933  1.3782 -1.5606
 7062SOL    HW224207   4.288   0.949   5.680 -1.0894  0.0537 -1.1867
 7063SOL     OW24208   0.552   1.464   0.829 -0.0272 -0.6516 -0.3171
 7063SOL    HW124209   0.494   1.478   0.754  0.4368 -0.0717 -0.5728
 7063SOL    HW224210   0.634   1.432   0.790  0.1270 -0.5992 -0.0383
 7064SOL     OW24211   3.183   2.388   6.134 -0.0046 -0.4919  0.8282
 7064SOL    HW124212   3.276   2.372   6.117  0.4080  0.0115  2.4824
 7064SOL    HW224213   3.141   2.304   6.118  1.1492 -1.4618  2.6871
 7065SOL     OW24214   5.360   0.055   5.846 -0.6037 -0.1579  0.3405
 7065SOL    HW124215   5.316   0.116   5.905 -1.2201  1.0758 -1.3377
 7065SOL    HW224216   5.448   0.046   5.881 -0.6760  1.2822  0.9120
 7066SOL     OW24217   4.307   6.225   5.044  0.0637 -0.4455  0.1132
 7066SOL    HW124218   4.273   6.137   5.061  1.1815 -1.0908 -0.8798
 7066SOL    HW224219   4.239   6.266   4.991 -1.3112 -0.0402  2.1705
 7067SOL     OW24220   8.562   6.812   1.949 -0.0188  0.2786 -0.2792
 7067SOL    HW124221   8.489   6.792   2.007  0.1588  0.4498  0.0055
 7067SOL    HW224222   8.557   6.907   1.935 -1.1532 -0.0190 -2.0194
 7068SOL     OW24223   7.508   6.836   3.349  0.0093 -0.1242  0.3652
 7068SOL    HW124224   7.497   6.842   3.254 -0.0298 -0.3420  0.3542
 7068SOL    HW224225   7.580   6.774   3.360 -0.1380 -0.2758  0.4826
 7069SOL     OW24226   5.330   5.343   3.367 -0.2302  0.0295 -0.0686
 7069SOL    HW124227   5.329   5.439   3.367  0.3745  0.0416  0.2786
 7069SOL    HW224228   5.260   5.318   3.427 -1.4818  0.2243 -1.4283
 7070SOL     OW24229   5.446   2.606   5.334  0.4179  0.0501 -0.6288
 7070SOL    HW124230   5.466   2.699   5.343  2.6216 -0.3950 -0.5861
 7070SOL    HW224231   5.352   2.603   5.317  0.1318  2.2177  0.3842
 7071SOL     OW24232   7.705   2.089   8.413 -0.3104 -0.3871  0.5004
 7071SOL    HW124233   7.618   2.058   8.390 -0.8022  0.6387  0.9111
 7071SOL    HW224234   7.749   2.102   8.330 -1.0311  0.4060  0.2341
 7072SOL     OW24235   1.950   7.080   0.275  0.4458 -0.6675  0.4226
 7072SOL    HW124236   1.886   7.116   0.214  0.7831 -0.0291  0.4476
 7072SOL    HW224237   2.014   7.150   0.289  0.9962 -1.1953  0.6212
 7073SOL     OW24238   1.478   3.060   2.194  0.5576  0.4159 -0.3349
 7073SOL    HW124239   1.382   3.057   2.198  0.5827  0.9647  0.9944
 7073SOL    HW224240   1.502   2.990   2.135 -0.7600  1.3735 -2.0488
 7074SOL     OW24241   8.486   6.691   9.435  0.2093  0.2950  0.0385
 7074SOL    HW124242   8.565   6.644   9.409  0.0761  0.8392 -1.4178
 7074SOL    HW224243   8.416   6.625   9.428  0.2694  0.2760 -0.3840
 7075SOL     OW24244   4.713   5.530   4.067 -0.2442 -0.1766  0.4007
 7075SOL    HW124245   4.715   5.591   3.993 -0.0375 -0.1669  0.4142
 7075SOL    HW224246   4.805   5.521   4.093 -0.3574  0.1072  0.8931
 7076SOL     OW24247   6.241   9.178   5.485 -0.6115  0.1283 -0.2799
 7076SOL    HW124248   6.263   9.085   5.491  0.4411  0.2368 -1.9867
 7076SOL    HW224249   6.320   9.223   5.515 -0.3268  0.4700 -1.4947
 7077SOL     OW24250   2.195   7.558   3.967 -0.8297 -0.0927  0.3483
 7077SOL    HW124251   2.210   7.474   3.924 -1.9091 -0.7006  1.1220
 7077SOL    HW224252   2.101   7.560   3.984 -0.4992  0.3263  2.2437
 7078SOL     OW24253   1.998   2.245   1.149  0.4865  0.2892 -0.1580
 7078SOL    HW124254   1.929   2.282   1.093  1.6276  0.8803 -1.1983
 7078SOL    HW224255   2.008   2.308   1.220  1.4339  1.2959 -1.1619
 7079SOL     OW24256   1.372   3.426   8.395 -0.2906  0.0635  0.2283
 7079SOL    HW124257   1.355   3.501   8.338  0.7704 -0.9759 -1.5214
 7079SOL    HW224258   1.296   3.369   8.382  0.3559 -0.5799 -0.8834
 7080SOL     OW24259   7.120   2.075   3.890  0.2439 -0.5963 -0.6199
 7080SOL    HW124260   7.078   2.048   3.808  0.6225 -0.8564 -0.7323
 7080SOL    HW224261   7.213   2.079   3.869  0.2138  0.5707 -0.5296
 7081SOL     OW24262   5.674   3.323   8.578 -0.0094  0.2913  0.5277
 7081SOL    HW124263   5.685   3.285   8.665 -1.0112 -0.3459  0.3791
 7081SOL    HW224264   5.603   3.386   8.589 -0.1385  0.2047  0.1693
 7082SOL     OW24265   5.642   5.337   8.180  0.0920 -0.7871 -0.5346
 7082SOL    HW124266   5.647   5.403   8.111 -1.6548  0.0401  0.1022
 7082SOL    HW224267   5.729   5.296   8.180  1.3403  1.7589 -0.6872
 7083SOL     OW24268   8.076   1.486   0.704  0.1248 -0.2507 -0.1913
 7083SOL    HW124269   8.036   1.560   0.659 -0.4244 -0.0604  0.6017
 7083SOL    HW224270   8.147   1.458   0.646 -0.1674  0.3943 -0.8645
 7084SOL     OW24271   4.271   3.220   5.355 -0.8554  0.0848  0.2700
 7084SOL    HW124272   4.334   3.161   5.399 -0.3844 -0.5353 -1.2103
 7084SOL    HW224273   4.276   3.195   5.263 -2.6594  0.6287  0.0228
 7085SOL     OW24274   6.636   2.432   1.492  0.2236  0.2759 -0.2799
 7085SOL    HW124275   6.635   2.361   1.429  1.1300  0.0657 -0.0633
 7085SOL    HW224276   6.620   2.511   1.440  1.9298  0.2166 -0.9135
 7086SOL     OW24277   5.520   5.919   1.261 -0.8282  0.2941 -0.3837
 7086SOL    HW124278   5.495   5.827   1.261 -1.0095  0.3366 -1.5537
 7086SOL    HW224279   5.504   5.949   1.171  1.0684  0.9751 -0.5237
 7087SOL     OW24280   7.421   7.381   3.523 -0.4758  0.1586 -0.5032
 7087SOL    HW124281   7.505   7.405   3.482 -1.3995  0.8853 -2.0147
 7087SOL    HW224282   7.372   7.463   3.526 -1.3406 -0.3665 -0.0872
 7088SOL     OW24283   1.536   3.127   7.169 -0.3934 -0.3184  0.0335
 7088SOL    HW124284   1.629   3.104   7.176 -0.2935 -0.1311 -0.6253
 7088SOL    HW224285   1.490   3.048   7.197 -0.0394 -0.9366 -1.1051
 7089SOL     OW24286   7.317   5.694   1.904 -0.9139 -0.6319 -0.8704
 7089SOL    HW124287   7.249   5.712   1.969 -1.6395 -0.3178 -1.7112
 7089SOL    HW224288   7.301   5.603   1.877 -0.8292 -0.6472 -0.8701
 7090SOL     OW24289   8.883   3.675   3.801  0.2810 -0.4688 -0.3242
 7090SOL    HW124290   8.922   3.615   3.737  1.5823  2.9003 -2.8124
 7090SOL    HW224291   8.935   3.663   3.880  0.5428 -2.5779 -0.7928
 7091SOL     OW24292   0.631   1.103   4.060 -0.4027 -0.9196  0.2434
 7091SOL    HW124293   0.614   1.105   3.966  1.5989 -0.6547 -0.1392
 7091SOL    HW224294   0.549   1.133   4.101 -0.8667  0.1532 -1.4483
 7092SOL     OW24295   2.206   3.107   7.129 -0.1745  0.1725 -0.1303
 7092SOL    HW124296   2.160   3.132   7.049  1.3749  1.5278 -0.6292
 7092SOL    HW224297   2.141   3.058   7.180 -2.0337  1.6780 -0.9954
 7093SOL     OW24298   0.917   5.165   2.009  0.1651  0.6168 -0.7145
 7093SOL    HW124299   0.902   5.164   2.103  0.2680 -0.3992 -0.6992
 7093SOL    HW224300   0.971   5.243   1.994  0.7841  0.3623  0.1674
 7094SOL     OW24301   6.875   7.549   2.250  0.0123 -0.8111  0.0152
 7094SOL    HW124302   6.821   7.514   2.321  0.6108 -0.4119  0.6833
 7094SOL    HW224303   6.818   7.612   2.205 -0.3625 -1.0430  0.1685
 7095SOL     OW24304   1.012   0.206   1.330  0.4047 -0.6442  0.1416
 7095SOL    HW124305   1.022   0.199   1.425  0.1192  0.6535  0.2741
 7095SOL    HW224306   0.920   0.184   1.313  0.2859 -0.2226  0.2374
 7096SOL     OW24307   7.845   5.076   3.053  0.5975 -0.0915  0.1765
 7096SOL    HW124308   7.851   5.149   2.991 -0.1032  1.0867  1.4479
 7096SOL    HW224309   7.784   5.015   3.013 -2.0855  1.9749  0.9620
 7097SOL     OW24310   7.576   2.140   1.076 -0.2224  0.0549 -0.0884
 7097SOL    HW124311   7.516   2.082   1.028 -1.2424  1.4617 -0.5515
 7097SOL    HW224312   7.645   2.160   1.013 -0.1822 -0.1708 -0.1185
 7098SOL     OW24313   0.490   4.522   1.249 -0.0255 -0.0518 -0.5627
 7098SOL    HW124314   0.404   4.548   1.217 -0.3643  0.6423  0.8748
 7098SOL    HW224315   0.496   4.561   1.336  2.1163  0.7410 -1.0124
 7099SOL     OW24316   2.610   2.520   9.422  0.1512  0.1463 -0.3198
 7099SOL    HW124317   2.527   2.496   9.380  0.2259  1.2883 -1.1554
 7099SOL    HW224318   2.646   2.438   9.453 -1.2169 -0.3937 -0.1055
 7100SOL     OW24319   1.535   3.934   1.200  0.4647  0.9560 -0.5516
 7100SOL    HW124320   1.611   3.945   1.143  0.8144 -2.2199 -0.7636
 7100SOL    HW224321   1.567   3.881   1.273 -1.0621  1.2910  0.3800
 7101SOL     OW24322   1.050   7.858   5.720  0.2614  0.3613  0.4836
 7101SOL    HW124323   1.097   7.865   5.803 -0.7294 -0.1195  1.0943
 7101SOL    HW224324   1.074   7.772   5.685  4.0499  2.2011 -1.8508
 7102SOL     OW24325   0.246   7.906   4.963  0.6644  0.2217 -0.1506
 7102SOL    HW124326   0.167   7.881   5.011  0.8136 -0.5069 -0.2697
 7102SOL    HW224327   0.222   7.987   4.918  0.7431  1.2852  1.6744
 7103SOL     OW24328   8.914   7.251   5.271  0.8144 -0.3467  0.1903
 7103SOL    HW124329   8.849   7.208   5.216 -0.7165  1.0124  0.9159
 7103SOL    HW224330   8.899   7.344   5.258  3.4911  0.0047 -0.6422
 7104SOL     OW24331   0.198   8.885   4.319  0.4215 -0.0275 -0.5246
 7104SOL    HW124332   0.285   8.900   4.281  0.6409 -1.3470 -0.5865
 7104SOL    HW224333   0.148   8.845   4.249  0.6270 -1.8687  0.3335
 7105SOL     OW24334   5.108   4.482   5.624  0.3060 -0.5618 -0.2849
 7105SOL    HW124335   5.129   4.446   5.710 -1.3222  0.3267  0.4952
 7105SOL    HW224336   5.022   4.445   5.603  0.9041 -1.1488 -1.7534
 7106SOL     OW24337   6.173   1.176   7.855  0.2263 -0.9845  0.0762
 7106SOL    HW124338   6.200   1.253   7.905  0.5722 -0.9633 -0.1408
 7106SOL    HW224339   6.116   1.127   7.914 -3.4899  1.5917 -1.1514
 7107SOL     OW24340   6.380   4.841   8.518 -0.2192 -0.5960  0.1287
 7107SOL    HW124341   6.422   4.777   8.461 -0.6033  0.0102 -0.8504
 7107SOL    HW224342   6.452   4.898   8.547 -0.2534  0.1231 -1.1255
 7108SOL     OW24343   5.229   2.765   7.842 -0.0279  0.1266  0.2779
 7108SOL    HW124344   5.237   2.816   7.762  0.7334  0.5401  0.6111
 7108SOL    HW224345   5.261   2.678   7.819  1.8634  0.7181  0.5839
 7109SOL     OW24346   1.858   7.893   7.419 -0.0316 -0.5155  0.3792
 7109SOL    HW124347   1.836   7.979   7.455  0.3833  0.2507 -1.1561
 7109SOL    HW224348   1.941   7.870   7.460  0.2667  0.1991  0.1811
 7110SOL     OW24349   7.992   9.420   2.082  0.3113 -0.5296 -0.7636
 7110SOL    HW124350   7.919   9.360   2.071 -0.2849 -0.1694  1.0653
 7110SOL    HW224351   7.985   9.480   2.008 -0.8802 -0.8693 -0.9326
 7111SOL     OW24352   5.463   0.790   5.522  0.3867  0.0857  0.1161
 7111SOL    HW124353   5.505   0.841   5.591  1.2691 -1.6584  0.9031
 7111SOL    HW224354   5.454   0.851   5.448  2.3018  1.0782  0.6899
 7112SOL     OW24355   5.370   3.152   6.550  1.0433  0.9744 -0.3510
 7112SOL    HW124356   5.412   3.180   6.468  2.0109 -2.6893 -1.2160
 7112SOL    HW224357   5.286   3.117   6.522  1.0746  0.3724  0.3050
 7113SOL     OW24358   5.970   1.624   6.345  0.1217 -0.2392 -0.2417
 7113SOL    HW124359   5.976   1.686   6.418  1.6557 -1.5943  0.8129
 7113SOL    HW224360   5.920   1.551   6.380  0.7021 -0.8143 -0.6141
 7114SOL     OW24361   1.647   4.351   5.354 -0.0393 -0.6092 -0.0004
 7114SOL    HW124362   1.561   4.383   5.325  0.1357 -0.5505 -0.4543
 7114SOL    HW224363   1.630   4.314   5.441 -0.8689 -2.1913 -0.8121
 7115SOL     OW24364   9.050   8.685   9.410  0.2448  0.2066  0.7858
 7115SOL    HW124365   8.973   8.724   9.452  1.2225  1.8905  1.0686
 7115SOL    HW224366   9.119   8.694   9.476  0.8983 -0.4605  0.1905
 7116SOL     OW24367   7.028   7.474   2.730 -0.4059 -0.2746  0.2875
 7116SOL    HW124368   7.047   7.552   2.782 -0.6750  0.2260 -0.3598
 7116SOL    HW224369   7.057   7.496   2.641  0.4631 -1.2869  0.3152
 7117SOL     OW24370   5.759   2.956   8.120 -0.2476  0.3628  0.5819
 7117SOL    HW124371   5.849   2.978   8.143  0.3834 -1.0505 -0.5222
 7117SOL    HW224372   5.752   2.975   8.027 -0.9942  0.1274  0.5839
 7118SOL     OW24373   1.505   2.497   1.546  0.3522 -0.4784  0.4510
 7118SOL    HW124374   1.410   2.489   1.537  0.1408  1.5034  0.7393
 7118SOL    HW224375   1.534   2.537   1.464  0.7414  0.4186  1.0204
 7119SOL     OW24376   6.162   5.135   5.984 -0.1580  0.7202 -0.3846
 7119SOL    HW124377   6.188   5.044   6.001 -0.8386  0.7638  0.9662
 7119SOL    HW224378   6.130   5.167   6.068 -0.4422  2.0457 -0.9817
 7120SOL     OW24379   1.749   8.708   0.490 -0.3646 -0.2143  0.3572
 7120SOL    HW124380   1.758   8.634   0.550 -0.2863 -1.3307 -1.0049
 7120SOL    HW224381   1.808   8.774   0.526 -1.5607 -0.2197  2.4338
 7121SOL     OW24382   6.730   2.281   3.492 -0.2813  0.1540 -0.4524
 7121SOL    HW124383   6.662   2.327   3.541 -0.2669 -0.5252  0.2075
 7121SOL    HW224384   6.809   2.293   3.545 -0.3115 -0.7656 -0.1996
 7122SOL     OW24385   6.457   1.375   6.126 -0.3921  0.0922 -0.0992
 7122SOL    HW124386   6.391   1.441   6.103 -0.2014 -0.1102 -1.2537
 7122SOL    HW224387   6.408   1.308   6.174 -0.9753  0.0670 -0.7194
 7123SOL     OW24388   5.190   8.686   0.116  0.0410  0.3715  0.0536
 7123SOL    HW124389   5.119   8.641   0.071  0.5450 -0.9706  0.5722
 7123SOL    HW224390   5.246   8.719   0.046  0.4329 -1.0702 -0.3414
 7124SOL     OW24391   9.252   4.440   6.592 -0.1093 -1.1563 -0.7157
 7124SOL    HW124392   9.247   4.493   6.512 -0.6210 -2.2355 -1.4040
 7124SOL    HW224393   9.186   4.479   6.650  1.4550  0.7249 -0.1341
 7125SOL     OW24394   1.947   7.573   6.355  0.6785  0.6820  0.7239
 7125SOL    HW124395   1.887   7.648   6.362  1.1616  0.8886  2.7580
 7125SOL    HW224396   1.901   7.501   6.399  1.3386  0.4693  1.0694
 7126SOL     OW24397   2.075   1.433   3.282  0.7257  0.1252 -0.6942
 7126SOL    HW124398   2.013   1.408   3.213  0.1004  1.4063 -0.6055
 7126SOL    HW224399   2.102   1.350   3.320 -2.5072 -0.3922  0.6411
 7127SOL     OW24400   6.362   2.433   1.803  0.3021  0.7350  0.0487
 7127SOL    HW124401   6.448   2.467   1.777 -0.3511  2.2073 -0.2637
 7127SOL    HW224402   6.352   2.461   1.895  0.9381 -1.0465  0.6712
 7128SOL     OW24403   0.921   8.799   6.504 -0.1616  0.0048 -0.4501
 7128SOL    HW124404   0.927   8.794   6.599  0.1387 -0.4712 -0.4926
 7128SOL    HW224405   0.922   8.708   6.475 -3.2325 -0.0044 -0.7368
 7129SOL     OW24406   7.918   7.123   3.808 -0.0436 -0.0603  0.4115
 7129SOL    HW124407   7.828   7.102   3.782 -0.0161  1.5121 -1.0278
 7129SOL    HW224408   7.928   7.082   3.894 -1.8708 -0.9311  0.2399
 7130SOL     OW24409   8.834   7.531   5.345 -0.5525  0.0225 -0.2231
 7130SOL    HW124410   8.907   7.570   5.296 -0.6845  0.1436 -0.3265
 7130SOL    HW224411   8.830   7.582   5.426  0.2720 -0.7995  0.3374
 7131SOL     OW24412   7.245   4.557   3.689  0.1701 -0.2241  0.9066
 7131SOL    HW124413   7.215   4.647   3.681 -0.2326 -0.4084  0.2888
 7131SOL    HW224414   7.293   4.540   3.608 -0.8782 -0.9720  0.4229
 7132SOL     OW24415   6.306   4.922   1.246  0.3545 -0.4141 -0.4820
 7132SOL    HW124416   6.373   4.949   1.309  0.9617 -0.6256 -1.0175
 7132SOL    HW224417   6.242   4.873   1.297  0.2710  0.3490  0.1540
 7133SOL     OW24418   7.369   2.386   6.664 -0.1505 -0.2427 -0.3961
 7133SOL    HW124419   7.353   2.450   6.595  1.0357 -0.5379 -0.9448
 7133SOL    HW224420   7.457   2.405   6.695 -0.5548 -0.3188  0.8338
 7134SOL     OW24421   6.293   8.817   2.976 -0.7913 -0.2031 -0.0422
 7134SOL    HW124422   6.356   8.889   2.980 -1.8386  0.6739  0.9792
 7134SOL    HW224423   6.230   8.837   3.045 -1.0691 -2.1283  0.2910
 7135SOL     OW24424   3.933   8.192   9.119 -0.0852  0.0524 -0.6934
 7135SOL    HW124425   3.956   8.216   9.209  1.7634 -1.0052 -0.8441
 7135SOL    HW224426   3.901   8.273   9.080 -0.9901  0.5060  0.9384
 7136SOL     OW24427   8.991   1.036   9.436 -0.0554 -0.5778 -0.6267
 7136SOL    HW124428   8.921   1.064   9.495 -0.8107  0.6598 -2.0510
 7136SOL    HW224429   9.002   0.943   9.453 -1.9239 -0.7406 -0.2447
 7137SOL     OW24430   2.232   5.486   6.474  0.4576 -0.4183  0.2080
 7137SOL    HW124431   2.304   5.528   6.427 -1.6939  0.9209 -2.0321
 7137SOL    HW224432   2.231   5.396   6.441  0.9700 -0.3739  0.0697
 7138SOL     OW24433   8.237   9.421   0.079  0.3554  0.3406  0.2772
 7138SOL    HW124434   8.217   9.495   0.135  1.1674  0.2759  0.6694
 7138SOL    HW224435   8.155   9.400   0.035 -0.8657 -0.9814  3.0501
 7139SOL     OW24436   4.741   9.028   3.355  0.0920  0.2202  0.2087
 7139SOL    HW124437   4.686   9.106   3.365 -1.1206 -0.4523 -1.1058
 7139SOL    HW224438   4.817   9.046   3.411 -1.0151  1.5602  1.3405
 7140SOL     OW24439   1.416   5.125   3.667  0.9127  0.9251 -0.4736
 7140SOL    HW124440   1.406   5.167   3.753  0.1097 -0.6746  0.2271
 7140SOL    HW224441   1.466   5.188   3.616  0.2643  2.4732  0.7602
 7141SOL     OW24442   7.610   0.756   7.152 -0.1229  0.4022  0.0851
 7141SOL    HW124443   7.602   0.706   7.234  0.0739  0.1074 -0.0739
 7141SOL    HW224444   7.614   0.689   7.084 -0.2821  0.6496 -0.1637
 7142SOL     OW24445   7.171   8.627   1.948 -0.0312  0.1564  0.3563
 7142SOL    HW124446   7.147   8.554   1.890  3.3240  0.1567 -1.1581
 7142SOL    HW224447   7.168   8.704   1.892  0.3278  0.6024  0.9440
 7143SOL     OW24448   3.273   1.335   8.812 -0.4055  0.0649 -0.2599
 7143SOL    HW124449   3.193   1.284   8.803 -0.0238 -0.6623  0.4296
 7143SOL    HW224450   3.244   1.426   8.807 -1.4637 -0.1635  1.2673
 7144SOL     OW24451   1.782   5.009   3.277  0.1535 -0.3165 -0.3921
 7144SOL    HW124452   1.845   4.969   3.337  1.8865 -0.1889 -2.0744
 7144SOL    HW224453   1.823   5.092   3.252  0.2971 -1.1398 -3.0464
 7145SOL     OW24454   7.838   2.181   8.177 -0.2281 -0.2847 -0.4024
 7145SOL    HW124455   7.851   2.096   8.136 -1.3946 -1.0027  0.6650
 7145SOL    HW224456   7.927   2.215   8.190  0.2058 -0.8047 -1.8943
 7146SOL     OW24457   9.407   6.044   6.159 -0.1688 -0.4354  0.1338
 7146SOL    HW124458   9.384   5.983   6.228 -0.9554 -0.5309 -0.2063
 7146SOL    HW224459   9.462   5.994   6.099 -0.8833 -0.8361 -0.1905
 7147SOL     OW24460   5.681   4.581   6.954 -0.5682  0.1174  0.1912
 7147SOL    HW124461   5.754   4.521   6.938  1.0696  1.8344  0.9691
 7147SOL    HW224462   5.653   4.609   6.867  0.7492  0.6308 -0.0823
 7148SOL     OW24463   7.937   0.125   7.851 -0.3437  0.2734  0.0706
 7148SOL    HW124464   7.942   0.169   7.936 -1.7325 -0.0215  0.3253
 7148SOL    HW224465   7.846   0.137   7.824  0.1201  0.4463 -1.4234
 7149SOL     OW24466   3.617   1.946   4.646  0.0102  0.2185 -0.0330
 7149SOL    HW124467   3.635   1.852   4.649  0.2016  0.2705  0.5417
 7149SOL    HW224468   3.631   1.971   4.554 -0.1076 -0.3260 -0.1978
 7150SOL     OW24469   1.742   1.906   7.216  0.2614  0.1403 -0.1740
 7150SOL    HW124470   1.825   1.923   7.172 -0.3908  2.9123 -0.4172
 7150SOL    HW224471   1.676   1.918   7.148 -0.4873  0.4174  0.5884
 7151SOL     OW24472   0.077   0.462   8.397  0.0636 -0.0042 -0.0898
 7151SOL    HW124473   0.052   0.531   8.336 -0.2141 -0.3555 -0.3798
 7151SOL    HW224474   0.166   0.439   8.372 -1.2937 -2.6536 -2.7485
 7152SOL     OW24475   6.705   9.335   3.518  0.4371  0.0138 -0.5841
 7152SOL    HW124476   6.731   9.305   3.605  0.7665 -0.5890 -0.8890
 7152SOL    HW224477   6.785   9.370   3.479  0.2913  0.2778 -0.6480
 7153SOL     OW24478   0.356   7.144   5.094  0.1001  0.3621  0.2233
 7153SOL    HW124479   0.368   7.239   5.089  1.2233  0.3744  2.5800
 7153SOL    HW224480   0.305   7.131   5.174  0.9761 -1.1050  0.5578
 7154SOL     OW24481   7.602   7.043   6.407 -0.3122  0.3610 -0.3517
 7154SOL    HW124482   7.670   6.985   6.372 -0.7379 -0.6389  0.4601
 7154SOL    HW224483   7.533   6.984   6.436 -0.7910  1.2897  0.3948
 7155SOL     OW24484   5.931   8.501   1.198  0.2417 -0.4989 -0.1819
 7155SOL    HW124485   6.007   8.449   1.225  0.1061 -1.1582 -1.0444
 7155SOL    HW224486   5.881   8.443   1.141  0.5871  0.9066 -1.9577
 7156SOL     OW24487   5.549   3.053   5.249 -0.7040  0.1356 -0.3316
 7156SOL    HW124488   5.591   3.026   5.331 -0.4956 -0.1684 -0.5339
 7156SOL    HW224489   5.459   3.022   5.257 -0.2150 -1.5308 -0.9725
 7157SOL     OW24490   2.882   5.611   5.831 -0.0909 -0.0121 -0.0644
 7157SOL    HW124491   2.953   5.573   5.883  0.3152  0.9466  0.0820
 7157SOL    HW224492   2.815   5.634   5.895  0.4503  1.2611  0.0604
 7158SOL     OW24493   3.360   3.151   8.655  0.2123 -0.3785  0.5301
 7158SOL    HW124494   3.372   3.129   8.563 -0.2386  1.5190 -0.0178
 7158SOL    HW224495   3.274   3.194   8.658 -0.2118 -1.2888  2.0051
 7159SOL     OW24496   7.737   0.488   7.203  0.0504 -0.2958  0.2749
 7159SOL    HW124497   7.812   0.429   7.202  0.1107 -0.2177  0.2436
 7159SOL    HW224498   7.697   0.477   7.117 -1.2986 -2.0560  1.0750
 7160SOL     OW24499   1.139   9.030   1.175  0.6276 -0.4124  0.2347
 7160SOL    HW124500   1.065   9.021   1.235  1.2417 -1.2940  0.8702
 7160SOL    HW224501   1.212   9.059   1.230  1.1341 -0.9938 -0.1220
 7161SOL     OW24502   8.631   6.526   0.212  0.3991  0.1851  0.2824
 7161SOL    HW124503   8.660   6.459   0.150  0.8141  0.7545 -0.1392
 7161SOL    HW224504   8.563   6.483   0.263  1.4835 -0.9210  0.7903
 7162SOL     OW24505   0.261   3.057   9.160 -0.5845 -0.5388 -0.4349
 7162SOL    HW124506   0.178   3.062   9.113  0.1786  1.6483 -1.6352
 7162SOL    HW224507   0.321   3.015   9.098 -0.2251  0.0192 -0.4716
 7163SOL     OW24508   3.223   8.984   2.667 -0.4136  0.1291 -0.7189
 7163SOL    HW124509   3.186   8.981   2.756  1.3424  0.2236  0.0383
 7163SOL    HW224510   3.191   8.904   2.625 -2.4094  0.7788 -0.4852
 7164SOL     OW24511   7.458   1.346   3.979 -0.1219  1.0730 -0.6158
 7164SOL    HW124512   7.531   1.297   4.017 -0.6601  0.7473  0.0133
 7164SOL    HW224513   7.491   1.377   3.895 -0.9338 -3.6315 -2.8682
 7165SOL     OW24514   4.141   7.831   4.708  0.5751 -0.2551  0.0496
 7165SOL    HW124515   4.222   7.880   4.723  0.4785  0.6061 -2.0794
 7165SOL    HW224516   4.124   7.841   4.614 -1.6724 -0.9573  0.3593
 7166SOL     OW24517   3.526   6.058   1.984 -0.5290 -0.0857 -0.1956
 7166SOL    HW124518   3.447   6.109   2.006 -0.6716 -0.0939 -0.6798
 7166SOL    HW224519   3.597   6.122   1.989 -0.5291 -0.1327  0.4865
 7167SOL     OW24520   5.607   1.390   5.511 -0.4285  0.3760  0.1949
 7167SOL    HW124521   5.553   1.317   5.542  0.3154 -0.4807 -0.4825
 7167SOL    HW224522   5.568   1.416   5.428 -0.7478  0.8121  0.4802
 7168SOL     OW24523   3.565   2.842   3.651  0.2075 -0.5781 -0.4271
 7168SOL    HW124524   3.494   2.882   3.702 -0.8088 -0.1848 -2.1147
 7168SOL    HW224525   3.527   2.828   3.564  2.2941 -0.0613 -1.4471
 7169SOL     OW24526   0.165   1.529   4.549  0.4902 -0.3343 -0.3850
 7169SOL    HW124527   0.079   1.487   4.548  0.4299 -0.2802  1.0864
 7169SOL    HW224528   0.168   1.576   4.633  2.3658 -1.2393  0.0892
 7170SOL     OW24529   2.032   5.996   8.182 -0.0562  0.0017  0.4348
 7170SOL    HW124530   1.973   5.986   8.257 -0.2065  1.2900  0.4884
 7170SOL    HW224531   1.973   5.997   8.106  0.0992 -1.3550  0.2821
 7171SOL     OW24532   2.207   2.274   8.546 -0.3642  0.0505 -0.2125
 7171SOL    HW124533   2.239   2.236   8.627  1.0118 -0.0420 -0.7909
 7171SOL    HW224534   2.199   2.368   8.565  0.6819  0.1386 -0.2005
 7172SOL     OW24535   7.717   3.624   3.297 -0.1904  0.0730 -0.4566
 7172SOL    HW124536   7.665   3.636   3.377 -0.2801  0.2906 -0.5458
 7172SOL    HW224537   7.731   3.530   3.291 -0.6471  0.0015 -0.4757
 7173SOL     OW24538   8.646   0.583   5.348  0.6679 -0.3337  0.3132
 7173SOL    HW124539   8.662   0.600   5.441  1.3884  0.6127  0.0231
 7173SOL    HW224540   8.565   0.533   5.347 -0.5496  1.5583  1.3327
 7174SOL     OW24541   3.496   7.616   5.094  0.6868 -0.3517  0.3411
 7174SOL    HW124542   3.473   7.678   5.164 -0.3880 -1.0461  0.6107
 7174SOL    HW224543   3.576   7.574   5.125  0.7296  0.0124  0.7300
 7175SOL     OW24544   1.260   7.633   1.590 -0.0102  0.0872  0.0721
 7175SOL    HW124545   1.192   7.619   1.656 -0.3546 -2.9688 -0.8477
 7175SOL    HW224546   1.342   7.627   1.640 -0.3232 -0.2474  0.5530
 7176SOL     OW24547   5.538   5.533   2.667  0.1560 -0.4517  0.4068
 7176SOL    HW124548   5.460   5.514   2.614  0.0581 -1.1577  0.8027
 7176SOL    HW224549   5.600   5.463   2.644  0.7925  0.2827 -0.1437
 7177SOL     OW24550   3.909   1.019   1.888  0.3519 -0.3487  0.5833
 7177SOL    HW124551   3.960   1.014   1.807 -0.8940 -2.2669 -0.1203
 7177SOL    HW224552   3.953   1.085   1.940  1.0889  1.0454 -1.7418
 7178SOL     OW24553   7.153   8.854   1.790  0.3801 -0.4087  0.0120
 7178SOL    HW124554   7.223   8.909   1.754  0.5223 -0.1469  0.6707
 7178SOL    HW224555   7.105   8.912   1.849  1.1210 -1.2222  1.4629
 7179SOL     OW24556   1.686   9.355   7.683 -0.4969  0.0598  0.6665
 7179SOL    HW124557   1.626   9.425   7.654 -0.3033  0.3769  1.0260
 7179SOL    HW224558   1.772   9.397   7.685 -0.5008  0.0334  1.6523
 7180SOL     OW24559   3.397   4.818   2.333  0.1968  0.3431  0.3591
 7180SOL    HW124560   3.406   4.787   2.243  2.7263  1.6743  0.1249
 7180SOL    HW224561   3.453   4.759   2.384  0.9557  1.3165  0.6555
 7181SOL     OW24562   7.206   3.824   5.823 -0.1283 -0.0832  0.0629
 7181SOL    HW124563   7.261   3.749   5.801  0.1193 -0.1218  0.8108
 7181SOL    HW224564   7.267   3.894   5.846 -0.3984 -0.4227  1.8695
 7182SOL     OW24565   0.460   3.805   5.976  0.3750 -0.4114 -0.0768
 7182SOL    HW124566   0.442   3.714   6.000 -0.2415  0.5442  3.4588
 7182SOL    HW224567   0.373   3.843   5.962  0.5477 -0.0505 -0.1644
 7183SOL     OW24568   5.082   9.025   6.124  0.1303  0.0701 -0.3969
 7183SOL    HW124569   5.096   9.114   6.156 -0.0854  0.0405 -0.2195
 7183SOL    HW224570   5.124   9.023   6.038  1.8737 -0.2202  0.4434
 7184SOL     OW24571   2.645   4.506   2.502 -0.9368 -0.0056  0.0215
 7184SOL    HW124572   2.713   4.564   2.468 -1.9324  0.4440 -1.2687
 7184SOL    HW224573   2.660   4.502   2.596  0.7683  0.2120 -0.2320
 7185SOL     OW24574   9.380   0.131   4.736 -0.3712  0.0715  0.5619
 7185SOL    HW124575   9.396   0.037   4.728 -1.2539  0.0464 -1.0497
 7185SOL    HW224576   9.300   0.137   4.789 -0.8196 -0.1233 -0.0839
 7186SOL     OW24577   3.233   2.373   5.302  0.3064  0.1145 -0.1231
 7186SOL    HW124578   3.203   2.296   5.351  3.7879 -0.6629  0.9046
 7186SOL    HW224579   3.290   2.419   5.364 -1.2960  3.2706 -0.9146
 7187SOL     OW24580   8.643   0.918   1.261 -0.0623  0.0601  0.2060
 7187SOL    HW124581   8.567   0.861   1.248  0.0252  0.1849 -0.9380
 7187SOL    HW224582   8.642   0.939   1.354 -0.1020 -1.7907  0.6354
 7188SOL     OW24583   6.410   2.022   6.505  0.2589  0.2589 -0.4401
 7188SOL    HW124584   6.360   2.101   6.484 -0.4048 -0.0222  0.0709
 7188SOL    HW224585   6.491   2.030   6.454 -0.8777  0.0624 -2.3207
 7189SOL     OW24586   6.691   4.991   8.379 -0.0972 -0.3458  0.2979
 7189SOL    HW124587   6.695   5.031   8.466  1.6502  0.8899 -0.3196
 7189SOL    HW224588   6.646   5.057   8.325 -2.5833 -1.7528  0.5761
 7190SOL     OW24589   7.427   6.290   8.871 -0.0116  0.0463  0.1587
 7190SOL    HW124590   7.473   6.233   8.934  0.2489  0.0149 -0.0578
 7190SOL    HW224591   7.423   6.238   8.791 -1.9639 -0.6180  0.6712
 7191SOL     OW24592   4.589   1.312   1.943 -0.2767 -0.1381 -0.8304
 7191SOL    HW124593   4.683   1.320   1.926 -0.0941  0.4981  0.3887
 7191SOL    HW224594   4.570   1.219   1.935  0.3715 -0.2218 -1.4647
 7192SOL     OW24595   3.375   7.829   7.838 -0.5160  0.6372 -0.3067
 7192SOL    HW124596   3.369   7.771   7.915 -0.0444  1.3363  0.2594
 7192SOL    HW224597   3.284   7.857   7.823 -0.4483  1.4763  0.7599
 7193SOL     OW24598   1.300   5.622   0.793 -0.5329 -0.3535 -0.3106
 7193SOL    HW124599   1.283   5.701   0.741  0.6566  0.5849  0.7142
 7193SOL    HW224600   1.252   5.636   0.875 -1.2116 -1.1854 -0.5563
 7194SOL     OW24601   3.111   6.183   1.837  0.8247  0.1410 -0.0781
 7194SOL    HW124602   3.080   6.092   1.837 -0.6316  0.6252 -0.9358
 7194SOL    HW224603   3.036   6.234   1.869  1.2069  1.1725 -0.8045
 7195SOL     OW24604   8.357   1.133   7.229 -0.3107 -0.0852 -0.8559
 7195SOL    HW124605   8.403   1.097   7.153 -1.6081 -1.4521 -0.9998
 7195SOL    HW224606   8.265   1.133   7.204 -0.5282  1.6677 -0.1672
 7196SOL     OW24607   8.218   8.805   1.345  0.5016  0.5106  0.8472
 7196SOL    HW124608   8.200   8.895   1.316 -0.3285  0.4209  1.0483
 7196SOL    HW224609   8.300   8.781   1.302  0.7608  1.3905  0.8449
 7197SOL     OW24610   5.016   3.817   8.207  0.4634 -0.2006  0.2248
 7197SOL    HW124611   4.986   3.740   8.159  0.2276  0.3237 -0.4692
 7197SOL    HW224612   5.027   3.786   8.297  2.5545 -1.6297 -0.4678
 7198SOL     OW24613   8.972   4.170   7.869  0.5812 -0.3788  0.6841
 7198SOL    HW124614   8.941   4.176   7.960 -0.6927 -1.6128  0.3398
 7198SOL    HW224615   8.913   4.107   7.828  2.0975 -0.9574 -0.6162
 7199SOL     OW24616   8.851   1.721   0.386  0.9557  0.1982 -0.2891
 7199SOL    HW124617   8.844   1.630   0.356  0.2528  0.2562 -0.2957
 7199SOL    HW224618   8.768   1.739   0.429  1.0975  0.8374 -0.2737
 7200SOL     OW24619   7.453   4.975   1.500 -0.0411  0.8153  0.5901
 7200SOL    HW124620   7.387   5.032   1.461 -1.2879 -0.3749  0.9065
 7200SOL    HW224621   7.478   4.916   1.429 -0.8528 -0.0636  1.0169
 7201SOL     OW24622   7.056   8.012   1.683  0.2109  0.3199  0.1797
 7201SOL    HW124623   7.072   7.948   1.614  0.5331  0.9117 -0.3062
 7201SOL    HW224624   6.970   7.990   1.718 -0.3615  0.5801 -1.0476
 7202SOL     OW24625   0.225   8.689   0.956  0.0978 -0.4996  0.0399
 7202SOL    HW124626   0.169   8.627   1.003 -2.6292  2.2149  0.5529
 7202SOL    HW224627   0.185   8.696   0.870 -0.1110  1.1286  0.2533
 7203SOL     OW24628   7.681   8.074   4.920  0.4715 -0.2194 -0.5636
 7203SOL    HW124629   7.667   8.074   5.015 -0.3310  2.0625 -0.6272
 7203SOL    HW224630   7.612   8.018   4.885 -0.8839  1.0139  0.0582
 7204SOL     OW24631   0.240   4.851   1.261  0.1980  0.2711 -0.2118
 7204SOL    HW124632   0.297   4.918   1.298  1.1340 -0.2215 -0.7614
 7204SOL    HW224633   0.255   4.856   1.166  0.5716 -0.9753 -0.2275
 7205SOL     OW24634   7.881   0.158   3.313 -0.5243 -0.0739  0.2775
 7205SOL    HW124635   7.928   0.138   3.393  0.4341 -0.4879 -0.3772
 7205SOL    HW224636   7.823   0.230   3.336  0.0928  0.1266  1.2124
 7206SOL     OW24637   8.269   3.203   8.758 -0.1625 -0.0530  0.4952
 7206SOL    HW124638   8.359   3.177   8.737  0.0886 -0.1792  1.7027
 7206SOL    HW224639   8.214   3.141   8.711  0.3749  0.1062 -0.3587
 7207SOL     OW24640   1.471   3.363   0.716  0.0415  0.0197  0.0408
 7207SOL    HW124641   1.532   3.295   0.689  0.3593 -0.3790  1.7139
 7207SOL    HW224642   1.520   3.445   0.704  0.7091 -0.2586  0.8205
 7208SOL     OW24643   5.545   4.414   6.529 -0.0468  0.1598 -0.6272
 7208SOL    HW124644   5.573   4.488   6.583  2.6895 -1.2986  0.0500
 7208SOL    HW224645   5.475   4.373   6.579 -0.8546  1.6582 -0.5103
 7209SOL     OW24646   3.240   6.058   0.248 -0.2794 -0.0792  0.3630
 7209SOL    HW124647   3.316   6.007   0.220  0.7655  2.9717 -2.7752
 7209SOL    HW224648   3.169   6.027   0.193 -0.1749  0.1940  0.0653
 7210SOL     OW24649   7.691   5.967   7.438 -0.0254 -0.1504  0.0726
 7210SOL    HW124650   7.753   5.909   7.395 -0.8803  0.5907 -2.2311
 7210SOL    HW224651   7.605   5.936   7.409 -0.5028  2.1171 -1.0436
 7211SOL     OW24652   6.621   1.311   8.400  0.6586 -0.3682 -0.3460
 7211SOL    HW124653   6.628   1.359   8.483 -1.0249  1.6130 -1.3170
 7211SOL    HW224654   6.581   1.227   8.424 -0.5702  0.5092  0.7484
 7212SOL     OW24655   8.008   3.994   6.494  0.2886  0.1666 -0.2289
 7212SOL    HW124656   8.037   4.032   6.411 -0.2188  0.7968 -0.1162
 7212SOL    HW224657   8.057   4.042   6.561 -0.6329  0.8924 -0.0648
 7213SOL     OW24658   8.796   0.521   5.972  0.2584  0.8639 -0.6370
 7213SOL    HW124659   8.818   0.596   6.028  0.8497 -0.5050  0.9847
 7213SOL    HW224660   8.706   0.538   5.944 -0.1673  1.4049  1.0069
 7214SOL     OW24661   8.731   0.444   5.659  0.3465  0.0330 -0.2881
 7214SOL    HW124662   8.708   0.387   5.733 -0.4025 -2.1717 -2.1807
 7214SOL    HW224663   8.822   0.423   5.640  0.2066 -0.2284 -0.6889
 7215SOL     OW24664   0.050   7.993   1.800  0.1075  0.2145  0.4944
 7215SOL    HW124665   0.036   7.966   1.709 -0.6339 -0.3466  0.7669
 7215SOL    HW224666   0.052   7.910   1.849 -0.7423  0.5749  1.1482
 7216SOL     OW24667   9.169   7.929   4.158  0.1276  0.0918 -0.2118
 7216SOL    HW124668   9.260   7.955   4.143 -0.2007  0.8975 -0.8260
 7216SOL    HW224669   9.168   7.834   4.142  0.5665  0.3138 -1.5994
 7217SOL     OW24670   8.265   5.749   3.631 -0.1639 -1.0915 -0.1455
 7217SOL    HW124671   8.175   5.778   3.621  0.7207  2.0486  0.2967
 7217SOL    HW224672   8.295   5.792   3.711  2.3991 -0.1843 -1.5318
 7218SOL     OW24673   6.989   6.005   5.653  0.0423  0.0727 -0.5356
 7218SOL    HW124674   6.917   5.942   5.659  0.2818 -0.2633 -1.1834
 7218SOL    HW224675   6.992   6.046   5.740 -2.0824  1.3395 -1.0030
 7219SOL     OW24676   8.454   6.029   0.891 -0.6097  0.3397  0.2249
 7219SOL    HW124677   8.456   6.110   0.839 -0.4585  0.2687  0.1200
 7219SOL    HW224678   8.368   5.991   0.871 -0.5112  0.2630 -0.0483
 7220SOL     OW24679   8.366   2.333   6.876  0.2873  0.2232 -0.3387
 7220SOL    HW124680   8.400   2.421   6.860 -2.0628  1.0548 -1.0358
 7220SOL    HW224681   8.304   2.343   6.948  0.2939 -0.9380 -0.1549
 7221SOL     OW24682   2.426   3.296   0.203 -0.0488  0.6070 -0.3577
 7221SOL    HW124683   2.447   3.300   0.296 -1.6043  0.3759  0.0202
 7221SOL    HW224684   2.362   3.225   0.196  0.4198  0.3000 -1.6781
 7222SOL     OW24685   7.657   3.523   4.767 -0.0213  0.0249  0.0943
 7222SOL    HW124686   7.613   3.608   4.773  0.3671  0.0931  2.5589
 7222SOL    HW224687   7.591   3.459   4.791 -0.4514 -0.4618 -2.2392
 7223SOL     OW24688   3.242   4.314   4.853 -0.3070  0.0521 -0.1338
 7223SOL    HW124689   3.268   4.278   4.938  0.6214 -1.3322 -0.9991
 7223SOL    HW224690   3.225   4.407   4.871 -1.4951 -0.5146  1.8585
 7224SOL     OW24691   1.497   6.972   6.737 -0.1436 -0.0321  0.2273
 7224SOL    HW124692   1.590   6.963   6.761  0.0744  0.8023 -0.2777
 7224SOL    HW224693   1.451   6.977   6.821  0.4103  0.8426  0.4956
 7225SOL     OW24694   9.316   2.062   6.757  0.7855  0.2586  0.5705
 7225SOL    HW124695   9.366   2.104   6.687  1.1088 -0.5915  0.2882
 7225SOL    HW224696   9.363   1.981   6.775 -0.1110 -0.2186  0.7765
 7226SOL     OW24697   6.853   3.560   3.771  0.0341  0.1991 -0.4056
 7226SOL    HW124698   6.923   3.531   3.830 -0.8055 -2.6764 -0.7264
 7226SOL    HW224699   6.817   3.638   3.813  1.3556 -0.1257  1.3958
 7227SOL     OW24700   7.463   4.056   1.012 -0.0930 -0.4327 -0.0713
 7227SOL    HW124701   7.503   4.088   0.931 -0.6497  1.7895  0.5157
 7227SOL    HW224702   7.536   4.018   1.061  0.8438  1.2392 -0.1450
 7228SOL     OW24703   2.242   6.027   8.447  0.5581  0.0896 -0.0926
 7228SOL    HW124704   2.204   5.980   8.373 -0.5234  0.3033  0.3127
 7228SOL    HW224705   2.166   6.064   8.493  1.2036 -0.2352  1.2502
 7229SOL     OW24706   6.003   9.101   8.362  0.3056 -0.5022  0.0614
 7229SOL    HW124707   5.979   9.121   8.272  1.9737  0.9949 -0.0836
 7229SOL    HW224708   6.042   9.014   8.357  1.2658 -0.0357 -0.8481
 7230SOL     OW24709   9.181   3.022   9.244  0.2733  0.0281  0.2236
 7230SOL    HW124710   9.133   2.948   9.282  0.1148 -0.1685 -0.3645
 7230SOL    HW224711   9.161   3.095   9.303 -0.5229 -0.1150  0.1407
 7231SOL     OW24712   4.796   8.410   1.423 -0.0423 -0.8818 -0.6882
 7231SOL    HW124713   4.750   8.326   1.414 -1.2889 -0.6173  2.5316
 7231SOL    HW224714   4.729   8.472   1.452  1.7275  0.1391  1.4214
 7232SOL     OW24715   8.700   6.125   3.142 -0.1813  0.0797  0.0331
 7232SOL    HW124716   8.722   6.180   3.217 -0.9613 -0.3819  0.6139
 7232SOL    HW224717   8.645   6.180   3.086 -1.2603 -0.2083  0.7879
 7233SOL     OW24718   5.475   3.565   0.243  0.5344  0.4527 -0.1125
 7233SOL    HW124719   5.400   3.527   0.197 -0.4984  2.4379 -0.1313
 7233SOL    HW224720   5.526   3.609   0.175  0.4750  1.0588  0.2260
 7234SOL     OW24721   8.304   7.319   4.307  0.4476  0.0340  0.4623
 7234SOL    HW124722   8.354   7.396   4.279  0.8488 -0.0410  0.9762
 7234SOL    HW224723   8.252   7.350   4.381 -0.3881  0.1502 -0.1641
 7235SOL     OW24724   0.064   1.222   2.433  0.0778 -0.4356  0.1267
 7235SOL    HW124725   0.063   1.291   2.367 -0.2868 -0.4829  0.0808
 7235SOL    HW224726   0.148   1.231   2.476  0.2261 -0.2626 -0.1976
 7236SOL     OW24727   2.078   4.486   3.817  0.0753 -0.5007  1.0157
 7236SOL    HW124728   1.991   4.449   3.822  0.0020 -0.1252  2.6292
 7236SOL    HW224729   2.136   4.416   3.848  0.3521 -0.7546 -0.0651
 7237SOL     OW24730   4.780   4.428   2.733  0.5556 -0.3996  0.6983
 7237SOL    HW124731   4.695   4.410   2.774  0.3100  2.3707  1.4790
 7237SOL    HW224732   4.836   4.457   2.805  1.7281 -0.7401 -0.0665
 7238SOL     OW24733   0.651   1.447   1.398  0.4785  0.3444  0.3439
 7238SOL    HW124734   0.592   1.510   1.441  0.7574  1.1865 -0.4892
 7238SOL    HW224735   0.602   1.417   1.322  0.0186 -1.0895  1.1702
 7239SOL     OW24736   7.895   6.714   3.040 -0.1310 -0.1744 -0.1082
 7239SOL    HW124737   7.866   6.632   2.999  1.3046 -1.6616  1.7434
 7239SOL    HW224738   7.945   6.686   3.116 -1.2359  2.4920  1.6687
 7240SOL     OW24739   6.933   1.691   8.022 -0.5277  0.0428  0.4086
 7240SOL    HW124740   6.895   1.616   7.975 -3.0268  0.8532  1.0368
 7240SOL    HW224741   6.980   1.651   8.095  0.1936 -1.0329 -0.6288
 7241SOL     OW24742   8.285   4.397   4.168 -0.4270  0.3825 -0.5872
 7241SOL    HW124743   8.355   4.379   4.105 -0.9111  0.4763 -1.1512
 7241SOL    HW224744   8.299   4.489   4.192  0.3194  0.0828  0.1505
 7242SOL     OW24745   8.403   1.748   5.552 -0.4972 -0.0336 -0.2557
 7242SOL    HW124746   8.409   1.708   5.639 -0.5178 -1.3608 -0.8482
 7242SOL    HW224747   8.467   1.818   5.553  2.0698 -2.2838 -0.3259
 7243SOL     OW24748   1.220   5.623   1.372  0.6725  0.5244  0.0960
 7243SOL    HW124749   1.258   5.544   1.409  1.3322  0.4009 -0.8304
 7243SOL    HW224750   1.212   5.683   1.446  0.4200 -0.3010  0.7475
 7244SOL     OW24751   6.587   9.397   5.230  0.5192 -0.4179  0.3973
 7244SOL    HW124752   6.558   9.316   5.272 -0.0103 -0.0544  0.7402
 7244SOL    HW224753   6.658   9.429   5.285  0.3528 -0.3537  0.5744
 7245SOL     OW24754   6.622   6.502   0.683  0.5161 -0.1390  0.1115
 7245SOL    HW124755   6.688   6.456   0.736  0.5737  1.3642  1.3948
 7245SOL    HW224756   6.546   6.444   0.685  1.3892 -1.3395 -0.3917
 7246SOL     OW24757   7.476   1.098   0.922  0.3630  0.2716  0.2046
 7246SOL    HW124758   7.414   1.035   0.960  0.1719  0.7254  0.6501
 7246SOL    HW224759   7.513   1.144   0.997 -0.4758  1.5964 -0.1698
 7247SOL     OW24760   0.116   1.418   8.929 -0.2381 -0.0478  0.7372
 7247SOL    HW124761   0.160   1.483   8.875  1.6929 -0.4005  1.8576
 7247SOL    HW224762   0.172   1.406   9.005 -2.3830 -0.3537  2.3402
 7248SOL     OW24763   1.813   2.943   8.205 -0.6015 -0.0500  0.1685
 7248SOL    HW124764   1.791   2.913   8.116 -1.3803 -0.8892  0.6304
 7248SOL    HW224765   1.908   2.947   8.206 -0.6104  0.8159 -0.9795
 7249SOL     OW24766   7.786   5.915   1.783  0.6677 -0.7616 -0.3073
 7249SOL    HW124767   7.783   5.902   1.878 -2.1327 -4.5728 -0.7896
 7249SOL    HW224768   7.724   5.985   1.765  2.1701  0.8778  0.7448
 7250SOL     OW24769   8.874   8.673   5.894  0.1611 -0.0033  0.2474
 7250SOL    HW124770   8.885   8.699   5.985  0.5944 -0.7456  0.4138
 7250SOL    HW224771   8.950   8.618   5.876  0.3090  0.5171 -0.6969
 7251SOL     OW24772   4.308   3.690   5.325 -0.5212  0.4026 -0.1793
 7251SOL    HW124773   4.396   3.713   5.352  0.2436 -1.4659 -0.9977
 7251SOL    HW224774   4.253   3.714   5.399  0.8501  0.3343  0.8721
 7252SOL     OW24775   2.724   8.656   8.182 -0.6479  0.2817 -0.2493
 7252SOL    HW124776   2.634   8.678   8.156  0.3900  2.8777 -1.8320
 7252SOL    HW224777   2.743   8.714   8.255 -0.4738 -0.7699  0.5564
 7253SOL     OW24778   7.583   3.016   6.520  0.2013 -0.3876  0.4060
 7253SOL    HW124779   7.572   3.085   6.455 -2.5323  0.2537  1.4587
 7253SOL    HW224780   7.620   2.942   6.471 -1.1924  0.3020 -1.7477
 7254SOL     OW24781   7.645   9.136   0.423  0.0924  0.1914 -0.2608
 7254SOL    HW124782   7.645   9.192   0.501  0.5376  0.4809 -0.4677
 7254SOL    HW224783   7.601   9.056   0.451 -0.1100  0.4531  0.1749
 7255SOL     OW24784   1.857   5.064   7.319 -0.5373 -0.0871  0.3838
 7255SOL    HW124785   1.787   5.072   7.254 -0.0592 -0.1029 -0.1375
 7255SOL    HW224786   1.829   4.991   7.375 -0.7518 -0.3416 -0.0529
 7256SOL     OW24787   1.442   6.654   3.852 -0.4009  0.1549  0.1823
 7256SOL    HW124788   1.439   6.560   3.867 -1.4778  0.3828  1.5350
 7256SOL    HW224789   1.451   6.692   3.939 -1.9493  1.3729 -0.1635
 7257SOL     OW24790   8.469   7.885   4.610  0.0879 -0.6884  0.4962
 7257SOL    HW124791   8.503   7.795   4.618 -1.0699 -1.0983  0.8892
 7257SOL    HW224792   8.422   7.899   4.692  0.6969  0.4682  0.6477
 7258SOL     OW24793   3.036   2.708   1.999  0.7785  0.1122 -0.0654
 7258SOL    HW124794   3.054   2.737   2.089 -0.4311 -1.5673  0.7207
 7258SOL    HW224795   3.121   2.718   1.955  1.6840 -0.1561  1.5438
 7259SOL     OW24796   0.216   7.954   8.628  0.1787  0.2003  0.1347
 7259SOL    HW124797   0.124   7.956   8.651  0.3898 -1.2836  1.1397
 7259SOL    HW224798   0.263   7.948   8.711  1.0691 -1.5554 -0.4491
 7260SOL     OW24799   1.840   8.109   8.148 -0.4469 -0.6295  0.6050
 7260SOL    HW124800   1.798   8.151   8.223  1.7566 -0.0499  1.5603
 7260SOL    HW224801   1.857   8.019   8.176 -0.9210 -0.8213  0.2793
 7261SOL     OW24802   8.502   6.000   4.672  0.3113  0.3397 -0.3568
 7261SOL    HW124803   8.533   6.054   4.745 -1.6002 -0.7169  1.2987
 7261SOL    HW224804   8.443   6.057   4.623  2.5695  1.4542 -1.8675
 7262SOL     OW24805   6.206   9.283   1.733  0.4610 -0.1540 -0.1086
 7262SOL    HW124806   6.267   9.356   1.746 -1.0183  1.2226 -0.6686
 7262SOL    HW224807   6.155   9.281   1.814 -0.8773  0.7970 -0.9010
 7263SOL     OW24808   6.997   1.604   4.911 -0.2570  0.1161  0.4462
 7263SOL    HW124809   7.035   1.676   4.961 -1.4807  1.2821 -0.3008
 7263SOL    HW224810   6.936   1.562   4.972  0.4629 -0.3214  0.8825
 7264SOL     OW24811   0.532   4.801   5.433 -0.2195  0.3342  0.2766
 7264SOL    HW124812   0.577   4.798   5.517  0.5839  1.2010 -0.1210
 7264SOL    HW224813   0.589   4.755   5.372 -0.3811  0.4736  0.0135
 7265SOL     OW24814   2.440   0.888   5.959  0.4854  0.1658 -0.4509
 7265SOL    HW124815   2.447   0.797   5.987  1.4940  0.2895 -0.2606
 7265SOL    HW224816   2.359   0.892   5.908  0.7221 -0.9541 -0.9174
 7266SOL     OW24817   3.662   4.225   5.479 -0.4477  0.5239 -0.0244
 7266SOL    HW124818   3.622   4.302   5.520 -1.7978 -0.4237  0.4694
 7266SOL    HW224819   3.754   4.249   5.470 -0.8729  2.2537 -0.0130
 7267SOL     OW24820   1.741   4.857   6.413  0.0088  0.6030 -0.1209
 7267SOL    HW124821   1.813   4.798   6.392 -1.5603 -1.8327  1.2048
 7267SOL    HW224822   1.666   4.823   6.364 -0.8301  1.7293  0.3394
 7268SOL     OW24823   7.928   7.387   5.307 -0.2210  0.1112  0.0130
 7268SOL    HW124824   7.872   7.422   5.237  0.1907 -0.8133 -0.7915
 7268SOL    HW224825   7.870   7.381   5.383 -1.5484 -1.8923 -1.0982
 7269SOL     OW24826   8.359   3.735   1.471 -0.1590 -0.1623  0.0140
 7269SOL    HW124827   8.413   3.813   1.466 -2.0474  1.1050 -1.4344
 7269SOL    HW224828   8.365   3.695   1.384  0.3002 -1.2974  0.5546
 7270SOL     OW24829   4.114   2.325   8.316  0.1363  0.5419  0.3385
 7270SOL    HW124830   4.069   2.243   8.295  1.4330 -0.4257  1.2563
 7270SOL    HW224831   4.087   2.345   8.405  0.3896  0.7269  0.3747
 7271SOL     OW24832   3.590   3.088   6.541 -0.1956  0.5058  0.1371
 7271SOL    HW124833   3.601   3.123   6.629 -0.8553 -0.4514  0.6165
 7271SOL    HW224834   3.520   3.023   6.550  2.2550 -2.2816 -0.3340
 7272SOL     OW24835   1.206   1.850   3.669 -0.3252 -0.0295  0.3583
 7272SOL    HW124836   1.230   1.776   3.612  0.8928 -0.3572  1.2921
 7272SOL    HW224837   1.243   1.828   3.754 -0.3461  1.4592  0.7597
 7273SOL     OW24838   2.407   7.935   8.086 -0.4002  0.5432  0.1731
 7273SOL    HW124839   2.327   7.963   8.042  0.1106  0.6461 -0.7202
 7273SOL    HW224840   2.381   7.918   8.176 -1.2026  1.6403  0.1601
 7274SOL     OW24841   2.950   1.451   8.466  0.2168 -0.3523  0.5279
 7274SOL    HW124842   3.021   1.505   8.500  0.2833 -0.2944  0.2975
 7274SOL    HW224843   2.872   1.482   8.512  0.2524 -0.0471  0.3807
 7275SOL     OW24844   2.682   2.004   5.810 -0.3936 -0.6715  0.0767
 7275SOL    HW124845   2.592   1.998   5.777 -1.3932 -0.5352  2.6775
 7275SOL    HW224846   2.689   1.934   5.875  1.6816 -1.2414 -0.7151
 7276SOL     OW24847   0.506   8.499   7.971 -0.6278  0.5767  1.3218
 7276SOL    HW124848   0.414   8.483   7.989 -0.5661 -1.0759  0.1796
 7276SOL    HW224849   0.516   8.594   7.982 -2.6256  0.8822  0.6278
 7277SOL     OW24850   7.623   8.431   7.607  0.8852 -0.5012  0.2860
 7277SOL    HW124851   7.666   8.346   7.611 -0.7678 -1.3050  1.4985
 7277SOL    HW224852   7.548   8.423   7.666  0.3311  1.5807 -0.0915
 7278SOL     OW24853   6.149   6.773   4.361 -0.7030 -0.0854  0.9350
 7278SOL    HW124854   6.181   6.700   4.415 -0.3327 -0.8621 -0.3186
 7278SOL    HW224855   6.102   6.731   4.289 -1.4167  0.9496  0.7813
 7279SOL     OW24856   7.511   8.703   8.805  0.2163  0.0334  0.5243
 7279SOL    HW124857   7.562   8.638   8.852  2.0019  0.6968 -0.4315
 7279SOL    HW224858   7.574   8.742   8.743 -1.4411  0.8863 -0.6580
 7280SOL     OW24859   4.595   0.013   1.127 -0.9899  0.1855  0.1048
 7280SOL    HW124860   4.684  -0.011   1.100 -0.4507  0.3083  1.7286
 7280SOL    HW224861   4.568  -0.058   1.186 -2.0512  0.0567 -0.5139
 7281SOL     OW24862   2.301   6.294   4.594 -0.4562  0.5579 -0.2643
 7281SOL    HW124863   2.306   6.210   4.640  1.3457  0.5226 -0.4837
 7281SOL    HW224864   2.218   6.290   4.546 -0.9502 -0.6034  0.6430
 7282SOL     OW24865   1.936   5.589   2.438  0.3366 -0.4248  0.2446
 7282SOL    HW124866   1.915   5.506   2.395 -1.5188  0.7793 -1.3034
 7282SOL    HW224867   1.963   5.647   2.366  3.2341 -0.1338  1.5014
 7283SOL     OW24868   3.956   2.634   1.665  0.4450  0.3656  0.1567
 7283SOL    HW124869   3.993   2.721   1.673 -1.2445  1.0017  1.5054
 7283SOL    HW224870   3.938   2.624   1.572  0.3652  1.6061  0.0277
 7284SOL     OW24871   3.320   5.875   4.003  0.6466  0.8317 -0.5988
 7284SOL    HW124872   3.317   5.843   4.093  3.9758  1.3703 -0.1965
 7284SOL    HW224873   3.273   5.958   4.006  0.1607  0.5245  0.5182
 7285SOL     OW24874   4.788   1.137   0.330 -0.3404  0.0694 -1.0231
 7285SOL    HW124875   4.702   1.131   0.289 -0.0509  2.4132 -2.0778
 7285SOL    HW224876   4.821   1.223   0.304  2.1624 -0.6250 -0.3069
 7286SOL     OW24877   1.714   6.145   2.836  0.0503 -0.4885  0.4997
 7286SOL    HW124878   1.807   6.139   2.815  0.0707  3.2428 -0.7775
 7286SOL    HW224879   1.711   6.196   2.917 -0.9636  1.2353 -0.6014
 7287SOL     OW24880   4.733   5.548   8.927  0.2656 -0.2905  0.1339
 7287SOL    HW124881   4.687   5.597   8.860  0.9229  1.2855  0.7962
 7287SOL    HW224882   4.806   5.506   8.881  0.6816  0.7388 -0.1608
 7288SOL     OW24883   5.119   4.755   8.516 -0.6066  0.6287 -0.1588
 7288SOL    HW124884   5.141   4.775   8.606 -0.1410  1.9489 -0.5592
 7288SOL    HW224885   5.201   4.722   8.478 -0.5810  0.9004 -0.3363
 7289SOL     OW24886   0.512   4.484   5.575 -0.0250  0.4346  0.1665
 7289SOL    HW124887   0.585   4.487   5.513  0.0228  0.5022  0.2271
 7289SOL    HW224888   0.552   4.466   5.660  0.0629  1.8907  0.4390
 7290SOL     OW24889   0.659   8.457   2.288 -0.3090 -0.1787 -0.0315
 7290SOL    HW124890   0.612   8.492   2.213  0.5596 -1.3392 -1.1288
 7290SOL    HW224891   0.744   8.501   2.287 -0.1486 -0.4811  0.0437
 7291SOL     OW24892   6.920   2.186   7.566  0.4157 -0.4172  0.4559
 7291SOL    HW124893   6.945   2.188   7.658  3.5085 -0.5107 -0.3006
 7291SOL    HW224894   7.000   2.159   7.520 -1.7003 -2.8042 -2.0560
 7292SOL     OW24895   3.656   5.123   6.830  0.1870  0.2431  0.1077
 7292SOL    HW124896   3.676   5.195   6.771 -2.1930  0.5917 -0.2916
 7292SOL    HW224897   3.714   5.136   6.905  0.3176  2.1180 -0.3130
 7293SOL     OW24898   8.889   7.300   9.097 -0.0453 -0.0518  0.0033
 7293SOL    HW124899   8.811   7.320   9.150 -0.3036  0.9964 -0.7455
 7293SOL    HW224900   8.956   7.360   9.129 -0.0672  0.2675 -0.5439
 7294SOL     OW24901   9.245   8.157   1.269 -0.4457 -0.1653  0.6237
 7294SOL    HW124902   9.176   8.097   1.240 -1.0080  0.6218  0.3077
 7294SOL    HW224903   9.217   8.242   1.237  1.6299 -0.1266 -1.1402
 7295SOL     OW24904   7.809   2.662   3.965  0.3576  0.3283  0.0390
 7295SOL    HW124905   7.808   2.580   4.016  1.7743  0.8601  0.9723
 7295SOL    HW224906   7.900   2.671   3.937  0.3010  1.7737  0.2788
 7296SOL     OW24907   8.210   3.790   6.134  0.4128 -0.3256  0.0452
 7296SOL    HW124908   8.260   3.861   6.093 -2.3368  1.9595  0.4034
 7296SOL    HW224909   8.272   3.747   6.193  2.0341  2.1723  0.2505
 7297SOL     OW24910   5.945   9.168   0.277  0.1431  0.4759  0.7720
 7297SOL    HW124911   5.994   9.094   0.311  1.3575  0.7376 -0.3658
 7297SOL    HW224912   6.010   9.222   0.233 -0.9773  1.4052  0.2154
 7298SOL     OW24913   2.479   6.665   7.579  0.1375  0.0037 -0.6210
 7298SOL    HW124914   2.474   6.756   7.610  0.6777  0.2886 -1.3557
 7298SOL    HW224915   2.475   6.613   7.659 -1.4451  0.6281 -0.2753
 7299SOL     OW24916   9.381   3.380   1.562 -0.2714 -0.3428 -0.1332
 7299SOL    HW124917   9.476   3.374   1.552 -0.0743  1.2432  0.6460
 7299SOL    HW224918   9.348   3.388   1.472  0.3508 -0.5993 -0.3862
 7300SOL     OW24919   0.143   8.315   2.694 -0.0525 -0.2687  0.1545
 7300SOL    HW124920   0.053   8.314   2.662  0.5096  1.4926 -1.6247
 7300SOL    HW224921   0.144   8.381   2.763  0.1651  0.7350 -0.7977
 7301SOL     OW24922   7.384   6.763   6.055  0.2548 -0.8629  0.0491
 7301SOL    HW124923   7.430   6.704   5.995 -0.3220 -1.2835  0.0204
 7301SOL    HW224924   7.318   6.709   6.096 -0.1929 -0.2663  0.1262
 7302SOL     OW24925   9.068   1.951   1.633  0.2465  0.0341  0.2455
 7302SOL    HW124926   9.019   1.870   1.649 -0.8503  0.4319 -0.9876
 7302SOL    HW224927   9.092   1.982   1.720  1.3661 -2.0294  0.6942
 7303SOL     OW24928   5.371   7.458   5.833  0.5649  0.1203 -0.0711
 7303SOL    HW124929   5.351   7.414   5.750  0.7473 -0.2249  0.0640
 7303SOL    HW224930   5.445   7.408   5.868  0.0904 -0.1120  0.5973
 7304SOL     OW24931   8.584   8.714   4.874 -0.1010 -0.3432 -0.5525
 7304SOL    HW124932   8.589   8.770   4.796  0.5484 -1.6263 -1.4465
 7304SOL    HW224933   8.492   8.685   4.876  0.1601 -1.2724 -1.5389
 7305SOL     OW24934   0.751   3.991   8.858  0.0553 -0.6165  0.0596
 7305SOL    HW124935   0.844   4.012   8.851  0.3512 -2.0427 -0.3692
 7305SOL    HW224936   0.748   3.910   8.910 -1.0389  0.2242  1.3551
 7306SOL     OW24937   1.999   3.614   7.839 -0.2534 -0.0506  0.7284
 7306SOL    HW124938   2.033   3.557   7.771  0.9650 -0.5504  1.7323
 7306SOL    HW224939   1.909   3.631   7.813  0.5626  0.7657 -1.6248
 7307SOL     OW24940   9.184   7.321   7.382  0.4143 -0.5052  0.3237
 7307SOL    HW124941   9.166   7.238   7.426  1.0475 -2.4953 -3.0688
 7307SOL    HW224942   9.270   7.347   7.415 -0.2564 -0.5917  2.2226
 7308SOL     OW24943   8.608   3.579   6.672  0.5661  0.3024  0.4413
 7308SOL    HW124944   8.678   3.546   6.616 -0.1053  0.8235 -0.7140
 7308SOL    HW224945   8.653   3.613   6.749  1.5120 -0.1474  0.0938
 7309SOL     OW24946   5.640   4.501   7.359  0.4714 -0.6254  0.5396
 7309SOL    HW124947   5.695   4.545   7.294  0.1065  0.8038  1.1802
 7309SOL    HW224948   5.702   4.455   7.416  0.9699  0.4626  0.8818
 7310SOL     OW24949   1.840   9.375   8.831  0.1872 -0.1017  0.5031
 7310SOL    HW124950   1.892   9.308   8.788  1.2212  1.9275 -1.5078
 7310SOL    HW224951   1.752   9.364   8.795  0.7983  0.8705 -1.3337
 7311SOL     OW24952   6.209   3.608   6.149  0.0885 -0.2984 -0.5188
 7311SOL    HW124953   6.134   3.579   6.200 -0.9914  0.0271 -1.8985
 7311SOL    HW224954   6.252   3.673   6.204 -0.8089 -0.2773  0.1639
 7312SOL     OW24955   6.150   1.815   8.797 -0.6413 -0.7492  0.0089
 7312SOL    HW124956   6.200   1.796   8.718 -0.0956 -1.0778  0.4306
 7312SOL    HW224957   6.133   1.909   8.793 -0.2747 -0.6944 -0.2982
 7313SOL     OW24958   8.457   5.040   0.824  0.3040  0.1951 -0.0942
 7313SOL    HW124959   8.502   4.957   0.835  1.7851  1.0885  0.7071
 7313SOL    HW224960   8.487   5.074   0.740  0.2179  0.2387 -0.1087
 7314SOL     OW24961   7.788   7.837   0.987  0.1855  0.2069  0.4320
 7314SOL    HW124962   7.853   7.906   0.978 -0.8127  0.8919 -1.6157
 7314SOL    HW224963   7.724   7.872   1.049  1.0036  0.0836  1.3626
 7315SOL     OW24964   1.916   2.860   8.443  0.6436 -0.2002  0.3263
 7315SOL    HW124965   1.869   2.804   8.505  2.3008 -2.9461 -0.8202
 7315SOL    HW224966   1.851   2.882   8.376 -0.1215 -0.4077  0.9958
 7316SOL     OW24967   2.458   8.671   9.244 -0.4829 -0.4898 -0.5333
 7316SOL    HW124968   2.388   8.610   9.222 -0.6628 -0.1688 -0.8555
 7316SOL    HW224969   2.499   8.692   9.160  1.0885 -1.9903 -0.1733
 7317SOL     OW24970   6.753   0.843   5.057 -0.1107 -0.2193  0.1217
 7317SOL    HW124971   6.709   0.759   5.045 -0.0996 -0.1895 -0.1290
 7317SOL    HW224972   6.720   0.876   5.141  0.3385 -0.7530  0.5175
 7318SOL     OW24973   5.880   4.288   7.961 -0.3080  0.3220 -0.1290
 7318SOL    HW124974   5.827   4.277   7.881 -0.7948 -0.7932  0.3308
 7318SOL    HW224975   5.834   4.357   8.010 -0.0089  1.0115 -0.8021
 7319SOL     OW24976   1.599   3.521   2.508  0.4026  0.1018 -0.2089
 7319SOL    HW124977   1.585   3.457   2.438 -0.3683 -0.1994  0.2157
 7319SOL    HW224978   1.514   3.566   2.516  0.2535 -0.3979  1.0660
 7320SOL     OW24979   7.457   8.680   8.197  0.2554  0.3323  0.2184
 7320SOL    HW124980   7.483   8.697   8.106 -1.8318 -2.3281 -0.9627
 7320SOL    HW224981   7.364   8.704   8.200  0.0196 -0.6692  1.3330
 7321SOL     OW24982   2.317   4.829   4.387 -0.4188 -0.0710 -0.1337
 7321SOL    HW124983   2.290   4.771   4.459  0.6236 -1.2688 -0.6867
 7321SOL    HW224984   2.323   4.916   4.428 -1.3171 -0.4737  0.8732
 7322SOL     OW24985   8.748   8.059   0.431 -0.1270 -0.8074 -0.2058
 7322SOL    HW124986   8.777   8.007   0.355 -1.0121 -0.8960 -0.4937
 7322SOL    HW224987   8.797   8.023   0.505 -0.3194 -1.6741 -0.5000
 7323SOL     OW24988   7.836   3.344   6.909 -0.1940 -0.3335  0.4846
 7323SOL    HW124989   7.771   3.300   6.855 -0.3162  2.3292 -1.6807
 7323SOL    HW224990   7.916   3.294   6.896 -0.6800 -0.8138 -0.7073
 7324SOL     OW24991   8.367   3.067   8.366 -0.1814  0.0718 -0.2547
 7324SOL    HW124992   8.322   2.985   8.346 -0.2510  0.1592 -0.4530
 7324SOL    HW224993   8.436   3.041   8.427 -1.0723  0.0777  0.7811
 7325SOL     OW24994   1.691   2.473   3.962 -0.1941 -0.2243  0.3473
 7325SOL    HW124995   1.786   2.480   3.965 -0.1023 -0.0102 -2.2915
 7325SOL    HW224996   1.660   2.558   3.995  0.5520  0.3387 -0.3849
 7326SOL     OW24997   6.668   3.370   8.648  0.0228 -0.1822 -0.1478
 7326SOL    HW124998   6.631   3.313   8.580 -0.1067 -0.1335 -0.1179
 7326SOL    HW224999   6.603   3.438   8.661  0.7116  0.6587 -1.0388
 7327SOL     OW25000   4.763   5.055   1.847 -0.2617  0.5437 -0.1336
 7327SOL    HW125001   4.696   5.119   1.821  0.3708  1.0767 -0.4774
 7327SOL    HW225002   4.843   5.086   1.805  0.0886 -0.3891 -0.1585
 7328SOL     OW25003   6.742   1.970   4.013 -0.0413 -0.2528  0.6677
 7328SOL    HW125004   6.708   1.918   3.939 -0.3550 -0.1315  0.7263
 7328SOL    HW225005   6.731   2.061   3.985  1.6291 -0.2160  0.0577
 7329SOL     OW25006   1.589   6.986   2.012 -0.2228  0.2072 -0.2986
 7329SOL    HW125007   1.639   6.975   1.931 -1.8755  1.3868 -1.5146
 7329SOL    HW225008   1.528   6.913   2.013 -2.3332  1.9080 -1.7420
 7330SOL     OW25009   1.791   5.064   3.792  0.3923 -0.0468 -0.3793
 7330SOL    HW125010   1.877   5.052   3.830  0.2837  0.1111 -0.0804
 7330SOL    HW225011   1.796   5.149   3.748  0.3800 -0.0192 -0.3288
 7331SOL     OW25012   6.250   2.314   5.155 -0.1718 -0.2713  0.0886
 7331SOL    HW125013   6.266   2.287   5.245 -1.7379 -2.9845 -0.3753
 7331SOL    HW225014   6.310   2.261   5.103  0.4079  0.9516 -0.5009
 7332SOL     OW25015   7.318   1.884   2.698  0.7722  0.2630 -0.8885
 7332SOL    HW125016   7.336   1.790   2.691  0.7512  0.2000 -0.0633
 7332SOL    HW225017   7.336   1.918   2.610  1.4790 -0.3896 -0.9995
 7333SOL     OW25018   5.326   0.551   3.968  0.3778 -0.4189 -0.2412
 7333SOL    HW125019   5.248   0.548   4.025 -0.3558  0.4600 -1.1721
 7333SOL    HW225020   5.296   0.512   3.886  1.2561 -1.1069 -0.2371
 7334SOL     OW25021   4.795   8.643   7.078 -0.1024  0.0268  0.0622
 7334SOL    HW125022   4.826   8.715   7.022 -1.4927 -0.1218 -0.9178
 7334SOL    HW225023   4.708   8.670   7.106 -0.0736 -0.6637  0.8169
 7335SOL     OW25024   0.764   1.700   8.751 -0.2918 -0.5388 -0.0476
 7335SOL    HW125025   0.720   1.736   8.828 -2.1071 -0.1890 -1.2207
 7335SOL    HW225026   0.721   1.616   8.736 -0.0920 -0.5033 -0.8154
 7336SOL     OW25027   3.772   7.763   6.373  0.2459 -0.0356  0.0647
 7336SOL    HW125028   3.711   7.797   6.307 -0.4331 -0.4292  0.4799
 7336SOL    HW225029   3.725   7.772   6.455  0.7284 -0.4109  0.3812
 7337SOL     OW25030   1.340   7.481   9.155  0.3898 -0.1660 -0.0766
 7337SOL    HW125031   1.275   7.414   9.136  1.8564 -1.5854 -0.1679
 7337SOL    HW225032   1.404   7.438   9.211  1.4211  1.1250 -0.2310
 7338SOL     OW25033   3.887   7.744   2.222 -0.3781  0.9555  0.0898
 7338SOL    HW125034   3.891   7.839   2.238 -0.0389  0.8747  0.4581
 7338SOL    HW225035   3.976   7.720   2.196 -0.8500  1.0541 -1.7335
 7339SOL     OW25036   8.558   1.243   6.818 -0.6191 -0.4407  0.2384
 7339SOL    HW125037   8.518   1.288   6.744  1.2766 -1.0700 -1.2050
 7339SOL    HW225038   8.592   1.314   6.873  2.3247 -0.0306 -2.0082
 7340SOL     OW25039   3.140   4.567   2.745  0.1968  0.0720  0.3469
 7340SOL    HW125040   3.128   4.480   2.707  1.2229 -0.1494  0.5286
 7340SOL    HW225041   3.235   4.578   2.752  0.0652  1.0131  0.7672
 7341SOL     OW25042   0.880   7.431   1.610 -0.8094  0.2267 -0.5586
 7341SOL    HW125043   0.855   7.511   1.564 -0.0180  0.9289  0.2152
 7341SOL    HW225044   0.807   7.412   1.668  0.1900  1.9906  1.3328
 7342SOL     OW25045   2.980   1.310   9.438  0.1719 -0.5625  0.9538
 7342SOL    HW125046   2.942   1.232   9.398 -0.4771 -0.8137  2.0106
 7342SOL    HW225047   2.907   1.351   9.485  1.1700 -1.0645  3.0462
 7343SOL     OW25048   1.539   5.295   3.495 -0.2378  0.1972 -0.2049
 7343SOL    HW125049   1.466   5.355   3.508 -1.1545 -0.9228 -0.0370
 7343SOL    HW225050   1.587   5.331   3.421 -0.8933  1.0087 -0.2457
 7344SOL     OW25051   4.638   7.614   6.053 -0.0841  0.1645  0.9080
 7344SOL    HW125052   4.574   7.654   6.112 -1.5353 -0.4147 -0.2444
 7344SOL    HW225053   4.601   7.626   5.966  1.8491  0.6591  0.1302
 7345SOL     OW25054   9.313   6.600   4.297  0.1586  0.0472  0.3496
 7345SOL    HW125055   9.337   6.511   4.271  0.2284  0.2223 -0.1995
 7345SOL    HW225056   9.221   6.594   4.321 -0.4258  0.2413 -1.7243
 7346SOL     OW25057   1.867   7.016   1.223 -0.4040 -0.2930  0.5242
 7346SOL    HW125058   1.941   7.051   1.173 -1.4211  1.8392  0.4398
 7346SOL    HW225059   1.791   7.065   1.191 -1.7103 -1.7631  1.2931
 7347SOL     OW25060   4.576   7.301   4.216 -0.2383 -0.4782  0.1121
 7347SOL    HW125061   4.605   7.338   4.133 -1.2017  0.4458  0.1837
 7347SOL    HW225062   4.501   7.247   4.193  0.1873 -1.1319  0.2338
 7348SOL     OW25063   3.504   7.299   9.143  0.1385 -0.1567 -0.4134
 7348SOL    HW125064   3.480   7.391   9.149  4.0218  0.9061  0.1688
 7348SOL    HW225065   3.508   7.281   9.049  0.6630  0.6596 -0.5542
 7349SOL     OW25066   4.487   1.199   2.931 -0.3084 -0.6236  0.2170
 7349SOL    HW125067   4.448   1.178   2.846  1.3837 -2.0746 -0.2169
 7349SOL    HW225068   4.435   1.150   2.994 -1.2888  0.0997 -0.0236
 7350SOL     OW25069   3.734   3.963   5.278  0.5225 -0.1886  0.0867
 7350SOL    HW125070   3.826   3.952   5.254  0.9398  1.9078  0.6387
 7350SOL    HW225071   3.708   3.879   5.315  2.5042 -0.5015  0.8045
 7351SOL     OW25072   1.753   5.477   7.028  0.0294 -0.3743 -0.0744
 7351SOL    HW125073   1.762   5.418   6.953 -0.5237  0.2846 -0.6672
 7351SOL    HW225074   1.658   5.481   7.043  0.0598  0.4238 -0.0858
 7352SOL     OW25075   0.256   3.733   8.994 -0.1438 -0.3500  0.0588
 7352SOL    HW125076   0.278   3.744   9.087 -3.2541  0.2432  0.7630
 7352SOL    HW225077   0.313   3.795   8.949  1.6276 -0.8621  1.5133
 7353SOL     OW25078   3.156   6.251   6.120 -0.1402 -0.2735  0.0020
 7353SOL    HW125079   3.138   6.270   6.028 -1.6584  1.3572  0.6141
 7353SOL    HW225080   3.102   6.175   6.140  0.7995 -1.1334 -0.6406
 7354SOL     OW25081   7.501   8.420   4.336 -0.2041  0.1385  0.1916
 7354SOL    HW125082   7.469   8.509   4.348  0.9907  0.4572  1.1607
 7354SOL    HW225083   7.541   8.420   4.249 -0.3694  0.5060  0.1158
 7355SOL     OW25084   6.755   3.539   5.512 -0.2371 -0.3128 -0.4016
 7355SOL    HW125085   6.700   3.618   5.514  0.6219  0.2848 -0.1881
 7355SOL    HW225086   6.784   3.528   5.602  2.7972  1.3757 -1.1141
 7356SOL     OW25087   5.415   0.761   6.685 -0.1016 -0.3710  0.5036
 7356SOL    HW125088   5.365   0.804   6.754 -0.6279  3.3642 -2.0405
 7356SOL    HW225089   5.506   0.781   6.704 -0.0870 -1.0099  1.1383
 7357SOL     OW25090   4.065   2.225   7.324  0.2178  0.2788  0.0421
 7357SOL    HW125091   4.053   2.158   7.257  2.1215 -0.3027  0.2459
 7357SOL    HW225092   4.030   2.186   7.404  0.7728 -0.2558  0.0290
 7358SOL     OW25093   0.130   9.282   3.346 -0.0877  0.0765 -0.1397
 7358SOL    HW125094   0.083   9.226   3.285  1.3904 -1.2159 -0.1400
 7358SOL    HW225095   0.112   9.371   3.317 -0.9119 -0.4737 -1.3170
 7359SOL     OW25096   6.198   8.073   1.826  0.2303  0.8189 -0.1200
 7359SOL    HW125097   6.181   8.159   1.864 -0.3311  0.8844 -0.5250
 7359SOL    HW225098   6.284   8.082   1.785 -0.6321  1.7286 -1.7485
 7360SOL     OW25099   9.438   8.676   5.387  0.2824  0.1329 -0.2630
 7360SOL    HW125100   9.417   8.584   5.372 -0.0759  0.1236  0.2700
 7360SOL    HW225101   9.529   8.676   5.416  0.4143 -0.0166 -0.6850
 7361SOL     OW25102   4.668   5.747   8.759  0.5941  0.0039 -0.3736
 7361SOL    HW125103   4.759   5.768   8.738  0.3128  0.2295 -1.3826
 7361SOL    HW225104   4.619   5.771   8.680 -0.3263 -0.2004  0.1333
 7362SOL     OW25105   7.628   5.255   6.549  0.0160 -0.2958  0.2189
 7362SOL    HW125106   7.540   5.233   6.519 -0.2115  0.9047 -0.0082
 7362SOL    HW225107   7.659   5.175   6.592 -0.1519 -1.6012 -2.0142
 7363SOL     OW25108   1.047   2.517   0.140  0.8501 -0.1828 -0.1536
 7363SOL    HW125109   1.025   2.562   0.222 -0.2036  0.3202 -0.6943
 7363SOL    HW225110   1.125   2.562   0.108  1.7384 -0.9197  0.9846
 7364SOL     OW25111   6.639   6.098   9.375 -0.2561 -0.0335 -0.0945
 7364SOL    HW125112   6.662   6.150   9.452 -1.0533  1.1241 -0.6252
 7364SOL    HW225113   6.589   6.158   9.319  0.0024 -0.9652 -1.3523
 7365SOL     OW25114   2.300   8.275   4.118  0.1440  0.3334 -0.4714
 7365SOL    HW125115   2.340   8.347   4.166  1.0048 -0.0882 -0.5461
 7365SOL    HW225116   2.214   8.263   4.158  1.3670 -0.8991  1.8586
 7366SOL     OW25117   3.082   7.637   7.132 -0.0316 -0.1918 -0.4706
 7366SOL    HW125118   3.087   7.661   7.040  1.1796  0.6417 -0.2008
 7366SOL    HW225119   3.143   7.564   7.142  0.2850  0.1094 -0.2044
 7367SOL     OW25120   3.824   7.461   6.191  0.4306  0.3210  0.1184
 7367SOL    HW125121   3.902   7.444   6.244 -0.7367  2.6218  2.6720
 7367SOL    HW225122   3.754   7.417   6.237  0.1444 -1.7722 -2.1971
 7368SOL     OW25123   0.209   1.572   2.072 -0.2534  0.5260  0.1179
 7368SOL    HW125124   0.150   1.583   1.998 -0.0512  1.3318  0.0687
 7368SOL    HW225125   0.263   1.651   2.071  1.0364 -0.3395 -0.0335
 7369SOL     OW25126   0.345   7.388   9.293 -0.2800  0.0751  0.2256
 7369SOL    HW125127   0.270   7.340   9.257 -0.7322  0.6060  0.4471
 7369SOL    HW225128   0.398   7.410   9.216  0.5728 -1.8285  0.2367
 7370SOL     OW25129   1.422   5.482   7.017 -0.1452  1.0748 -0.0240
 7370SOL    HW125130   1.445   5.549   7.082  2.0260  0.2423  0.0827
 7370SOL    HW225131   1.388   5.409   7.070  0.7322  0.7598  0.1001
 7371SOL     OW25132   0.651   1.893   4.438  0.7374  0.1132  0.3443
 7371SOL    HW125133   0.703   1.826   4.483 -0.4511 -0.2044  1.2470
 7371SOL    HW225134   0.716   1.955   4.406  1.7912 -1.0124  0.2483
 7372SOL     OW25135   4.923   0.026   7.752 -0.1520  0.2485 -1.4266
 7372SOL    HW125136   4.939   0.020   7.846 -0.2739  1.3957 -1.3249
 7372SOL    HW225137   5.007   0.001   7.712 -0.5845 -1.8503 -1.0564
 7373SOL     OW25138   3.675   5.317   0.468  0.0254 -0.0788 -0.1601
 7373SOL    HW125139   3.647   5.268   0.545  1.1840  0.0430  0.3445
 7373SOL    HW225140   3.766   5.289   0.453 -1.0447 -2.2391 -3.1521
 7374SOL     OW25141   2.011   5.955   1.379  0.2574  0.2396 -0.2952
 7374SOL    HW125142   1.979   5.922   1.462 -1.3517  2.1440 -0.1014
 7374SOL    HW225143   1.967   5.902   1.313  1.5295 -1.2645  0.0417
 7375SOL     OW25144   2.418   3.515   0.037  0.5251 -0.4364 -0.2813
 7375SOL    HW125145   2.499   3.535  -0.011  0.5333  0.2524  0.0139
 7375SOL    HW225146   2.443   3.446   0.098  0.3762 -1.7216 -1.6603
 7376SOL     OW25147   2.209   3.430   6.192 -0.0505  0.2276  0.3792
 7376SOL    HW125148   2.131   3.474   6.158  0.6705 -0.8301 -2.7701
 7376SOL    HW225149   2.281   3.489   6.173  0.2779 -0.0288  0.7981
 7377SOL     OW25150   2.062   3.753   8.867  0.3285  0.6665 -0.4736
 7377SOL    HW125151   2.106   3.836   8.880 -0.3049  0.9630 -0.1793
 7377SOL    HW225152   2.061   3.712   8.954 -1.0505  1.2111 -0.2141
 7378SOL     OW25153   8.932   0.133   5.219 -0.7616 -0.0088 -0.0338
 7378SOL    HW125154   8.884   0.215   5.229 -1.0879 -0.1668 -0.2794
 7378SOL    HW225155   8.998   0.135   5.288 -2.7584 -0.9395  1.9673
 7379SOL     OW25156   0.616   8.851   0.423 -0.5727  0.1205 -0.4791
 7379SOL    HW125157   0.711   8.861   0.412 -0.3419 -1.2581  0.2241
 7379SOL    HW225158   0.593   8.776   0.369 -1.2649  0.4411 -0.6325
 7380SOL     OW25159   7.110   2.051   9.320 -0.1898  0.3481 -0.7187
 7380SOL    HW125160   7.171   1.978   9.326  0.3922  0.8800 -0.1343
 7380SOL    HW225161   7.063   2.050   9.404  0.1270  0.9124 -0.5332
 7381SOL     OW25162   1.680   6.649   3.105 -0.8892 -0.7776 -0.4164
 7381SOL    HW125163   1.592   6.686   3.105 -0.3396  0.5449  0.2890
 7381SOL    HW225164   1.725   6.692   3.177  0.5518 -0.9411 -1.2016
 7382SOL     OW25165   6.182   4.977   1.971  0.4077 -0.4613 -0.2606
 7382SOL    HW125166   6.274   4.951   1.977  0.4486 -0.3355 -0.3442
 7382SOL    HW225167   6.182   5.056   1.917  0.0459 -1.6238 -1.9868
 7383SOL     OW25168   8.332   5.704   0.179  0.1409 -0.0794  0.4077
 7383SOL    HW125169   8.301   5.615   0.197 -0.5837  0.1714  0.4173
 7383SOL    HW225170   8.427   5.695   0.173 -0.0353 -1.1420 -1.2091
 7384SOL     OW25171   7.230   1.932   2.228  0.1897  0.7427  0.6268
 7384SOL    HW125172   7.317   1.933   2.267  0.8973  2.2286 -0.9141
 7384SOL    HW225173   7.170   1.941   2.302  1.3029 -0.8258  1.7527
 7385SOL     OW25174   9.136   0.199   5.410 -0.6819 -0.2366  0.6948
 7385SOL    HW125175   9.195   0.124   5.417 -0.7994 -0.3382  0.5998
 7385SOL    HW225176   9.193   0.271   5.385 -0.5601 -0.2838  0.8318
 7386SOL     OW25177   3.780   5.711   3.452 -0.3184 -0.0765 -0.6267
 7386SOL    HW125178   3.853   5.679   3.400  0.2655  0.0253  0.1267
 7386SOL    HW225179   3.819   5.738   3.535 -1.3890 -1.3419  0.3254
 7387SOL     OW25180   1.008   5.104   0.320  0.0901 -0.0372 -0.2921
 7387SOL    HW125181   1.026   5.026   0.372 -1.1426 -0.2992 -0.2464
 7387SOL    HW225182   1.092   5.127   0.280  0.4760 -1.3217 -0.2224
 7388SOL     OW25183   4.971   1.617   0.826  0.1458 -0.0960  0.1064
 7388SOL    HW125184   5.048   1.669   0.802  0.4568 -0.0763  1.1548
 7388SOL    HW225185   4.949   1.645   0.914 -0.0689 -1.2729  0.4344
 7389SOL     OW25186   6.287   4.445   8.488 -0.3378 -0.6617 -0.3423
 7389SOL    HW125187   6.348   4.434   8.561 -1.4987 -2.7677  0.3466
 7389SOL    HW225188   6.208   4.482   8.527  0.1729  1.3118 -1.1034
 7390SOL     OW25189   1.755   4.588   0.084  0.9238  0.5832  0.2095
 7390SOL    HW125190   1.826   4.539   0.126  1.5839  0.1032 -1.4437
 7390SOL    HW225191   1.773   4.679   0.107  1.0661  0.2981  1.2720
 7391SOL     OW25192   1.758   7.293   3.661  0.0301 -0.4735  0.0307
 7391SOL    HW125193   1.792   7.330   3.579 -0.6379  1.8544  0.7570
 7391SOL    HW225194   1.745   7.200   3.642  2.5466 -0.5388 -1.6228
 7392SOL     OW25195   3.484   7.334   2.929 -0.1378  0.0593  0.7262
 7392SOL    HW125196   3.559   7.377   2.971  1.0992  0.2178 -1.5377
 7392SOL    HW225197   3.447   7.401   2.872  1.9510 -1.8148 -3.0226
 7393SOL     OW25198   1.497   5.797   3.959  0.2442  0.4215  0.2566
 7393SOL    HW125199   1.408   5.818   3.988  0.2838  1.0400 -0.0729
 7393SOL    HW225200   1.485   5.744   3.880  0.1766  0.7346  0.0584
 7394SOL     OW25201   0.298   8.263   0.713  0.2559  0.5202 -0.1832
 7394SOL    HW125202   0.213   8.289   0.748 -0.3159 -2.0496  0.4315
 7394SOL    HW225203   0.354   8.252   0.789  0.9923  1.5795 -0.5493
 7395SOL     OW25204   0.556   8.120   5.961 -0.0395  0.1840  0.3150
 7395SOL    HW125205   0.486   8.172   5.922 -0.3965 -0.5113  0.0128
 7395SOL    HW225206   0.611   8.094   5.887  0.0718  0.0311  0.4495
 7396SOL     OW25207   8.504   2.813   7.049 -0.5094 -0.3124 -0.1108
 7396SOL    HW125208   8.580   2.868   7.028  0.3562 -1.3507  0.2749
 7396SOL    HW225209   8.434   2.875   7.067  0.3523  0.6652 -0.0765
 7397SOL     OW25210   2.417   5.742   4.419 -0.1659  0.2020 -0.2259
 7397SOL    HW125211   2.471   5.812   4.455 -0.3997 -0.7436  2.0546
 7397SOL    HW225212   2.477   5.689   4.367  0.7837  0.0628  0.9926
 7398SOL     OW25213   7.635   6.177   5.007 -0.3908 -0.1517  0.2109
 7398SOL    HW125214   7.555   6.229   5.004 -1.5146 -1.8932 -2.0223
 7398SOL    HW225215   7.683   6.210   5.083 -2.8790  1.4355  1.1493
 7399SOL     OW25216   2.771   6.322   8.196 -0.3559  0.6267 -0.1740
 7399SOL    HW125217   2.752   6.286   8.283 -2.0010  2.8389  0.4422
 7399SOL    HW225218   2.829   6.396   8.213 -0.9986  1.3133 -0.8996
 7400SOL     OW25219   5.422   5.301   4.775  0.3821  0.4962 -0.5106
 7400SOL    HW125220   5.515   5.279   4.767  0.3351  0.5452 -1.2597
 7400SOL    HW225221   5.381   5.259   4.699  0.1854  2.5346 -1.5810
 7401SOL     OW25222   3.620   8.836   2.010 -0.4255  0.6383  0.2042
 7401SOL    HW125223   3.536   8.803   1.975 -1.4202 -0.1507  3.2012
 7401SOL    HW225224   3.639   8.778   2.084  1.8809  1.9434  0.6672
 7402SOL     OW25225   3.494   5.995   6.274 -0.7209 -0.0119 -0.2726
 7402SOL    HW125226   3.589   5.990   6.274 -0.7322 -0.2183 -0.0722
 7402SOL    HW225227   3.468   5.955   6.191 -0.5704  1.2666 -0.9496
 7403SOL     OW25228   4.499   8.873   6.550  0.1114  0.0098 -0.0706
 7403SOL    HW125229   4.574   8.886   6.492 -0.5585  0.4743 -0.8349
 7403SOL    HW225230   4.537   8.838   6.631  1.0304 -0.7788 -0.8329
 7404SOL     OW25231   7.839   7.675   2.491 -0.2305  0.1178 -0.7652
 7404SOL    HW125232   7.752   7.638   2.483  0.2468 -1.3748  0.7021
 7404SOL    HW225233   7.882   7.622   2.558  1.2501  1.8784 -0.2819
 7405SOL     OW25234   4.310   3.223   7.090 -0.9233  0.2821 -0.2735
 7405SOL    HW125235   4.239   3.199   7.030 -1.3264 -3.0011  1.3964
 7405SOL    HW225236   4.266   3.269   7.162 -1.0468  0.3816 -0.4130
 7406SOL     OW25237   1.285   4.701   9.438 -0.1111  1.0481  0.3191
 7406SOL    HW125238   1.325   4.701   9.525 -0.7009  0.3138  0.5950
 7406SOL    HW225239   1.191   4.690   9.455 -0.2168  0.7836 -0.4197
 7407SOL     OW25240   8.997   7.398   5.645  0.1901  0.7417  0.5252
 7407SOL    HW125241   9.062   7.464   5.670  1.3223  0.1444 -0.7575
 7407SOL    HW225242   8.915   7.447   5.636  0.8400  1.8334  0.4101
 7408SOL     OW25243   8.765   7.409   2.536  0.0036  0.1625 -0.3083
 7408SOL    HW125244   8.767   7.352   2.613  0.4433  0.1894 -0.2941
 7408SOL    HW225245   8.675   7.404   2.504  0.0599 -0.6146 -0.3591
 7409SOL     OW25246   5.206   8.108   7.253 -0.1103 -0.2026  0.1086
 7409SOL    HW125247   5.236   8.112   7.344  0.3914 -0.6988 -0.0345
 7409SOL    HW225248   5.169   8.020   7.243 -1.8589  0.4848  0.3550
 7410SOL     OW25249   7.125   1.232   8.284 -0.7298  0.5730  0.0911
 7410SOL    HW125250   7.170   1.295   8.341  0.0435 -0.9427  1.1631
 7410SOL    HW225251   7.056   1.195   8.338 -1.0181  0.2951 -0.4588
 7411SOL     OW25252   5.665   9.146   4.070  0.1248  0.1839 -0.0972
 7411SOL    HW125253   5.575   9.168   4.049  0.0573  0.4191  0.4309
 7411SOL    HW225254   5.664   9.052   4.088  0.1009  0.0689 -0.7013
 7412SOL     OW25255   7.190   6.023   4.512 -0.4656 -0.0938 -0.1635
 7412SOL    HW125256   7.232   5.937   4.503  0.8636  0.4893  0.4359
 7412SOL    HW225257   7.164   6.046   4.422  1.9989  0.2844 -0.8071
 7413SOL     OW25258   7.618   6.916   0.210 -0.2016 -0.0451 -1.2109
 7413SOL    HW125259   7.646   6.845   0.152  1.1937 -0.2251 -0.3453
 7413SOL    HW225260   7.558   6.874   0.272  0.2923 -0.3995 -0.9642
 7414SOL     OW25261   0.976   1.000   0.763 -0.0749  0.6734 -0.2122
 7414SOL    HW125262   0.945   0.981   0.674 -1.3671  0.9173  0.1800
 7414SOL    HW225263   1.023   1.082   0.754  0.4315  0.3246 -0.8112
 7415SOL     OW25264   1.367   2.622   3.779  0.4601  0.2580  0.2285
 7415SOL    HW125265   1.346   2.702   3.731 -1.2669  0.4094  1.1886
 7415SOL    HW225266   1.407   2.654   3.861  2.1942  0.0420 -0.5139
 7416SOL     OW25267   5.635   3.769   3.500  0.0786  0.7122  0.3436
 7416SOL    HW125268   5.699   3.800   3.564 -0.8241  2.2180  0.5523
 7416SOL    HW225269   5.672   3.689   3.465  1.7241  1.1790  0.9943
 7417SOL     OW25270   6.386   7.785   4.664  0.2381  0.5119 -0.5888
 7417SOL    HW125271   6.299   7.761   4.698  0.4449 -0.4731 -0.7539
 7417SOL    HW225272   6.379   7.773   4.569  0.8360 -0.4992 -0.5139
 7418SOL     OW25273   7.840   6.109   0.261 -0.6769  0.1597  0.7674
 7418SOL    HW125274   7.908   6.045   0.281 -0.5117 -0.1174 -0.6617
 7418SOL    HW225275   7.864   6.145   0.176 -0.9099  1.9476  1.4242
 7419SOL     OW25276   7.896   7.271   2.424  0.0343  0.3754  0.4091
 7419SOL    HW125277   7.805   7.296   2.411  0.3567  0.6692 -1.4969
 7419SOL    HW225278   7.897   7.223   2.506 -1.7075  1.0138  0.8152
 7420SOL     OW25279   5.097   8.200   4.021  0.0729  0.1453  0.6751
 7420SOL    HW125280   5.003   8.219   4.027  0.2133  1.6647 -1.2075
 7420SOL    HW225281   5.137   8.260   4.083 -0.0162  1.4509 -0.4982
 7421SOL     OW25282   1.572   0.587   9.169 -0.0436  0.6889  0.2119
 7421SOL    HW125283   1.639   0.652   9.192  1.4490 -0.3494 -1.1466
 7421SOL    HW225284   1.587   0.515   9.230  0.2718  0.3296 -0.2899
 7422SOL     OW25285   6.944   7.060   2.386 -0.1757 -0.1293  0.1724
 7422SOL    HW125286   6.867   7.091   2.434 -1.5148  0.0491 -2.0511
 7422SOL    HW225287   6.959   7.126   2.319  1.5000 -0.5447  0.1066
 7423SOL     OW25288   5.109   2.339   7.292  0.2794  0.3215 -0.1286
 7423SOL    HW125289   5.052   2.336   7.215 -0.9091  0.5969  0.7329
 7423SOL    HW225290   5.142   2.250   7.300 -0.2239  0.0951 -0.4890
 7424SOL     OW25291   2.007   4.448   2.284 -0.4485  0.0127 -0.5332
 7424SOL    HW125292   1.987   4.467   2.375 -2.3719 -3.4796 -0.1168
 7424SOL    HW225293   1.952   4.509   2.234 -0.4010  1.0313  0.6301
 7425SOL     OW25294   1.813   0.673   5.617  0.0394  0.3539  0.0139
 7425SOL    HW125295   1.899   0.688   5.578  0.8607 -0.3633  1.5295
 7425SOL    HW225296   1.768   0.617   5.553  0.6134  0.9098 -0.8854
 7426SOL     OW25297   4.912   7.699   6.413  0.1282  0.4430 -0.1343
 7426SOL    HW125298   4.976   7.706   6.483 -0.6923  0.5574  0.6071
 7426SOL    HW225299   4.827   7.709   6.456 -0.4155 -0.2183 -1.0304
 7427SOL     OW25300   4.114   6.443   2.503  0.6398  0.0503 -0.4330
 7427SOL    HW125301   4.072   6.529   2.508 -0.3057 -0.2700 -2.4148
 7427SOL    HW225302   4.063   6.395   2.437  1.6628 -1.7396  0.0497
 7428SOL     OW25303   9.071   6.624   3.038 -0.6093 -0.2919  0.1213
 7428SOL    HW125304   9.153   6.647   2.994 -0.5861 -0.6205 -0.0077
 7428SOL    HW225305   9.007   6.686   3.003 -0.1354  0.8290  1.2004
 7429SOL     OW25306   8.962   1.755   6.235 -0.0180  0.1508 -0.1570
 7429SOL    HW125307   8.984   1.670   6.197 -1.1935 -0.2613  0.0455
 7429SOL    HW225308   9.022   1.765   6.308  0.0323 -0.5824 -0.0909
 7430SOL     OW25309   9.015   5.276   7.854  0.1504  0.2260  0.0691
 7430SOL    HW125310   8.947   5.231   7.904  0.7724 -1.4438 -0.5264
 7430SOL    HW225311   9.004   5.242   7.764  1.3875  0.3696 -0.1385
 7431SOL     OW25312   7.836   0.952   6.540  0.2724  0.1900  0.6452
 7431SOL    HW125313   7.924   0.939   6.502 -1.3858 -1.9764 -2.7485
 7431SOL    HW225314   7.809   0.865   6.568 -1.3132  0.5981  0.4297
 7432SOL     OW25315   0.891   4.600   4.852 -0.3058  1.0231 -0.6421
 7432SOL    HW125316   0.935   4.522   4.817  0.5975  0.0394  2.5406
 7432SOL    HW225317   0.947   4.673   4.825  1.4201  0.1026  0.3734
 7433SOL     OW25318   0.811   5.388   4.947 -0.0255  0.0264  0.7438
 7433SOL    HW125319   0.797   5.464   5.004  2.0132  1.4490 -0.6026
 7433SOL    HW225320   0.902   5.363   4.960  0.2643 -0.0941 -1.3299
 7434SOL     OW25321   6.715   3.320   2.906  1.1896 -0.6102 -0.1840
 7434SOL    HW125322   6.807   3.293   2.903  1.1244 -0.9093  0.4030
 7434SOL    HW225323   6.705   3.360   2.992  0.8140 -0.4208 -0.3167
 7435SOL     OW25324   1.748   3.521   0.090 -0.5381  0.2416 -0.5039
 7435SOL    HW125325   1.723   3.614   0.091 -0.2586  0.3084  1.6872
 7435SOL    HW225326   1.701   3.483   0.164  0.9013 -0.9703 -0.2142
 7436SOL     OW25327   5.937   0.672   6.672  0.1426 -0.2075 -0.1552
 7436SOL    HW125328   5.865   0.735   6.680 -0.1638 -0.6555  0.7693
 7436SOL    HW225329   6.009   0.722   6.634  0.0171  0.7974  0.8906
 7437SOL     OW25330   3.639   1.883   3.232  0.1441  0.0795  0.3835
 7437SOL    HW125331   3.678   1.947   3.173 -2.2476  1.6834  0.4810
 7437SOL    HW225332   3.688   1.802   3.216  1.7850  1.3769 -1.2840
 7438SOL     OW25333   1.903   2.508   7.768 -0.1412  0.4911  0.8439
 7438SOL    HW125334   1.991   2.516   7.807  0.7252  0.8893 -1.1439
 7438SOL    HW225335   1.915   2.533   7.677 -1.9869 -1.2297  0.0976
 7439SOL     OW25336   8.459   3.818   2.646 -0.5609 -0.4832 -0.6663
 7439SOL    HW125337   8.419   3.790   2.564 -0.0196 -0.0328 -1.0875
 7439SOL    HW225338   8.389   3.866   2.691 -0.5547  0.1414 -1.3153
 7440SOL     OW25339   9.411   5.401   4.510  0.0654  0.5728  0.2977
 7440SOL    HW125340   9.400   5.390   4.416  3.0415 -0.8153  0.0713
 7440SOL    HW225341   9.384   5.318   4.548  0.0790  0.6822  0.5492
 7441SOL     OW25342   2.549   1.698   7.656  0.2911  0.3434 -0.2880
 7441SOL    HW125343   2.509   1.764   7.599  0.7665  0.2650 -0.7123
 7441SOL    HW225344   2.636   1.732   7.675 -0.5052  1.2734  1.9129
 7442SOL     OW25345   8.130   5.434   3.273 -0.0150 -0.8454 -0.2775
 7442SOL    HW125346   8.139   5.341   3.292 -2.1054 -0.7776  1.2054
 7442SOL    HW225347   8.195   5.476   3.330 -1.9033 -1.1369  2.1982
 7443SOL     OW25348   7.751   7.944   9.036  0.3205 -0.0158  0.3649
 7443SOL    HW125349   7.799   8.022   9.009  0.1275  0.0923  0.3358
 7443SOL    HW225350   7.805   7.871   9.005  0.3430  0.1072  0.1099
 7444SOL     OW25351   6.166   1.565   4.133  0.3436  0.5032 -0.7653
 7444SOL    HW125352   6.128   1.478   4.121  1.1530  0.3304 -2.1062
 7444SOL    HW225353   6.154   1.609   4.049 -1.6934  2.3588  0.4437
 7445SOL     OW25354   0.358   9.273   1.160 -0.3662  0.2814  0.2387
 7445SOL    HW125355   0.341   9.285   1.067  0.0876 -2.8069 -0.3102
 7445SOL    HW225356   0.440   9.223   1.163 -1.7173 -1.9104  2.1868
 7446SOL     OW25357   9.104   7.231   5.461  0.2486 -0.2443 -0.0040
 7446SOL    HW125358   9.076   7.282   5.538 -0.1178 -2.0726  1.1091
 7446SOL    HW225359   9.030   7.237   5.401 -0.1241 -0.1523  0.4588
 7447SOL     OW25360   4.025   5.280   5.513  0.4561  0.7301  0.3606
 7447SOL    HW125361   4.033   5.252   5.605  1.5967  0.1627  0.0998
 7447SOL    HW225362   4.115   5.285   5.482  0.1547  2.6929 -0.2199
 7448SOL     OW25363   0.155   4.917   6.951  0.0791 -0.3441 -0.2160
 7448SOL    HW125364   0.224   4.966   6.906 -0.9863  0.8975 -0.5130
 7448SOL    HW225365   0.099   4.884   6.881  0.3890 -1.4082  0.0221
 7449SOL     OW25366   6.058   0.889   0.662 -0.1445  0.0493 -0.3524
 7449SOL    HW125367   6.042   0.941   0.741  0.8189 -0.3254  0.0977
 7449SOL    HW225368   5.971   0.862   0.633 -0.5544  0.7260  0.2139
 7450SOL     OW25369   8.420   2.533   2.047 -0.0603 -0.0551 -0.1734
 7450SOL    HW125370   8.461   2.614   2.078 -0.6158  1.1528 -2.4572
 7450SOL    HW225371   8.330   2.538   2.077 -0.6726  1.2457 -2.1527
 7451SOL     OW25372   7.469   6.032   6.278 -0.0547  0.3362  0.2930
 7451SOL    HW125373   7.552   6.062   6.315 -0.5090  0.7447  0.9893
 7451SOL    HW225374   7.440   5.963   6.338 -1.0089  1.3036  0.9491
 7452SOL     OW25375   8.107   6.667   6.228 -0.1924 -0.2986  0.1906
 7452SOL    HW125376   8.166   6.683   6.302  0.1102  0.7896 -0.2711
 7452SOL    HW225377   8.034   6.618   6.266  0.9285 -1.5483  0.7956
 7453SOL     OW25378   5.419   2.333   4.433 -0.1387 -0.7437 -0.5516
 7453SOL    HW125379   5.338   2.379   4.409  0.9546  1.9517  0.6622
 7453SOL    HW225380   5.403   2.301   4.522  0.1828 -0.0653 -0.2480
 7454SOL     OW25381   9.418   8.424   5.273  0.4094  0.1205 -0.3671
 7454SOL    HW125382   9.362   8.353   5.242  0.8399  0.0849 -1.0668
 7454SOL    HW225383   9.499   8.382   5.300  0.3286  0.2432  0.0779
 7455SOL     OW25384   1.741   3.683   7.397 -0.7615 -0.0964 -0.4276
 7455SOL    HW125385   1.812   3.746   7.385 -0.5240 -0.5636 -1.5526
 7455SOL    HW225386   1.779   3.615   7.453 -1.1533  0.9646  1.1376
 7456SOL     OW25387   4.492   5.562   7.196  0.0161 -0.0981  0.7233
 7456SOL    HW125388   4.578   5.571   7.236  0.0107  0.2868  0.6545
 7456SOL    HW225389   4.504   5.497   7.127  0.5158  0.7533 -0.0127
 7457SOL     OW25390   0.204   6.347   6.498 -0.2388 -0.7821  0.0943
 7457SOL    HW125391   0.211   6.256   6.467 -0.4415 -0.8675  0.2948
 7457SOL    HW225392   0.190   6.339   6.592  0.2525 -0.5266  0.1910
 7458SOL     OW25393   5.101   0.442   6.071  0.0487 -0.2567 -1.0094
 7458SOL    HW125394   5.009   0.469   6.069 -0.2584 -1.3151 -1.4936
 7458SOL    HW225395   5.117   0.419   6.163  0.2131  1.2086 -0.6661
 7459SOL     OW25396   3.364   3.507   4.944  0.4701  0.4036  0.4203
 7459SOL    HW125397   3.377   3.423   4.900  2.4336  0.0600  1.5825
 7459SOL    HW225398   3.299   3.490   5.012 -1.9002  0.7269 -1.6901
 7460SOL     OW25399   7.128   7.722   7.014  0.3252  0.5875 -0.5020
 7460SOL    HW125400   7.215   7.683   7.022  0.9263  1.4695 -2.4202
 7460SOL    HW225401   7.143   7.804   6.966 -1.3342  1.6265  0.7152
 7461SOL     OW25402   5.421   7.357   2.620  0.2700 -0.1513  0.4272
 7461SOL    HW125403   5.477   7.289   2.584  1.6689 -0.0261  2.2440
 7461SOL    HW225404   5.482   7.427   2.645 -1.1343  1.7932 -1.4549
 7462SOL     OW25405   8.507   6.972   8.584  0.0191 -0.0531 -0.5505
 7462SOL    HW125406   8.556   7.025   8.647 -0.0282 -0.5476 -0.0922
 7462SOL    HW225407   8.430   7.025   8.564 -0.1000 -0.0060  0.0102
 7463SOL     OW25408   7.794   4.479   8.590 -0.0636  0.0176  0.2694
 7463SOL    HW125409   7.825   4.395   8.556  0.2279 -0.0957  0.8029
 7463SOL    HW225410   7.705   4.487   8.556 -0.8053 -1.4289  1.8153
 7464SOL     OW25411   4.263   8.581   6.471 -0.2010  0.8098 -0.5840
 7464SOL    HW125412   4.202   8.530   6.417  0.8637 -0.4044 -0.6642
 7464SOL    HW225413   4.285   8.657   6.418 -0.2808  0.3545 -1.2748
 7465SOL     OW25414   4.852   2.464   4.935  0.0581 -0.1366 -0.1147
 7465SOL    HW125415   4.903   2.543   4.956 -0.1273  0.1379 -0.6836
 7465SOL    HW225416   4.909   2.414   4.876 -0.2513  0.0737 -0.5907
 7466SOL     OW25417   7.313   1.277   0.771  0.0341 -0.6060  0.3000
 7466SOL    HW125418   7.381   1.239   0.827 -0.4137  0.9060  1.9375
 7466SOL    HW225419   7.299   1.212   0.702  1.6725 -1.8495  1.0998
 7467SOL     OW25420   2.764   0.012   6.574 -0.0089 -0.0342  0.2023
 7467SOL    HW125421   2.694   0.027   6.637 -1.4096  0.5324 -1.4478
 7467SOL    HW225422   2.731  -0.059   6.519 -0.1348  1.5121 -1.7624
 7468SOL     OW25423   9.353   9.225   5.928  0.0433 -0.0958  0.3373
 7468SOL    HW125424   9.386   9.149   5.881 -0.1617  0.5224 -0.8455
 7468SOL    HW225425   9.295   9.268   5.865  1.0718  1.6716  0.5493
 7469SOL     OW25426   1.635   8.897   5.222  0.1123 -0.3151 -0.3651
 7469SOL    HW125427   1.716   8.941   5.196  0.6290 -1.0334 -0.0091
 7469SOL    HW225428   1.627   8.914   5.315 -1.7174  2.2255 -0.9402
 7470SOL     OW25429   5.112   0.601   1.682 -0.1418  0.8348 -0.3718
 7470SOL    HW125430   5.198   0.581   1.719  0.5335  1.8814 -1.3429
 7470SOL    HW225431   5.105   0.696   1.686 -1.1261  0.7867 -0.6006
 7471SOL     OW25432   3.739   8.168   1.629  0.5659 -0.4341  0.6608
 7471SOL    HW125433   3.714   8.077   1.610  1.2350 -0.3859 -0.4984
 7471SOL    HW225434   3.819   8.160   1.680  0.6782 -0.4962  0.4756
 7472SOL     OW25435   7.786   1.393   9.389 -0.0598  0.0928  0.2693
 7472SOL    HW125436   7.706   1.372   9.436  0.3395 -1.1009  0.4206
 7472SOL    HW225437   7.857   1.370   9.450  0.4291 -0.2389 -0.4136
 7473SOL     OW25438   5.925   0.655   7.998  0.1518  0.2776 -0.6987
 7473SOL    HW125439   5.868   0.597   8.049 -0.2677  0.1083 -1.3588
 7473SOL    HW225440   6.004   0.663   8.051 -0.6424  0.8619  0.4441
 7474SOL     OW25441   7.526   4.106   0.303  0.4213  0.0226  0.3256
 7474SOL    HW125442   7.607   4.079   0.260  0.8979  0.3903  0.9824
 7474SOL    HW225443   7.553   4.174   0.366 -0.4183  0.2879  0.4119
 7475SOL     OW25444   7.040   9.354   6.903 -0.2065  0.1674  0.5142
 7475SOL    HW125445   7.090   9.272   6.898  0.5031  0.6897 -2.1133
 7475SOL    HW225446   6.949   9.327   6.895  0.0829 -0.3357 -1.4731
 7476SOL     OW25447   8.566   9.031   8.556 -0.0059  0.2930 -0.2299
 7476SOL    HW125448   8.485   9.081   8.561 -0.2169 -0.0832  0.1309
 7476SOL    HW225449   8.539   8.945   8.525  0.2101  0.0490  0.2575
 7477SOL     OW25450   3.711   2.771   5.288  0.1368  0.5853  0.1895
 7477SOL    HW125451   3.802   2.752   5.264 -0.2708  0.0738 -1.0193
 7477SOL    HW225452   3.716   2.806   5.377  1.3396 -1.2277  0.8685
 7478SOL     OW25453   0.115   3.427   9.120 -0.4907  0.4812 -0.4370
 7478SOL    HW125454   0.147   3.435   9.031  0.4914  0.2875 -0.1019
 7478SOL    HW225455   0.058   3.350   9.118  0.2594 -0.0684 -0.6859
 7479SOL     OW25456   5.043   6.149   3.779  0.2241 -0.0769  0.1134
 7479SOL    HW125457   4.961   6.133   3.732 -0.9929  0.9536  1.8133
 7479SOL    HW225458   5.111   6.140   3.713 -1.0044 -3.8595 -0.7662
 7480SOL     OW25459   1.181   2.199   8.200  0.5572  0.1024 -0.4992
 7480SOL    HW125460   1.219   2.179   8.285 -0.0039  2.2370  0.2777
 7480SOL    HW225461   1.106   2.140   8.193 -0.7333  1.4298  1.5026
 7481SOL     OW25462   5.241   5.446   1.062  0.3287 -0.1957 -0.2643
 7481SOL    HW125463   5.296   5.387   1.010 -1.0251 -0.2231 -1.7378
 7481SOL    HW225464   5.152   5.412   1.050 -0.3974  1.7586 -0.6284
 7482SOL     OW25465   4.812   5.094   7.768 -0.1688 -0.0051  0.4855
 7482SOL    HW125466   4.770   5.113   7.852  0.2618  1.2040  0.4358
 7482SOL    HW225467   4.846   5.005   7.777 -2.1382 -0.7551  0.7742
 7483SOL     OW25468   3.629   8.913   6.584 -0.1351  0.0102  0.1475
 7483SOL    HW125469   3.668   8.826   6.595 -1.2671 -0.5291  0.0068
 7483SOL    HW225470   3.561   8.917   6.651  0.7211  1.2705  0.9498
 7484SOL     OW25471   6.342   8.168   5.280  0.5927  0.2789 -0.1296
 7484SOL    HW125472   6.294   8.095   5.240  0.9939  0.5287 -1.0577
 7484SOL    HW225473   6.320   8.161   5.374 -1.0270  0.2127 -0.4905
 7485SOL     OW25474   9.165   0.542   4.821  0.5974 -0.2683 -0.3100
 7485SOL    HW125475   9.117   0.496   4.890  0.9355 -0.5238 -0.2445
 7485SOL    HW225476   9.200   0.620   4.865  0.3400 -0.1390 -0.3317
 7486SOL     OW25477   4.095   1.889   3.647 -0.6770 -0.4409  0.3942
 7486SOL    HW125478   4.113   1.800   3.617  0.7709 -0.5231  1.4743
 7486SOL    HW225479   4.033   1.879   3.718  0.3611 -0.6852  1.2760
 7487SOL     OW25480   7.516   0.442   3.961  0.0095 -0.5190 -0.1652
 7487SOL    HW125481   7.541   0.534   3.959  0.8458 -0.7061  1.2669
 7487SOL    HW225482   7.437   0.438   3.906 -1.6573  1.5442  1.9961
 7488SOL     OW25483   7.466   3.213   6.124  0.6509 -0.4205  0.5479
 7488SOL    HW125484   7.442   3.285   6.183  1.0390 -0.4288  0.7195
 7488SOL    HW225485   7.413   3.227   6.046  0.7089  0.0430  0.5912
 7489SOL     OW25486   6.726   5.964   8.108 -0.2578  0.8022 -0.5116
 7489SOL    HW125487   6.795   6.017   8.147 -0.0612  1.0632 -1.2028
 7489SOL    HW225488   6.757   5.874   8.116 -1.0013  0.7045  1.4816
 7490SOL     OW25489   4.326   0.019   8.002 -0.6033 -0.1288  0.0083
 7490SOL    HW125490   4.360   0.022   8.091  0.4863  3.0217 -0.4327
 7490SOL    HW225491   4.392  -0.031   7.953  1.0322  1.8560  0.1300
 7491SOL     OW25492   2.701   3.342   5.664  0.7224 -0.3801  0.5010
 7491SOL    HW125493   2.685   3.332   5.758  0.2249 -0.4063  0.4195
 7491SOL    HW225494   2.682   3.434   5.646 -0.7477 -0.7335  0.1463
 7492SOL     OW25495   5.907   3.744   9.098 -0.5116 -0.1933  0.9082
 7492SOL    HW125496   5.958   3.778   9.024 -0.0030  0.7353  1.6848
 7492SOL    HW225497   5.916   3.810   9.166  0.4134 -1.8489  2.4145
 7493SOL     OW25498   5.324   0.027   5.575  0.4424  0.4477  0.2035
 7493SOL    HW125499   5.367   0.046   5.491  2.4354  2.1444  1.5856
 7493SOL    HW225500   5.378   0.070   5.641  1.2062 -4.1924  2.8154
 7494SOL     OW25501   9.426   9.393   2.919  0.3801  0.3561  0.2025
 7494SOL    HW125502   9.367   9.468   2.907  2.1230  1.4418 -1.7595
 7494SOL    HW225503   9.420   9.344   2.837  2.7379  0.8912 -0.3292
 7495SOL     OW25504   6.745   7.732   2.089  0.4860  0.0478  0.1430
 7495SOL    HW125505   6.819   7.792   2.104 -0.2350  0.4578  2.1354
 7495SOL    HW225506   6.713   7.757   2.002  0.7824  1.9333  0.5482
 7496SOL     OW25507   1.127   6.629   5.615 -0.0060  0.0135 -0.2214
 7496SOL    HW125508   1.084   6.705   5.656  0.4235  0.3053 -0.3131
 7496SOL    HW225509   1.191   6.600   5.680 -0.0757 -0.1936 -0.2433
 7497SOL     OW25510   9.405   0.871   7.490  0.3268  0.3351  0.0128
 7497SOL    HW125511   9.311   0.882   7.477  0.2754 -0.0185  0.0897
 7497SOL    HW225512   9.435   0.826   7.411  0.5313  0.9559 -0.2728
 7498SOL     OW25513   5.932   8.947   1.637 -0.0656  0.6511 -0.9092
 7498SOL    HW125514   5.931   8.968   1.544  0.5953  1.8438 -0.6557
 7498SOL    HW225515   6.015   8.981   1.669 -0.1381 -0.0533  0.0520
 7499SOL     OW25516   4.790   4.049   2.182  1.0332 -0.1688 -0.1870
 7499SOL    HW125517   4.706   4.044   2.137  0.6626  0.4856  0.4280
 7499SOL    HW225518   4.842   4.109   2.129  0.1780  1.5754  0.9072
 7500SOL     OW25519   5.106   6.127   4.325 -0.5676  0.4461  0.0991
 7500SOL    HW125520   5.170   6.056   4.321 -0.7228  0.3743 -2.1480
 7500SOL    HW225521   5.025   6.085   4.352 -0.2715  0.0562  0.3833
 7501SOL     OW25522   7.497   5.261   8.545  0.2978  0.3657  0.1304
 7501SOL    HW125523   7.439   5.202   8.497 -0.2267  0.5477  0.5403
 7501SOL    HW225524   7.485   5.238   8.637  1.3580 -0.0313  0.1845
 7502SOL     OW25525   0.155   6.198   1.620  0.3534  0.5024  0.2393
 7502SOL    HW125526   0.147   6.215   1.714  1.9000  1.5261  0.1975
 7502SOL    HW225527   0.247   6.173   1.608 -0.3252 -1.6401 -0.7007
 7503SOL     OW25528   6.254   8.804   5.175  0.2994 -0.1364  0.1621
 7503SOL    HW125529   6.214   8.755   5.103 -0.5330  0.2233  0.3670
 7503SOL    HW225530   6.242   8.748   5.252 -0.9346  0.4932  0.4572
 7504SOL     OW25531   6.813   5.244   3.523  0.2469  0.4364  0.1580
 7504SOL    HW125532   6.885   5.308   3.522  1.4435 -0.8864 -0.8342
 7504SOL    HW225533   6.757   5.271   3.451 -0.6496  1.8745  1.3524
 7505SOL     OW25534   1.004   1.798   2.021  0.1966 -0.4513  0.4268
 7505SOL    HW125535   0.996   1.791   1.926  1.0216 -2.4209  0.4778
 7505SOL    HW225536   1.052   1.879   2.035  0.2385 -0.2433 -0.8465
 7506SOL     OW25537   2.893   2.725   7.838  0.8027 -0.0233  0.1213
 7506SOL    HW125538   2.871   2.699   7.748 -1.0710  0.6305  0.3588
 7506SOL    HW225539   2.892   2.642   7.887  2.7532 -0.5075 -0.6100
 7507SOL     OW25540   5.362   2.328   7.638  0.5890  0.3174  0.1695
 7507SOL    HW125541   5.410   2.254   7.676  3.3099  0.4411 -2.7691
 7507SOL    HW225542   5.270   2.302   7.643  1.2616 -1.8753  2.0543
 7508SOL     OW25543   7.159   6.223   4.023  0.2572  0.2662 -0.4952
 7508SOL    HW125544   7.114   6.264   3.950 -0.4542 -0.4882 -0.4878
 7508SOL    HW225545   7.193   6.296   4.074 -0.2515  0.8257 -0.9470
 7509SOL     OW25546   2.410   7.264   7.530 -0.2224 -0.0965  0.2559
 7509SOL    HW125547   2.469   7.254   7.604 -0.9357 -0.2866  0.8049
 7509SOL    HW225548   2.448   7.211   7.461  0.7551  0.5405  0.2986
 7510SOL     OW25549   4.196   3.209   4.788  0.2481 -0.2069 -0.2981
 7510SOL    HW125550   4.248   3.234   4.711 -0.0212  1.7585  0.1182
 7510SOL    HW225551   4.119   3.266   4.784 -0.6852 -1.3886  0.4275
 7511SOL     OW25552   7.560   0.918   8.696 -0.0577 -0.1928  0.0648
 7511SOL    HW125553   7.628   0.969   8.739  0.6089 -1.4292  0.5123
 7511SOL    HW225554   7.552   0.839   8.749  0.6099 -1.6412 -1.8989
 7512SOL     OW25555   4.695   1.063   4.373 -0.1243 -0.1642  0.2004
 7512SOL    HW125556   4.628   1.013   4.418  0.3170 -1.8521 -0.9483
 7512SOL    HW225557   4.747   1.102   4.443 -2.0209  0.8209  1.1007
 7513SOL     OW25558   1.927   9.044   8.187 -0.2930 -0.3056 -0.2539
 7513SOL    HW125559   1.904   9.137   8.187 -0.8800 -0.4413  1.3689
 7513SOL    HW225560   1.917   9.017   8.096 -0.5968  1.1068 -0.6482
 7514SOL     OW25561   2.351   0.924   6.245  0.5477 -0.2957  0.1791
 7514SOL    HW125562   2.354   0.992   6.177  1.5906  0.1511  0.6638
 7514SOL    HW225563   2.361   0.842   6.197 -1.0476 -0.1429 -0.4444
 7515SOL     OW25564   6.639   0.768   0.437  0.1147  0.2625 -0.1150
 7515SOL    HW125565   6.554   0.768   0.391 -0.0778  1.3357  0.2249
 7515SOL    HW225566   6.704   0.765   0.366 -0.1996  0.2318 -0.4052
 7516SOL     OW25567   5.129   9.301   1.028 -0.1849 -0.0467  0.5193
 7516SOL    HW125568   5.193   9.336   0.966 -0.1184 -0.2898  0.4479
 7516SOL    HW225569   5.156   9.335   1.113  1.8049 -2.5214  0.9348
 7517SOL     OW25570   6.843   6.741   9.255 -0.4164 -0.6973 -0.3236
 7517SOL    HW125571   6.939   6.750   9.259 -0.5336 -0.3541  2.4410
 7517SOL    HW225572   6.829   6.649   9.231  0.5937 -0.9970  0.1987
 7518SOL     OW25573   3.216   7.272   1.818  0.2126  0.6704  0.1344
 7518SOL    HW125574   3.194   7.242   1.906  0.8769 -0.0931  0.0434
 7518SOL    HW225575   3.141   7.326   1.792 -1.0002 -0.8976  0.3145
 7519SOL     OW25576   8.557   7.474   1.356  0.4954 -0.3864  0.0834
 7519SOL    HW125577   8.522   7.557   1.324 -0.9679 -0.9499  0.2167
 7519SOL    HW225578   8.488   7.410   1.338  1.5361 -1.5499  0.1487
 7520SOL     OW25579   2.572   9.137   7.488  0.3122 -0.2766 -0.2125
 7520SOL    HW125580   2.602   9.070   7.549  0.6342  1.3434  1.4450
 7520SOL    HW225581   2.527   9.201   7.542 -0.2125  0.7336 -1.7995
 7521SOL     OW25582   2.096   0.936   4.876  0.1328  0.1350 -0.0613
 7521SOL    HW125583   2.191   0.925   4.878  0.0417 -0.8531 -1.0556
 7521SOL    HW225584   2.083   1.018   4.828  0.5679  1.6487  2.3250
 7522SOL     OW25585   3.750   8.433   2.438 -0.4087 -0.0083 -0.3178
 7522SOL    HW125586   3.779   8.521   2.411  0.3588  0.1985  1.1347
 7522SOL    HW225587   3.821   8.375   2.410 -0.3894 -0.0187 -0.2488
 7523SOL     OW25588   1.046   1.278   8.502 -0.1376 -0.0243  0.1079
 7523SOL    HW125589   1.055   1.361   8.455  0.0174  0.1175  0.3893
 7523SOL    HW225590   1.017   1.302   8.590  0.7512 -0.2039  0.4591
 7524SOL     OW25591   7.473   1.306   8.019 -0.2112 -0.8966 -0.3236
 7524SOL    HW125592   7.528   1.236   7.984 -1.2732 -1.6227 -0.5579
 7524SOL    HW225593   7.531   1.356   8.077  1.0351 -0.8782 -1.5577
 7525SOL     OW25594   4.690   1.921   9.316 -0.3254  0.3596  0.7427
 7525SOL    HW125595   4.737   1.918   9.399  3.9740 -1.1173 -1.5928
 7525SOL    HW225596   4.693   2.013   9.290 -0.4946  0.6011  1.5498
 7526SOL     OW25597   9.214   4.787   6.003 -0.1112  0.0002 -0.1997
 7526SOL    HW125598   9.272   4.838   6.059 -1.2425  0.0686  0.9279
 7526SOL    HW225599   9.161   4.735   6.064 -1.1654 -0.1350 -1.2066
 7527SOL     OW25600   7.810   6.610   6.189 -0.0932 -0.4599  0.0981
 7527SOL    HW125601   7.844   6.622   6.100 -1.8246  1.6225 -0.3218
 7527SOL    HW225602   7.793   6.516   6.195  0.1425 -0.6450 -1.7214
 7528SOL     OW25603   2.551   7.783   0.443 -0.0889  0.3472 -0.0213
 7528SOL    HW125604   2.602   7.805   0.365  0.0918 -1.2632 -0.3658
 7528SOL    HW225605   2.615   7.772   0.512  0.0377 -1.5992 -0.4365
 7529SOL     OW25606   8.782   8.133   5.577  0.0678 -0.3121 -0.1633
 7529SOL    HW125607   8.840   8.208   5.560  0.5484 -0.8077 -0.7347
 7529SOL    HW225608   8.764   8.137   5.671 -2.3668  2.3085 -0.6574
 7530SOL     OW25609   8.157   9.073   8.076  0.2428  0.3365  0.1068
 7530SOL    HW125610   8.120   9.153   8.038  1.1466  1.5324  1.7097
 7530SOL    HW225611   8.130   9.075   8.168  1.3904 -0.5277  0.4688
 7531SOL     OW25612   4.751   9.290   0.209 -0.2085  0.9496  0.1157
 7531SOL    HW125613   4.739   9.292   0.114  0.4088  1.6797  0.0527
 7531SOL    HW225614   4.817   9.356   0.226 -0.4964  0.9898  1.0866
 7532SOL     OW25615   7.437   8.465   8.554 -0.2205 -0.1908 -0.4040
 7532SOL    HW125616   7.522   8.504   8.572  0.4851 -1.5879 -0.6985
 7532SOL    HW225617   7.446   8.373   8.578 -1.1025 -0.7443 -2.0531
 7533SOL     OW25618   7.289   6.866   0.589  0.4633  0.2655  0.1069
 7533SOL    HW125619   7.282   6.956   0.555 -1.7070 -0.8010 -2.4708
 7533SOL    HW225620   7.363   6.869   0.649  0.1553  3.8968  0.4251
 7534SOL     OW25621   8.818   1.294   3.911 -0.5789  0.8247  0.5965
 7534SOL    HW125622   8.832   1.379   3.953  0.5004 -0.4868  2.9706
 7534SOL    HW225623   8.737   1.261   3.950 -2.3293  1.7751 -2.0928
 7535SOL     OW25624   2.586   5.565   5.287  0.0317  0.5576 -0.2001
 7535SOL    HW125625   2.502   5.525   5.311  0.9829 -0.3114  1.8040
 7535SOL    HW225626   2.579   5.655   5.318 -0.6036  0.8411 -1.1327
 7536SOL     OW25627   0.900   1.238   4.084  0.0684 -0.0282  0.4892
 7536SOL    HW125628   0.815   1.197   4.069  0.4285 -1.3132  1.7730
 7536SOL    HW225629   0.881   1.316   4.135 -0.2825 -0.8411  1.6415
 7537SOL     OW25630   1.273   3.155   5.523  0.1456 -0.2535 -0.0712
 7537SOL    HW125631   1.365   3.129   5.524  0.6369  1.3574 -1.1911
 7537SOL    HW225632   1.229   3.083   5.477  0.8861 -0.8583  0.1456
 7538SOL     OW25633   5.614   8.274   5.167 -0.1687  0.2194 -0.5644
 7538SOL    HW125634   5.557   8.211   5.211  1.6397 -0.3047  1.1496
 7538SOL    HW225635   5.564   8.305   5.092 -1.0863 -3.3736 -1.5413
 7539SOL     OW25636   4.861   0.728   6.883 -0.0370 -0.1763 -0.0275
 7539SOL    HW125637   4.918   0.713   6.958  0.7965  0.5901 -0.5047
 7539SOL    HW225638   4.846   0.641   6.847  0.1692 -0.4676  0.5789
 7540SOL     OW25639   0.395   1.781   6.342  0.8346  0.5400  0.4267
 7540SOL    HW125640   0.380   1.728   6.421 -1.4413  0.8707  0.2422
 7540SOL    HW225641   0.446   1.856   6.373 -0.2281  0.7834  1.6403
 7541SOL     OW25642   0.481   8.813   8.727  0.4005 -0.3434  0.4714
 7541SOL    HW125643   0.495   8.863   8.646  0.2395  0.2428  0.7992
 7541SOL    HW225644   0.489   8.722   8.701 -1.1047 -0.2150 -0.5121
 7542SOL     OW25645   5.251   4.120   8.927  0.8012 -0.9287  0.9008
 7542SOL    HW125646   5.175   4.141   8.872  2.6274 -2.3143 -2.2730
 7542SOL    HW225647   5.213   4.077   9.004 -1.8003  0.5723  0.5173
 7543SOL     OW25648   0.360   6.520   3.257 -0.0786  0.5512  0.1625
 7543SOL    HW125649   0.436   6.574   3.236  0.7368 -0.8290 -0.5205
 7543SOL    HW225650   0.302   6.579   3.305  0.5063  2.2094 -1.0837
 7544SOL     OW25651   3.669   5.202   9.377  0.2188 -0.2490  0.5597
 7544SOL    HW125652   3.683   5.264   9.305 -0.7497  0.3060  0.8369
 7544SOL    HW225653   3.661   5.258   9.455 -1.3605 -0.6719  0.7081
 7545SOL     OW25654   2.199   2.447   2.299  0.2365  0.1660  0.0336
 7545SOL    HW125655   2.206   2.518   2.235 -1.6911  0.8060  0.4785
 7545SOL    HW225656   2.218   2.489   2.383 -2.2722  0.5117  0.4665
 7546SOL     OW25657   4.305   3.123   6.398 -0.2030  0.1521 -0.4368
 7546SOL    HW125658   4.316   3.040   6.351  1.6160 -0.3853  0.8952
 7546SOL    HW225659   4.246   3.102   6.471 -0.3504  0.2218 -0.5339
 7547SOL     OW25660   6.860   1.605   1.226 -0.0819 -0.0882 -1.2940
 7547SOL    HW125661   6.898   1.518   1.242  0.3488  0.6189  1.9727
 7547SOL    HW225662   6.766   1.593   1.236 -0.0031 -0.1346 -0.5941
 7548SOL     OW25663   1.390   3.193   8.042 -0.0554 -0.0598  0.1639
 7548SOL    HW125664   1.438   3.160   8.118  0.0417  0.3712  0.2906
 7548SOL    HW225665   1.448   3.259   8.004 -1.1198  1.4332  1.1041
 7549SOL     OW25666   3.015   8.326   0.184  0.5347  0.1842 -0.0085
 7549SOL    HW125667   3.069   8.317   0.106  2.3935  0.4109  1.2040
 7549SOL    HW225668   2.991   8.419   0.186  0.7290  0.2379 -0.1610
 7550SOL     OW25669   6.116   5.108   0.781  0.0381  0.0856  0.4851
 7550SOL    HW125670   6.200   5.105   0.826  0.8923 -0.6342 -1.1157
 7550SOL    HW225671   6.126   5.176   0.715 -0.1193 -1.0113 -0.6880
 7551SOL     OW25672   4.988   2.186   5.464  0.3070  0.3786  0.5875
 7551SOL    HW125673   4.933   2.201   5.541 -1.8858  1.7852 -1.1935
 7551SOL    HW225674   4.979   2.093   5.446  1.2216 -0.0632  2.2854
 7552SOL     OW25675   1.667   0.215   2.980 -0.8937  0.7793 -1.0532
 7552SOL    HW125676   1.707   0.128   2.977 -2.5132 -0.0003 -0.6398
 7552SOL    HW225677   1.741   0.275   2.983  0.2525 -0.6700  1.3025
 7553SOL     OW25678   7.989   7.956   1.589 -0.1072 -0.1987 -0.3079
 7553SOL    HW125679   7.955   7.866   1.586  1.1224 -0.6246 -2.0559
 7553SOL    HW225680   7.939   8.002   1.521 -1.0827  0.6010  0.9131
 7554SOL     OW25681   0.243   6.009   0.860  0.0492 -0.2569 -0.1710
 7554SOL    HW125682   0.160   5.967   0.836 -0.3074  1.5559 -2.2215
 7554SOL    HW225683   0.231   6.100   0.836  2.3551  0.2045  0.3468
 7555SOL     OW25684   7.157   2.913   8.997 -0.4949  0.3209 -0.1356
 7555SOL    HW125685   7.174   2.935   8.905 -0.7296  1.9526  0.2023
 7555SOL    HW225686   7.096   2.980   9.027  0.0887  0.1852  1.4018
 7556SOL     OW25687   6.830   3.590   9.233  0.6264 -0.4033  0.6562
 7556SOL    HW125688   6.821   3.676   9.191 -0.1513 -0.9910 -0.4100
 7556SOL    HW225689   6.764   3.591   9.303 -0.2291 -0.5776 -0.1343
 7557SOL     OW25690   1.789   4.135   1.900  0.1395 -0.5149 -0.7935
 7557SOL    HW125691   1.701   4.099   1.889 -0.1032 -0.0488 -0.3568
 7557SOL    HW225692   1.797   4.201   1.831  0.3716 -0.9891 -1.2231
 7558SOL     OW25693   5.345   8.453   5.289 -0.3957 -0.1820  0.4582
 7558SOL    HW125694   5.428   8.493   5.315  0.0037 -0.2782 -0.6020
 7558SOL    HW225695   5.350   8.364   5.322  0.9884 -0.9318 -1.6478
 7559SOL     OW25696   2.794   6.000   9.273  0.3590 -0.0992 -0.1663
 7559SOL    HW125697   2.808   6.040   9.187 -1.9365  0.4817 -0.3096
 7559SOL    HW225698   2.798   6.073   9.334 -0.5144 -0.1304 -0.0655
 7560SOL     OW25699   6.288   5.368   2.369  0.3498  0.4943 -0.0975
 7560SOL    HW125700   6.353   5.304   2.398 -0.6374 -0.0040  1.0493
 7560SOL    HW225701   6.275   5.425   2.444  0.9243  1.8123 -0.9829
 7561SOL     OW25702   9.250   3.437   5.225 -0.1398 -0.3524 -0.3169
 7561SOL    HW125703   9.243   3.470   5.315 -0.6307 -0.7943 -0.1879
 7561SOL    HW225704   9.342   3.415   5.214 -0.6359 -3.4556  1.2241
 7562SOL     OW25705   1.831   4.223   7.080  0.2176 -0.1779 -0.5688
 7562SOL    HW125706   1.785   4.141   7.101 -0.0422 -0.3378 -1.6936
 7562SOL    HW225707   1.923   4.198   7.075  0.8450  0.6552  4.3150
 7563SOL     OW25708   6.823   6.986   7.646 -0.5263  0.1273  0.0376
 7563SOL    HW125709   6.797   6.917   7.585 -0.0605  1.7384 -2.0329
 7563SOL    HW225710   6.919   6.983   7.645 -0.5183 -0.3161  1.2721
 7564SOL     OW25711   1.762   2.271   7.832  0.5639  0.1692  0.7782
 7564SOL    HW125712   1.821   2.346   7.838  0.3004  0.3649  0.9660
 7564SOL    HW225713   1.724   2.277   7.744 -0.5788  1.1123  1.3264
 7565SOL     OW25714   3.367   2.374   3.340 -0.2903 -0.2024 -0.0043
 7565SOL    HW125715   3.298   2.423   3.385 -0.6294  0.1636 -0.9104
 7565SOL    HW225716   3.442   2.379   3.399 -0.0417  2.1745 -0.4876
 7566SOL     OW25717   0.974   7.898   6.516  0.3778  0.4137 -0.0680
 7566SOL    HW125718   0.998   7.982   6.478  0.4715  0.3819 -0.0792
 7566SOL    HW225719   0.992   7.907   6.609  2.2618 -0.2441 -0.3335
 7567SOL     OW25720   3.870   6.128   3.230 -0.0474 -0.1591 -0.0636
 7567SOL    HW125721   3.885   6.134   3.325  1.9111 -0.1123 -0.3545
 7567SOL    HW225722   3.866   6.219   3.201  1.5046 -0.1742 -0.3376
 7568SOL     OW25723   4.418   2.433   3.849  0.0277  0.1919 -0.3260
 7568SOL    HW125724   4.342   2.393   3.806 -0.3176 -1.4371  1.6873
 7568SOL    HW225725   4.449   2.366   3.910  0.1264  2.5771  2.3546
 7569SOL     OW25726   5.206   9.192   8.583 -0.3928 -0.0069  0.2477
 7569SOL    HW125727   5.286   9.233   8.614 -1.6859  1.7344  1.4244
 7569SOL    HW225728   5.192   9.227   8.495 -1.3208  1.9193  1.1236
 7570SOL     OW25729   4.885   2.211   0.258 -0.0894 -0.2798  0.0154
 7570SOL    HW125730   4.957   2.202   0.320  0.1005  0.2089 -0.1280
 7570SOL    HW225731   4.827   2.276   0.298  0.6417  0.9360 -0.8796
 7571SOL     OW25732   6.969   8.528   1.399  0.6157 -0.2029 -0.0791
 7571SOL    HW125733   6.982   8.611   1.444  1.8314 -1.0346  1.1309
 7571SOL    HW225734   6.883   8.536   1.359 -0.4521  0.6283  2.2848
 7572SOL     OW25735   5.601   4.695   5.729 -0.3899  0.6307 -0.1006
 7572SOL    HW125736   5.551   4.759   5.678 -0.7543 -1.8781 -2.9994
 7572SOL    HW225737   5.537   4.627   5.750  0.1911  0.7740  2.2572
 7573SOL     OW25738   8.847   1.577   3.623 -0.2952 -0.6172 -0.1705
 7573SOL    HW125739   8.918   1.517   3.602 -1.2769 -1.3612 -1.4700
 7573SOL    HW225740   8.790   1.576   3.546 -1.6508  0.0511  0.7791
 7574SOL     OW25741   7.290   0.511   4.898 -0.5574 -0.1667 -0.2120
 7574SOL    HW125742   7.228   0.576   4.932 -0.5742 -1.6087  2.6626
 7574SOL    HW225743   7.248   0.427   4.913 -0.1021 -0.9192 -3.0057
 7575SOL     OW25744   3.546   2.113   0.371  0.3228 -0.1138  0.0938
 7575SOL    HW125745   3.544   2.077   0.282 -2.1395  0.4291 -0.0962
 7575SOL    HW225746   3.512   2.202   0.361  0.8452  0.2457  1.4636
 7576SOL     OW25747   4.074   3.009   7.012  0.3166  0.3109 -0.7466
 7576SOL    HW125748   4.099   3.002   6.920 -2.4794 -0.8426 -1.4525
 7576SOL    HW225749   4.122   2.938   7.056  0.8226  0.2003 -1.4714
 7577SOL     OW25750   3.797   5.679   5.208 -0.3381 -0.5031 -0.1724
 7577SOL    HW125751   3.723   5.668   5.148 -0.2259 -0.3401 -0.3396
 7577SOL    HW225752   3.819   5.589   5.234  0.4799 -0.6913 -1.4299
 7578SOL     OW25753   0.391   8.628   8.234  0.5661 -0.4027 -0.3123
 7578SOL    HW125754   0.317   8.573   8.208 -0.4096  0.4669  0.6016
 7578SOL    HW225755   0.413   8.677   8.155  0.0807 -0.5617 -0.5482
 7579SOL     OW25756   0.750   6.640   3.674  0.6200  0.5002  0.9549
 7579SOL    HW125757   0.658   6.615   3.678  0.3592  1.4017  0.8021
 7579SOL    HW225758   0.798   6.558   3.664 -0.2392  0.1152  0.0303
 7580SOL     OW25759   2.165   6.197   7.028  0.0076  0.0441  0.4932
 7580SOL    HW125760   2.096   6.143   7.068 -0.1353 -1.2412 -1.4200
 7580SOL    HW225761   2.118   6.258   6.971  0.2913  1.0437  1.3093
 7581SOL     OW25762   3.062   8.134   4.631 -0.2135  0.4075  0.8681
 7581SOL    HW125763   3.073   8.227   4.650 -0.9313  0.4521  1.0867
 7581SOL    HW225764   3.014   8.132   4.548  3.5274  0.2182 -1.4443
 7582SOL     OW25765   6.405   9.416   0.329 -0.4733 -0.4643  0.1915
 7582SOL    HW125766   6.448   9.472   0.265  0.9157 -0.2828  1.2378
 7582SOL    HW225767   6.429   9.327   0.303 -2.5038 -0.5891 -1.3460
 7583SOL     OW25768   6.514   3.069   1.035  0.2600 -0.2589 -0.0875
 7583SOL    HW125769   6.430   3.112   1.022  1.0924  1.5948  0.5326
 7583SOL    HW225770   6.558   3.073   0.950  1.0156  1.6178  0.3813
 7584SOL     OW25771   7.482   6.930   8.026 -0.0174  0.3166 -0.1065
 7584SOL    HW125772   7.420   6.980   7.974  0.0539  0.7268  0.1970
 7584SOL    HW225773   7.568   6.953   7.989 -0.1355 -1.5581 -1.6454
 7585SOL     OW25774   5.664   2.928   5.012 -0.4054 -0.3812 -0.0043
 7585SOL    HW125775   5.677   2.954   5.103  0.9290 -0.2994 -0.2119
 7585SOL    HW225776   5.663   2.832   5.015  1.1451 -0.4089 -0.0942
 7586SOL     OW25777   9.421   0.427   3.772  0.4033  0.4682  0.3203
 7586SOL    HW125778   9.395   0.346   3.816  2.8293 -0.5444 -0.0352
 7586SOL    HW225779   9.453   0.399   3.686  0.6012  1.8768 -0.0797
 7587SOL     OW25780   1.034   8.602   5.110  0.2448 -0.0926 -0.3497
 7587SOL    HW125781   0.948   8.566   5.133 -0.2823  0.9211 -0.7291
 7587SOL    HW225782   1.082   8.602   5.193 -0.2562 -0.2877 -0.0539
 7588SOL     OW25783   6.191   7.699   7.362 -0.4731  0.0951  0.1780
 7588SOL    HW125784   6.168   7.755   7.436 -0.2848  0.6777 -0.2041
 7588SOL    HW225785   6.109   7.654   7.339 -0.5914  0.1131  0.5714
 7589SOL     OW25786   4.996   8.260   1.335  0.0883  0.4562  0.4899
 7589SOL    HW125787   5.089   8.280   1.345  0.1008  0.8990 -0.4518
 7589SOL    HW225788   4.952   8.328   1.386  0.3041 -0.1141  1.4302
 7590SOL     OW25789   8.720   0.269   8.347  0.2676  0.8262  0.4669
 7590SOL    HW125790   8.803   0.285   8.391  0.1691 -0.6581  1.2333
 7590SOL    HW225791   8.654   0.271   8.417 -0.4741  2.8371 -0.2461
 7591SOL     OW25792   6.982   8.924   3.778  0.4404  0.6635 -0.7398
 7591SOL    HW125793   6.956   8.976   3.702 -2.7600 -0.5552 -0.5265
 7591SOL    HW225794   6.903   8.917   3.831  1.3970 -2.4628  0.4034
 7592SOL     OW25795   0.389   7.786   4.743  0.3987  0.1695 -0.0400
 7592SOL    HW125796   0.339   7.821   4.816 -0.3998  2.6033 -1.6833
 7592SOL    HW225797   0.323   7.764   4.677  1.2786  0.4178 -1.0138
 7593SOL     OW25798   0.480   4.194   2.414 -0.1107 -0.1047 -0.2293
 7593SOL    HW125799   0.404   4.249   2.395  0.1687 -0.2018 -1.6552
 7593SOL    HW225800   0.476   4.180   2.509 -1.8409 -0.0627 -0.2785
 7594SOL     OW25801   8.115   8.101   2.045 -0.4714  0.6107 -0.0587
 7594SOL    HW125802   8.209   8.085   2.037 -0.6865  0.2957 -2.1100
 7594SOL    HW225803   8.095   8.082   2.137  1.4005  0.3527  0.3014
 7595SOL     OW25804   7.388   6.106   2.328 -0.2574  0.1526  0.1991
 7595SOL    HW125805   7.386   6.127   2.235 -1.5696  2.1718  0.6529
 7595SOL    HW225806   7.481   6.102   2.350  0.0504  0.6737 -0.9640
 7596SOL     OW25807   7.950   8.873   0.287  0.6037  0.8125 -0.9131
 7596SOL    HW125808   7.975   8.946   0.344  0.8166 -0.8173  1.1371
 7596SOL    HW225809   8.033   8.836   0.258  0.5913 -1.4924  1.8493
 7597SOL     OW25810   1.749   9.393   3.039 -0.4304 -0.3514  0.4854
 7597SOL    HW125811   1.686   9.395   3.110  1.8382  2.5239  2.5570
 7597SOL    HW225812   1.812   9.326   3.064  0.7890  1.1858  1.6449
 7598SOL     OW25813   0.555   2.015   6.423  0.1618  0.1065  0.1436
 7598SOL    HW125814   0.614   2.053   6.357  1.4374  0.8984  1.7053
 7598SOL    HW225815   0.612   1.958   6.475 -0.5869  0.3301  1.2278
 7599SOL     OW25816   2.825   1.116   5.060 -0.2935  0.1720  0.3318
 7599SOL    HW125817   2.851   1.059   4.988 -1.5455  0.1378 -0.0963
 7599SOL    HW225818   2.877   1.196   5.046  0.4556 -0.3334  0.1626
 7600SOL     OW25819   1.483   6.066   8.758 -0.0212 -0.3775  0.4875
 7600SOL    HW125820   1.435   6.148   8.770 -0.8408 -0.3627 -2.4017
 7600SOL    HW225821   1.575   6.090   8.766 -0.3014  0.6017  0.7927
 7601SOL     OW25822   4.828   2.828   8.986 -0.1078 -0.0366 -0.0695
 7601SOL    HW125823   4.911   2.867   8.960 -1.0246  1.1990 -1.1930
 7601SOL    HW225824   4.785   2.896   9.038 -0.7619 -0.3572 -0.1857
 7602SOL     OW25825   7.812   1.574   1.553 -0.9165 -0.1010  0.2770
 7602SOL    HW125826   7.844   1.644   1.496 -1.2357 -0.6253 -0.5457
 7602SOL    HW225827   7.780   1.507   1.493 -0.1729 -1.1640  1.0582
 7603SOL     OW25828   0.781   4.682   1.958 -0.4129 -0.1617  0.1077
 7603SOL    HW125829   0.864   4.644   1.987 -0.2808 -1.2450 -1.6356
 7603SOL    HW225830   0.806   4.765   1.917 -0.2518 -0.2904 -0.0517
 7604SOL     OW25831   2.705   0.873   7.734  0.2899  0.2829  0.1197
 7604SOL    HW125832   2.745   0.950   7.775  0.6391  0.4796 -0.5835
 7604SOL    HW225833   2.611   0.887   7.745  0.3529  0.8282 -0.0251
 7605SOL     OW25834   6.451   8.967   2.599  0.0721  0.2332  0.0732
 7605SOL    HW125835   6.531   8.936   2.556 -0.3358 -2.7468  1.3231
 7605SOL    HW225836   6.482   9.027   2.667  1.1036  0.6608 -0.7730
 7606SOL     OW25837   9.070   8.028   2.326  0.4581 -0.0331  0.9760
 7606SOL    HW125838   9.120   7.960   2.281 -0.5551 -1.2885  1.7006
 7606SOL    HW225839   9.113   8.037   2.411  0.1113 -0.3241  1.1798
 7607SOL     OW25840   8.477   5.767   4.825 -0.3731  0.1396 -0.3484
 7607SOL    HW125841   8.549   5.709   4.802  0.3048  0.8871 -0.1323
 7607SOL    HW225842   8.495   5.848   4.778 -0.9754  0.3926 -0.1541
 7608SOL     OW25843   2.524   7.314   0.930  0.2817  0.0783 -0.2099
 7608SOL    HW125844   2.447   7.274   0.969 -0.3525 -0.4799 -2.0357
 7608SOL    HW225845   2.564   7.362   1.003 -1.9233  0.6200  0.6924
 7609SOL     OW25846   2.783   5.188   3.187 -0.4722 -0.4204  0.0458
 7609SOL    HW125847   2.837   5.222   3.116  0.7441  0.2817  1.2679
 7609SOL    HW225848   2.699   5.234   3.179 -0.5739 -0.8270 -1.3069
 7610SOL     OW25849   9.109   3.239   9.402 -0.4912  0.2719  0.0646
 7610SOL    HW125850   9.167   3.219   9.476 -0.7731  0.2504  0.2850
 7610SOL    HW225851   9.121   3.333   9.387  0.1371  0.1290 -0.3573
 7611SOL     OW25852   1.391   8.370   2.836  0.0136  0.1628 -0.3305
 7611SOL    HW125853   1.450   8.438   2.803  0.1483  0.6044  0.7988
 7611SOL    HW225854   1.446   8.316   2.893  0.3639 -2.0281 -2.6597
 7612SOL     OW25855   0.346   6.293   3.411  0.1396 -0.1330  0.1844
 7612SOL    HW125856   0.385   6.374   3.376 -1.8039  1.4234  1.5264
 7612SOL    HW225857   0.264   6.284   3.363 -0.1957 -0.6691  0.8585
 7613SOL     OW25858   5.781   3.286   5.213  0.1044 -0.2322 -0.0024
 7613SOL    HW125859   5.714   3.218   5.216 -1.4511  1.0465 -3.1256
 7613SOL    HW225860   5.859   3.244   5.248 -1.6703 -2.5223  1.3942
 7614SOL     OW25861   2.656   3.277   5.935  0.4306  0.2005 -0.1173
 7614SOL    HW125862   2.727   3.269   5.999 -0.2509  1.7244  0.8537
 7614SOL    HW225863   2.591   3.333   5.977  0.2967  1.8852 -2.4263
 7615SOL     OW25864   3.475   4.020   4.832 -0.2885 -0.2880 -0.1742
 7615SOL    HW125865   3.455   3.984   4.745  1.2670 -1.5443 -0.0316
 7615SOL    HW225866   3.570   4.010   4.841 -0.3046  0.7169  1.2932
 7616SOL     OW25867   3.831   7.835   4.199 -0.2754 -0.1473 -0.4194
 7616SOL    HW125868   3.852   7.744   4.177  0.7672  0.0345 -0.1942
 7616SOL    HW225869   3.741   7.846   4.169  0.4229 -0.5084 -2.7899
 7617SOL     OW25870   4.331   1.450   7.205  0.2524  0.0137 -0.1830
 7617SOL    HW125871   4.235   1.451   7.206  0.2361  1.7870 -1.0912
 7617SOL    HW225872   4.354   1.366   7.243 -1.6549  0.0904  1.2329
 7618SOL     OW25873   8.653   1.458   4.413 -0.3145 -0.1565 -0.1840
 7618SOL    HW125874   8.602   1.535   4.386  0.5805  0.5212  0.0464
 7618SOL    HW225875   8.740   1.493   4.433 -0.5136 -0.8428  2.1090
 7619SOL     OW25876   4.875   8.149   2.462 -0.2067 -0.1568  0.3441
 7619SOL    HW125877   4.930   8.189   2.529 -0.6787 -0.4506  0.9040
 7619SOL    HW225878   4.787   8.181   2.482 -0.1431  0.9248 -0.9985
 7620SOL     OW25879   1.948   6.762   9.302  0.1799 -0.5406 -0.6539
 7620SOL    HW125880   1.927   6.818   9.376 -0.6595 -0.3952 -0.9874
 7620SOL    HW225881   1.963   6.823   9.229  0.4645 -0.6999 -0.7281
 7621SOL     OW25882   7.083   6.064   7.729 -0.1976 -0.2597 -0.1702
 7621SOL    HW125883   7.154   6.066   7.793 -1.2036 -0.3323  0.9815
 7621SOL    HW225884   7.023   5.997   7.762 -1.0416  0.1505 -0.8507
 7622SOL     OW25885   8.494   6.325   6.922 -0.0288 -0.0891 -0.0971
 7622SOL    HW125886   8.503   6.284   7.009 -2.3098  0.9548  0.6595
 7622SOL    HW225887   8.430   6.271   6.877  0.7010 -0.2678 -0.9238
 7623SOL     OW25888   4.269   3.514   2.176 -0.1346 -0.1241  0.4028
 7623SOL    HW125889   4.253   3.537   2.084  0.3433  0.0675  0.3645
 7623SOL    HW225890   4.340   3.572   2.203  0.1795 -0.6400  0.7008
 7624SOL     OW25891   8.002   4.244   5.714 -0.4268  0.6398 -0.1663
 7624SOL    HW125892   7.946   4.323   5.715 -0.5680  0.5347  0.5499
 7624SOL    HW225893   7.995   4.209   5.803  0.7443  0.5948 -0.0913
 7625SOL     OW25894   7.680   7.795   9.316  0.1200 -0.3409  0.3217
 7625SOL    HW125895   7.706   7.880   9.351  1.2987  0.3791 -2.1922
 7625SOL    HW225896   7.733   7.731   9.363  1.5257  0.5866  0.0141
 7626SOL     OW25897   8.980   4.415   1.858 -0.3283 -0.1255  0.8377
 7626SOL    HW125898   8.920   4.442   1.927 -0.3758  0.8411  0.4331
 7626SOL    HW225899   8.996   4.322   1.874 -2.4830 -0.5732  0.5199
 7627SOL     OW25900   1.523   3.349   8.583 -0.1999 -0.0473  0.3676
 7627SOL    HW125901   1.507   3.415   8.650  5.6898  1.3601  0.7091
 7627SOL    HW225902   1.485   3.386   8.503 -0.2878  2.0164  1.3343
 7628SOL     OW25903   6.526   0.192   6.100  0.2232 -0.0025  0.3086
 7628SOL    HW125904   6.537   0.129   6.030  0.1716  1.3062 -0.8998
 7628SOL    HW225905   6.607   0.242   6.101  0.7651 -0.8766  2.0826
 7629SOL     OW25906   0.323   0.519   0.611  0.2412  0.0839 -0.4370
 7629SOL    HW125907   0.296   0.587   0.550  0.0427  0.7264  0.3530
 7629SOL    HW225908   0.390   0.561   0.666  1.5022 -0.9293 -1.1705
 7630SOL     OW25909   8.044   4.906   3.068 -0.3136 -0.2983  0.3637
 7630SOL    HW125910   7.984   4.979   3.052  2.6639  1.9347 -0.9170
 7630SOL    HW225911   8.052   4.902   3.163 -0.1902  1.3145  0.4317
 7631SOL     OW25912   1.139   8.207   1.976 -0.5625  0.4368 -0.2651
 7631SOL    HW125913   1.151   8.254   2.059 -1.1038 -1.0826  0.6933
 7631SOL    HW225914   1.222   8.163   1.961 -0.9298 -0.4325  0.2130
 7632SOL     OW25915   1.735   4.815   0.907  0.3581 -0.6235  0.3168
 7632SOL    HW125916   1.769   4.773   0.828  3.2854  1.1212  0.5766
 7632SOL    HW225917   1.692   4.895   0.875 -2.0731 -1.9321  0.1651
 7633SOL     OW25918   7.434   7.867   7.234  0.3175  0.1419 -0.5264
 7633SOL    HW125919   7.484   7.940   7.270  1.4449 -0.9809  0.2304
 7633SOL    HW225920   7.351   7.869   7.281  1.7191 -1.2266  2.1265
 7634SOL     OW25921   9.062   0.153   3.515 -0.0179 -0.1548 -0.2927
 7634SOL    HW125922   8.979   0.127   3.477 -0.4465  3.6611 -2.2388
 7634SOL    HW225923   9.124   0.150   3.442  0.8561 -0.0606  0.4347
 7635SOL     OW25924   5.575   3.963   7.988 -0.7382  0.3872 -0.2168
 7635SOL    HW125925   5.515   3.983   7.916 -0.7938 -1.2282 -0.6539
 7635SOL    HW225926   5.657   3.938   7.945  0.5775  3.4638  0.3984
 7636SOL     OW25927   1.741   5.013   4.594 -0.1018  0.2046 -0.2418
 7636SOL    HW125928   1.672   4.985   4.535  0.0943 -1.5146  0.3163
 7636SOL    HW225929   1.735   4.952   4.668  1.1574  0.8617  0.4115
 7637SOL     OW25930   1.817   5.711   3.336 -0.1883  0.6785 -0.2526
 7637SOL    HW125931   1.825   5.751   3.423  1.2431 -0.6969  0.2608
 7637SOL    HW225932   1.809   5.786   3.276 -0.2703  1.6546  0.9530
 7638SOL     OW25933   0.476   6.285   6.128 -0.2458  0.2167  0.2371
 7638SOL    HW125934   0.506   6.306   6.040  1.1277 -4.2827 -0.5057
 7638SOL    HW225935   0.387   6.252   6.116 -0.6442  1.0695  0.7720
 7639SOL     OW25936   3.511   6.477   4.326  0.1777  0.4694  0.4290
 7639SOL    HW125937   3.468   6.430   4.255  0.6973 -0.3277  0.6360
 7639SOL    HW225938   3.560   6.547   4.282 -0.1121  0.4509  0.0735
 7640SOL     OW25939   2.957   4.466   0.464  0.1518  0.7099  0.2399
 7640SOL    HW125940   2.970   4.451   0.371  2.9631  0.8113  0.5805
 7640SOL    HW225941   2.961   4.379   0.503 -2.5370  0.4963  0.1466
 7641SOL     OW25942   4.120   7.165   2.456  0.4295  0.5902 -0.0876
 7641SOL    HW125943   4.083   7.141   2.541 -1.0858  1.5247 -0.4631
 7641SOL    HW225944   4.103   7.090   2.399 -2.0451  1.4989 -0.5912
 7642SOL     OW25945   1.140   2.926   4.263 -0.1750  0.0511 -0.0254
 7642SOL    HW125946   1.137   2.837   4.298 -0.7910  0.5843  1.2806
 7642SOL    HW225947   1.084   2.977   4.321  0.4764  1.3803 -0.5427
 7643SOL     OW25948   1.536   7.939   1.616  0.2329  0.0540  0.3233
 7643SOL    HW125949   1.556   7.880   1.688 -3.4835  0.0564  1.4991
 7643SOL    HW225950   1.506   8.020   1.658 -1.7877  0.1384 -1.1445
 7644SOL     OW25951   6.593   6.686   8.649  0.0573  0.7470 -0.5787
 7644SOL    HW125952   6.522   6.679   8.585 -0.3530 -1.3177  0.0319
 7644SOL    HW225953   6.556   6.736   8.722 -0.7022 -0.0958 -0.3791
 7645SOL     OW25954   2.846   8.680   9.240 -0.0041  0.2544  0.4028
 7645SOL    HW125955   2.868   8.722   9.322 -0.5770  0.0305  0.6774
 7645SOL    HW225956   2.810   8.595   9.266 -5.1863  2.2204  0.2645
 7646SOL     OW25957   5.160   1.862   1.738 -0.3544  0.4140 -0.4405
 7646SOL    HW125958   5.089   1.802   1.763  1.2367 -0.5365  1.9875
 7646SOL    HW225959   5.124   1.949   1.756 -0.6212 -0.0978  1.6429
 7647SOL     OW25960   0.842   0.319   2.820  0.2552  0.0223  0.2218
 7647SOL    HW125961   0.849   0.410   2.791  2.2033 -0.0188  0.4668
 7647SOL    HW225962   0.832   0.324   2.915  0.3532 -0.0158  0.2348
 7648SOL     OW25963   0.986   0.805   2.501 -0.1604 -0.5695 -0.6600
 7648SOL    HW125964   1.046   0.880   2.494 -1.1986  0.3924  0.6433
 7648SOL    HW225965   0.995   0.776   2.591  0.6479 -2.4012 -1.3019
 7649SOL     OW25966   6.574   1.552   9.195  0.5026  0.2811  0.4817
 7649SOL    HW125967   6.484   1.538   9.164  0.2346  0.5948  1.1185
 7649SOL    HW225968   6.621   1.581   9.117  0.3760 -1.2049 -0.1668
 7650SOL     OW25969   3.400   3.815   2.047 -0.0404 -0.7482  0.6837
 7650SOL    HW125970   3.403   3.733   1.998  3.2616 -0.2690 -0.0315
 7650SOL    HW225971   3.308   3.842   2.042 -1.0141 -3.9022  0.1666
 7651SOL     OW25972   7.033   7.297   0.971  0.4725  0.6769  0.0894
 7651SOL    HW125973   7.082   7.247   0.906 -0.2025  0.9870 -0.6625
 7651SOL    HW225974   6.973   7.234   1.010  1.0546  0.4315  0.6011
 7652SOL     OW25975   7.084   2.396   3.291 -0.3023  0.0130 -0.2241
 7652SOL    HW125976   7.047   2.399   3.380  0.5766 -0.8057  0.1830
 7652SOL    HW225977   7.179   2.403   3.305 -0.1907  0.3963 -1.1445
 7653SOL     OW25978   1.621   8.067   7.842  0.3718 -0.3221 -0.0664
 7653SOL    HW125979   1.560   8.011   7.794  1.1603 -1.2268 -0.0325
 7653SOL    HW225980   1.698   8.011   7.857  1.1342  0.7423  0.0433
 7654SOL     OW25981   1.916   2.776   4.923 -0.0662 -0.4048 -0.0962
 7654SOL    HW125982   1.954   2.692   4.950  1.8332  0.1956 -0.8130
 7654SOL    HW225983   1.936   2.835   4.995 -0.9555 -0.4376  0.1787
 7655SOL     OW25984   2.765   3.710   0.853 -0.3286 -0.7873  0.4149
 7655SOL    HW125985   2.730   3.725   0.766  0.8433  1.7010  0.3286
 7655SOL    HW225986   2.696   3.740   0.913  0.4194  1.2787  0.2757
 7656SOL     OW25987   8.640   5.756   5.524 -0.5911 -0.3965  0.0836
 7656SOL    HW125988   8.666   5.824   5.463  0.7152 -0.4579  0.5487
 7656SOL    HW225989   8.550   5.778   5.548 -0.6694  0.3461 -0.8651
 7657SOL     OW25990   9.273   2.798   5.995 -0.5852 -0.5704  0.1526
 7657SOL    HW125991   9.269   2.785   5.901  2.7582 -0.8831 -0.0166
 7657SOL    HW225992   9.182   2.805   6.023 -1.6579 -1.6277 -2.9255
 7658SOL     OW25993   1.815   4.342   7.750 -0.6740 -0.0562  0.3103
 7658SOL    HW125994   1.833   4.393   7.670 -1.9361  1.2121  0.8220
 7658SOL    HW225995   1.731   4.300   7.733 -0.1458 -1.1292  0.3208
 7659SOL     OW25996   7.512   8.763   7.489 -0.1851  0.4174  0.3148
 7659SOL    HW125997   7.491   8.669   7.485  2.3355 -0.1555  0.1695
 7659SOL    HW225998   7.559   8.780   7.407 -0.3000  1.7363  0.5158
 7660SOL     OW25999   6.410   3.244   5.690 -0.1398  0.4825 -0.0931
 7660SOL    HW126000   6.389   3.151   5.698 -1.9031  0.8536 -0.0920
 7660SOL    HW226001   6.333   3.289   5.726  0.7543  1.9387  0.0429
 7661SOL     OW26002   9.154   0.427   0.600 -0.1449 -0.2610 -0.1460
 7661SOL    HW126003   9.231   0.374   0.580  0.5725  0.5511  0.4067
 7661SOL    HW226004   9.166   0.507   0.548 -0.5641 -0.0801  0.0292
 7662SOL     OW26005   8.942   2.369   6.745 -0.2677  0.1000 -0.1467
 7662SOL    HW126006   8.958   2.350   6.653 -2.3282  1.7201 -0.8772
 7662SOL    HW226007   9.014   2.326   6.791  0.0603 -1.8564 -2.3891
 7663SOL     OW26008   6.423   1.277   7.718  0.3306  0.0754  0.4815
 7663SOL    HW126009   6.399   1.313   7.803 -1.0279 -0.2783  0.2658
 7663SOL    HW226010   6.348   1.296   7.662 -0.0039 -2.1877  0.1135
 7664SOL     OW26011   1.747   7.441   9.223 -0.5641 -0.7676  0.8156
 7664SOL    HW126012   1.701   7.429   9.140 -1.2794  0.1308  1.0714
 7664SOL    HW226013   1.771   7.352   9.250 -0.9092 -1.1245 -0.0241
 7665SOL     OW26014   7.300   5.511   3.859  0.0127  0.1047  0.4588
 7665SOL    HW126015   7.252   5.594   3.868 -0.0296  0.3198 -1.6236
 7665SOL    HW226016   7.390   5.538   3.844 -0.1886 -0.1849 -1.3683
 7666SOL     OW26017   4.592   8.430   3.454 -0.1926  0.2576  0.2548
 7666SOL    HW126018   4.542   8.502   3.415 -0.9770 -0.7951 -0.7226
 7666SOL    HW226019   4.589   8.446   3.548 -1.5733  0.7188  0.1358
 7667SOL     OW26020   9.426   3.406   4.419  0.1606 -0.5460  0.3042
 7667SOL    HW126021   9.356   3.418   4.354 -2.5241  0.1154  3.2051
 7667SOL    HW226022   9.458   3.317   4.402  0.4163  0.0723 -2.7258
 7668SOL     OW26023   4.648   5.828   3.620 -0.6313  0.2296  0.2311
 7668SOL    HW126024   4.613   5.914   3.642 -1.2529  0.0930 -0.1991
 7668SOL    HW226025   4.695   5.842   3.537  0.5391  0.4574  0.9157
 7669SOL     OW26026   9.387   7.711   4.316  0.4205  0.1104 -0.2331
 7669SOL    HW126027   9.302   7.678   4.285  0.8728 -0.0246 -1.3443
 7669SOL    HW226028   9.435   7.633   4.342  0.2508  0.1786  0.2935
 7670SOL     OW26029   6.772   6.068   2.473  0.2886 -0.5679  0.3152
 7670SOL    HW126030   6.715   6.116   2.534 -1.5338 -1.2873 -0.7883
 7670SOL    HW226031   6.794   5.988   2.521 -1.7530 -1.4828 -0.1911
 7671SOL     OW26032   1.489   4.939   0.582 -0.3973  0.0084  0.1997
 7671SOL    HW126033   1.543   4.907   0.510  0.5156  2.5857 -0.3041
 7671SOL    HW226034   1.552   4.964   0.650 -1.2330 -2.0638  1.8074
 7672SOL     OW26035   6.862   0.021   9.063  0.1807  0.1241  0.6301
 7672SOL    HW126036   6.769   0.042   9.066 -0.0387 -0.8807  1.2991
 7672SOL    HW226037   6.906   0.099   9.098 -0.5225 -0.0002  1.8121
 7673SOL     OW26038   8.752   0.992   2.997 -0.6170 -0.4459 -0.2326
 7673SOL    HW126039   8.840   0.954   3.000 -0.3874  0.2000  2.3928
 7673SOL    HW226040   8.763   1.081   3.030 -2.1508 -0.1369 -0.4960
 7674SOL     OW26041   1.064   6.577   6.429 -0.4435  0.4536  0.7822
 7674SOL    HW126042   1.152   6.611   6.441  0.0479 -0.4171 -0.2157
 7674SOL    HW226043   1.006   6.645   6.463  0.4975  2.3260 -1.2899
 7675SOL     OW26044   2.033   8.072   0.762 -0.4308  0.2144  0.3200
 7675SOL    HW126045   2.127   8.055   0.759 -0.8990 -2.5233  0.0734
 7675SOL    HW226046   2.015   8.129   0.687  1.0445  0.8846  0.4729
 7676SOL     OW26047   3.912   7.108   3.536 -0.1679  0.3007  0.0564
 7676SOL    HW126048   3.839   7.153   3.492 -2.2535 -2.2203  0.8152
 7676SOL    HW226049   3.935   7.037   3.477  1.1041  0.5456  0.2518
 7677SOL     OW26050   6.117   5.106   4.570  0.5310  0.3159  0.1959
 7677SOL    HW126051   6.207   5.075   4.582  0.0756 -1.3674 -0.6007
 7677SOL    HW226052   6.072   5.034   4.527 -1.1946  1.1808  0.4975
 7678SOL     OW26053   7.344   2.064   4.377  1.1032  0.0954 -0.3090
 7678SOL    HW126054   7.284   1.991   4.392  0.2116  0.4867 -1.9003
 7678SOL    HW226055   7.431   2.026   4.389  0.6503 -1.2258 -1.1406
 7679SOL     OW26056   6.963   9.112   8.468  0.2426 -0.0848  0.8213
 7679SOL    HW126057   7.008   9.154   8.541  2.3451 -2.2856  0.8378
 7679SOL    HW226058   6.913   9.040   8.508 -0.1469 -0.1001  0.3154
 7680SOL     OW26059   2.411   9.404   6.994  0.4560  0.7734  0.4103
 7680SOL    HW126060   2.480   9.384   7.057  0.7754  0.4768 -0.0364
 7680SOL    HW226061   2.340   9.440   7.047  0.6797  0.4088  0.9586
 7681SOL     OW26062   9.098   1.299   5.000  0.1632  0.4427 -0.0035
 7681SOL    HW126063   9.085   1.217   5.046  0.5969 -0.2455 -1.0866
 7681SOL    HW226064   9.176   1.337   5.039  0.5274 -0.1321 -0.1740
 7682SOL     OW26065   6.720   6.035   0.847  0.2834  0.1252  0.2543
 7682SOL    HW126066   6.640   6.007   0.803  0.0317  1.0320  0.1145
 7682SOL    HW226067   6.783   6.048   0.776  0.3040  0.2175  0.2897
 7683SOL     OW26068   8.323   0.699   0.391  0.8793 -0.4701 -0.9761
 7683SOL    HW126069   8.254   0.682   0.456  1.0485  1.8956 -0.1082
 7683SOL    HW226070   8.399   0.651   0.424  0.5372 -0.5106 -0.2175
 7684SOL     OW26071   3.737   0.074   8.807  0.3316 -0.0957 -0.3923
 7684SOL    HW126072   3.732  -0.021   8.801 -1.5119 -0.0287 -0.1820
 7684SOL    HW226073   3.752   0.103   8.716 -2.2178 -0.4335 -0.9468
 7685SOL     OW26074   8.009   4.538   2.417 -0.0008  0.4611  1.1439
 7685SOL    HW126075   7.950   4.505   2.349 -0.4599 -0.2664  1.8834
 7685SOL    HW226076   8.096   4.524   2.381 -0.2082 -1.1432  1.2529
 7686SOL     OW26077   7.579   9.257   4.802 -0.0833  0.2327  0.6159
 7686SOL    HW126078   7.539   9.332   4.847  2.4213  1.4192  0.9303
 7686SOL    HW226079   7.610   9.293   4.719 -2.3017 -1.3602 -0.9540
 7687SOL     OW26080   5.800   3.007   0.374  0.1085  0.0531  0.0032
 7687SOL    HW126081   5.833   2.976   0.290  0.7742  0.8728 -0.0433
 7687SOL    HW226082   5.771   3.097   0.357  1.4026  0.6633  0.9290
 7688SOL     OW26083   3.418   4.214   6.469 -0.0123 -0.1487 -0.1159
 7688SOL    HW126084   3.489   4.149   6.467 -0.5972 -0.7843 -0.5854
 7688SOL    HW226085   3.369   4.193   6.548  1.4955  1.5819  1.3257
 7689SOL     OW26086   5.076   7.038   3.346  0.4952 -0.5184 -0.0787
 7689SOL    HW126087   5.163   7.047   3.386  0.1076  1.1817  0.4207
 7689SOL    HW226088   5.021   7.005   3.417  0.0823  1.3145  0.4859
 7690SOL     OW26089   8.476   7.109   0.025 -0.1702  0.3234 -0.0408
 7690SOL    HW126090   8.397   7.098   0.078 -0.4242  2.5575  0.0784
 7690SOL    HW226091   8.503   7.200   0.039  2.2452 -0.3067 -0.3430
 7691SOL     OW26092   8.923   6.507   3.326  0.1550 -0.0805  0.0879
 7691SOL    HW126093   8.916   6.600   3.304  2.5890  0.1942  0.3887
 7691SOL    HW226094   8.984   6.504   3.400  0.1610 -1.9347  0.0394
 7692SOL     OW26095   1.730   2.114   3.517 -0.3151  0.1392 -0.4653
 7692SOL    HW126096   1.703   2.166   3.594 -2.8573  0.0453 -1.2341
 7692SOL    HW226097   1.794   2.052   3.551 -1.0953  0.3740  1.5009
 7693SOL     OW26098   3.989   2.322   6.839 -0.0210  0.3082  0.2435
 7693SOL    HW126099   3.927   2.346   6.770 -0.0525 -1.2677 -0.2932
 7693SOL    HW226100   3.946   2.349   6.920 -1.0362  0.0242 -0.1889
 7694SOL     OW26101   4.462   3.422   9.067 -0.7321 -0.3256  0.2371
 7694SOL    HW126102   4.367   3.435   9.055 -0.6894  0.7635  0.9754
 7694SOL    HW226103   4.468   3.342   9.121 -1.2662 -0.0454  0.7296
 7695SOL     OW26104   0.315   8.685   3.493  0.0234  0.7799 -0.0734
 7695SOL    HW126105   0.406   8.670   3.517  0.7229  3.6611 -0.7621
 7695SOL    HW226106   0.310   8.665   3.400 -0.2274 -0.0075  0.1004
 7696SOL     OW26107   0.181   3.151   3.964 -0.2386 -0.1525 -0.5444
 7696SOL    HW126108   0.160   3.059   3.949 -2.0716  0.5582 -2.8047
 7696SOL    HW226109   0.175   3.191   3.877  0.5622  2.0943  0.3841
 7697SOL     OW26110   7.856   8.131   4.302  0.2213 -0.7169 -0.7736
 7697SOL    HW126111   7.762   8.116   4.295  0.0781 -0.1452 -0.0452
 7697SOL    HW226112   7.895   8.068   4.241 -0.3764 -4.1218  2.1886
 7698SOL     OW26113   8.081   0.867   5.564  0.1338  0.3747 -0.9359
 7698SOL    HW126114   8.157   0.863   5.623 -0.6781 -0.7391  0.0767
 7698SOL    HW226115   8.101   0.804   5.495  0.5787  0.8242 -1.2136
 7699SOL     OW26116   2.767   8.522   6.432  0.1577 -0.7847 -0.2925
 7699SOL    HW126117   2.689   8.523   6.486 -0.6383 -2.3535 -1.3741
 7699SOL    HW226118   2.799   8.612   6.434 -1.3413 -0.2555  0.6166
 7700SOL     OW26119   8.360   7.455   6.301  0.0889 -0.3205 -0.1838
 7700SOL    HW126120   8.396   7.486   6.218 -0.8256  1.0588 -0.0973
 7700SOL    HW226121   8.293   7.520   6.323  1.3304  0.1688  2.3727
 7701SOL     OW26122   0.928   4.142   7.969 -0.0452 -0.1622 -0.1046
 7701SOL    HW126123   0.892   4.223   7.933 -1.3271 -0.5311  0.3418
 7701SOL    HW226124   0.852   4.089   7.991  0.7735 -1.1337  0.4370
 7702SOL     OW26125   7.798   8.102   1.445 -0.4683 -0.0874 -0.0752
 7702SOL    HW126126   7.720   8.150   1.474  0.2523  0.6419  0.6548
 7702SOL    HW226127   7.866   8.168   1.437  0.4225 -0.9275  0.5381
 7703SOL     OW26128   8.179   5.793   2.185  0.0610 -0.2851 -0.4356
 7703SOL    HW126129   8.105   5.807   2.245  0.5630 -0.0856  0.1502
 7703SOL    HW226130   8.256   5.794   2.242  0.3855 -2.1408 -0.8184
 7704SOL     OW26131   8.781   8.308   3.942  0.0823  0.7071 -0.1993
 7704SOL    HW126132   8.861   8.336   3.899  0.2165  0.6646  0.0241
 7704SOL    HW226133   8.805   8.295   4.034 -0.0064 -0.0284 -0.2759
 7705SOL     OW26134   7.902   5.967   4.134 -0.0933 -0.0328  0.6963
 7705SOL    HW126135   7.844   6.033   4.173 -0.3748 -0.3988  0.8916
 7705SOL    HW226136   7.947   5.927   4.208 -0.5147 -0.6219  0.6308
 7706SOL     OW26137   1.313   0.111   5.997 -0.1388  0.1492  0.1052
 7706SOL    HW126138   1.256   0.161   6.057  0.3057 -0.0671  0.7152
 7706SOL    HW226139   1.348   0.041   6.052  0.2936 -0.0326 -0.4119
 7707SOL     OW26140   0.359   5.495   1.151  0.1756  0.2262 -0.6163
 7707SOL    HW126141   0.269   5.467   1.171  0.4368 -0.8929 -0.9646
 7707SOL    HW226142   0.385   5.546   1.227 -0.8433  0.7697 -0.6181
 7708SOL     OW26143   0.507   8.089   7.920 -0.2736  0.2392 -0.0033
 7708SOL    HW126144   0.517   8.134   8.004  0.4641 -0.4572  0.2847
 7708SOL    HW226145   0.595   8.085   7.884 -0.4275 -0.4391 -0.3104
 7709SOL     OW26146   2.094   8.756   5.191  0.2162 -0.0782 -0.4861
 7709SOL    HW126147   2.027   8.799   5.138  1.4455  0.7660 -1.3763
 7709SOL    HW226148   2.110   8.673   5.145  0.2875  0.0328 -0.6627
 7710SOL     OW26149   3.654   6.639   1.721  0.3416 -0.3311  0.3315
 7710SOL    HW126150   3.585   6.662   1.784  1.8870  2.3178  1.1353
 7710SOL    HW226151   3.688   6.555   1.752 -1.1623 -0.6760  1.0888
 7711SOL     OW26152   0.527   1.312   6.651  0.2444 -0.1118  0.4150
 7711SOL    HW126153   0.566   1.243   6.596 -0.1443  0.1623 -0.2053
 7711SOL    HW226154   0.602   1.354   6.693  0.5543 -0.2051 -0.0429
 7712SOL     OW26155   8.051   6.468   7.185  0.2810  0.5380  0.1207
 7712SOL    HW126156   8.026   6.520   7.262 -2.1641 -0.3155 -0.0637
 7712SOL    HW226157   8.125   6.416   7.215 -1.0967 -0.3364  2.1586
 7713SOL     OW26158   1.101   7.308   9.283 -0.1106 -0.2350  0.1885
 7713SOL    HW126159   1.082   7.296   9.190 -0.8983 -0.8751  0.4219
 7713SOL    HW226160   1.141   7.394   9.288 -0.2963 -0.0858 -0.7163
 7714SOL     OW26161   6.829   3.897   5.159  0.4139 -0.2359  0.3162
 7714SOL    HW126162   6.875   3.936   5.234  0.9743  1.0272 -0.6806
 7714SOL    HW226163   6.899   3.870   5.100 -0.0850  0.9228 -0.8179
 7715SOL     OW26164   5.871   3.641   4.016  0.2326  0.1858  0.3021
 7715SOL    HW126165   5.794   3.646   4.072 -0.5938 -1.7327 -0.5843
 7715SOL    HW226166   5.836   3.613   3.931  1.9499 -1.1761  0.0214
 7716SOL     OW26167   3.287   6.045   5.872  0.3642 -0.4999  0.4012
 7716SOL    HW126168   3.379   6.071   5.865  0.7203 -1.4308  1.4688
 7716SOL    HW226169   3.252   6.059   5.784  1.3391  0.5568  0.1728
 7717SOL     OW26170   8.079   5.337   6.987  0.7564 -0.1976  0.3952
 7717SOL    HW126171   8.042   5.339   6.899 -2.0575 -0.4833  1.5101
 7717SOL    HW226172   8.151   5.274   6.982 -0.8953 -2.0189 -1.1670
 7718SOL     OW26173   7.246   3.107   7.029 -0.0986  0.1849  0.5812
 7718SOL    HW126174   7.174   3.063   6.984 -0.3162 -1.1852  2.2423
 7718SOL    HW226175   7.212   3.193   7.052 -0.7967 -0.0285  0.3372
 7719SOL     OW26176   8.096   1.414   8.626 -0.1480  0.2161 -0.7936
 7719SOL    HW126177   8.139   1.373   8.551 -0.7794  1.2165 -1.7185
 7719SOL    HW226178   8.158   1.480   8.657  0.3920 -0.6591 -0.0263
 7720SOL     OW26179   8.145   4.493   7.812  1.0275 -0.1360  0.0597
 7720SOL    HW126180   8.058   4.455   7.825  0.9314 -0.3121 -1.0286
 7720SOL    HW226181   8.199   4.455   7.880  0.2310  0.0346  0.7949
 7721SOL     OW26182   5.964   2.427   5.233 -0.4679 -0.1263 -0.4158
 7721SOL    HW126183   6.009   2.347   5.208 -0.5315 -0.5965  0.9423
 7721SOL    HW226184   5.912   2.450   5.156  2.2548  0.5770 -2.0782
 7722SOL     OW26185   3.454   5.201   3.765  0.7707 -0.0133 -0.3351
 7722SOL    HW126186   3.389   5.162   3.824 -0.3248  1.2663 -0.6750
 7722SOL    HW226187   3.430   5.169   3.678  1.7873 -1.0896 -0.2466
 7723SOL     OW26188   2.521   1.132   5.698  0.2678 -0.2841 -0.2920
 7723SOL    HW126189   2.490   1.126   5.788  2.9074  1.5365  0.7948
 7723SOL    HW226190   2.445   1.109   5.645 -1.4997 -0.7845  2.3726
 7724SOL     OW26191   1.360   6.129   5.814 -0.1633 -0.1257 -0.1555
 7724SOL    HW126192   1.431   6.066   5.800  0.5740  0.5314  0.6283
 7724SOL    HW226193   1.401   6.203   5.857 -1.2186  0.5114 -0.2274
 7725SOL     OW26194   8.788   1.123   2.748  0.0112 -0.0548  0.0518
 7725SOL    HW126195   8.835   1.196   2.788 -1.7779  0.5399  1.1144
 7725SOL    HW226196   8.765   1.066   2.822 -0.4641 -0.6146 -0.5231
 7726SOL     OW26197   2.469   2.984   8.956 -0.9685 -0.0153  0.4857
 7726SOL    HW126198   2.545   3.042   8.955 -1.8738  1.1933  0.0794
 7726SOL    HW226199   2.401   3.033   8.909 -1.2644 -2.0954 -1.3277
 7727SOL     OW26200   5.355   3.453   4.588  0.3394 -0.1002 -0.2175
 7727SOL    HW126201   5.372   3.538   4.627  0.1827  0.4808 -1.3823
 7727SOL    HW226202   5.260   3.442   4.596  0.3088  0.0145 -0.4257
 7728SOL     OW26203   1.910   2.145   4.332  0.6350 -0.0709 -0.4325
 7728SOL    HW126204   1.942   2.128   4.243  2.1533  1.9314 -0.3088
 7728SOL    HW226205   1.843   2.213   4.321  2.0319  1.4203  0.0976
 7729SOL     OW26206   6.727   1.016   0.559 -0.8536  0.1599  0.3370
 7729SOL    HW126207   6.653   0.962   0.532  0.0722 -0.9768  0.0448
 7729SOL    HW226208   6.782   1.022   0.482 -0.9036  1.4760  0.3879
 7730SOL     OW26209   1.298   5.905   0.702 -0.2567 -0.4326  0.4439
 7730SOL    HW126210   1.228   5.903   0.637  1.1892 -1.1598 -1.1198
 7730SOL    HW226211   1.275   5.979   0.760 -0.9933  0.9337 -1.5425
 7731SOL     OW26212   8.551   0.706   8.731 -0.2360  0.1157  0.5178
 7731SOL    HW126213   8.498   0.748   8.663 -0.5764  0.8589  1.2273
 7731SOL    HW226214   8.521   0.746   8.813  1.1628  0.2895  0.9618
 7732SOL     OW26215   0.454   6.257   2.962  0.7525  0.0167 -0.3580
 7732SOL    HW126216   0.414   6.170   2.961  0.3179  0.1724  1.6864
 7732SOL    HW226217   0.381   6.317   2.950  0.6389  0.2105  1.2199
 7733SOL     OW26218   5.986   8.077   6.678  0.4839 -0.1970 -0.3240
 7733SOL    HW126219   5.957   8.144   6.740 -0.7104 -0.4388 -0.6257
 7733SOL    HW226220   6.056   8.120   6.628 -0.8800  1.1234 -1.1199
 7734SOL     OW26221   5.953   8.274   5.928 -0.3147 -0.4670 -0.0387
 7734SOL    HW126222   5.890   8.308   5.864 -0.0623  3.1637  1.5535
 7734SOL    HW226223   6.013   8.221   5.876 -1.1059  1.0222 -2.5606
 7735SOL     OW26224   7.970   1.409   3.811 -0.6316 -0.4014 -0.5707
 7735SOL    HW126225   8.052   1.422   3.859 -0.5423  0.1636 -0.8686
 7735SOL    HW226226   7.979   1.322   3.772 -1.0432 -1.2103  1.0780
 7736SOL     OW26227   1.351   2.129   1.620 -0.2332 -0.2563 -0.5270
 7736SOL    HW126228   1.340   2.223   1.604  1.9487 -0.4051 -3.2833
 7736SOL    HW226229   1.441   2.120   1.651  0.9613 -1.8123 -4.2131
 7737SOL     OW26230   3.678   6.435   4.537 -0.1142 -0.2185 -0.2420
 7737SOL    HW126231   3.619   6.452   4.611 -1.7428 -1.6506 -1.1829
 7737SOL    HW226232   3.625   6.455   4.459  1.4807  0.9611 -1.0531
 7738SOL     OW26233   1.853   0.811   7.303 -0.1320  0.4221  0.5546
 7738SOL    HW126234   1.896   0.870   7.241 -0.3096  0.2623  0.2805
 7738SOL    HW226235   1.760   0.818   7.283 -0.0828 -0.5442  0.0107
 7739SOL     OW26236   1.669   0.390   4.027  0.0893  0.2354 -0.2439
 7739SOL    HW126237   1.729   0.324   3.992  0.6707 -0.2759  1.7000
 7739SOL    HW226238   1.595   0.390   3.966 -0.2997 -2.7782  0.1707
 7740SOL     OW26239   3.035   0.127   6.089  0.4590  0.7537 -0.3886
 7740SOL    HW126240   2.997   0.102   6.174 -0.9855 -1.5211 -1.6607
 7740SOL    HW226241   3.125   0.150   6.110  0.0794  0.4274  1.7899
 7741SOL     OW26242   2.952   3.715   3.751  0.0601 -0.1085 -0.4259
 7741SOL    HW126243   3.012   3.785   3.777  2.4767 -1.8936 -1.0141
 7741SOL    HW226244   2.893   3.756   3.688  0.0379  1.9167  0.8512
 7742SOL     OW26245   5.555   7.051   5.609  0.2764  1.0995  0.4760
 7742SOL    HW126246   5.649   7.041   5.620  0.1785  0.5671  0.8117
 7742SOL    HW226247   5.517   7.024   5.693 -0.3688 -1.6860 -0.6573
 7743SOL     OW26248   2.526   8.285   5.057  0.4949  0.3715  0.0631
 7743SOL    HW126249   2.575   8.246   4.984  0.4888  0.2789  0.1082
 7743SOL    HW226250   2.474   8.212   5.092  0.0327  0.5636 -0.2264
 7744SOL     OW26251   5.525   3.108   8.420  0.0681 -0.0044  0.5103
 7744SOL    HW126252   5.465   3.087   8.492 -1.4969  1.8042 -0.2223
 7744SOL    HW226253   5.558   3.196   8.441  0.6265 -0.0153 -0.2982
 7745SOL     OW26254   2.104   2.192   0.222 -0.1777  0.4125 -0.1605
 7745SOL    HW126255   2.123   2.181   0.315  0.6794  0.9050 -0.2688
 7745SOL    HW226256   2.185   2.228   0.186 -0.6185  0.5219 -1.0370
 7746SOL     OW26257   1.700   3.107   7.806  0.5396 -0.1092  0.0098
 7746SOL    HW126258   1.639   3.069   7.742 -1.0218  0.4971  1.0946
 7746SOL    HW226259   1.713   3.038   7.870  0.4122  0.0044  0.1599
 7747SOL     OW26260   7.446   8.233   5.650 -0.2217 -0.1713 -0.2738
 7747SOL    HW126261   7.495   8.185   5.583 -1.1533 -2.4251  0.6168
 7747SOL    HW226262   7.485   8.205   5.733 -1.7880 -0.5318  0.3445
 7748SOL     OW26263   3.588   5.763   1.230 -0.4322 -0.2848  0.6462
 7748SOL    HW126264   3.675   5.748   1.267 -0.5183  0.8479  1.3354
 7748SOL    HW226265   3.578   5.696   1.162  0.1129 -1.7806  2.0279
 7749SOL     OW26266   9.407   6.025   3.598  0.2327 -0.1875 -0.1533
 7749SOL    HW126267   9.418   5.938   3.559  1.1873 -0.2205  0.1971
 7749SOL    HW226268   9.460   6.083   3.544 -0.4148  0.1840 -0.3928
 7750SOL     OW26269   9.160   7.789   1.898 -0.4971  0.0502 -0.2838
 7750SOL    HW126270   9.230   7.773   1.835 -1.0617 -1.9741 -0.4162
 7750SOL    HW226271   9.085   7.814   1.845 -0.5285 -0.0704 -0.2952
 7751SOL     OW26272   1.267   7.185   4.762  0.2362  0.6796  0.3854
 7751SOL    HW126273   1.336   7.119   4.775 -1.1654 -0.7508  0.6952
 7751SOL    HW226274   1.187   7.142   4.792 -0.7944  2.3470  0.0660
 7752SOL     OW26275   2.319   1.515   7.303  0.5431 -0.2073 -0.2020
 7752SOL    HW126276   2.242   1.471   7.267  1.0128 -1.6833  0.5662
 7752SOL    HW226277   2.306   1.513   7.398  1.6039 -0.6087 -0.0565
 7753SOL     OW26278   1.975   2.388   7.160  0.4449 -0.5567  0.0811
 7753SOL    HW126279   1.959   2.436   7.079 -0.3904  1.0495  1.1743
 7753SOL    HW226280   2.068   2.401   7.178 -0.0092  1.6105  0.9565
 7754SOL     OW26281   0.413   8.832   0.804 -0.0217 -0.1209  0.2132
 7754SOL    HW126282   0.371   8.802   0.885 -0.9642  0.2101 -0.1502
 7754SOL    HW226283   0.405   8.758   0.744 -0.3470  0.0489  0.0479
 7755SOL     OW26284   2.276   5.703   0.476  0.4079  0.0153 -0.3131
 7755SOL    HW126285   2.365   5.672   0.495  0.5426  0.8123  0.3744
 7755SOL    HW226286   2.233   5.707   0.562 -0.3614 -0.5713 -0.6648
 7756SOL     OW26287   5.535   3.439   1.883  0.6371  0.0459 -0.0282
 7756SOL    HW126288   5.628   3.460   1.874  0.9540 -0.6442  1.4381
 7756SOL    HW226289   5.497   3.518   1.921  0.6366  0.3036 -0.5626
 7757SOL     OW26290   6.523   5.035   5.127 -0.0047 -0.1300  0.1685
 7757SOL    HW126291   6.433   5.055   5.152 -0.7784 -3.3234  0.1872
 7757SOL    HW226292   6.566   5.007   5.208  1.1502  1.6816  0.2248
 7758SOL     OW26293   8.958   4.785   9.068  0.1954 -0.0596 -0.3504
 7758SOL    HW126294   8.888   4.731   9.033 -1.2353  2.2274 -1.1394
 7758SOL    HW226295   9.035   4.762   9.015 -0.4211 -1.1778 -0.7723
 7759SOL     OW26296   8.517   7.606   0.701 -0.1805 -0.5078  0.3047
 7759SOL    HW126297   8.484   7.690   0.669  1.4884  0.0635  0.0828
 7759SOL    HW226298   8.552   7.625   0.788  0.2108 -0.9836  0.2531
 7760SOL     OW26299   0.972   3.103   4.447 -0.0488 -0.5837  0.0712
 7760SOL    HW126300   0.990   3.196   4.436 -2.8256 -0.1969 -1.5738
 7760SOL    HW226301   0.956   3.092   4.541  0.1813  0.5897  0.2559
 7761SOL     OW26302   4.525   4.253   2.321 -0.4397 -0.9669  0.1714
 7761SOL    HW126303   4.552   4.284   2.235 -0.6567  1.1996  0.8587
 7761SOL    HW226304   4.587   4.294   2.381 -2.9874  1.1813  1.4367
 7762SOL     OW26305   6.374   4.652   4.589  0.2743  0.1662 -0.2481
 7762SOL    HW126306   6.296   4.625   4.637  1.9989 -1.1553  1.8656
 7762SOL    HW226307   6.382   4.588   4.518  1.4467 -1.8761  1.6858
 7763SOL     OW26308   8.829   4.449   7.088  0.2171 -0.0770  0.0201
 7763SOL    HW126309   8.794   4.516   7.030 -0.6536  0.3696  1.0581
 7763SOL    HW226310   8.759   4.384   7.097  0.8358 -0.8384 -0.5005
 7764SOL     OW26311   8.732   1.917   8.965 -0.7504 -0.1313  0.4356
 7764SOL    HW126312   8.657   1.938   8.909  0.7327  0.5346 -1.3828
 7764SOL    HW226313   8.786   1.996   8.963  0.9541 -1.2653  0.0711
 7765SOL     OW26314   7.879   8.498   3.302  0.0849 -0.5629 -0.0816
 7765SOL    HW126315   7.860   8.508   3.396  0.9387  2.1966 -0.1518
 7765SOL    HW226316   7.857   8.407   3.283  1.2146 -1.5865  3.1158
 7766SOL     OW26317   8.798   2.324   0.337  0.3777  0.4205  0.1028
 7766SOL    HW126318   8.803   2.232   0.312  2.4769  0.1250  1.5360
 7766SOL    HW226319   8.778   2.324   0.430 -1.9141  1.4661 -0.3533
 7767SOL     OW26320   0.133   4.623   4.218  0.4212 -0.1895 -0.1048
 7767SOL    HW126321   0.137   4.618   4.123  1.7286 -0.0020 -0.0756
 7767SOL    HW226322   0.197   4.558   4.247 -1.6830 -1.9612  0.6872
 7768SOL     OW26323   6.558   5.448   7.243 -0.2857  0.0216 -0.3059
 7768SOL    HW126324   6.488   5.391   7.276  0.4823 -1.5901 -1.4582
 7768SOL    HW226325   6.613   5.466   7.320 -0.6603 -0.5782  0.1017
 7769SOL     OW26326   2.831   4.937   4.920  0.1995  0.2023  0.2195
 7769SOL    HW126327   2.837   5.030   4.897  0.6296  0.2366  0.4767
 7769SOL    HW226328   2.824   4.936   5.015 -1.7942  0.0686  0.1006
 7770SOL     OW26329   1.791   7.180   8.711  0.3626  0.1714  0.7379
 7770SOL    HW126330   1.700   7.156   8.690  0.3361  0.6129  0.3194
 7770SOL    HW226331   1.795   7.177   8.806  0.3681 -1.4959  0.7017
 7771SOL     OW26332   6.754   3.833   9.127 -0.4086 -0.1761 -0.0565
 7771SOL    HW126333   6.742   3.919   9.166 -0.2668  0.8068 -2.1070
 7771SOL    HW226334   6.687   3.828   9.059 -0.4005 -1.6802  0.0186
 7772SOL     OW26335   3.369   2.044   8.242 -0.4751  0.4333 -0.3694
 7772SOL    HW126336   3.441   2.095   8.281 -1.7351  1.4004  0.7263
 7772SOL    HW226337   3.357   1.970   8.301  0.1178 -0.1451 -0.9646
 7773SOL     OW26338   4.318   1.891   8.616 -0.4239  0.2219 -0.3550
 7773SOL    HW126339   4.322   1.810   8.566 -0.3725  0.8068 -1.3114
 7773SOL    HW226340   4.239   1.935   8.584 -1.7676 -0.5398  1.8466
 7774SOL     OW26341   7.540   7.223   4.839 -0.5702 -0.0714 -0.2795
 7774SOL    HW126342   7.483   7.199   4.912 -0.8402 -0.8754 -0.7363
 7774SOL    HW226343   7.488   7.203   4.761 -0.6124  1.5893 -0.6875
 7775SOL     OW26344   7.672   7.768   2.992 -0.0185 -0.4257  0.2332
 7775SOL    HW126345   7.609   7.740   2.925 -1.2826 -0.1120  1.2693
 7775SOL    HW226346   7.649   7.717   3.069  0.0035  0.7932  1.0628
 7776SOL     OW26347   3.654   9.241   4.699 -0.1518 -0.4395 -0.2470
 7776SOL    HW126348   3.726   9.193   4.660  0.1948  0.3804 -0.6336
 7776SOL    HW226349   3.668   9.332   4.671  0.3054  0.2390  2.0225
 7777SOL     OW26350   3.054   9.080   7.955 -0.1748  0.1673 -0.1924
 7777SOL    HW126351   3.112   9.094   8.029  0.1029 -0.2422 -0.3277
 7777SOL    HW226352   3.112   9.064   7.881 -0.4549 -1.0617 -0.1613
 7778SOL     OW26353   8.458   8.207   9.315 -0.4393 -0.0542 -0.0670
 7778SOL    HW126354   8.518   8.186   9.387 -1.0210  0.9945  0.7451
 7778SOL    HW226355   8.489   8.291   9.281 -1.2133  0.3059  0.1049
 7779SOL     OW26356   6.680   7.072   4.907 -0.2140  0.7587  0.8538
 7779SOL    HW126357   6.644   7.009   4.844 -1.3533  2.1868  0.0573
 7779SOL    HW226358   6.639   7.049   4.990 -1.1347  0.8526  0.4358
 7780SOL     OW26359   4.533   6.778   6.068  0.1896 -0.2744  0.2609
 7780SOL    HW126360   4.476   6.846   6.106 -0.6858 -0.6243 -0.4039
 7780SOL    HW226361   4.621   6.802   6.096  0.0230  1.7804 -0.9228
 7781SOL     OW26362   7.958   8.299   4.501  0.0290  0.4749 -0.1815
 7781SOL    HW126363   7.933   8.240   4.572 -0.8406  0.3649 -0.5792
 7781SOL    HW226364   7.926   8.257   4.422 -0.4041  1.3764 -0.4891
 7782SOL     OW26365   9.096   3.709   6.406  0.2916 -0.2096 -0.5432
 7782SOL    HW126366   9.167   3.740   6.462 -0.7535  2.0944 -0.4549
 7782SOL    HW226367   9.097   3.767   6.331 -2.1287  0.5200 -0.0662
 7783SOL     OW26368   8.188   8.893   9.419 -0.3279 -0.3818 -0.1386
 7783SOL    HW126369   8.136   8.973   9.426  2.5429  1.7104 -1.6597
 7783SOL    HW226370   8.142   8.840   9.353  0.6849  2.5162 -3.3371
 7784SOL     OW26371   2.498   5.156   6.592  0.1514 -0.3270  0.3325
 7784SOL    HW126372   2.573   5.156   6.532 -0.2939  0.0645 -0.2299
 7784SOL    HW226373   2.520   5.223   6.657  0.6387 -0.7551  0.6176
 7785SOL     OW26374   2.175   8.554   8.213  0.3272  0.4876 -0.5761
 7785SOL    HW126375   2.117   8.551   8.289 -0.4211  1.1109 -1.1180
 7785SOL    HW226376   2.202   8.646   8.207  1.1921  0.2517 -0.4702
 7786SOL     OW26377   2.792   8.301   2.148 -0.3154 -0.3104  0.3806
 7786SOL    HW126378   2.843   8.345   2.080 -0.1735 -0.2875  0.5036
 7786SOL    HW226379   2.702   8.304   2.115  0.0174 -2.1416 -0.7953
 7787SOL     OW26380   3.536   6.559   2.274  0.6555 -0.1776  0.3135
 7787SOL    HW126381   3.540   6.653   2.290 -1.0920 -0.3350  1.8365
 7787SOL    HW226382   3.449   6.545   2.237  1.7260 -0.9180 -1.9950
 7788SOL     OW26383   2.022   7.932   0.070 -0.5059 -0.4571 -0.0335
 7788SOL    HW126384   2.056   7.843   0.081  1.7037  0.2575 -0.9026
 7788SOL    HW226385   2.024   7.947  -0.025  1.1981  1.2830  0.2507
 7789SOL     OW26386   2.083   0.751   6.700  0.3856 -0.2001 -0.0757
 7789SOL    HW126387   2.098   0.775   6.608  0.0196  0.7304  0.1114
 7789SOL    HW226388   1.999   0.791   6.722  0.3533 -0.6311  0.5947
 7790SOL     OW26389   3.321   5.668   3.173 -0.1629 -0.2126 -0.0256
 7790SOL    HW126390   3.322   5.763   3.183  0.3977 -0.3190  0.9712
 7790SOL    HW226391   3.229   5.647   3.155 -0.0796  0.6244 -1.4797
 7791SOL     OW26392   1.193   7.011   7.798 -0.6019 -0.3571  0.0438
 7791SOL    HW126393   1.284   7.007   7.769 -0.1033  1.1954  1.3659
 7791SOL    HW226394   1.190   6.956   7.876 -0.8237 -0.4612 -0.0370
 7792SOL     OW26395   1.501   0.453   1.754 -0.4192  0.6457 -0.2805
 7792SOL    HW126396   1.596   0.442   1.754 -0.5926 -1.1003  0.8994
 7792SOL    HW226397   1.480   0.485   1.666  1.2628  1.0551 -0.5319
 7793SOL     OW26398   9.440   8.538   4.865 -0.3050 -0.0091 -0.3733
 7793SOL    HW126399   9.533   8.539   4.842 -0.6470 -0.6293 -1.8805
 7793SOL    HW226400   9.436   8.576   4.952  1.7400 -3.0178  1.1364
 7794SOL     OW26401   9.054   0.489   2.844 -0.1003 -0.1355  0.6166
 7794SOL    HW126402   8.988   0.556   2.827  0.4386  0.7800  2.0349
 7794SOL    HW226403   9.117   0.498   2.773 -0.5490  0.2013  0.2607
 7795SOL     OW26404   5.242   9.358   9.253  0.6889 -0.1086  0.2844
 7795SOL    HW126405   5.313   9.323   9.306  1.2555  0.9985  0.2609
 7795SOL    HW226406   5.162   9.334   9.300  0.9791 -2.7323 -0.5055
 7796SOL     OW26407   7.965   0.436   7.872 -0.1112  0.5335  0.0232
 7796SOL    HW126408   7.972   0.422   7.778 -2.1401 -0.4078  0.0012
 7796SOL    HW226409   8.045   0.484   7.895  0.2506  1.0302 -2.2122
 7797SOL     OW26410   7.512   6.935   5.354  0.0369 -0.6183 -0.0776
 7797SOL    HW126411   7.562   6.960   5.431  1.6425 -0.6865 -1.0571
 7797SOL    HW226412   7.426   6.912   5.387  0.3836  0.3641  1.5598
 7798SOL     OW26413   1.458   3.622   0.222 -0.2835  0.5654  0.6048
 7798SOL    HW126414   1.518   3.690   0.193  0.6844 -0.8047 -0.6363
 7798SOL    HW226415   1.515   3.553   0.257 -0.9981 -1.5356 -2.2531
 7799SOL     OW26416   3.542   3.583   4.207  0.2687  0.5353  0.0915
 7799SOL    HW126417   3.485   3.660   4.209 -0.2842  0.1251  0.2405
 7799SOL    HW226418   3.486   3.510   4.232  0.5022 -0.1114 -1.1928
 7800SOL     OW26419   1.306   2.163   4.966  0.1392 -1.0147 -0.2193
 7800SOL    HW126420   1.218   2.198   4.951  0.7790  0.5502 -0.4481
 7800SOL    HW226421   1.314   2.091   4.904  0.1078  0.7599 -2.3703
 7801SOL     OW26422   8.580   1.979   4.470  0.3284  0.3119  0.0843
 7801SOL    HW126423   8.631   2.038   4.414 -0.2150 -0.2638 -1.0208
 7801SOL    HW226424   8.627   1.896   4.467  0.5214  0.3856  0.8269
 7802SOL     OW26425   3.594   5.444   1.257  0.9973  0.6816 -0.0241
 7802SOL    HW126426   3.663   5.378   1.265  1.0862  0.8283  0.4638
 7802SOL    HW226427   3.605   5.481   1.170  1.7862  0.9885  0.2117
 7803SOL     OW26428   8.156   5.997   3.096  0.1355 -0.0754  0.2930
 7803SOL    HW126429   8.083   6.001   3.035  0.9465  0.5299 -0.6503
 7803SOL    HW226430   8.207   5.921   3.068 -0.5442 -0.9741  1.4372
 7804SOL     OW26431   4.643   1.794   4.351 -0.3053  0.3019 -0.0440
 7804SOL    HW126432   4.632   1.799   4.256 -0.8898  2.6921  0.1289
 7804SOL    HW226433   4.558   1.817   4.387  1.0295  3.8433  1.0835
 7805SOL     OW26434   2.395   8.012   5.547 -0.1498  0.6954 -0.4910
 7805SOL    HW126435   2.380   7.939   5.486 -1.3326  0.3607  0.1690
 7805SOL    HW226436   2.392   8.090   5.492 -1.0783  0.3888 -0.8980
 7806SOL     OW26437   1.010   7.378   5.870 -0.0530  0.5890  0.4059
 7806SOL    HW126438   1.105   7.390   5.866 -0.0573  1.1425  1.7898
 7806SOL    HW226439   0.995   7.334   5.953 -1.0967  1.2802  0.5779
 7807SOL     OW26440   8.239   5.102   1.711 -0.2633  0.7073  0.0784
 7807SOL    HW126441   8.157   5.063   1.680  0.5360 -2.0683  1.2352
 7807SOL    HW226442   8.230   5.105   1.806  1.5746 -1.2155  0.3574
 7808SOL     OW26443   9.175   1.993   0.937 -0.3851  0.0932  0.5431
 7808SOL    HW126444   9.085   2.018   0.958 -0.7286 -0.6753 -0.0175
 7808SOL    HW226445   9.188   1.911   0.983  0.3383  0.6565  1.3639
 7809SOL     OW26446   2.939   8.737   4.681  0.5007 -0.5219 -0.3868
 7809SOL    HW126447   3.003   8.711   4.747 -0.5534 -1.3189  0.3268
 7809SOL    HW226448   2.988   8.796   4.623  1.4948  0.0086  0.9547
 7810SOL     OW26449   1.691   1.289   6.535  0.3703 -0.6040  0.4991
 7810SOL    HW126450   1.698   1.194   6.547  1.9319 -0.6899 -0.9495
 7810SOL    HW226451   1.776   1.315   6.500 -0.7508  1.0020 -1.1490
 7811SOL     OW26452   6.524   3.113   4.134  0.3056 -0.1951 -0.1176
 7811SOL    HW126453   6.430   3.132   4.131  0.4194  0.4759  0.3851
 7811SOL    HW226454   6.529   3.018   4.135 -0.2980 -0.2783 -2.3434
 7812SOL     OW26455   8.476   4.154   3.381 -0.5534  0.0267 -0.2915
 7812SOL    HW126456   8.428   4.141   3.299  0.4297 -0.9024 -0.7312
 7812SOL    HW226457   8.475   4.069   3.423 -0.9184  0.4681  0.5980
 7813SOL     OW26458   6.829   4.833   7.211  0.3352  0.5902  0.1908
 7813SOL    HW126459   6.837   4.858   7.303 -0.3370  2.4895 -0.2437
 7813SOL    HW226460   6.835   4.915   7.163 -0.3126 -0.2675 -1.4101
 7814SOL     OW26461   7.585   5.648   1.621  0.1356  0.2158  0.4600
 7814SOL    HW126462   7.651   5.709   1.587 -0.0669 -0.3110 -0.8773
 7814SOL    HW226463   7.625   5.613   1.701  1.7904 -0.6610 -0.7449
 7815SOL     OW26464   7.974   0.178   1.388  0.2641 -0.0053  0.5444
 7815SOL    HW126465   7.911   0.246   1.411 -1.2489 -0.3307 -2.3143
 7815SOL    HW226466   8.059   0.223   1.384  0.0105  0.7343  3.0694
 7816SOL     OW26467   0.283   1.247   1.098  0.2999  0.2579  0.0292
 7816SOL    HW126468   0.375   1.254   1.123 -0.1321 -0.3219  1.8364
 7816SOL    HW226469   0.251   1.170   1.145 -0.8576 -0.1676 -1.4042
 7817SOL     OW26470   3.585   1.717   0.027  0.1506 -0.2934 -0.0437
 7817SOL    HW126471   3.596   1.724  -0.068 -0.3981  0.8547 -0.0268
 7817SOL    HW226472   3.670   1.686   0.059  0.5876  0.1108 -0.8152
 7818SOL     OW26473   6.523   6.729   4.422  0.6237 -0.3708  0.3127
 7818SOL    HW126474   6.575   6.675   4.362  0.2450 -0.2659 -0.1119
 7818SOL    HW226475   6.572   6.811   4.428  1.7939 -1.1484  1.8426
 7819SOL     OW26476   9.243   6.536   4.975 -0.0423 -0.4034 -0.7133
 7819SOL    HW126477   9.244   6.473   4.903  0.6881 -0.1749 -0.9066
 7819SOL    HW226478   9.314   6.596   4.955  0.0414 -0.2296  0.0982
 7820SOL     OW26479   6.987   3.285   6.411 -0.0699  0.2176 -0.8587
 7820SOL    HW126480   6.908   3.332   6.386  0.0299  0.7487 -0.1877
 7820SOL    HW226481   6.961   3.230   6.485  1.0724  3.2691  1.8824
 7821SOL     OW26482   8.529   8.442   6.306 -0.5060  0.2932  0.5377
 7821SOL    HW126483   8.571   8.494   6.238 -1.4018 -1.5555 -1.4778
 7821SOL    HW226484   8.448   8.489   6.326 -0.1380  0.9544  0.4772
 7822SOL     OW26485   6.194   8.363   1.270 -0.4020 -0.0206  0.0845
 7822SOL    HW126486   6.212   8.362   1.176  1.1342 -0.2230  0.3654
 7822SOL    HW226487   6.237   8.284   1.303  0.8958  1.1663  1.2675
 7823SOL     OW26488   0.744   3.456   9.246 -0.0176  0.5614  0.3386
 7823SOL    HW126489   0.803   3.435   9.318 -1.7816  2.3530  2.3679
 7823SOL    HW226490   0.681   3.384   9.245  1.9775 -1.2669 -1.7233
 7824SOL     OW26491   2.983   0.394   2.267  0.2169  0.2253 -0.5224
 7824SOL    HW126492   2.944   0.450   2.334  1.3966 -1.0512  1.2865
 7824SOL    HW226493   3.048   0.449   2.223  1.1872  0.3765  1.0662
 7825SOL     OW26494   5.395   1.045   9.388 -0.0104  0.4323  0.5263
 7825SOL    HW126495   5.443   0.962   9.387 -0.1449  0.3567  0.4439
 7825SOL    HW226496   5.464   1.112   9.394  0.1054  0.3231  0.4098
 7826SOL     OW26497   2.325   7.514   9.032  1.0281 -0.1718  0.4260
 7826SOL    HW126498   2.385   7.448   8.998  0.2531 -1.8151  2.1432
 7826SOL    HW226499   2.369   7.548   9.110  0.0468 -0.9185  1.3238
 7827SOL     OW26500   5.345   1.552   2.065 -0.3964  0.2853 -0.5042
 7827SOL    HW126501   5.305   1.543   2.152 -1.7663  0.4678 -1.0992
 7827SOL    HW226502   5.287   1.501   2.007  1.9591 -2.0667 -0.8860
 7828SOL     OW26503   7.215   3.803   1.061  0.1457  0.2885 -0.1614
 7828SOL    HW126504   7.310   3.787   1.059 -0.1481 -1.3491 -2.4631
 7828SOL    HW226505   7.202   3.873   0.997 -0.2997 -0.0312 -0.4189
 7829SOL     OW26506   9.005   9.304   3.605 -0.0996 -0.4695  0.6932
 7829SOL    HW126507   8.957   9.386   3.598  0.3084 -0.3484 -0.9086
 7829SOL    HW226508   8.940   9.241   3.636 -1.1637 -0.1754 -0.8804
 7830SOL     OW26509   8.053   5.884   8.911 -0.4497  0.1344  0.2569
 7830SOL    HW126510   8.036   5.935   8.832  1.6225  0.9100  0.2835
 7830SOL    HW226511   8.081   5.948   8.976 -1.4901 -0.5787  1.4429
 7831SOL     OW26512   3.541   1.173   7.633  0.0406  0.1909  0.0328
 7831SOL    HW126513   3.589   1.168   7.716 -0.6724 -2.1186  0.3346
 7831SOL    HW226514   3.457   1.213   7.657 -0.4250 -1.0865  0.5584
 7832SOL     OW26515   0.270   7.082   4.548 -0.4899 -0.2644  0.1923
 7832SOL    HW126516   0.284   7.002   4.599  1.0617 -0.1571 -0.0305
 7832SOL    HW226517   0.312   7.151   4.599  0.5811 -0.0660 -0.9153
 7833SOL     OW26518   3.053   1.186   8.516 -0.4781  0.2955 -0.2141
 7833SOL    HW126519   2.969   1.153   8.483 -0.0020  0.0718 -1.2127
 7833SOL    HW226520   3.048   1.281   8.503 -0.9463  0.3781  0.5782
 7834SOL     OW26521   6.223   2.877   7.546 -0.3685 -0.4738 -0.0533
 7834SOL    HW126522   6.270   2.794   7.531  0.2058 -0.0790 -0.4733
 7834SOL    HW226523   6.273   2.942   7.496 -0.7546  0.1485  0.3642
 7835SOL     OW26524   7.539   0.528   7.909 -0.0212  1.0357  0.5558
 7835SOL    HW126525   7.458   0.526   7.959 -0.4564 -0.2107 -0.1710
 7835SOL    HW226526   7.534   0.608   7.857 -1.5624  0.1023 -0.7506
 7836SOL     OW26527   1.916   2.468   4.236 -0.3033  0.0922  0.0298
 7836SOL    HW126528   1.829   2.428   4.242 -0.1335 -0.1569  0.9767
 7836SOL    HW226529   1.917   2.533   4.307  0.5568 -0.4592  0.5317
 7837SOL     OW26530   2.770   4.634   2.057 -0.7669 -0.2571 -0.1025
 7837SOL    HW126531   2.807   4.547   2.042  0.5945  0.2128  0.4575
 7837SOL    HW226532   2.838   4.694   2.026 -0.2066  0.6489  2.7652
 7838SOL     OW26533   4.944   5.400   3.669  0.3596 -0.3463  0.1878
 7838SOL    HW126534   5.033   5.426   3.646  0.2996  2.0133  2.3652
 7838SOL    HW226535   4.946   5.386   3.763 -1.4850 -0.6637  0.2140
 7839SOL     OW26536   0.931   7.527   8.170  0.5705 -0.5126  0.1400
 7839SOL    HW126537   0.929   7.610   8.123 -0.8667 -1.6907 -1.9475
 7839SOL    HW226538   0.848   7.524   8.218  1.1848 -0.1954  1.2536
 7840SOL     OW26539   5.125   5.103   8.490 -0.0475 -0.2121 -0.2050
 7840SOL    HW126540   5.157   5.023   8.532  1.1935  0.0091 -0.7225
 7840SOL    HW226541   5.195   5.129   8.431 -1.4499 -0.0919 -1.8645
 7841SOL     OW26542   4.932   0.496   7.321 -0.3513 -0.5620  0.2134
 7841SOL    HW126543   4.888   0.515   7.238  2.3175  0.0363 -1.1144
 7841SOL    HW226544   4.918   0.402   7.334  1.5610 -1.2558 -2.3653
 7842SOL     OW26545   4.259   4.231   8.104  0.2507  0.3944  0.1647
 7842SOL    HW126546   4.295   4.314   8.074 -0.0736  0.2343 -0.6847
 7842SOL    HW226547   4.200   4.203   8.034  0.8500 -0.8676  0.1364
 7843SOL     OW26548   5.451   3.647   4.361  0.0116  0.1953 -0.2379
 7843SOL    HW126549   5.447   3.650   4.457  0.4975 -1.5534 -0.1460
 7843SOL    HW226550   5.414   3.730   4.333 -0.1445  0.7219  1.4741
 7844SOL     OW26551   6.315   3.026   0.200  0.1648 -0.4525  0.8708
 7844SOL    HW126552   6.351   3.115   0.194  0.3894 -0.6303 -0.7825
 7844SOL    HW226553   6.240   3.035   0.259 -0.0757  0.9301  0.3951
 7845SOL     OW26554   0.976   7.471   7.135 -0.5761  0.3524 -0.1518
 7845SOL    HW126555   1.010   7.382   7.148  2.8115  1.6014  0.0503
 7845SOL    HW226556   0.949   7.473   7.043 -2.7001 -1.4934  0.3915
 7846SOL     OW26557   1.233   3.049   2.289  0.4615 -0.0386  0.2488
 7846SOL    HW126558   1.140   3.050   2.312  0.3617 -0.6350 -0.1382
 7846SOL    HW226559   1.279   3.044   2.373  0.1234 -0.8534  0.3868
 7847SOL     OW26560   6.405   5.566   1.045 -0.3286  0.1905 -0.3183
 7847SOL    HW126561   6.350   5.500   1.002  0.4202 -1.0149  0.5547
 7847SOL    HW226562   6.365   5.580   1.130  1.2556 -1.4615  0.7441
 7848SOL     OW26563   2.607   1.626   5.869  0.3823  0.4045  0.0174
 7848SOL    HW126564   2.668   1.689   5.831  1.4364 -0.2548  0.5686
 7848SOL    HW226565   2.595   1.560   5.801  1.1346 -0.0209  0.2881
 7849SOL     OW26566   2.547   7.344   1.451 -0.0663 -0.1344 -0.6970
 7849SOL    HW126567   2.453   7.343   1.469  0.3395 -1.8961  1.5122
 7849SOL    HW226568   2.575   7.434   1.472 -1.0180  0.0307 -0.1268
 7850SOL     OW26569   0.646   4.629   7.939 -0.9125 -0.1108 -0.0434
 7850SOL    HW126570   0.703   4.623   7.862 -3.1983 -0.6202 -1.7537
 7850SOL    HW226571   0.706   4.629   8.013  1.4177  1.3357 -1.8470
 7851SOL     OW26572   4.966   1.449   2.441 -0.1983 -0.3335 -0.5567
 7851SOL    HW126573   4.957   1.497   2.523  0.3081 -2.2112  0.6185
 7851SOL    HW226574   4.879   1.412   2.426 -0.7196  1.2803 -1.7102
 7852SOL     OW26575   2.126   1.727   7.141  0.3362 -0.3869 -0.0955
 7852SOL    HW126576   2.113   1.632   7.140 -2.1693 -0.0735  0.0623
 7852SOL    HW226577   2.151   1.747   7.231 -0.0012 -0.8051  0.0954
 7853SOL     OW26578   9.443   1.021   0.860  0.7481  0.2202  0.2052
 7853SOL    HW126579   9.374   1.065   0.909 -1.0290 -1.9216 -0.2453
 7853SOL    HW226580   9.474   0.951   0.918  2.2298  0.8714  0.2210
 7854SOL     OW26581   6.602   9.197   7.909  0.3014  0.7907  0.7000
 7854SOL    HW126582   6.589   9.246   7.990 -2.7823 -2.4895  2.4016
 7854SOL    HW226583   6.623   9.108   7.939 -2.7718 -0.9449 -1.9697
 7855SOL     OW26584   3.742   0.980   8.941 -0.1720 -0.1962 -0.2656
 7855SOL    HW126585   3.825   1.027   8.948 -0.6116  0.6276 -0.6736
 7855SOL    HW226586   3.765   0.890   8.967  1.2753 -0.4595 -2.3222
 7856SOL     OW26587   9.193   5.239   6.574  0.0184  0.3446 -0.2629
 7856SOL    HW126588   9.176   5.329   6.546 -0.9862  0.3118  0.2049
 7856SOL    HW226589   9.106   5.202   6.588  0.4276 -0.6591 -0.3077
 7857SOL     OW26590   1.734   2.414   2.216 -0.0866  0.5291 -0.2012
 7857SOL    HW126591   1.649   2.434   2.255 -0.1670 -0.1372 -0.0179
 7857SOL    HW226592   1.786   2.493   2.228 -0.8543  1.1359 -0.7960
 7858SOL     OW26593   7.429   6.938   1.683  0.9352  0.3038 -0.2755
 7858SOL    HW126594   7.483   6.864   1.657  0.6132  0.1887 -0.6246
 7858SOL    HW226595   7.475   7.015   1.649  1.5600  0.3073  0.5762
 7859SOL     OW26596   9.406   1.807   6.841  0.4979  0.6612 -0.5584
 7859SOL    HW126597   9.482   1.827   6.786  1.5498 -0.6695  0.3637
 7859SOL    HW226598   9.382   1.717   6.818 -0.1575  0.7173 -0.1243
 7860SOL     OW26599   1.728   6.023   0.231 -0.1706  0.1202  0.4733
 7860SOL    HW126600   1.706   5.934   0.260  0.4147 -0.3991 -0.6471
 7860SOL    HW226601   1.778   6.060   0.303  0.5866 -0.8737  0.4626
 7861SOL     OW26602   0.958   0.352   0.227  0.3936  0.7779 -0.5437
 7861SOL    HW126603   0.974   0.295   0.152  0.9711  3.0292 -2.2046
 7861SOL    HW226604   0.939   0.438   0.188 -1.8508  1.4294  1.8062
 7862SOL     OW26605   3.367   9.094   3.025  0.6689  0.2347  0.1657
 7862SOL    HW126606   3.383   9.172   3.079  0.9757 -0.8738  1.7049
 7862SOL    HW226607   3.272   9.083   3.027  0.5639  0.9527 -0.6146
 7863SOL     OW26608   7.285   4.071   8.775  0.1168 -0.8475 -0.0429
 7863SOL    HW126609   7.262   4.054   8.684  1.7391 -0.0812 -0.5919
 7863SOL    HW226610   7.210   4.120   8.809 -0.5721 -1.2849 -0.8948
 7864SOL     OW26611   3.174   3.493   4.447 -0.4750 -0.5165 -0.3023
 7864SOL    HW126612   3.143   3.571   4.400  0.1482  1.3789  2.3625
 7864SOL    HW226613   3.255   3.469   4.401 -1.7002 -0.8389 -2.3884
 7865SOL     OW26614   4.057   4.713   1.681  0.0310 -0.1004  0.3084
 7865SOL    HW126615   4.019   4.751   1.602  1.0853 -1.7103 -1.0070
 7865SOL    HW226616   4.137   4.763   1.696  1.3677 -1.6598 -1.3679
 7866SOL     OW26617   0.707   7.604   2.610  0.0741  0.1103 -0.1336
 7866SOL    HW126618   0.776   7.613   2.544 -0.0384  0.2977 -0.2272
 7866SOL    HW226619   0.656   7.529   2.580  1.5025 -1.3956  1.0974
 7867SOL     OW26620   4.831   5.036   0.941 -0.7547 -0.4010  0.0893
 7867SOL    HW126621   4.763   5.019   1.007  1.1212  0.1812  2.2385
 7867SOL    HW226622   4.805   4.983   0.866 -2.6432 -1.5651  1.5080
 7868SOL     OW26623   3.757   8.273   4.031 -0.3436  0.3478 -0.6092
 7868SOL    HW126624   3.772   8.182   4.007  1.0798  0.7690 -1.3593
 7868SOL    HW226625   3.740   8.271   4.125  0.1468 -0.6215 -0.5389
 7869SOL     OW26626   1.290   3.920   1.064  1.0542 -0.2836 -0.0440
 7869SOL    HW126627   1.364   3.948   1.118  0.4046  1.0884  0.1438
 7869SOL    HW226628   1.315   3.943   0.975  0.0490  1.9409  0.2344
 7870SOL     OW26629   7.033   6.937   0.206 -0.1360 -0.2950  0.3469
 7870SOL    HW126630   6.952   6.940   0.256  0.1910 -2.6736  1.0835
 7870SOL    HW226631   7.034   6.850   0.166  1.7430 -0.0738 -0.1583
 7871SOL     OW26632   9.092   5.696   6.497 -0.0389 -0.7935  0.2445
 7871SOL    HW126633   9.062   5.625   6.441  0.8347  0.1124 -1.3863
 7871SOL    HW226634   9.133   5.652   6.572 -0.0495 -2.0001 -0.4563
 7872SOL     OW26635   2.859   3.763   5.213  0.1442 -0.1036 -0.2511
 7872SOL    HW126636   2.888   3.854   5.219 -0.0728  0.0966 -2.0834
 7872SOL    HW226637   2.932   3.717   5.171 -0.0746 -0.6239 -0.0665
 7873SOL     OW26638   8.771   7.198   8.107  0.2035 -0.3754 -0.3417
 7873SOL    HW126639   8.835   7.184   8.177 -1.4880 -1.8574  0.9455
 7873SOL    HW226640   8.825   7.209   8.028  2.1142  0.9704  1.1008
 7874SOL     OW26641   5.000   3.044   1.730  0.6190  0.4113  0.1675
 7874SOL    HW126642   5.067   3.001   1.783 -0.2551  0.1730  1.0883
 7874SOL    HW226643   5.031   3.033   1.640  0.1434 -2.6841  0.3305
 7875SOL     OW26644   2.498   4.085   2.092 -0.8618  0.5484  0.5229
 7875SOL    HW126645   2.464   4.139   2.163 -0.5092  0.3916  0.8148
 7875SOL    HW226646   2.485   3.995   2.122  2.8582  0.4498  2.1696
 7876SOL     OW26647   0.664   3.887   1.046  0.1039 -0.5555 -0.1811
 7876SOL    HW126648   0.641   3.976   1.018 -1.1726 -0.7762  0.1221
 7876SOL    HW226649   0.718   3.853   0.975  0.6285  0.4731 -0.2846
 7877SOL     OW26650   5.070   2.502   0.099 -0.3833  0.3083  0.3222
 7877SOL    HW126651   5.133   2.539   0.161  0.1561 -0.0754 -0.0010
 7877SOL    HW226652   4.985   2.535   0.130 -0.1368  0.0070  1.3473
 7878SOL     OW26653   0.167   6.852   7.166 -0.2990 -0.1115  0.7007
 7878SOL    HW126654   0.179   6.938   7.205  1.2564 -0.4478  1.0123
 7878SOL    HW226655   0.159   6.868   7.073  0.6305  0.3224  0.6935
 7879SOL     OW26656   2.730   1.522   5.103  0.3541  0.4156  0.0831
 7879SOL    HW126657   2.823   1.546   5.108  0.1444  1.0173  1.3581
 7879SOL    HW226658   2.697   1.538   5.191 -0.7176 -0.8459 -0.0766
 7880SOL     OW26659   2.592   8.343   5.520  0.1161 -0.5303  0.0036
 7880SOL    HW126660   2.518   8.317   5.466  0.3422 -2.1413  0.4441
 7880SOL    HW226661   2.637   8.261   5.541  2.1655  0.4289 -0.4570
 7881SOL     OW26662   9.330   7.409   8.017 -0.3851  0.3333  0.6364
 7881SOL    HW126663   9.244   7.451   8.012 -0.7277 -0.5410 -1.2043
 7881SOL    HW226664   9.382   7.469   8.070 -1.6786  1.6603  0.4673
 7882SOL     OW26665   9.165   7.294   0.605 -0.1170  0.0187  0.3869
 7882SOL    HW126666   9.154   7.280   0.699 -2.1839  1.2363  0.3489
 7882SOL    HW226667   9.187   7.207   0.571  1.9775 -0.1895  2.1411
 7883SOL     OW26668   4.409   0.407   4.668 -0.3597 -0.3569 -0.2642
 7883SOL    HW126669   4.347   0.479   4.662 -0.4500 -0.5205 -1.3436
 7883SOL    HW226670   4.390   0.352   4.592  1.3614 -0.2006 -0.8406
 7884SOL     OW26671   8.630   7.653   6.594  0.3796  0.1078 -0.0152
 7884SOL    HW126672   8.538   7.679   6.588  0.2150 -0.8113 -1.9582
 7884SOL    HW226673   8.677   7.718   6.541  0.6250 -0.4498 -0.4894
 7885SOL     OW26674   2.760   9.230   8.233 -0.0631 -0.4291 -0.4248
 7885SOL    HW126675   2.774   9.162   8.166 -1.2020 -0.5124 -0.5879
 7885SOL    HW226676   2.848   9.258   8.257  0.3571  0.0514 -2.4269
 7886SOL     OW26677   9.142   5.171   6.127  0.2389 -0.2403  0.2449
 7886SOL    HW126678   9.085   5.108   6.083 -0.0033 -0.0988  0.3592
 7886SOL    HW226679   9.214   5.118   6.162  0.1738 -0.4179  0.1111
 7887SOL     OW26680   3.997   5.656   0.825  1.1084  0.6622 -0.2493
 7887SOL    HW126681   3.990   5.647   0.920  3.0356  0.1237 -0.1424
 7887SOL    HW226682   3.937   5.727   0.804  2.1196  2.1215  1.6271
 7888SOL     OW26683   4.935   7.595   2.329  0.0809  0.0189 -0.2062
 7888SOL    HW126684   4.989   7.609   2.407  0.3393 -0.1328 -0.3596
 7888SOL    HW226685   4.967   7.657   2.265  0.4105 -0.4221 -0.4687
 7889SOL     OW26686   3.488   8.559   8.972  0.0941  0.2370  0.0220
 7889SOL    HW126687   3.393   8.551   8.985 -0.0186  1.7633  0.2026
 7889SOL    HW226688   3.526   8.525   9.053 -0.2737 -0.9577 -0.3005
 7890SOL     OW26689   6.189   3.559   7.899  0.1535  0.2008  0.1956
 7890SOL    HW126690   6.177   3.631   7.837 -1.6290 -0.3738 -0.1647
 7890SOL    HW226691   6.188   3.480   7.845  0.7228 -0.1840  0.7389
 7891SOL     OW26692   3.907   3.253   7.059  0.3657 -0.4370  0.0366
 7891SOL    HW126693   3.893   3.226   7.150 -0.2411 -0.9706 -0.2067
 7891SOL    HW226694   3.938   3.174   7.016 -1.5152 -0.7898 -0.7053
 7892SOL     OW26695   5.642   4.889   7.163 -0.0432 -0.0827 -0.4412
 7892SOL    HW126696   5.706   4.871   7.232 -0.9629  1.9814  1.0039
 7892SOL    HW226697   5.566   4.836   7.187  0.1770 -0.5263 -0.7167
 7893SOL     OW26698   2.573   7.421   0.055 -0.7298 -0.4501 -0.5470
 7893SOL    HW126699   2.535   7.500   0.093  0.3781  0.3748 -1.1227
 7893SOL    HW226700   2.601   7.369   0.130 -1.3693 -0.2565 -0.1711
 7894SOL     OW26701   9.087   4.387   8.468  0.0010 -0.3254 -0.0932
 7894SOL    HW126702   9.087   4.435   8.385  0.6381  0.5303  0.3981
 7894SOL    HW226703   9.041   4.306   8.448 -1.6277  0.7292 -0.7959
 7895SOL     OW26704   1.446   9.163   0.214 -0.6307 -0.6407 -0.2980
 7895SOL    HW126705   1.362   9.145   0.256 -1.3749  0.4595 -1.2751
 7895SOL    HW226706   1.423   9.194   0.126  0.7043  1.9119  0.2041
 7896SOL     OW26707   3.478   5.828   7.381  0.4679 -0.0614 -0.0825
 7896SOL    HW126708   3.406   5.870   7.335 -0.5030 -1.5390  0.0401
 7896SOL    HW226709   3.437   5.758   7.432  1.8994 -0.4859  0.5382
 7897SOL     OW26710   7.097   3.520   2.186 -0.2459  0.1181 -0.3850
 7897SOL    HW126711   7.101   3.425   2.172  0.3585  0.3774 -2.0139
 7897SOL    HW226712   7.115   3.558   2.100 -0.7168  1.7161  0.2094
 7898SOL     OW26713   4.861   8.931   2.221 -0.6094  0.1665  0.0583
 7898SOL    HW126714   4.942   8.967   2.258 -0.7957  1.7386 -1.0152
 7898SOL    HW226715   4.791   8.979   2.265 -1.0431 -2.4486  2.2951
 7899SOL     OW26716   6.854   0.393   5.298 -0.2445 -0.7704 -0.0128
 7899SOL    HW126717   6.882   0.485   5.300  0.2989 -0.9339  0.0075
 7899SOL    HW226718   6.894   0.354   5.375  0.6755 -1.3486 -0.7666
 7900SOL     OW26719   0.143   1.382   6.300  0.0394 -0.1302  0.3293
 7900SOL    HW126720   0.238   1.396   6.297 -0.0626  0.7591  1.1120
 7900SOL    HW226721   0.117   1.375   6.209  0.3353  3.2694 -0.0802
 7901SOL     OW26722   1.492   7.949   6.036  0.3145 -0.0424 -0.5842
 7901SOL    HW126723   1.480   7.931   6.129 -3.0587 -2.5213 -1.3839
 7901SOL    HW226724   1.581   7.918   6.017  1.0821  0.6259  1.8116
 7902SOL     OW26725   1.535   5.689   7.171 -0.3171  0.1371  0.0738
 7902SOL    HW126726   1.518   5.667   7.263  0.7006 -1.7051 -0.1401
 7902SOL    HW226727   1.477   5.762   7.153 -0.2074  0.8340  2.3167
 7903SOL     OW26728   4.109   4.275   7.878  0.5452 -0.2525 -0.4551
 7903SOL    HW126729   4.030   4.329   7.868  1.7553  1.5447 -0.5169
 7903SOL    HW226730   4.079   4.186   7.862 -0.8069  0.7513 -3.9249
 7904SOL     OW26731   3.920   4.745   3.063  0.1082 -0.3280  0.2259
 7904SOL    HW126732   4.005   4.749   3.019 -0.7594 -0.7657 -1.5330
 7904SOL    HW226733   3.931   4.676   3.129  1.6344  0.7943  1.1912
 7905SOL     OW26734   9.231   9.296   5.699 -0.4345  0.0155  0.5183
 7905SOL    HW126735   9.144   9.302   5.659 -0.7388  0.1840  1.2006
 7905SOL    HW226736   9.283   9.246   5.636 -0.6923  0.9707 -0.4656
 7906SOL     OW26737   5.752   5.905   5.637 -0.0372  0.2931  0.0027
 7906SOL    HW126738   5.691   5.835   5.614  2.7296 -1.7554 -1.3256
 7906SOL    HW226739   5.837   5.862   5.643  1.4345  3.2240  1.0182
 7907SOL     OW26740   9.259   1.802   5.687 -0.0325 -0.4744  0.3155
 7907SOL    HW126741   9.264   1.791   5.592  0.5687  0.4577  0.2320
 7907SOL    HW226742   9.330   1.748   5.721 -0.3719 -0.9624  0.2476
 7908SOL     OW26743   9.108   5.153   5.134 -0.3605 -0.0781 -0.2136
 7908SOL    HW126744   9.053   5.207   5.190  0.3990 -2.0093  2.5142
 7908SOL    HW226745   9.047   5.100   5.083 -1.0475  0.2854  0.2369
 7909SOL     OW26746   5.167   3.379   4.953  0.0996  0.6451 -0.5609
 7909SOL    HW126747   5.103   3.313   4.979  0.3707  0.6095  0.0181
 7909SOL    HW226748   5.132   3.415   4.871 -0.3092  0.1493 -0.6071
 7910SOL     OW26749   6.878   0.840   1.845 -0.0186  0.8538 -0.0520
 7910SOL    HW126750   6.865   0.745   1.851  1.8970  0.6166  0.6578
 7910SOL    HW226751   6.807   0.870   1.788 -1.8201 -0.7271  1.2914
 7911SOL     OW26752   8.965   2.443   0.647 -0.0222  0.2300 -0.1076
 7911SOL    HW126753   8.905   2.371   0.630  1.1710 -0.5093 -1.3594
 7911SOL    HW226754   9.046   2.401   0.674 -0.1304  1.2272  1.7879
 7912SOL     OW26755   7.392   9.014   5.884  0.1017 -0.1701 -0.0054
 7912SOL    HW126756   7.389   8.989   5.976  0.0931  0.2713  0.1196
 7912SOL    HW226757   7.485   9.010   5.861  0.0531 -0.7215 -0.1048
 7913SOL     OW26758   9.203   5.599   1.769 -0.3062 -0.0572  0.0966
 7913SOL    HW126759   9.182   5.529   1.708 -0.1969 -0.1701  0.1897
 7913SOL    HW226760   9.133   5.597   1.834 -1.3932  1.2026 -1.0056
 7914SOL     OW26761   1.393   9.394   7.130 -0.1116  0.3340  0.5350
 7914SOL    HW126762   1.323   9.458   7.118 -0.7984 -0.2839  1.1986
 7914SOL    HW226763   1.447   9.430   7.201 -1.4602 -0.6275  2.0789
 7915SOL     OW26764   6.461   1.585   8.470  0.1480 -0.2300  0.7912
 7915SOL    HW126765   6.512   1.633   8.405  0.8999 -3.1610 -0.8543
 7915SOL    HW226766   6.526   1.549   8.530 -0.1144 -2.1500 -0.0485
 7916SOL     OW26767   5.521   0.793   9.428  0.0305  1.0395 -0.2137
 7916SOL    HW126768   5.436   0.749   9.437  0.4616 -0.1593 -1.8893
 7916SOL    HW226769   5.566   0.776   9.511 -0.0221 -1.2143 -0.6352
 7917SOL     OW26770   2.910   6.137   3.073 -0.2176 -0.1758  0.6450
 7917SOL    HW126771   2.828   6.094   3.047  0.4666 -1.1336  0.0543
 7917SOL    HW226772   2.937   6.091   3.152  1.4296 -2.0610 -0.9481
 7918SOL     OW26773   0.603   2.385   2.580 -0.3005  0.2042  0.1062
 7918SOL    HW126774   0.697   2.366   2.580 -0.7363 -1.9877  0.0771
 7918SOL    HW226775   0.585   2.415   2.491  0.3518  0.5713  0.0947
 7919SOL     OW26776   5.407   4.744   9.294  0.2931 -0.1002  0.3690
 7919SOL    HW126777   5.460   4.665   9.294 -0.1157 -0.4111 -1.8214
 7919SOL    HW226778   5.359   4.742   9.377  1.1392 -1.5637  0.8153
 7920SOL     OW26779   3.905   5.062   1.503  0.7145  0.2374 -0.4495
 7920SOL    HW126780   3.905   4.971   1.473  0.1447  0.2626 -0.5235
 7920SOL    HW226781   3.900   5.055   1.599  2.7168  0.1527 -0.3093
 7921SOL     OW26782   3.602   7.898   1.431  0.0061  0.4618 -0.2144
 7921SOL    HW126783   3.545   7.869   1.503  2.0370  0.1829  1.3344
 7921SOL    HW226784   3.689   7.869   1.457  1.0148  1.7476 -2.0803
 7922SOL     OW26785   8.530   1.312   5.466  0.4723  0.2467 -0.4938
 7922SOL    HW126786   8.568   1.268   5.389  1.7788  1.1615 -0.3880
 7922SOL    HW226787   8.446   1.268   5.479 -0.0893  0.5414 -2.8584
 7923SOL     OW26788   2.527   3.165   6.566 -0.1774  0.3555  0.1752
 7923SOL    HW126789   2.511   3.240   6.624 -2.4532  0.2158 -0.2297
 7923SOL    HW226790   2.516   3.088   6.623 -0.2471  0.2708  0.0469
 7924SOL     OW26791   8.098   5.042   4.354 -0.3636  0.1423 -0.1980
 7924SOL    HW126792   8.049   5.086   4.423 -0.3972  1.0857 -0.8139
 7924SOL    HW226793   8.066   4.951   4.356 -0.6326  0.2519  0.7644
 7925SOL     OW26794   6.472   5.357   1.335 -0.0485  0.4285 -0.3542
 7925SOL    HW126795   6.405   5.294   1.362  0.6582  0.0594  0.5509
 7925SOL    HW226796   6.429   5.442   1.344  0.8589  0.5318  4.2600
 7926SOL     OW26797   0.029   4.021   7.108 -0.0240 -0.0326 -0.4474
 7926SOL    HW126798   0.097   4.015   7.175  0.3204 -1.3707 -0.9116
 7926SOL    HW226799  -0.017   3.938   7.113 -0.3213  0.0604 -1.5380
 7927SOL     OW26800   8.072   9.059   8.795 -0.7962 -0.2209  0.2084
 7927SOL    HW126801   7.995   9.005   8.775 -2.0584  1.4549  0.3877
 7927SOL    HW226802   8.037   9.148   8.802  1.0940  0.4926  0.8197
 7928SOL     OW26803   6.443   7.207   6.007 -0.3543 -0.1150 -0.2549
 7928SOL    HW126804   6.413   7.261   5.934  1.3773 -0.0958 -0.9690
 7928SOL    HW226805   6.502   7.144   5.967  0.5840 -0.1221  1.1318
 7929SOL     OW26806   6.677   4.404   5.152  0.2002  0.2437  0.1007
 7929SOL    HW126807   6.721   4.369   5.230 -0.1034 -1.8979 -0.6489
 7929SOL    HW226808   6.585   4.410   5.177  0.1666 -0.0316  0.0383
 7930SOL     OW26809   4.663   8.367   7.892 -0.4789  0.6362  0.2876
 7930SOL    HW126810   4.610   8.447   7.885  0.4881  1.2131 -0.5168
 7930SOL    HW226811   4.689   8.348   7.802  1.1679  0.6790  0.7515
 7931SOL     OW26812   2.042   3.071   5.365  0.3780  0.0101 -0.0284
 7931SOL    HW126813   2.000   3.157   5.358  2.5177  1.1237  0.5584
 7931SOL    HW226814   2.105   3.080   5.437  3.4714 -0.8378 -2.5134
 7932SOL     OW26815   1.203   3.181   3.225  0.2166 -0.3931  0.2029
 7932SOL    HW126816   1.120   3.207   3.184  0.1877 -2.2307 -0.9797
 7932SOL    HW226817   1.185   3.096   3.264  1.8053 -1.3244 -0.9985
 7933SOL     OW26818   4.320   0.493   1.307  0.1563 -0.5293 -0.1215
 7933SOL    HW126819   4.314   0.541   1.389 -0.1275  0.7289 -0.8549
 7933SOL    HW226820   4.371   0.415   1.328  1.7294  0.7223  0.8290
 7934SOL     OW26821   5.747   1.541   1.036 -0.2960 -0.3398  0.1656
 7934SOL    HW126822   5.760   1.609   1.102 -0.1015 -1.4943  1.3403
 7934SOL    HW226823   5.834   1.529   0.997  0.2093 -1.5394  1.5922
 7935SOL     OW26824   0.020   4.789   8.656  0.0907  0.6834  0.2740
 7935SOL    HW126825  -0.061   4.787   8.604 -0.1262  1.4207  0.5755
 7935SOL    HW226826  -0.004   4.833   8.737 -0.2291 -2.8107  2.1918
 7936SOL     OW26827   0.559   6.031   6.786  0.6475 -0.1558 -0.0900
 7936SOL    HW126828   0.614   5.956   6.806  0.4804  0.0593  1.2034
 7936SOL    HW226829   0.619   6.098   6.756  0.8805 -0.5373 -0.4882
 7937SOL     OW26830   9.298   7.072   0.481  0.1686  0.0345 -0.1887
 7937SOL    HW126831   9.362   7.096   0.414 -0.3009  1.7035 -0.0732
 7937SOL    HW226832   9.278   6.980   0.463  1.6752 -0.1675 -0.9779
 7938SOL     OW26833   3.064   0.473   5.677 -0.1542  0.2796  0.3987
 7938SOL    HW126834   2.971   0.475   5.655 -0.5277  0.9345  1.9555
 7938SOL    HW226835   3.070   0.516   5.762  1.6475  0.6616  0.1081
 7939SOL     OW26836   3.875   7.829   5.067 -0.7368  0.0821 -0.3449
 7939SOL    HW126837   3.841   7.865   4.985 -1.3412 -1.1592 -0.6518
 7939SOL    HW226838   3.958   7.788   5.043 -0.2704  0.8722 -0.0831
 7940SOL     OW26839   9.258   0.380   6.765  0.7608  0.3897  0.0603
 7940SOL    HW126840   9.282   0.288   6.771  1.5579  0.6446  0.9426
 7940SOL    HW226841   9.322   0.417   6.703 -2.0404 -0.4427 -3.5281
 7941SOL     OW26842   7.919   1.368   5.605 -0.3977 -0.0764 -0.1716
 7941SOL    HW126843   7.930   1.279   5.569  2.0283  0.3637 -0.5814
 7941SOL    HW226844   7.953   1.362   5.694 -0.0132  0.4977 -0.2799
 7942SOL     OW26845   3.970   2.646   0.974  1.3617  0.3493  0.3645
 7942SOL    HW126846   3.936   2.647   1.063 -0.2833  0.1811 -0.2519
 7942SOL    HW226847   4.004   2.557   0.963 -0.0011 -0.1725  0.2533
 7943SOL     OW26848   6.509   9.014   3.029 -0.0731 -0.4604  0.6517
 7943SOL    HW126849   6.558   8.933   3.016  2.1458  0.9599 -0.1754
 7943SOL    HW226850   6.551   9.054   3.105 -1.0337  0.0017  0.9346
 7944SOL     OW26851   7.339   6.776   2.350  0.3484  0.3053 -0.0943
 7944SOL    HW126852   7.350   6.736   2.437 -1.0085 -0.1570 -0.1218
 7944SOL    HW226853   7.257   6.739   2.317  0.2881  1.3270 -1.1172
 7945SOL     OW26854   5.043   0.642   0.276  0.1916  0.2998 -0.2096
 7945SOL    HW126855   5.071   0.552   0.293  0.5865  0.2166 -1.2510
 7945SOL    HW226856   5.017   0.676   0.362 -0.5146 -0.9901  0.1019
 7946SOL     OW26857   0.997   8.303   4.939 -0.1417  0.3657 -0.0804
 7946SOL    HW126858   0.983   8.219   4.894  0.7274 -0.0963  0.4888
 7946SOL    HW226859   1.036   8.359   4.872  0.6886 -0.1691 -0.0600
 7947SOL     OW26860   6.468   8.566   1.166  0.6107  0.4492 -0.7216
 7947SOL    HW126861   6.427   8.569   1.080  0.0915 -0.9043 -0.5308
 7947SOL    HW226862   6.422   8.633   1.217  0.7713  1.0992 -1.4237
 7948SOL     OW26863   7.833   3.983   2.929 -0.5685  0.4551 -0.1555
 7948SOL    HW126864   7.781   3.965   3.008  0.6666 -0.0051  0.5544
 7948SOL    HW226865   7.773   3.963   2.857 -0.8378 -1.7340  0.6400
 7949SOL     OW26866   5.811   6.122   4.450  0.2980 -0.1390 -0.6058
 7949SOL    HW126867   5.761   6.047   4.482  0.6236 -0.1428 -0.1010
 7949SOL    HW226868   5.900   6.106   4.481  0.0354  1.2763  0.9218
 7950SOL     OW26869   8.926   2.108   4.454 -0.2304 -0.5437 -0.2263
 7950SOL    HW126870   8.846   2.146   4.417 -1.2766 -0.8734  1.6074
 7950SOL    HW226871   8.914   2.114   4.548  0.7086 -3.0598  0.1014
 7951SOL     OW26872   4.337   5.125   0.518 -0.5913  0.3861 -0.2498
 7951SOL    HW126873   4.299   5.206   0.482 -0.0035  0.9124  0.2916
 7951SOL    HW226874   4.355   5.071   0.442 -2.0817  0.2748 -0.5532
 7952SOL     OW26875   2.884   2.629   0.634  0.7364  0.4158 -0.0152
 7952SOL    HW126876   2.961   2.573   0.650 -0.9379 -1.4989  1.6079
 7952SOL    HW226877   2.863   2.666   0.719 -1.0927 -0.3389 -0.1198
 7953SOL     OW26878   6.230   1.060   9.116 -0.6815 -0.4831 -0.6766
 7953SOL    HW126879   6.173   1.131   9.088  0.3060  0.0177 -1.4271
 7953SOL    HW226880   6.210   0.988   9.056 -1.6809 -0.8600  0.0832
 7954SOL     OW26881   5.628   2.381   6.805 -0.0726  0.3249 -0.0196
 7954SOL    HW126882   5.552   2.381   6.748 -0.1445  2.0925  0.0359
 7954SOL    HW226883   5.699   2.348   6.751 -0.4352  0.6929 -0.7220
 7955SOL     OW26884   3.915   6.376   4.326 -0.0592 -0.4332 -0.0449
 7955SOL    HW126885   3.840   6.379   4.385 -1.5349  0.0980 -1.9060
 7955SOL    HW226886   3.911   6.459   4.278  1.1888 -0.7915 -0.7928
 7956SOL     OW26887   3.053   4.813   4.763  0.2360 -0.1748 -0.3091
 7956SOL    HW126888   3.097   4.831   4.847 -2.7136 -1.9044  1.7268
 7956SOL    HW226889   2.986   4.881   4.757  0.5161  0.0082 -1.3448
 7957SOL     OW26890   2.254   6.941   5.629 -0.4557 -0.0292 -0.9049
 7957SOL    HW126891   2.221   6.953   5.540 -2.1535  0.0974 -0.2748
 7957SOL    HW226892   2.269   7.031   5.660  1.2973 -0.1057 -1.4645
 7958SOL     OW26893   4.909   4.249   6.025  0.0460 -0.6339  0.0480
 7958SOL    HW126894   4.830   4.198   6.007 -0.1747 -0.1172 -0.4634
 7958SOL    HW226895   4.982   4.192   6.000 -0.1685 -1.0918  0.4762
 7959SOL     OW26896   0.072   2.879   1.552  0.1739  0.0185 -0.0532
 7959SOL    HW126897   0.156   2.903   1.513 -0.3700  1.3111 -0.4462
 7959SOL    HW226898   0.064   2.936   1.628 -0.3300 -0.1557  0.0236
 7960SOL     OW26899   8.904   6.920   0.814  0.0288 -0.2964  0.2589
 7960SOL    HW126900   8.967   6.903   0.883  0.9012 -0.7224 -0.6370
 7960SOL    HW226901   8.842   6.847   0.818 -0.3838  0.0869  1.0868
 7961SOL     OW26902   2.635   2.252   3.990 -0.4332  0.4052  0.0607
 7961SOL    HW126903   2.578   2.187   3.949  1.4051 -0.0782 -1.7965
 7961SOL    HW226904   2.580   2.330   3.999 -1.2424  0.1210 -2.1769
 7962SOL     OW26905   5.503   8.641   3.652 -0.3356 -0.2394 -0.4343
 7962SOL    HW126906   5.416   8.600   3.649 -0.8916  0.5957  2.4642
 7962SOL    HW226907   5.564   8.567   3.659 -0.9941 -0.7316  0.1698
 7963SOL     OW26908   2.775   1.170   7.838 -0.0802 -0.1864  0.0593
 7963SOL    HW126909   2.869   1.149   7.834 -0.0823 -0.1426 -0.2723
 7963SOL    HW226910   2.756   1.177   7.931 -0.0402 -1.4578  0.1779
 7964SOL     OW26911   8.408   5.865   5.597 -0.5037  0.1319 -0.2276
 7964SOL    HW126912   8.387   5.958   5.606  1.3576  0.6341 -0.8358
 7964SOL    HW226913   8.348   5.821   5.658  1.7041  2.1299  3.6144
 7965SOL     OW26914   7.245   9.277   6.695  0.2488 -0.3308  0.0245
 7965SOL    HW126915   7.238   9.199   6.751 -0.5094  0.4067  0.9786
 7965SOL    HW226916   7.178   9.336   6.729  1.8082  1.3249  0.2265
 7966SOL     OW26917   3.603   2.854   1.221 -0.0489  0.2185  0.1991
 7966SOL    HW126918   3.685   2.816   1.254  0.2562  0.9477  0.2893
 7966SOL    HW226919   3.621   2.873   1.129 -0.3640 -0.3087  0.0283
 7967SOL     OW26920   7.673   1.330   5.040 -0.7613 -0.1830 -0.4483
 7967SOL    HW126921   7.671   1.288   5.126 -0.4560 -0.9769 -0.8258
 7967SOL    HW226922   7.590   1.305   5.000 -0.6608 -0.2670 -0.6026
 7968SOL     OW26923   3.532   4.479   1.273 -0.4372 -0.0224  0.0043
 7968SOL    HW126924   3.543   4.407   1.336 -1.0325  1.0626  1.3802
 7968SOL    HW226925   3.592   4.546   1.304 -1.0721  0.6993 -0.3183
 7969SOL     OW26926   1.017   2.705   3.605 -0.1449  0.2464 -0.0955
 7969SOL    HW126927   1.058   2.627   3.641  0.7989  0.4362 -0.7474
 7969SOL    HW226928   1.080   2.775   3.622 -1.1311  0.9404  0.7978
 7970SOL     OW26929   6.072   7.603   3.064  0.0269 -0.1010  0.0293
 7970SOL    HW126930   6.158   7.572   3.095  0.6597  0.0583 -1.5069
 7970SOL    HW226931   6.093   7.676   3.006 -1.0633 -0.7970 -1.2681
 7971SOL     OW26932   4.196   4.853   4.648 -0.1349  0.3843 -0.6827
 7971SOL    HW126933   4.262   4.811   4.703  1.7037  2.4993 -1.1681
 7971SOL    HW226934   4.159   4.782   4.596  0.9688 -1.0299  0.4010
 7972SOL     OW26935   3.112   2.037   7.487 -0.3868 -0.4038 -0.2317
 7972SOL    HW126936   3.121   2.006   7.577 -2.8553 -0.8772 -0.0989
 7972SOL    HW226937   3.149   1.967   7.434  0.8713 -0.2249  0.3797
 7973SOL     OW26938   8.851   8.745   1.592 -0.2830  0.0857 -0.6446
 7973SOL    HW126939   8.791   8.691   1.645  0.6091  0.2246  0.5180
 7973SOL    HW226940   8.853   8.701   1.507 -0.4021 -1.1174 -0.0390
 7974SOL     OW26941   4.625   0.791   4.651  0.3088 -0.1645  0.5079
 7974SOL    HW126942   4.683   0.747   4.588 -1.0241 -2.1714  0.6167
 7974SOL    HW226943   4.569   0.846   4.597  0.0008 -0.9250  0.0362
 7975SOL     OW26944   3.728   3.681   6.707 -0.4077 -0.5733  0.3190
 7975SOL    HW126945   3.660   3.743   6.735 -1.1989 -0.9906 -0.6446
 7975SOL    HW226946   3.681   3.600   6.690  0.7902 -1.8067  2.6986
 7976SOL     OW26947   1.787   7.231   2.632  0.8407  0.0435 -0.4729
 7976SOL    HW126948   1.708   7.180   2.649  1.0993 -0.7537 -1.6225
 7976SOL    HW226949   1.824   7.193   2.553  0.3349  2.8303 -2.1344
 7977SOL     OW26950   5.912   0.976   2.644 -0.3648  0.4748 -0.7056
 7977SOL    HW126951   5.922   0.895   2.595  0.3027  0.8613 -1.2175
 7977SOL    HW226952   5.864   0.951   2.723  2.5129 -0.9998  0.6437
 7978SOL     OW26953   0.332   3.494   8.243 -0.1072 -0.6060  0.2610
 7978SOL    HW126954   0.285   3.486   8.327 -1.9371 -0.5406 -0.7328
 7978SOL    HW226955   0.364   3.405   8.226 -1.2504 -1.0217  0.1884
 7979SOL     OW26956   3.139   4.589   4.073 -0.0244 -0.0598 -1.1082
 7979SOL    HW126957   3.172   4.679   4.066 -3.6011  1.5689  0.9999
 7979SOL    HW226958   3.196   4.548   4.138  1.0882  0.9989 -1.3952
 7980SOL     OW26959   7.295   6.925   4.720 -0.1189  0.6421  0.4939
 7980SOL    HW126960   7.335   6.892   4.639 -0.0144  1.2885  0.2776
 7980SOL    HW226961   7.340   6.878   4.789 -1.2473 -1.0038  0.1231
 7981SOL     OW26962   0.032   0.897   9.350  0.3094  0.1801  0.4476
 7981SOL    HW126963   0.068   0.815   9.383  1.6862  1.0228  1.0709
 7981SOL    HW226964  -0.031   0.870   9.284 -0.3561 -1.4380  1.6889
 7982SOL     OW26965   7.832   8.581   5.869 -0.2150  0.2296  0.1134
 7982SOL    HW126966   7.810   8.560   5.960 -1.6720  1.5468  0.0839
 7982SOL    HW226967   7.919   8.621   5.874 -0.1675  0.0405  0.9017
 7983SOL     OW26968   8.421   8.067   2.006 -0.2021  0.5136  0.1628
 7983SOL    HW126969   8.436   8.037   2.096  1.0987 -1.3011 -0.6279
 7983SOL    HW226970   8.450   8.159   2.007  1.0548  0.1312  1.2750
 7984SOL     OW26971   6.342   2.331   4.339 -0.6590  0.5903  0.0742
 7984SOL    HW126972   6.250   2.339   4.314 -0.9535 -1.1284  0.5393
 7984SOL    HW226973   6.343   2.262   4.405  0.9584  0.6634  0.1489
 7985SOL     OW26974   8.175   1.648   3.242  0.3133  0.7402  0.6909
 7985SOL    HW126975   8.253   1.679   3.195  1.2895  0.4471  2.0931
 7985SOL    HW226976   8.176   1.695   3.325 -1.2274  1.0185  0.5771
 7986SOL     OW26977   3.006   8.856   5.981  1.1297 -0.0484  0.1861
 7986SOL    HW126978   2.965   8.903   6.053 -0.0715  2.9149 -2.3291
 7986SOL    HW226979   3.100   8.860   6.000  0.9429  2.1328  0.7520
 7987SOL     OW26980   4.786   0.926   6.041  0.2403  0.3325  0.7535
 7987SOL    HW126981   4.714   0.907   5.980 -0.3012  1.1497  1.1252
 7987SOL    HW226982   4.769   1.015   6.072  2.3743  1.1907 -0.4531
 7988SOL     OW26983   5.091   4.662   3.202 -0.1381 -0.0591  0.0100
 7988SOL    HW126984   5.046   4.579   3.220 -0.6385  0.4221  0.9707
 7988SOL    HW226985   5.027   4.715   3.155 -0.7570  0.8067  1.8018
 7989SOL     OW26986   1.854   3.097   2.869  0.5544  0.5415  0.2329
 7989SOL    HW126987   1.775   3.049   2.894 -0.9558  0.5856 -4.0710
 7989SOL    HW226988   1.902   3.035   2.814  2.7386  1.1145  1.4496
 7990SOL     OW26989   6.880   7.281   6.032 -0.2218 -0.0506  0.5438
 7990SOL    HW126990   6.926   7.204   5.998 -0.0380  0.3700 -0.1687
 7990SOL    HW226991   6.919   7.297   6.118 -0.7759 -1.1981  1.0153
 7991SOL     OW26992   4.848   8.761   4.402 -0.3244  1.0724 -0.2104
 7991SOL    HW126993   4.782   8.695   4.383  1.2415 -0.0888 -1.7261
 7991SOL    HW226994   4.892   8.729   4.481 -0.6053  1.1353 -0.0240
 7992SOL     OW26995   5.601   1.476   8.708 -0.0463 -0.5159 -0.6836
 7992SOL    HW126996   5.611   1.443   8.618  0.9303 -2.0242 -0.0366
 7992SOL    HW226997   5.656   1.554   8.711 -2.1359  1.0389 -2.1475
 7993SOL     OW26998   3.191   7.149   5.711  0.1703 -0.3815 -0.2506
 7993SOL    HW126999   3.166   7.173   5.800 -2.2542 -1.3902 -0.6273
 7993SOL    HW227000   3.284   7.171   5.706 -0.5735  3.5837  1.2078
 7994SOL     OW27001   7.338   2.075   5.791 -0.1410 -0.5884 -0.4070
 7994SOL    HW127002   7.258   2.070   5.738  0.4574  0.1335 -1.3772
 7994SOL    HW227003   7.359   2.168   5.794  1.3835 -0.9061 -1.2194
 7995SOL     OW27004   5.085   3.809   5.982  0.0573 -0.3127  0.1291
 7995SOL    HW127005   5.054   3.777   6.067  1.0291 -1.4362  0.0764
 7995SOL    HW227006   5.051   3.744   5.919 -1.3855  0.9725 -0.4544
 7996SOL     OW27007   0.174   8.651   8.558 -0.0275 -0.1584  0.1753
 7996SOL    HW127008   0.149   8.617   8.472  0.3811 -2.8018  1.0606
 7996SOL    HW227009   0.264   8.621   8.570  0.5020  1.6254  0.8354
 7997SOL     OW27010   2.571   4.402   9.394  0.1123  0.1935 -0.0560
 7997SOL    HW127011   2.630   4.349   9.340  1.7321  1.1107  0.7828
 7997SOL    HW227012   2.586   4.370   9.483 -0.4148  0.6718  0.2055
 7998SOL     OW27013   0.574   3.020   3.044 -0.1257 -0.2817 -0.6459
 7998SOL    HW127014   0.485   2.986   3.040 -0.3061 -0.2260  2.1310
 7998SOL    HW227015   0.612   2.980   3.122  2.0405  0.2899 -1.3691
 7999SOL     OW27016   4.626   5.393   2.601  0.0015 -0.1285  0.5662
 7999SOL    HW127017   4.694   5.371   2.663  0.8829 -0.4432 -0.4934
 7999SOL    HW227018   4.545   5.391   2.652  0.4655 -2.3797  1.2734
 8000SOL     OW27019   2.122   8.117   4.612  0.0467  0.1749  0.6949
 8000SOL    HW127020   2.044   8.094   4.561  1.0835  0.7301 -1.2002
 8000SOL    HW227021   2.191   8.060   4.577  0.4303 -0.6278  2.6596
 8001SOL     OW27022   3.452   4.098   4.180 -0.1297  0.1660 -0.3500
 8001SOL    HW127023   3.383   4.157   4.207 -0.1960 -0.3973  0.7439
 8001SOL    HW227024   3.519   4.155   4.141 -0.5339  0.8700 -0.0179
 8002SOL     OW27025   2.102   1.342   7.470 -0.0738  0.7097 -0.4896
 8002SOL    HW127026   2.016   1.366   7.438 -0.6441  0.0682  0.5337
 8002SOL    HW227027   2.114   1.395   7.549  0.5413  0.9170 -0.7178
 8003SOL     OW27028   2.174   7.745   8.012  0.3031  0.0898 -0.1867
 8003SOL    HW127029   2.114   7.799   7.960 -0.2808 -0.6337 -0.2731
 8003SOL    HW227030   2.127   7.731   8.095  0.5183 -0.1603 -0.1085
 8004SOL     OW27031   3.681   4.966   6.017  0.2675  0.4224  0.3913
 8004SOL    HW127032   3.596   5.010   6.014 -0.5144 -1.1180 -0.6808
 8004SOL    HW227033   3.735   5.015   5.954  0.0173  1.0831  0.6886
 8005SOL     OW27034   2.657   9.430   4.272  0.2569 -0.0504  0.3930
 8005SOL    HW127035   2.735   9.408   4.323  0.2432  0.0014  0.4360
 8005SOL    HW227036   2.685   9.418   4.181 -0.0804 -1.3207  0.4493
 8006SOL     OW27037   5.532   8.253   2.055 -0.2725  0.0122 -0.0057
 8006SOL    HW127038   5.600   8.320   2.056  1.4951 -1.7309  1.4543
 8006SOL    HW227039   5.580   8.171   2.068 -2.6844 -1.2568  1.0699
 8007SOL     OW27040   7.676   6.224   7.373 -0.3863  0.7046  0.1432
 8007SOL    HW127041   7.697   6.137   7.408  2.0062  0.2948 -2.2186
 8007SOL    HW227042   7.581   6.221   7.359 -0.4312 -1.3009  0.6547
 8008SOL     OW27043   6.519   6.994   9.427  0.0959 -0.3143 -0.1700
 8008SOL    HW127044   6.531   7.069   9.484 -0.6576  0.2001 -0.6700
 8008SOL    HW227045   6.464   6.934   9.478  0.6474 -0.5020  0.2058
 8009SOL     OW27046   5.930   5.704   4.291  0.9584 -0.1288  0.0376
 8009SOL    HW127047   6.011   5.734   4.249  0.2674  0.2762 -1.0225
 8009SOL    HW227048   5.906   5.775   4.351  2.1838 -0.8975  1.4899
 8010SOL     OW27049   1.654   0.028   8.552 -0.6998 -0.2294 -0.1372
 8010SOL    HW127050   1.594   0.054   8.622 -0.0964 -0.3740  0.4394
 8010SOL    HW227051   1.615  -0.051   8.515 -1.8750  0.7574 -1.0521
 8011SOL     OW27052   0.598   5.898   8.615  0.1816  0.1804 -0.1333
 8011SOL    HW127053   0.586   5.992   8.627 -0.2738  0.2251 -0.8799
 8011SOL    HW227054   0.518   5.858   8.649  0.6863  0.0108  0.8533
 8012SOL     OW27055   5.286   4.167   3.178 -0.1192 -0.7333  0.1252
 8012SOL    HW127056   5.204   4.212   3.159  0.2827 -0.5823 -1.3292
 8012SOL    HW227057   5.282   4.088   3.123  0.7855 -0.6242 -0.0941
 8013SOL     OW27058   3.762   0.396   1.669  0.5382  0.2640 -0.3892
 8013SOL    HW127059   3.784   0.303   1.680  1.3824  0.4690 -0.3605
 8013SOL    HW227060   3.669   0.401   1.693  0.4997 -0.5659 -0.3516
 8014SOL     OW27061   5.521   8.253   3.195 -0.0697 -0.6002  0.0804
 8014SOL    HW127062   5.545   8.337   3.234  2.9804 -2.5177  2.6569
 8014SOL    HW227063   5.566   8.253   3.110  1.6217 -0.4279  0.9542
 8015SOL     OW27064   7.367   5.130   0.666 -0.1091 -0.0165 -0.0218
 8015SOL    HW127065   7.373   5.224   0.649  0.4543  0.6168  3.2793
 8015SOL    HW227066   7.451   5.094   0.637 -0.1076  0.6001 -0.7714
 8016SOL     OW27067   1.317   1.206   8.579 -0.7587  0.8097  0.0079
 8016SOL    HW127068   1.279   1.224   8.665  0.7720  1.1198  0.6301
 8016SOL    HW227069   1.407   1.237   8.586 -0.4832  0.3761 -1.5535
 8017SOL     OW27070   6.988   2.245   4.565  0.0073 -0.4845 -0.0025
 8017SOL    HW127071   7.037   2.263   4.484 -1.5207  1.5845 -0.5013
 8017SOL    HW227072   6.929   2.320   4.575 -1.3703 -1.7646  1.8723
 8018SOL     OW27073   8.480   0.936   1.977  0.5607 -0.0683 -0.4672
 8018SOL    HW127074   8.432   0.940   2.060 -0.3752  0.0620 -1.0020
 8018SOL    HW227075   8.511   0.845   1.972 -0.9938 -0.5903 -0.8561
 8019SOL     OW27076   7.291   0.982   4.002  0.0521  0.1371  0.2334
 8019SOL    HW127077   7.230   1.026   4.060 -0.6619  1.8849 -1.7648
 8019SOL    HW227078   7.309   0.898   4.044 -3.3802 -0.2364  1.0716
 8020SOL     OW27079   5.119   9.197   6.451  0.0785  0.0291  0.5993
 8020SOL    HW127080   5.158   9.160   6.371 -1.7251 -0.1740 -0.2080
 8020SOL    HW227081   5.194   9.224   6.503  1.2787  0.8377 -1.4909
 8021SOL     OW27082   4.817   5.140   4.674  0.6539 -0.2523  0.1495
 8021SOL    HW127083   4.837   5.193   4.598 -0.7973  0.0390 -0.0330
 8021SOL    HW227084   4.816   5.202   4.747 -4.8527  0.7634 -0.5773
 8022SOL     OW27085   2.711   7.908   0.030 -0.4985  0.2730  0.0781
 8022SOL    HW127086   2.708   7.941  -0.060 -0.8649 -0.6904 -0.2694
 8022SOL    HW227087   2.716   7.987   0.084  0.8029  0.8308 -0.8268
 8023SOL     OW27088   3.138   8.506   8.738 -0.4297 -0.2905  0.7063
 8023SOL    HW127089   3.080   8.574   8.704 -0.1104 -0.4557 -0.1787
 8023SOL    HW227090   3.094   8.424   8.716  1.5317 -0.5238 -2.6485
 8024SOL     OW27091   6.295   5.171   0.167  0.4265 -0.6654  0.0202
 8024SOL    HW127092   6.335   5.084   0.162 -1.7210 -1.7885  1.4673
 8024SOL    HW227093   6.368   5.232   0.155  2.2712 -2.6614  0.7786
 8025SOL     OW27094   8.658   1.315   6.381 -0.0758  0.2866 -0.4165
 8025SOL    HW127095   8.752   1.318   6.399 -0.1005  0.5760 -0.3348
 8025SOL    HW227096   8.620   1.376   6.444 -0.3150  0.1976 -0.4763
 8026SOL     OW27097   7.258   8.539   8.886  0.1715 -0.4952  0.5093
 8026SOL    HW127098   7.307   8.570   8.810  0.7831 -0.2519  0.9971
 8026SOL    HW227099   7.286   8.596   8.957 -4.4790  2.9526 -0.1844
 8027SOL     OW27100   6.066   0.992   3.664 -0.5710  0.0055 -0.2575
 8027SOL    HW127101   6.095   1.080   3.688 -1.0194  0.7321 -2.2955
 8027SOL    HW227102   5.975   0.988   3.692 -0.5356  0.1535 -0.1198
 8028SOL     OW27103   5.615   1.883   5.108  0.1849  0.1182  0.7160
 8028SOL    HW127104   5.662   1.958   5.145 -0.5138  0.6156  0.6105
 8028SOL    HW227105   5.639   1.883   5.015 -0.6829  0.8824  0.4866
 8029SOL     OW27106   2.764   0.115   8.733 -0.0423 -0.0278  0.5559
 8029SOL    HW127107   2.852   0.097   8.767  0.7657 -0.4166 -1.6801
 8029SOL    HW227108   2.777   0.130   8.639 -1.8346  3.7488  0.8255
 8030SOL     OW27109   1.598   1.603   4.439  0.0705  0.2195 -0.2134
 8030SOL    HW127110   1.548   1.522   4.431 -0.9664  0.9396 -1.1599
 8030SOL    HW227111   1.669   1.582   4.500 -0.6159 -1.1845  0.1107
 8031SOL     OW27112   8.770   3.473   5.391  0.3600  0.1338 -0.4000
 8031SOL    HW127113   8.724   3.543   5.436  0.1288 -0.3557  0.1263
 8031SOL    HW227114   8.772   3.501   5.299  0.3285  0.8579 -0.1836
 8032SOL     OW27115   5.628   7.911   7.809  0.3486  0.0495  0.0324
 8032SOL    HW127116   5.552   7.902   7.866  0.7423 -0.2342  0.5108
 8032SOL    HW227117   5.623   8.000   7.775  1.2736  0.9350  2.1592
 8033SOL     OW27118   1.209   8.131   1.391  0.1683 -0.6652 -0.0451
 8033SOL    HW127119   1.217   8.042   1.425 -0.0877 -1.0370 -0.9324
 8033SOL    HW227120   1.125   8.132   1.344 -0.2697  0.3094  0.7155
 8034SOL     OW27121   7.406   3.939   3.812  0.3579 -0.2203  0.5049
 8034SOL    HW127122   7.337   3.886   3.772  0.6030  0.4792 -0.8537
 8034SOL    HW227123   7.375   3.954   3.902 -0.6452 -0.9930  0.2978
 8035SOL     OW27124   3.103   2.226   3.549  0.5984 -0.1168  0.0790
 8035SOL    HW127125   3.071   2.166   3.482  3.5322 -1.3031 -0.3549
 8035SOL    HW227126   3.089   2.179   3.631  1.4281 -0.7552 -0.1335
 8036SOL     OW27127   2.192   8.000   7.211 -0.2566 -0.2042 -0.0128
 8036SOL    HW127128   2.114   8.054   7.206  0.7966  1.4509  0.8778
 8036SOL    HW227129   2.201   7.980   7.304 -0.4575 -1.6495 -0.2993
 8037SOL     OW27130   1.547   0.655   7.761  0.1387  0.4400 -0.1812
 8037SOL    HW127131   1.556   0.561   7.745 -2.0116 -0.2390  2.1858
 8037SOL    HW227132   1.453   0.670   7.761  0.4898  2.7077 -1.0013
 8038SOL     OW27133   8.073   6.683   8.998 -0.0453 -0.0231 -0.1835
 8038SOL    HW127134   8.101   6.771   8.974 -0.5726  0.1980  0.0160
 8038SOL    HW227135   8.104   6.672   9.088 -1.7338  0.7066  0.4926
 8039SOL     OW27136   7.229   2.696   8.424 -0.4599  0.4283 -0.0631
 8039SOL    HW127137   7.274   2.664   8.502 -1.9962 -2.4630 -0.3194
 8039SOL    HW227138   7.150   2.738   8.457 -0.6410  0.0400 -0.0033
 8040SOL     OW27139   0.462   8.776   7.736  0.2991 -1.2072  0.0395
 8040SOL    HW127140   0.433   8.822   7.657  1.1815 -0.7810 -0.0322
 8040SOL    HW227141   0.512   8.701   7.703 -0.6944 -1.9346  0.1665
 8041SOL     OW27142   3.214   1.797   4.913 -0.2000 -0.2863 -0.1176
 8041SOL    HW127143   3.183   1.867   4.969 -1.5975 -1.0237  0.0461
 8041SOL    HW227144   3.280   1.751   4.966  1.2356  1.3017 -0.4825
 8042SOL     OW27145   4.147   4.404   5.986  0.2402 -0.0785 -0.3039
 8042SOL    HW127146   4.207   4.346   6.033  1.9124  2.6390  1.0125
 8042SOL    HW227147   4.191   4.420   5.902 -1.1464 -2.2005 -1.4881
 8043SOL     OW27148   9.208   3.828   4.725 -0.0937  0.0544  0.1080
 8043SOL    HW127149   9.146   3.882   4.774  0.5544  0.6459  0.2884
 8043SOL    HW227150   9.191   3.850   4.633 -0.4250 -0.0877  0.1343
 8044SOL     OW27151   3.954   8.754   5.217 -0.1817  0.7994 -0.3232
 8044SOL    HW127152   4.015   8.777   5.287  0.6203 -0.1058 -0.7272
 8044SOL    HW227153   3.898   8.832   5.208  1.2769  1.8602 -0.3517
 8045SOL     OW27154   6.073   6.731   2.303 -0.0051  0.2587  0.5238
 8045SOL    HW127155   6.130   6.802   2.273  0.0643  0.4058  0.9936
 8045SOL    HW227156   6.133   6.658   2.317 -0.0506  0.1633  0.2135
 8046SOL     OW27157   2.997   5.816   0.221 -0.1610 -0.8220 -0.3761
 8046SOL    HW127158   2.966   5.875   0.153 -0.1756  0.8767  1.0437
 8046SOL    HW227159   3.092   5.812   0.208 -0.0753  0.0831 -0.0571
 8047SOL     OW27160   1.334   1.973   0.680  0.3330  0.1057  0.1041
 8047SOL    HW127161   1.395   2.027   0.629  0.0876 -1.3344 -1.7712
 8047SOL    HW227162   1.256   1.965   0.625  0.0136 -1.4008  0.7379
 8048SOL     OW27163   2.526   7.247   4.969  0.0497  0.2020 -0.3939
 8048SOL    HW127164   2.433   7.238   4.949  0.2125  0.9864 -1.5443
 8048SOL    HW227165   2.568   7.261   4.884  1.2243 -0.2085  0.1082
 8049SOL     OW27166   1.095   8.184   9.043 -0.1821 -0.2053 -0.0396
 8049SOL    HW127167   1.082   8.177   8.949  1.2292 -0.7004 -0.2117
 8049SOL    HW227168   1.178   8.140   9.059 -0.2810  0.1055  1.4039
 8050SOL     OW27169   5.229   4.133   0.855  0.0780  0.0788 -0.2472
 8050SOL    HW127170   5.264   4.067   0.795 -0.0589 -0.6406  0.4537
 8050SOL    HW227171   5.134   4.122   0.848  0.0769 -0.5668  0.7115
 8051SOL     OW27172   4.522   9.062   6.078  0.4782 -0.2356  0.2929
 8051SOL    HW127173   4.611   9.035   6.057  0.1049 -0.6060 -0.8120
 8051SOL    HW227174   4.473   9.051   5.997 -0.6867 -0.4704  1.0127
 8052SOL     OW27175   3.563   9.322   0.696  0.0652 -0.1699 -0.7923
 8052SOL    HW127176   3.644   9.278   0.720  0.2396  0.7933  0.4594
 8052SOL    HW227177   3.592   9.399   0.646 -0.1049 -0.1549 -0.8675
 8053SOL     OW27178   0.385   7.621   0.159 -0.1489  0.5432 -0.0415
 8053SOL    HW127179   0.399   7.526   0.155 -1.6054  0.3061  0.3473
 8053SOL    HW227180   0.413   7.653   0.073 -0.1456 -0.2987 -0.3579
 8054SOL     OW27181   2.874   5.456   7.394  0.2031  0.4271 -0.0826
 8054SOL    HW127182   2.850   5.500   7.312 -0.9962  0.5542  0.3296
 8054SOL    HW227183   2.913   5.524   7.448  0.2802  0.5175 -0.2545
 8055SOL     OW27184   5.540   2.785   9.380 -0.0533  0.5634  0.1429
 8055SOL    HW127185   5.579   2.701   9.355 -1.9935 -0.7310  1.2581
 8055SOL    HW227186   5.459   2.790   9.329 -0.5439  1.1893  0.9691
 8056SOL     OW27187   0.751   7.063   2.116 -0.1187  0.3316 -0.2398
 8056SOL    HW127188   0.787   7.151   2.101  0.3782 -0.1889 -2.2501
 8056SOL    HW227189   0.725   7.063   2.208  0.0951  2.5100 -0.1560
 8057SOL     OW27190   3.346   5.825   1.421  0.3491  0.1859 -0.0290
 8057SOL    HW127191   3.371   5.733   1.433 -1.6377 -0.9167 -3.7264
 8057SOL    HW227192   3.420   5.864   1.374  0.3323 -0.0101 -0.2184
 8058SOL     OW27193   1.999   0.051   3.884  0.6836 -0.2993  0.1785
 8058SOL    HW127194   1.949  -0.014   3.934  0.0359  0.3166  0.3350
 8058SOL    HW227195   1.935   0.118   3.860  0.7286 -1.2370 -2.6154
 8059SOL     OW27196   4.976   0.566   3.860 -0.1578  0.4910  0.2009
 8059SOL    HW127197   5.048   0.570   3.798  0.4260 -0.2212  0.8286
 8059SOL    HW227198   4.991   0.640   3.919  0.3826  0.0120  0.6722
 8060SOL     OW27199   9.148   1.966   2.592 -0.0468  0.0170 -0.2689
 8060SOL    HW127200   9.155   2.062   2.597  1.0694  0.1035 -3.0163
 8060SOL    HW227201   9.230   1.934   2.630  0.5878  0.2290 -1.4309
 8061SOL     OW27202   1.329   9.322   2.078 -0.1685 -0.5896 -0.1927
 8061SOL    HW127203   1.353   9.388   2.013  3.6545  0.1462  1.8401
 8061SOL    HW227204   1.263   9.366   2.132 -1.7107 -0.4307 -2.1133
 8062SOL     OW27205   8.403   2.081   1.233 -0.6383  0.1486  0.1032
 8062SOL    HW127206   8.441   2.089   1.145  0.8293 -0.7120  0.6363
 8062SOL    HW227207   8.344   2.156   1.240 -1.8689 -0.5817 -2.1359
 8063SOL     OW27208   1.786   0.619   0.450 -0.9287  0.5212 -0.3701
 8063SOL    HW127209   1.812   0.568   0.527  2.6845  0.3922 -1.5533
 8063SOL    HW227210   1.753   0.701   0.486  0.1524  0.2185  1.3817
 8064SOL     OW27211   6.107   2.702   7.105  0.8539  0.7994  0.3231
 8064SOL    HW127212   6.180   2.680   7.046 -1.4606  0.0064 -2.3742
 8064SOL    HW227213   6.096   2.625   7.160  0.6140 -0.0191 -0.8389
 8065SOL     OW27214   8.967   2.303   8.508  0.3620  0.1600 -0.1830
 8065SOL    HW127215   9.036   2.297   8.441  2.6887 -2.4108  2.2964
 8065SOL    HW227216   8.888   2.272   8.463  1.7016 -0.7546 -1.9894
 8066SOL     OW27217   3.923   2.806   7.411  0.1898 -0.1192  0.1113
 8066SOL    HW127218   3.849   2.832   7.467  1.0791  0.2211  1.1491
 8066SOL    HW227219   3.929   2.711   7.423 -1.7670 -0.5806 -2.0943
 8067SOL     OW27220   2.073   6.586   7.982 -0.2722  0.5921 -0.2841
 8067SOL    HW127221   2.136   6.623   8.043  0.0519  0.8165 -0.7519
 8067SOL    HW227222   1.990   6.627   8.006 -0.2781  0.1758  0.4346
 8068SOL     OW27223   1.999   1.689   1.414  0.2411  0.0289  0.0254
 8068SOL    HW127224   1.984   1.613   1.358  1.0927  0.8366 -1.3279
 8068SOL    HW227225   2.066   1.740   1.368 -1.3699  2.3418  0.1489
 8069SOL     OW27226   3.327   2.646   4.675 -0.5468  0.5912  0.1537
 8069SOL    HW127227   3.391   2.616   4.610 -0.9300  1.1080 -0.4701
 8069SOL    HW227228   3.381   2.691   4.741 -0.4016  2.7659 -1.3638
 8070SOL     OW27229   1.029   7.041   0.600 -0.7708  0.0554 -0.5262
 8070SOL    HW127230   1.103   7.082   0.645  0.3790 -0.3142 -2.0203
 8070SOL    HW227231   0.953   7.090   0.629  0.0330  0.2996  1.2292
 8071SOL     OW27232   5.706   0.235   6.395 -0.3049  0.1537  0.1026
 8071SOL    HW127233   5.611   0.238   6.382 -0.3871 -0.3651  0.5353
 8071SOL    HW227234   5.731   0.325   6.413 -1.0729 -0.0311  2.2639
 8072SOL     OW27235   9.257   0.500   2.663 -0.2039  0.4309  0.6142
 8072SOL    HW127236   9.203   0.443   2.609 -2.0011  0.9010  1.8756
 8072SOL    HW227237   9.324   0.442   2.699 -2.1801 -0.9826  2.1134
 8073SOL     OW27238   5.858   7.307   3.717  0.3232 -0.0453  0.2058
 8073SOL    HW127239   5.878   7.339   3.804  1.8877 -0.6406  0.0790
 8073SOL    HW227240   5.858   7.385   3.662 -1.3391  0.4181  0.8411
 8074SOL     OW27241   5.821   2.698   7.821 -0.3553 -0.0151 -1.0750
 8074SOL    HW127242   5.784   2.617   7.785 -0.6469  0.3457 -1.6039
 8074SOL    HW227243   5.888   2.724   7.758 -0.2579  0.1501 -0.9015
 8075SOL     OW27244   8.856   4.782   3.141 -1.0286 -0.1085  0.4160
 8075SOL    HW127245   8.802   4.741   3.209  0.6263 -1.5216  0.9433
 8075SOL    HW227246   8.935   4.727   3.138 -1.5267 -0.7707 -3.4600
 8076SOL     OW27247   6.570   1.813   7.938 -0.1868 -0.3564 -0.7978
 8076SOL    HW127248   6.528   1.896   7.959  1.9339  0.8765 -1.3192
 8076SOL    HW227249   6.662   1.835   7.923  0.7679 -3.0448  0.6892
 8077SOL     OW27250   4.271   6.036   2.374 -0.0863 -0.0598 -0.5571
 8077SOL    HW127251   4.357   6.078   2.383 -0.6933  1.0086  0.4284
 8077SOL    HW227252   4.274   5.962   2.434  0.1300  0.0222 -0.4649
 8078SOL     OW27253   5.013   0.084   0.464 -0.1335  0.4330  0.1915
 8078SOL    HW127254   4.965   0.157   0.502  0.2400  0.6026  0.3399
 8078SOL    HW227255   5.105   0.101   0.485  0.1833  0.9963 -1.5160
 8079SOL     OW27256   7.802   5.946   5.527 -0.1050 -0.3852  0.0094
 8079SOL    HW127257   7.886   5.973   5.492 -0.5417  1.9679  0.6726
 8079SOL    HW227258   7.818   5.859   5.564  3.1488  1.7009  3.9549
 8080SOL     OW27259   0.411   8.761   2.263 -0.0020 -0.2197 -0.0527
 8080SOL    HW127260   0.436   8.842   2.307  0.1147 -0.3106  0.0467
 8080SOL    HW227261   0.330   8.783   2.217 -1.1813 -0.6747  1.7841
 8081SOL     OW27262   3.176   5.023   5.667 -0.0563 -0.0435 -0.2997
 8081SOL    HW127263   3.159   5.061   5.753  0.0491 -0.8909  0.1027
 8081SOL    HW227264   3.181   5.098   5.608  0.6489  0.6008  0.5616
 8082SOL     OW27265   5.954   0.868   3.921  0.1840 -0.1964 -0.1990
 8082SOL    HW127266   5.892   0.795   3.924  0.5872 -0.5422 -0.3264
 8082SOL    HW227267   6.038   0.828   3.902  0.3932  0.3117 -0.3609
 8083SOL     OW27268   2.384   6.716   1.338 -0.1728  0.0420  0.4596
 8083SOL    HW127269   2.388   6.661   1.260 -0.7894  0.8079 -0.1283
 8083SOL    HW227270   2.346   6.799   1.307  0.4377  0.6798  1.3880
 8084SOL     OW27271   0.344   6.641   2.813 -0.1674 -0.5649  0.2708
 8084SOL    HW127272   0.416   6.595   2.770  0.0862 -0.8487  1.0084
 8084SOL    HW227273   0.317   6.583   2.884  0.6917  0.8004  1.7195
 8085SOL     OW27274   7.090   7.791   5.813  0.0460 -0.3981  0.1479
 8085SOL    HW127275   7.147   7.867   5.825 -1.4580  0.9805 -1.2103
 8085SOL    HW227276   7.150   7.717   5.811  1.6978  0.9075 -0.1590
 8086SOL     OW27277   2.698   8.881   2.719  0.2963  0.0424 -0.1357
 8086SOL    HW127278   2.666   8.824   2.788 -0.5292 -1.3409 -1.6286
 8086SOL    HW227279   2.632   8.950   2.711 -1.7265 -2.0982 -2.3463
 8087SOL     OW27280   2.021   8.525   7.219 -0.0666  0.4651  0.2631
 8087SOL    HW127281   1.983   8.539   7.132  1.7761 -1.8440 -0.9648
 8087SOL    HW227282   2.113   8.549   7.209  0.2557 -0.2471  1.4708
 8088SOL     OW27283   5.824   3.410   5.631 -0.2757 -0.2359 -0.1144
 8088SOL    HW127284   5.809   3.315   5.632  1.2480 -0.5247 -1.7401
 8088SOL    HW227285   5.737   3.447   5.614 -0.4311 -1.5176 -2.4631
 8089SOL     OW27286   3.371   5.357   3.225  0.1111  0.4000 -0.0259
 8089SOL    HW127287   3.308   5.308   3.171 -0.7908  1.6641 -0.1639
 8089SOL    HW227288   3.359   5.448   3.198  0.5447  0.9029  1.4221
 8090SOL     OW27289   7.632   3.045   7.792  0.6864  0.3640 -0.3740
 8090SOL    HW127290   7.588   3.084   7.868  1.1934 -0.4940  0.3569
 8090SOL    HW227291   7.560   3.025   7.732  0.1824  0.1195  0.2967
 8091SOL     OW27292   0.250   5.618   0.278 -0.4497 -0.0526  0.0373
 8091SOL    HW127293   0.291   5.651   0.198  0.5024  0.6546  0.8085
 8091SOL    HW227294   0.176   5.677   0.293  1.5743  2.1865  1.7228
 8092SOL     OW27295   5.985   6.380   3.206 -0.3583 -0.1638  0.4323
 8092SOL    HW127296   5.924   6.436   3.160 -0.5392  0.5478  1.5125
 8092SOL    HW227297   6.024   6.324   3.138  0.1960  1.6031 -0.7195
 8093SOL     OW27298   7.560   2.363   0.218  0.1652  0.3950  0.5245
 8093SOL    HW127299   7.581   2.403   0.302  1.8376  0.7120 -0.0256
 8093SOL    HW227300   7.505   2.428   0.174  0.7359  0.9857  0.6737
 8094SOL     OW27301   1.961   6.334   0.625  0.1370 -0.0046 -0.1446
 8094SOL    HW127302   1.903   6.405   0.596  1.2514 -0.0231 -2.5706
 8094SOL    HW227303   2.005   6.369   0.702  1.3182  2.3516 -1.8016
 8095SOL     OW27304   5.483   8.880   6.414  0.3547 -0.2089 -0.0286
 8095SOL    HW127305   5.478   8.787   6.438 -1.3230 -0.1246  0.0062
 8095SOL    HW227306   5.457   8.882   6.322  1.6737  0.0917 -0.4091
 8096SOL     OW27307   4.568   3.972   1.320 -0.2323 -0.3335 -0.4782
 8096SOL    HW127308   4.522   4.054   1.301 -0.1030 -0.5011 -1.5722
 8096SOL    HW227309   4.500   3.905   1.319 -0.3544 -0.2302  0.5259
 8097SOL     OW27310   3.679   7.618   2.099 -0.2322  0.2140 -0.3845
 8097SOL    HW127311   3.693   7.707   2.068 -0.0658 -0.3871 -2.0854
 8097SOL    HW227312   3.767   7.582   2.109 -0.3386 -0.6186 -2.3008
 8098SOL     OW27313   4.452   6.575   8.248 -0.1312  0.4591  0.0817
 8098SOL    HW127314   4.546   6.571   8.229 -0.1142 -1.2294  0.4470
 8098SOL    HW227315   4.412   6.516   8.185 -0.9529  1.0939 -0.0013
 8099SOL     OW27316   6.144   5.883   3.250 -0.2635 -0.4333 -0.0102
 8099SOL    HW127317   6.082   5.842   3.190 -1.3404  0.4539  0.4721
 8099SOL    HW227318   6.196   5.941   3.195  0.3987 -1.4677 -0.4805
 8100SOL     OW27319   2.166   8.927   4.367 -0.3468 -0.0246  0.2578
 8100SOL    HW127320   2.110   8.884   4.302  0.4707  0.9332 -1.0957
 8100SOL    HW227321   2.251   8.936   4.324 -0.0044  1.3025  1.1713
 8101SOL     OW27322   9.201   4.471   1.718 -0.2106  0.3273 -0.3753
 8101SOL    HW127323   9.277   4.471   1.777 -1.0735 -0.6868  0.7531
 8101SOL    HW227324   9.126   4.455   1.775 -1.1947  0.4694 -1.6028
 8102SOL     OW27325   8.806   7.183   8.512 -0.2756 -0.5396 -0.6308
 8102SOL    HW127326   8.819   7.222   8.599 -0.2728 -1.4947 -0.1960
 8102SOL    HW227327   8.883   7.211   8.462 -0.2248 -0.0674 -0.2918
 8103SOL     OW27328   3.775   5.055   7.269 -0.2077 -0.4981 -0.1714
 8103SOL    HW127329   3.776   5.080   7.176 -0.9239  0.2324  0.0098
 8103SOL    HW227330   3.760   5.137   7.315  0.7586 -0.7706  0.6297
 8104SOL     OW27331   5.076   4.877   1.707 -0.0613 -0.0421  0.1241
 8104SOL    HW127332   5.064   4.793   1.664 -0.6810 -0.7764  1.6802
 8104SOL    HW227333   5.046   4.863   1.797 -0.2153  1.8539  0.4038
 8105SOL     OW27334   4.363   2.282   1.356 -0.7486 -0.2679  0.1360
 8105SOL    HW127335   4.453   2.312   1.369 -0.8939  0.5949 -0.7797
 8105SOL    HW227336   4.361   2.193   1.392 -0.0336  0.4142  1.9225
 8106SOL     OW27337   2.781   8.680   6.037  0.3319 -0.8520 -0.6124
 8106SOL    HW127338   2.716   8.707   5.972 -0.1055 -0.7614 -0.1414
 8106SOL    HW227339   2.856   8.737   6.020 -0.5108  0.5581  0.2391
 8107SOL     OW27340   2.672   7.158   4.168 -0.2518 -0.5309  0.3309
 8107SOL    HW127341   2.625   7.130   4.247  0.5397 -0.0774  0.9619
 8107SOL    HW227342   2.628   7.239   4.142 -0.6023 -0.7525  0.2272
 8108SOL     OW27343   6.470   6.610   2.720 -0.0881 -0.9050  0.7036
 8108SOL    HW127344   6.547   6.570   2.680  0.7627 -0.9803  2.3838
 8108SOL    HW227345   6.480   6.704   2.704  0.0954 -0.9668  0.4658
 8109SOL     OW27346   2.720   3.219   3.277 -0.0192  0.3948  0.5628
 8109SOL    HW127347   2.673   3.146   3.237  1.4138 -0.4214  0.3053
 8109SOL    HW227348   2.652   3.275   3.312 -1.3050  0.7478 -2.3269
 8110SOL     OW27349   5.759   5.803   3.586 -0.5231  0.0012  0.9056
 8110SOL    HW127350   5.823   5.873   3.596 -1.9412  1.2560  1.5063
 8110SOL    HW227351   5.769   5.750   3.665  1.1803 -1.0331  0.0260
 8111SOL     OW27352   7.324   6.473   7.655  0.0168  0.3075 -0.2370
 8111SOL    HW127353   7.393   6.459   7.720 -0.9660 -1.4293  0.4771
 8111SOL    HW227354   7.312   6.568   7.653  1.3176  0.5166  0.7794
 8112SOL     OW27355   8.250   1.458   5.248  0.1116  0.2478  0.2592
 8112SOL    HW127356   8.262   1.426   5.159  1.8339 -0.3758  0.7063
 8112SOL    HW227357   8.223   1.381   5.298  1.0084  0.1831  0.6560
 8113SOL     OW27358   1.341   8.910   5.590  0.4474 -0.2491  0.4131
 8113SOL    HW127359   1.340   8.942   5.681 -0.2655  2.2915 -0.4694
 8113SOL    HW227360   1.250   8.886   5.572  0.2769  0.8723 -0.2007
 8114SOL     OW27361   6.334   5.015   2.450  0.3807  0.1599  0.5461
 8114SOL    HW127362   6.399   5.071   2.408  0.4761 -0.3975 -0.0592
 8114SOL    HW227363   6.274   4.991   2.379  0.4837 -0.7014  0.7477
 8115SOL     OW27364   2.118   1.729   7.433  0.5958 -0.0570 -0.1519
 8115SOL    HW127365   2.023   1.719   7.438  0.5517  0.6278  0.4698
 8115SOL    HW227366   2.138   1.795   7.500  1.6613 -1.2520  0.7151
 8116SOL     OW27367   8.294   4.662   8.230 -0.2496  0.3625 -0.1162
 8116SOL    HW127368   8.328   4.620   8.151 -2.2375 -1.3992 -0.0904
 8116SOL    HW227369   8.261   4.747   8.201 -2.1150 -0.7908 -1.4478
 8117SOL     OW27370   0.505   2.821   0.587 -0.0033 -0.6002 -0.3164
 8117SOL    HW127371   0.466   2.738   0.561  2.3848 -1.6623 -0.7022
 8117SOL    HW227372   0.530   2.863   0.504 -0.0438 -0.0960 -0.0751
 8118SOL     OW27373   2.798   2.161   6.983 -0.0651 -0.2412  0.6605
 8118SOL    HW127374   2.831   2.074   7.004 -0.9157 -0.4298  1.2079
 8118SOL    HW227375   2.720   2.171   7.037 -1.4159 -0.1396 -1.2686
 8119SOL     OW27376   5.676   4.844   0.008 -0.2595  0.0943 -0.0164
 8119SOL    HW127377   5.737   4.797  -0.049 -1.4411 -0.6635 -0.6853
 8119SOL    HW227378   5.689   4.936  -0.013 -0.2681 -0.1465 -1.1012
 8120SOL     OW27379   0.149   6.582   6.394 -0.0032 -0.4102  0.8853
 8120SOL    HW127380   0.140   6.491   6.422 -1.1188 -0.7158 -0.3833
 8120SOL    HW227381   0.141   6.578   6.299  0.0569  1.0076  0.8167
 8121SOL     OW27382   2.720   5.115   5.180  0.1365  0.2959 -0.6942
 8121SOL    HW127383   2.741   5.194   5.230  0.8063  1.2164 -2.4130
 8121SOL    HW227384   2.803   5.067   5.173 -0.1431 -0.2790 -0.1727
 8122SOL     OW27385   3.588   8.952   9.091 -0.1138  0.0324 -0.0019
 8122SOL    HW127386   3.573   9.039   9.054  2.1947  0.0196 -1.0632
 8122SOL    HW227387   3.527   8.895   9.043 -0.6438  0.8426 -0.2943
 8123SOL     OW27388   6.265   0.890   0.498  0.1327 -0.1197 -0.5793
 8123SOL    HW127389   6.206   0.862   0.568 -0.0813 -1.3907 -1.2615
 8123SOL    HW227390   6.295   0.977   0.526 -1.4131  0.1931  0.1732
 8124SOL     OW27391   3.025   4.641   1.559  0.1524  0.1062 -0.1595
 8124SOL    HW127392   3.098   4.654   1.499  0.2112 -0.1446 -0.1444
 8124SOL    HW227393   2.975   4.722   1.554 -0.7027 -0.4848 -1.7257
 8125SOL     OW27394   9.028   8.598   1.365  0.2462 -0.3500  0.1241
 8125SOL    HW127395   9.071   8.676   1.402  1.4881 -0.2029 -1.5633
 8125SOL    HW227396   9.009   8.622   1.275 -0.4086 -1.6161 -0.0784
 8126SOL     OW27397   9.233   5.184   4.509  0.2785  0.3474  0.2697
 8126SOL    HW127398   9.181   5.214   4.435  0.5731  0.4731  0.1144
 8126SOL    HW227399   9.186   5.215   4.586 -0.5733 -0.6385  0.1671
 8127SOL     OW27400   7.708   4.770   4.091  0.2133  0.6957  0.2357
 8127SOL    HW127401   7.628   4.779   4.040  0.1959  1.9473  0.4558
 8127SOL    HW227402   7.745   4.859   4.094  1.0485  0.3395  1.0346
 8128SOL     OW27403   3.079   8.088   0.301  0.0382  0.1637 -0.2194
 8128SOL    HW127404   3.054   8.173   0.263 -1.5435  0.2313  0.9506
 8128SOL    HW227405   3.080   8.103   0.395 -2.8741 -1.7528  0.1944
 8129SOL     OW27406   8.327   9.404   8.048  0.0556 -0.3269 -0.4098
 8129SOL    HW127407   8.328   9.492   8.011 -1.1213  0.2880  0.9709
 8129SOL    HW227408   8.242   9.368   8.023  1.2787 -1.8097 -2.5888
 8130SOL     OW27409   3.145   5.960   2.348  0.0141 -0.6435  0.3933
 8130SOL    HW127410   3.178   5.871   2.345  2.0004  0.0686 -0.0560
 8130SOL    HW227411   3.083   5.962   2.420  0.7081 -2.1312  1.0287
 8131SOL     OW27412   8.046   2.073   5.269  0.5200  0.1555  0.9026
 8131SOL    HW127413   8.093   2.020   5.334  0.0523 -1.8090 -0.3384
 8131SOL    HW227414   8.073   2.037   5.185  0.2939  1.9969  0.0129
 8132SOL     OW27415   7.216   3.211   8.546  0.3284  0.4939 -0.0900
 8132SOL    HW127416   7.269   3.275   8.497  0.8023 -0.3778 -0.7488
 8132SOL    HW227417   7.256   3.208   8.633  1.1376  0.1277 -0.4651
 8133SOL     OW27418   6.703   8.895   0.669 -0.3792  0.2410 -0.3644
 8133SOL    HW127419   6.785   8.847   0.664  0.3314  1.5288 -1.2086
 8133SOL    HW227420   6.641   8.842   0.618 -0.3625 -1.2704  1.1458
 8134SOL     OW27421   6.909   5.423   7.259 -0.4656  0.1565 -1.0085
 8134SOL    HW127422   6.987   5.468   7.292 -1.0259  2.6190 -2.9258
 8134SOL    HW227423   6.843   5.437   7.326  0.5679 -1.5888  0.4341
 8135SOL     OW27424   0.410   7.891   1.737  0.3106 -0.2897  0.6669
 8135SOL    HW127425   0.452   7.961   1.787 -1.7001  0.1778  1.7648
 8135SOL    HW227426   0.338   7.861   1.793 -1.2567 -0.5618 -1.4206
 8136SOL     OW27427   4.684   1.150   3.623  0.5950  0.2985 -0.0011
 8136SOL    HW127428   4.772   1.160   3.587  0.2626  0.5341 -0.7683
 8136SOL    HW227429   4.633   1.219   3.581  0.3932  1.1636  1.6096
 8137SOL     OW27430   5.924   2.580   9.110 -0.2163 -0.0548  0.4221
 8137SOL    HW127431   6.014   2.592   9.080 -0.6627  1.0161 -0.5262
 8137SOL    HW227432   5.888   2.513   9.051 -0.0277 -0.5191  0.8333
 8138SOL     OW27433   0.263   1.878   3.205  0.6999 -0.9672  0.0355
 8138SOL    HW127434   0.170   1.883   3.182  1.2272  3.3374 -1.4830
 8138SOL    HW227435   0.270   1.926   3.288  1.5832 -1.4504  0.2468
 8139SOL     OW27436   4.151   5.997   8.683  0.6467  0.2136  0.1681
 8139SOL    HW127437   4.056   6.012   8.683  0.6015 -0.0329 -0.6424
 8139SOL    HW227438   4.160   5.902   8.676  0.9484  0.3395 -1.3980
 8140SOL     OW27439   4.500   1.976   8.307 -0.0489 -0.5315 -0.3739
 8140SOL    HW127440   4.497   2.047   8.371  1.4950 -0.8724  0.1032
 8140SOL    HW227441   4.440   2.003   8.239  2.1105  2.3038 -1.2641
 8141SOL     OW27442   7.660   0.732   6.642  0.3593  0.4190 -0.2977
 8141SOL    HW127443   7.579   0.761   6.684  0.9858  0.2892  1.0260
 8141SOL    HW227444   7.634   0.657   6.589 -0.1625 -0.4146  1.1223
 8142SOL     OW27445   8.826   2.039   5.665 -0.2569  0.4467 -0.0307
 8142SOL    HW127446   8.884   1.974   5.704  0.5954  0.5306 -1.1466
 8142SOL    HW227447   8.795   2.091   5.739 -0.9283 -1.1946  0.8719
 8143SOL     OW27448   3.214   0.604   5.498 -0.1076  0.0285  0.1878
 8143SOL    HW127449   3.212   0.697   5.524  1.0295 -0.0628  0.6097
 8143SOL    HW227450   3.163   0.559   5.565  0.2741  0.2047  0.5987
 8144SOL     OW27451   7.857   8.377   1.574  0.1351  0.3075  0.1875
 8144SOL    HW127452   7.773   8.340   1.600  0.0999 -1.0443 -1.6934
 8144SOL    HW227453   7.835   8.443   1.508  0.4046  1.7195  1.4725
 8145SOL     OW27454   0.540   5.584   0.948  0.6652  0.2475 -0.1459
 8145SOL    HW127455   0.526   5.559   0.857  0.8138 -2.2567  0.4704
 8145SOL    HW227456   0.460   5.556   0.993  2.0134 -1.8303  1.0665
 8146SOL     OW27457   1.371   1.158   5.459 -0.2132  0.0657  0.2176
 8146SOL    HW127458   1.429   1.086   5.433 -0.6703  0.1422 -1.0691
 8146SOL    HW227459   1.385   1.225   5.392 -2.6341 -0.4016 -0.8313
 8147SOL     OW27460   8.668   5.472   7.833  0.4846  0.3913  0.0399
 8147SOL    HW127461   8.630   5.543   7.782  0.3581 -0.4130 -1.0142
 8147SOL    HW227462   8.679   5.400   7.770  1.0145 -0.3744  0.9815
 8148SOL     OW27463   2.047   4.691   9.069  0.0823 -0.1779  0.0942
 8148SOL    HW127464   2.110   4.739   9.015  2.0274  0.1517  2.5910
 8148SOL    HW227465   2.052   4.601   9.036  1.6959 -0.1123  0.0991
 8149SOL     OW27466   8.689   7.713   0.447 -0.2132 -0.1322 -0.0730
 8149SOL    HW127467   8.667   7.734   0.538  0.1079  2.2526 -0.5007
 8149SOL    HW227468   8.681   7.618   0.441 -0.5376 -0.2821  2.3650
 8150SOL     OW27469   3.454   8.595   7.939 -0.7289  0.1923 -0.2261
 8150SOL    HW127470   3.406   8.674   7.963 -0.6461 -0.1165  0.9828
 8150SOL    HW227471   3.532   8.596   7.995 -1.3158 -1.3337  0.6476
 8151SOL     OW27472   3.578   0.021   4.045  0.0800 -0.3239 -0.1031
 8151SOL    HW127473   3.583  -0.024   3.961 -1.0575 -1.0869  0.2208
 8151SOL    HW227474   3.602   0.111   4.025 -1.9463 -0.0720 -1.6239
 8152SOL     OW27475   8.593   5.738   2.980  0.2505  0.2736 -0.2663
 8152SOL    HW127476   8.598   5.767   3.072  1.6240 -0.4043 -0.1123
 8152SOL    HW227477   8.528   5.667   2.981  0.8567 -0.2883  0.3510
 8153SOL     OW27478   2.232   6.836   4.142 -0.2539  0.0387  0.4108
 8153SOL    HW127479   2.232   6.829   4.047 -0.8116  0.7384  0.3594
 8153SOL    HW227480   2.323   6.857   4.164 -0.4222  1.3123 -0.0764
 8154SOL     OW27481   3.832   6.743   3.606  0.2454 -0.1567 -0.1397
 8154SOL    HW127482   3.841   6.651   3.632 -0.3069 -0.4944 -1.1287
 8154SOL    HW227483   3.739   6.762   3.616  0.4569  0.4924  0.6755
 8155SOL     OW27484   8.388   6.226   0.683 -0.5369 -0.0331 -0.0312
 8155SOL    HW127485   8.381   6.321   0.673 -0.8517  0.3454  3.4061
 8155SOL    HW227486   8.377   6.192   0.594 -0.3702  3.1278 -1.3249
 8156SOL     OW27487   1.585   9.222   1.970 -0.3068 -0.5319  0.3257
 8156SOL    HW127488   1.640   9.201   2.045  1.0248  0.0472 -0.4604
 8156SOL    HW227489   1.508   9.265   2.008  0.0834 -0.7590  1.3928
 8157SOL     OW27490   6.945   4.309   1.475  0.2249  0.0184 -0.0834
 8157SOL    HW127491   6.944   4.233   1.534 -0.4938 -0.5063 -0.7618
 8157SOL    HW227492   6.865   4.356   1.497  0.9598  0.9004  0.7374
 8158SOL     OW27493   5.764   5.420   6.326  0.0465  0.4048 -0.6604
 8158SOL    HW127494   5.816   5.388   6.401 -0.0357  1.3847 -0.1765
 8158SOL    HW227495   5.807   5.382   6.250 -0.6256 -1.6550 -0.0489
 8159SOL     OW27496   8.261   6.153   6.522  0.1030  0.4189  0.1317
 8159SOL    HW127497   8.169   6.130   6.510 -0.3772  1.7942  1.1097
 8159SOL    HW227498   8.263   6.248   6.520  1.6262  0.3921 -0.6418
 8160SOL     OW27499   1.155   6.111   1.586  0.3712  0.1317  0.0320
 8160SOL    HW127500   1.159   6.056   1.508  0.0437 -0.8957  0.7284
 8160SOL    HW227501   1.175   6.199   1.555 -1.3885  0.0191 -1.5173
 8161SOL     OW27502   3.543   1.226   2.903  0.1915  0.0119 -0.3870
 8161SOL    HW127503   3.452   1.248   2.880  0.6823  0.9908 -1.4161
 8161SOL    HW227504   3.542   1.219   2.999 -0.4884  2.1956 -0.2210
 8162SOL     OW27505   8.896   1.360   2.511  0.0071  0.4940 -0.1041
 8162SOL    HW127506   8.982   1.317   2.511 -1.3638 -2.4953  2.2204
 8162SOL    HW227507   8.840   1.301   2.460 -1.1327  1.2971  0.2085
 8163SOL     OW27508   9.001   3.774   1.078  0.4622  0.3636 -0.3690
 8163SOL    HW127509   9.048   3.708   1.128 -0.0890  0.8101  0.7483
 8163SOL    HW227510   8.973   3.729   0.998  0.1861 -0.7149  0.3342
 8164SOL     OW27511   5.616   1.704   7.954  0.5297 -0.0286 -0.2986
 8164SOL    HW127512   5.676   1.667   7.889  0.1195 -0.6533 -0.3316
 8164SOL    HW227513   5.558   1.631   7.977 -1.8079  1.1842 -2.0974
 8165SOL     OW27514   8.614   7.027   4.684 -0.1619  0.0865 -0.4563
 8165SOL    HW127515   8.631   7.111   4.725  0.4038  0.2740 -1.0797
 8165SOL    HW227516   8.572   7.048   4.601  0.3052 -0.2383 -0.7755
 8166SOL     OW27517   4.696   7.234   2.928  0.2287 -0.2659  0.0896
 8166SOL    HW127518   4.672   7.203   2.841  2.6578 -1.2668 -0.2651
 8166SOL    HW227519   4.791   7.226   2.931  0.2790  0.7946  2.4493
 8167SOL     OW27520   3.529   8.423   1.099  0.3567 -0.3035 -0.0763
 8167SOL    HW127521   3.473   8.353   1.133  0.4682 -1.3026 -1.8291
 8167SOL    HW227522   3.616   8.404   1.135 -0.0425  0.1865  1.1691
 8168SOL     OW27523   5.505   0.934   5.765  0.3063 -0.2985  0.0143
 8168SOL    HW127524   5.601   0.936   5.758  0.4771 -1.6872  1.4024
 8168SOL    HW227525   5.489   0.890   5.849 -1.5602 -0.5251 -0.4418
 8169SOL     OW27526   2.028   7.954   1.443  0.2750 -0.2782  0.2928
 8169SOL    HW127527   2.003   7.992   1.359 -2.1106 -0.5404  0.8562
 8169SOL    HW227528   2.001   8.019   1.507  1.2650 -0.4852  0.9358
 8170SOL     OW27529   5.477   5.387   6.380  0.1616  0.7592 -0.3624
 8170SOL    HW127530   5.490   5.452   6.450 -0.1613 -0.7586  1.1341
 8170SOL    HW227531   5.560   5.385   6.333  0.4591  1.6215  0.1171
 8171SOL     OW27532   8.347   6.350   4.872  0.1566 -0.0611 -0.3717
 8171SOL    HW127533   8.314   6.393   4.951 -0.0029  1.0263 -1.0289
 8171SOL    HW227534   8.273   6.301   4.839 -0.7791  2.1936 -1.7176
 8172SOL     OW27535   4.425   2.583   2.448 -0.0680  0.0043 -0.0998
 8172SOL    HW127536   4.520   2.580   2.445 -0.0754  0.4000 -1.0086
 8172SOL    HW227537   4.400   2.630   2.368 -1.0194 -0.0645  0.1490
 8173SOL     OW27538   0.768   0.977   5.482 -0.0944 -0.1831  0.8915
 8173SOL    HW127539   0.842   0.916   5.481 -0.1933 -0.2813 -0.5248
 8173SOL    HW227540   0.782   1.033   5.406 -1.4047 -0.0889  0.7203
 8174SOL     OW27541   9.201   8.741   0.388  0.4455 -0.3375 -0.2640
 8174SOL    HW127542   9.118   8.789   0.393  1.5111  1.4810  0.6424
 8174SOL    HW227543   9.215   8.707   0.476  1.0995  0.1537 -0.1711
 8175SOL     OW27544   5.154   1.736   3.297  0.0938  0.2960  0.7307
 8175SOL    HW127545   5.150   1.831   3.287  0.7569  0.1954 -0.6251
 8175SOL    HW227546   5.068   1.712   3.332  0.3265  1.5055  2.1575
 8176SOL     OW27547   6.980   0.243   5.512 -0.1612  0.5158  0.0767
 8176SOL    HW127548   6.950   0.153   5.501 -0.7078  0.2914  2.9830
 8176SOL    HW227549   7.073   0.240   5.493  0.0167 -0.8678  1.0873
 8177SOL     OW27550   7.151   9.143   7.462 -0.2298 -0.5063  0.0829
 8177SOL    HW127551   7.169   9.053   7.434  0.7763 -0.1439 -0.4384
 8177SOL    HW227552   7.174   9.197   7.387  0.3080  0.2888  0.8086
 8178SOL     OW27553   0.433   0.212   3.503 -0.2953 -0.0066 -0.4083
 8178SOL    HW127554   0.378   0.134   3.498  1.3493 -1.2973  0.9300
 8178SOL    HW227555   0.513   0.182   3.546  1.0662  2.0411 -1.4316
 8179SOL     OW27556   4.667   4.745   3.006 -0.2810  0.0391 -0.2828
 8179SOL    HW127557   4.727   4.681   2.967 -0.5080 -0.3048 -0.0732
 8179SOL    HW227558   4.583   4.730   2.963 -0.0935  0.8789 -0.9540
 8180SOL     OW27559   1.682   5.251   1.581  0.1500  0.1957 -0.1621
 8180SOL    HW127560   1.620   5.299   1.636  1.3277  0.8560  0.6189
 8180SOL    HW227561   1.650   5.161   1.583  0.3943  0.1256  1.9598
 8181SOL     OW27562   8.991   0.391   2.266  0.2727 -0.0497 -0.0368
 8181SOL    HW127563   9.017   0.425   2.181  0.7626 -1.1235 -0.3244
 8181SOL    HW227564   9.023   0.455   2.329 -1.7384  1.7230 -0.7538
 8182SOL     OW27565   6.027   7.614   2.068  0.1299 -0.3596  0.1692
 8182SOL    HW127566   6.023   7.681   2.000 -0.6577  1.7799  2.2537
 8182SOL    HW227567   6.076   7.655   2.139  2.1280 -3.0400  0.4236
 8183SOL     OW27568   9.293   9.266   7.733  0.0407 -0.3234 -0.0773
 8183SOL    HW127569   9.303   9.320   7.655  1.8321 -0.8432 -0.2354
 8183SOL    HW227570   9.229   9.200   7.708 -2.2503  1.7229  0.1465
 8184SOL     OW27571   8.174   7.874   2.796 -0.2082  0.6457  0.1826
 8184SOL    HW127572   8.209   7.935   2.860 -0.6606 -0.9182  1.9534
 8184SOL    HW227573   8.091   7.844   2.833  0.6306 -2.0391  0.0093
 8185SOL     OW27574   2.553   4.501   8.334 -0.0298  0.2550 -0.1856
 8185SOL    HW127575   2.482   4.534   8.389  1.0110  0.5096  1.0036
 8185SOL    HW227576   2.610   4.576   8.320  0.8919 -0.3561  0.2476
 8186SOL     OW27577   8.601   7.758   2.749 -0.1800  0.5077 -0.0620
 8186SOL    HW127578   8.601   7.811   2.829  0.5910  0.2993  0.0765
 8186SOL    HW227579   8.693   7.735   2.736 -0.1958  1.2209 -1.4573
 8187SOL     OW27580   4.941   2.015   2.825  0.3064  0.2379  0.1269
 8187SOL    HW127581   4.889   1.937   2.846 -0.7473  1.1031  0.7933
 8187SOL    HW227582   4.887   2.064   2.763  1.6651 -0.3308 -1.5628
 8188SOL     OW27583   2.340   9.289   5.303 -0.2221  1.0327  0.3700
 8188SOL    HW127584   2.423   9.314   5.262 -0.8580 -0.7591 -2.1333
 8188SOL    HW227585   2.347   9.194   5.315 -1.3811  1.0674  1.3716
 8189SOL     OW27586   3.134   1.546   2.361 -0.5023 -0.1975 -0.1237
 8189SOL    HW127587   3.134   1.476   2.295  0.6756  0.4959 -0.8868
 8189SOL    HW227588   3.060   1.601   2.336 -0.3765 -0.2226 -0.5689
 8190SOL     OW27589   0.223   5.700   0.967  0.3936 -0.0135 -0.0696
 8190SOL    HW127590   0.234   5.630   0.903 -1.9760  0.3013 -0.8754
 8190SOL    HW227591   0.276   5.672   1.042 -0.7706 -2.8482 -0.2382
 8191SOL     OW27592   9.362   6.278   6.685  0.2585 -0.2625 -0.0932
 8191SOL    HW127593   9.338   6.370   6.700 -0.0826 -0.8157  2.8677
 8191SOL    HW227594   9.447   6.268   6.728 -0.0966 -1.5622  0.3075
 8192SOL     OW27595   8.697   6.018   5.397 -0.1799 -0.1693  0.0783
 8192SOL    HW127596   8.739   6.096   5.360  0.6178 -1.1161 -1.0344
 8192SOL    HW227597   8.604   6.029   5.375 -0.2788  1.1132  1.0898
 8193SOL     OW27598   7.512   0.597   7.374 -0.0188  0.0376  0.2147
 8193SOL    HW127599   7.552   0.511   7.387 -0.5330 -0.2596 -0.1748
 8193SOL    HW227600   7.428   0.579   7.332  0.0539  0.7584 -0.2583
 8194SOL     OW27601   3.865   3.162   7.326  0.1291  0.0462  0.6240
 8194SOL    HW127602   3.887   3.206   7.408  1.8956  0.0086  0.1948
 8194SOL    HW227603   3.789   3.109   7.347 -0.0541  0.8156  1.9776
 8195SOL     OW27604   3.341   3.993   8.701  0.0015 -0.4419 -0.0702
 8195SOL    HW127605   3.432   4.020   8.686  0.1389 -1.6186 -1.4878
 8195SOL    HW227606   3.290   4.047   8.640  0.0331 -1.5844 -1.1403
 8196SOL     OW27607   1.111   8.897   2.946 -0.0476 -0.8955 -0.2579
 8196SOL    HW127608   1.199   8.909   2.910  0.3102 -0.7512  0.6461
 8196SOL    HW227609   1.053   8.899   2.870  0.6423 -0.0645 -0.7669
 8197SOL     OW27610   8.852   1.829   4.766  0.0299 -0.0358 -0.4117
 8197SOL    HW127611   8.882   1.804   4.854  0.0793 -0.0024 -0.4190
 8197SOL    HW227612   8.761   1.801   4.763 -0.4041  1.2670  0.1777
 8198SOL     OW27613   6.481   6.818   3.211  0.6142 -0.1333 -0.0854
 8198SOL    HW127614   6.477   6.908   3.242  0.8476 -0.2269  0.2244
 8198SOL    HW227615   6.418   6.771   3.265  1.5404 -0.4369  0.7390
 8199SOL     OW27616   1.563   9.224   3.502  0.0742 -0.5908 -0.7172
 8199SOL    HW127617   1.541   9.263   3.586  0.0799  0.8079 -1.3480
 8199SOL    HW227618   1.488   9.168   3.481 -0.6633  0.3249 -0.5402
 8200SOL     OW27619   1.013   6.441   7.211 -0.0455  0.5425  0.8450
 8200SOL    HW127620   1.065   6.505   7.162 -0.8323 -0.5173 -1.4442
 8200SOL    HW227621   1.054   6.357   7.192 -1.3012 -0.0640  0.7276
 8201SOL     OW27622   0.018   4.745   0.268  0.0443  0.1647  0.4099
 8201SOL    HW127623   0.027   4.776   0.358 -0.0012 -0.1578  0.5281
 8201SOL    HW227624   0.046   4.819   0.214 -2.3125  1.2665  0.6201
 8202SOL     OW27625   6.076   5.742   5.842  0.2211  0.7699 -0.4660
 8202SOL    HW127626   6.048   5.667   5.788  1.6001  1.8810 -2.8149
 8202SOL    HW227627   6.060   5.713   5.932 -1.2139 -1.5488 -1.3919
 8203SOL     OW27628   5.305   6.323   5.811  0.2735  0.1891 -0.3944
 8203SOL    HW127629   5.391   6.365   5.825  0.4599 -0.3629  0.1620
 8203SOL    HW227630   5.243   6.396   5.807  0.6761  0.5540 -0.0340
 8204SOL     OW27631   5.181   7.038   2.310 -0.1264  0.0916 -0.1157
 8204SOL    HW127632   5.120   7.088   2.256 -0.9456 -1.2991 -0.4960
 8204SOL    HW227633   5.249   7.010   2.249 -1.2400 -1.7853 -0.5218
 8205SOL     OW27634   0.737   6.861   5.627  0.1502  0.0636  0.3758
 8205SOL    HW127635   0.672   6.878   5.695  0.4744  1.0804  0.4401
 8205SOL    HW227636   0.805   6.810   5.671 -0.6316 -1.0719  0.2874
 8206SOL     OW27637   1.920   0.938   9.031 -0.3171  0.0886  0.4764
 8206SOL    HW127638   1.911   0.881   9.107 -1.1799  1.2632  1.2555
 8206SOL    HW227639   1.889   1.023   9.060  0.3414  0.8083 -0.8804
 8207SOL     OW27640   7.104   7.536   6.042  0.0553 -0.0407 -0.7207
 8207SOL    HW127641   7.197   7.523   6.061 -0.3484 -0.6685  0.9354
 8207SOL    HW227642   7.070   7.449   6.024 -0.4730 -0.0003  0.0111
 8208SOL     OW27643   8.569   4.764   6.670  0.1783  0.2778 -0.3722
 8208SOL    HW127644   8.592   4.822   6.742  0.3189  0.0763 -0.2530
 8208SOL    HW227645   8.524   4.820   6.607  1.4859  0.7973 -0.8672
 8209SOL     OW27646   3.550   0.113   7.694 -0.1296  0.0499 -0.3185
 8209SOL    HW127647   3.580   0.131   7.604 -1.9863 -0.8139 -1.1406
 8209SOL    HW227648   3.603   0.171   7.748  1.1288  0.4957 -1.9619
 8210SOL     OW27649   2.921   8.053   0.774 -0.3130 -0.2545 -0.7331
 8210SOL    HW127650   2.982   8.111   0.821  1.5454 -2.2294 -0.6052
 8210SOL    HW227651   2.854   8.031   0.839  1.4165 -1.7599  0.6253
 8211SOL     OW27652   0.422   3.868   4.725 -0.0080  0.1785 -0.0631
 8211SOL    HW127653   0.351   3.811   4.697  0.2045 -0.8744  1.5005
 8211SOL    HW227654   0.496   3.810   4.739  0.1764  0.7958  1.6647
 8212SOL     OW27655   3.837   8.426   1.491  0.0982 -0.0688 -0.1137
 8212SOL    HW127656   3.808   8.354   1.547 -2.3949  1.4965  0.6778
 8212SOL    HW227657   3.820   8.504   1.543 -1.8428  1.3896 -2.8580
 8213SOL     OW27658   5.983   4.766   6.730 -0.0953 -0.2031 -0.3284
 8213SOL    HW127659   5.996   4.682   6.775  1.5871  0.7853  1.0995
 8213SOL    HW227660   5.921   4.813   6.786 -0.7292 -0.3275 -0.9194
 8214SOL     OW27661   5.425   3.192   6.224 -0.0757 -0.3020 -0.0728
 8214SOL    HW127662   5.501   3.201   6.166 -0.1121 -2.0546 -0.4233
 8214SOL    HW227663   5.391   3.105   6.204 -3.0904  1.0546 -1.0281
 8215SOL     OW27664   7.423   2.458   4.016 -0.1992  0.2183 -0.0906
 8215SOL    HW127665   7.458   2.496   4.096  0.0940  0.6648 -0.4210
 8215SOL    HW227666   7.420   2.532   3.954 -0.8061 -0.0277 -0.3627
 8216SOL     OW27667   8.569   8.495   4.032  0.7532 -0.7533 -0.8359
 8216SOL    HW127668   8.602   8.490   4.122 -2.1189 -0.7339  0.2802
 8216SOL    HW227669   8.577   8.405   3.999  0.0048 -1.1917  0.1366
 8217SOL     OW27670   3.886   8.470   6.089  0.4544 -0.0119  0.3870
 8217SOL    HW127671   3.804   8.451   6.135 -0.7097 -0.8349 -1.9405
 8217SOL    HW227672   3.859   8.519   6.011  2.2204  0.0955 -0.1763
 8218SOL     OW27673   2.914   8.154   1.617  0.3140 -0.3527  0.1501
 8218SOL    HW127674   2.966   8.081   1.651  0.9256 -0.5728 -1.2279
 8218SOL    HW227675   2.825   8.120   1.610  0.1948 -0.3235  1.4565
 8219SOL     OW27676   5.698   9.278   9.023 -0.8277  0.0689  0.1597
 8219SOL    HW127677   5.649   9.220   9.081 -0.6699 -1.0297 -0.7832
 8219SOL    HW227678   5.670   9.253   8.935  1.4229 -0.6102 -0.4039
 8220SOL     OW27679   8.469   3.704   8.618  0.1069  0.4905  0.0276
 8220SOL    HW127680   8.558   3.734   8.634  0.1148 -0.0209  1.0166
 8220SOL    HW227681   8.471   3.665   8.531  0.8362  0.5234  0.0326
 8221SOL     OW27682   0.671   1.697   6.169 -0.0264 -0.5948  0.3222
 8221SOL    HW127683   0.594   1.642   6.182 -1.0388  0.7392  0.1178
 8221SOL    HW227684   0.699   1.680   6.080 -0.7402 -0.2821  0.0374
 8222SOL     OW27685   4.216   0.967   3.582 -0.1375  0.0757 -0.0002
 8222SOL    HW127686   4.137   0.961   3.529 -0.3723 -1.4323  0.5179
 8222SOL    HW227687   4.190   1.017   3.659 -0.3895  0.2000 -0.1656
 8223SOL     OW27688   8.048   2.401   6.496  0.4389 -0.3904  0.1361
 8223SOL    HW127689   8.013   2.447   6.419 -0.1404  0.7376  1.0526
 8223SOL    HW227690   8.128   2.449   6.518 -0.0239  0.0216  0.9385
 8224SOL     OW27691   3.326   0.392   1.520  0.2731 -0.3554  0.0311
 8224SOL    HW127692   3.256   0.327   1.528 -0.0437 -0.1475 -0.9902
 8224SOL    HW227693   3.299   0.464   1.577 -1.1350  0.4066 -1.5783
 8225SOL     OW27694   4.208   1.240   1.711  0.0217  0.0814 -0.1486
 8225SOL    HW127695   4.296   1.233   1.674  1.6194 -0.6469  3.5550
 8225SOL    HW227696   4.170   1.153   1.698  0.5270 -0.1299 -0.2321
 8226SOL     OW27697   7.896   8.936   0.873 -0.1548  0.4777 -0.3096
 8226SOL    HW127698   7.905   8.931   0.778  0.4623  1.2801 -0.2933
 8226SOL    HW227699   7.801   8.940   0.888 -0.1871  3.1841 -1.0476
 8227SOL     OW27700   3.966   2.686   5.540 -0.1611  0.0660  0.0884
 8227SOL    HW127701   3.902   2.617   5.524 -1.9037  1.4882  0.7731
 8227SOL    HW227702   3.943   2.722   5.626  1.4602  0.7177  0.2869
 8228SOL     OW27703   1.152   4.571   3.881 -0.4038  0.1277 -0.4722
 8228SOL    HW127704   1.185   4.513   3.813 -0.6935 -2.1485  1.2804
 8228SOL    HW227705   1.059   4.581   3.862 -0.2961  0.2249 -0.9339
 8229SOL     OW27706   3.170   4.481   7.799  0.3443  0.5764 -0.1332
 8229SOL    HW127707   3.210   4.471   7.713  2.6802 -0.2629  0.9909
 8229SOL    HW227708   3.171   4.575   7.816 -0.9863  0.8278 -1.3979
 8230SOL     OW27709   1.307   3.638   1.150  0.2439  0.1742 -0.0433
 8230SOL    HW127710   1.290   3.671   1.238  0.6191  0.7906 -0.1990
 8230SOL    HW227711   1.325   3.716   1.098  1.5647 -0.2996 -0.3200
 8231SOL     OW27712   0.100   0.349   0.654 -0.3469  0.3716  0.3645
 8231SOL    HW127713   0.184   0.362   0.609 -1.0290  1.8628 -0.4926
 8231SOL    HW227714   0.064   0.437   0.665 -1.8215 -0.2574  0.7009
 8232SOL     OW27715   6.785   4.579   3.350 -0.1522 -0.6222  0.2795
 8232SOL    HW127716   6.733   4.525   3.409  0.4650 -1.5380 -0.0027
 8232SOL    HW227717   6.853   4.618   3.406 -0.0477 -0.8584  0.3143
 8233SOL     OW27718   7.659   4.087   3.195  0.1363  0.3252  0.0309
 8233SOL    HW127719   7.680   3.994   3.209  0.8858  0.4944  0.0153
 8233SOL    HW227720   7.571   4.097   3.232 -0.4237 -0.6608 -1.0124
 8234SOL     OW27721   4.052   8.393   4.480  0.1055  0.0832 -0.5375
 8234SOL    HW127722   4.021   8.479   4.452  0.2520 -0.1118 -1.3154
 8234SOL    HW227723   3.996   8.370   4.554  0.4804  1.1280  0.0848
 8235SOL     OW27724   6.990   6.889   3.483  0.0755  0.3367 -0.4643
 8235SOL    HW127725   6.946   6.923   3.405 -0.1679 -2.7202 -1.7350
 8235SOL    HW227726   7.083   6.900   3.465 -0.0076  0.6371 -0.7161
 8236SOL     OW27727   8.694   3.412   0.368 -0.2592  0.1952  0.1532
 8236SOL    HW127728   8.604   3.440   0.352  0.0325  0.6670 -0.7207
 8236SOL    HW227729   8.686   3.323   0.402 -0.9586 -0.7311 -2.3130
 8237SOL     OW27730   9.136   8.007   8.818  0.6890 -0.2123 -0.0707
 8237SOL    HW127731   9.046   8.034   8.801  0.2901 -1.4180  0.1114
 8237SOL    HW227732   9.155   8.043   8.904  0.6177  0.6364 -0.4086
 8238SOL     OW27733   4.149   6.236   9.173 -0.6348  0.6426  0.6280
 8238SOL    HW127734   4.100   6.292   9.112 -2.6705 -0.7252  0.9467
 8238SOL    HW227735   4.181   6.164   9.119 -0.8462  0.4076  0.8128
 8239SOL     OW27736   7.474   0.262   4.385 -0.0366  0.4251  0.2747
 8239SOL    HW127737   7.383   0.231   4.388  0.7508 -2.4231 -2.3550
 8239SOL    HW227738   7.490   0.279   4.292  2.2430  0.5194  0.6591
 8240SOL     OW27739   4.868   3.183   8.961  0.0095 -0.1264 -0.1723
 8240SOL    HW127740   4.807   3.253   8.935  0.5690  0.4986  0.1820
 8240SOL    HW227741   4.832   3.150   9.043  1.0024  1.3233  0.8768
 8241SOL     OW27742   6.914   5.798   8.313 -0.2881  0.3632  0.2560
 8241SOL    HW127743   6.994   5.760   8.275 -0.9573 -0.9888  0.1855
 8241SOL    HW227744   6.927   5.893   8.305  2.5319  0.2552  2.7514
 8242SOL     OW27745   1.574   6.233   3.258 -0.1326  0.5077  0.0735
 8242SOL    HW127746   1.627   6.229   3.338 -1.0822 -2.0249  0.6428
 8242SOL    HW227747   1.525   6.150   3.259 -2.4048  1.8009 -1.5885
 8243SOL     OW27748   3.095   8.196   6.911 -0.4216  0.4907 -0.1085
 8243SOL    HW127749   3.149   8.244   6.973 -1.2884  1.4119 -0.0447
 8243SOL    HW227750   3.027   8.155   6.964 -0.4209  0.2198 -0.3104
 8244SOL     OW27751   8.237   1.848   2.142  0.3717  0.1608  0.1871
 8244SOL    HW127752   8.184   1.854   2.062 -0.3427  1.3419  0.7346
 8244SOL    HW227753   8.255   1.939   2.166 -0.5357 -0.1450  2.0932
 8245SOL     OW27754   6.378   3.374   2.126 -0.3477  0.1336  0.0481
 8245SOL    HW127755   6.341   3.444   2.180  1.1911  2.0221 -1.2954
 8245SOL    HW227756   6.322   3.298   2.144 -2.6821  1.9555  0.7326
 8246SOL     OW27757   0.817   7.573   1.879 -0.2085  0.6125 -0.1098
 8246SOL    HW127758   0.736   7.625   1.873 -0.9844 -0.5642 -0.0305
 8246SOL    HW227759   0.883   7.635   1.909 -1.0517  1.6292 -0.3167
 8247SOL     OW27760   7.442   7.996   7.717  0.2714 -0.0075  0.0710
 8247SOL    HW127761   7.467   7.979   7.808 -0.2403 -1.3990 -0.0319
 8247SOL    HW227762   7.515   7.963   7.665  0.8930  1.4501 -0.0168
 8248SOL     OW27763   2.795   4.303   1.545 -0.0089  0.5023 -0.3808
 8248SOL    HW127764   2.801   4.350   1.462 -1.5897  1.7656  0.1765
 8248SOL    HW227765   2.742   4.225   1.525  0.2692  0.4001 -0.7210
 8249SOL     OW27766   8.764   0.136   4.052 -0.0984  0.1908  0.0197
 8249SOL    HW127767   8.704   0.063   4.064  0.0873 -0.0742 -0.6412
 8249SOL    HW227768   8.850   0.095   4.040  0.0238  0.5202 -0.2371
 8250SOL     OW27769   0.229   2.820   8.712  0.5716  0.1083  0.0355
 8250SOL    HW127770   0.305   2.776   8.749  1.3854  1.1618 -0.3466
 8250SOL    HW227771   0.263   2.866   8.635 -0.0962  1.9707  0.8099
 8251SOL     OW27772   0.986   6.409   0.718  0.0276  0.0055 -0.0022
 8251SOL    HW127773   1.031   6.450   0.644 -0.2732 -0.5779 -0.5041
 8251SOL    HW227774   1.009   6.316   0.713 -0.5037 -0.1444  0.2697
 8252SOL     OW27775   0.069   8.151   7.866 -0.3076  0.4848 -0.0320
 8252SOL    HW127776  -0.013   8.180   7.826  0.4894  2.8343 -0.0241
 8252SOL    HW227777   0.137   8.177   7.804  0.4916 -1.1010  0.1435
 8253SOL     OW27778   7.412   8.976   6.148  0.0170  0.1753  0.1683
 8253SOL    HW127779   7.435   9.028   6.226  0.5789  0.4889 -0.1976
 8253SOL    HW227780   7.321   8.952   6.161 -0.4622  1.8638  0.0066
 8254SOL     OW27781   4.001   4.713   5.875 -0.4563 -0.1488  0.3396
 8254SOL    HW127782   3.996   4.745   5.965  1.2853 -0.2004  0.4779
 8254SOL    HW227783   4.095   4.706   5.858 -0.7896 -2.2401 -0.7436
 8255SOL     OW27784   2.203   3.448   0.582 -0.6510 -0.0748 -0.2714
 8255SOL    HW127785   2.267   3.384   0.551  0.5362  0.7980  0.3592
 8255SOL    HW227786   2.132   3.444   0.517 -1.1427 -2.8636  0.3803
 8256SOL     OW27787   6.522   4.245   0.974 -0.4726  0.5022  0.2523
 8256SOL    HW127788   6.514   4.207   0.886 -1.1386  0.5673  0.2818
 8256SOL    HW227789   6.486   4.333   0.965 -1.0987  0.2994  0.7252
 8257SOL     OW27790   3.084   7.675   5.973 -0.0133 -0.0410 -0.6844
 8257SOL    HW127791   3.149   7.617   5.932 -0.7596 -0.5151 -1.2164
 8257SOL    HW227792   3.010   7.618   5.993 -0.2626  0.4918 -0.0624
 8258SOL     OW27793   7.714   5.238   0.507  0.1952 -0.1628 -0.7331
 8258SOL    HW127794   7.739   5.225   0.599  1.0978  1.7197 -0.6715
 8258SOL    HW227795   7.699   5.150   0.473  1.4283 -0.9912  0.7948
 8259SOL     OW27796   6.264   4.555   1.854  0.0518 -0.2106  0.3587
 8259SOL    HW127797   6.313   4.623   1.808  0.5502 -1.3005 -0.7621
 8259SOL    HW227798   6.325   4.481   1.859 -0.8891 -0.9877  0.4976
 8260SOL     OW27799   8.174   1.732   8.661 -0.2782  0.7807 -0.3411
 8260SOL    HW127800   8.263   1.701   8.678  0.1126  1.7480 -0.6261
 8260SOL    HW227801   8.140   1.757   8.747 -0.2932  0.3708 -0.2272
 8261SOL     OW27802   2.766   0.839   1.306 -0.5087 -0.4660  0.1321
 8261SOL    HW127803   2.859   0.860   1.313 -0.7145 -0.3706  3.9583
 8261SOL    HW227804   2.722   0.924   1.304 -0.6152 -0.5032  0.7391
 8262SOL     OW27805   2.066   7.398   5.503  0.0086  0.7654 -1.1276
 8262SOL    HW127806   2.010   7.349   5.564  2.1101  0.5365  0.6701
 8262SOL    HW227807   2.057   7.351   5.420 -0.8957 -0.4685 -0.3628
 8263SOL     OW27808   8.298   8.587   6.339  0.0745  0.1316  0.2344
 8263SOL    HW127809   8.265   8.637   6.264 -1.2561 -1.3824 -0.2233
 8263SOL    HW227810   8.304   8.651   6.410 -1.0296  1.0722 -0.4965
 8264SOL     OW27811   7.183   1.650   4.260  0.0630  0.4085  0.0805
 8264SOL    HW127812   7.154   1.560   4.244  0.6043  0.2797 -0.1882
 8264SOL    HW227813   7.228   1.676   4.179  1.2194  0.3973  0.7066
 8265SOL     OW27814   5.182   6.676   2.295  0.0594  0.0504 -0.1576
 8265SOL    HW127815   5.225   6.591   2.293  0.5481  0.3038 -0.5325
 8265SOL    HW227816   5.179   6.699   2.388 -0.0705 -0.3741 -0.0562
 8266SOL     OW27817   9.324   6.409   3.333  0.5492 -0.3071 -0.0887
 8266SOL    HW127818   9.257   6.382   3.271 -0.0089  1.0734 -0.1019
 8266SOL    HW227819   9.403   6.361   3.306  0.2976  0.2200 -1.8110
 8267SOL     OW27820   7.692   1.408   4.463  0.1412  0.6919  0.3234
 8267SOL    HW127821   7.724   1.328   4.504 -1.0990  0.2885  0.5059
 8267SOL    HW227822   7.697   1.474   4.532 -1.7441  0.0599  1.1057
 8268SOL     OW27823   3.746   2.360   5.928 -0.0918 -0.6457 -0.0172
 8268SOL    HW127824   3.690   2.400   5.861 -0.8532  0.3019  1.1551
 8268SOL    HW227825   3.790   2.435   5.969 -0.7561 -1.0841  1.5215
 8269SOL     OW27826   9.269   2.899   4.360  0.1037  0.1038 -0.2293
 8269SOL    HW127827   9.198   2.935   4.308  1.6441  2.0061 -1.0856
 8269SOL    HW227828   9.247   2.922   4.451 -1.1903 -0.7682 -0.3210
 8270SOL     OW27829   6.399   3.526   3.920  0.3670 -0.3107 -0.9093
 8270SOL    HW127830   6.419   3.482   4.003  0.0619  0.4954 -0.4017
 8270SOL    HW227831   6.482   3.523   3.871  0.1560 -2.0794 -1.1858
 8271SOL     OW27832   7.010   5.670   8.804 -0.0022  0.3191 -0.0736
 8271SOL    HW127833   6.923   5.670   8.766 -0.4408  0.0041  0.9213
 8271SOL    HW227834   7.023   5.760   8.835 -1.1954 -0.3657  2.5185
 8272SOL     OW27835   0.007   3.337   5.552 -0.0907  0.0548  0.1818
 8272SOL    HW127836  -0.036   3.326   5.636 -0.5410 -0.7532 -0.1477
 8272SOL    HW227837  -0.035   3.415   5.514 -1.3758 -0.8004 -0.1944
 8273SOL     OW27838   4.601   1.600   3.497  0.0526  0.4665  0.0565
 8273SOL    HW127839   4.614   1.575   3.588  1.8460  1.5458  0.1210
 8273SOL    HW227840   4.686   1.634   3.469 -0.4901  0.1831 -2.0088
 8274SOL     OW27841   8.970   4.621   3.538  0.2607 -0.2834 -0.2381
 8274SOL    HW127842   9.037   4.612   3.471  0.5138 -1.0857  0.1074
 8274SOL    HW227843   8.899   4.563   3.509 -0.5639  1.0713 -0.9407
 8275SOL     OW27844   9.029   5.583   8.210  0.2798 -0.3980  0.2057
 8275SOL    HW127845   9.111   5.589   8.161 -0.3120 -0.5888 -0.8312
 8275SOL    HW227846   9.048   5.625   8.294  0.9604  1.0350 -0.6431
 8276SOL     OW27847   5.685   8.064   6.654 -0.4802  0.7253  0.2900
 8276SOL    HW127848   5.659   7.992   6.712 -0.3012  0.2987 -0.1535
 8276SOL    HW227849   5.771   8.037   6.620 -0.9325  0.6031 -0.7784
 8277SOL     OW27850   1.739   6.103   8.192 -0.0530  0.1196  0.2288
 8277SOL    HW127851   1.669   6.139   8.246  0.7392  1.5129  0.3465
 8277SOL    HW227852   1.817   6.151   8.219  0.5979 -0.1013 -1.2214
 8278SOL     OW27853   6.436   2.036   1.823 -0.2185  0.2482  0.4271
 8278SOL    HW127854   6.457   2.092   1.749  0.2380 -1.9393 -1.1590
 8278SOL    HW227855   6.456   2.089   1.900 -0.5885  2.5158 -0.9902
 8279SOL     OW27856   0.908   9.304   6.184 -0.5173 -1.1958 -0.3635
 8279SOL    HW127857   0.905   9.374   6.249  1.1915  0.1697 -1.7202
 8279SOL    HW227858   0.948   9.230   6.230  0.8705 -0.1802  0.0964
 8280SOL     OW27859   3.624   6.093   3.613 -0.5020 -0.3753 -0.2524
 8280SOL    HW127860   3.597   6.171   3.565  0.6070  0.1494 -0.0499
 8280SOL    HW227861   3.548   6.070   3.667 -0.8623  0.5208 -0.3740
 8281SOL     OW27862   8.899   4.428   8.900 -0.1015 -0.0837  0.5665
 8281SOL    HW127863   8.885   4.342   8.860  0.8005 -0.3869  0.8823
 8281SOL    HW227864   8.935   4.482   8.830  0.0942 -0.2007  0.5751
 8282SOL     OW27865   4.167   3.484   1.682 -0.2600 -0.3395 -0.3285
 8282SOL    HW127866   4.197   3.539   1.609  0.5052 -0.1754  0.0979
 8282SOL    HW227867   4.244   3.432   1.706 -0.8675 -1.2929 -0.4509
 8283SOL     OW27868   7.731   5.201   0.773  0.4023 -0.5747  0.5732
 8283SOL    HW127869   7.677   5.138   0.822 -0.1093 -0.6449 -0.0712
 8283SOL    HW227870   7.692   5.286   0.793  0.2809 -0.5904  0.4079
 8284SOL     OW27871   2.204   5.701   5.419 -0.0451 -0.4093 -0.2220
 8284SOL    HW127872   2.152   5.733   5.345 -1.4422 -0.8681  0.5378
 8284SOL    HW227873   2.148   5.715   5.496  0.5925 -1.7218  0.5134
 8285SOL     OW27874   0.766   8.789   8.936 -0.1733  0.1237 -0.4224
 8285SOL    HW127875   0.686   8.822   8.897  0.0135 -0.0919 -0.9842
 8285SOL    HW227876   0.736   8.723   8.998 -0.3747 -0.6137 -1.2998
 8286SOL     OW27877   9.029   9.351   6.784 -0.1056  0.0205  0.0554
 8286SOL    HW127878   9.069   9.403   6.853 -0.5191  1.4143 -0.7349
 8286SOL    HW227879   9.096   9.289   6.758  0.2971 -0.0382  1.2044
 8287SOL     OW27880   2.649   5.195   8.730  0.3787  0.1948 -0.4356
 8287SOL    HW127881   2.659   5.223   8.639  1.3925 -1.5007 -0.8513
 8287SOL    HW227882   2.700   5.115   8.737  1.8276  1.2868  2.1101
 8288SOL     OW27883   8.197   4.929   0.843  0.1442  0.2936 -0.0571
 8288SOL    HW127884   8.266   4.991   0.821  2.4001 -1.9215  0.4963
 8288SOL    HW227885   8.244   4.848   0.865 -2.6471 -1.3631  0.0413
 8289SOL     OW27886   4.819   7.929   8.887 -0.1174  0.5207 -0.2483
 8289SOL    HW127887   4.910   7.917   8.913 -0.7968  0.2237  2.0795
 8289SOL    HW227888   4.806   7.868   8.814  1.7653  1.2075 -1.1960
 8290SOL     OW27889   0.401   1.157   2.984 -0.2129  0.3610  0.7802
 8290SOL    HW127890   0.309   1.133   2.979  0.1394 -1.3767  1.9029
 8290SOL    HW227891   0.426   1.178   2.894 -1.9899  2.0384  0.6703
 8291SOL     OW27892   3.283   1.255   2.844 -0.1465  0.2746  0.7012
 8291SOL    HW127893   3.211   1.195   2.861  0.0488  0.1969  1.2515
 8291SOL    HW227894   3.242   1.341   2.838 -0.2839  0.2270  0.9859
 8292SOL     OW27895   0.958   2.790   8.388  0.5575 -0.0282 -0.1870
 8292SOL    HW127896   0.871   2.799   8.349 -1.0402 -2.3852  2.6693
 8292SOL    HW227897   1.003   2.726   8.334 -0.1923 -0.2896 -0.5008
 8293SOL     OW27898   3.314   3.208   7.242 -0.1305  0.2175  0.1196
 8293SOL    HW127899   3.253   3.137   7.221 -0.2354  0.4209 -0.2579
 8293SOL    HW227900   3.260   3.287   7.241  0.2413  0.4641 -0.7424
 8294SOL     OW27901   7.853   4.186   5.006  0.1143 -0.5390 -0.2618
 8294SOL    HW127902   7.921   4.200   5.072 -1.4280 -0.6088  1.3818
 8294SOL    HW227903   7.855   4.265   4.953 -0.1533  0.5204  1.2784
 8295SOL     OW27904   5.693   2.402   1.320  0.2988  0.0782  0.0278
 8295SOL    HW127905   5.674   2.330   1.380  2.7368 -0.5438  0.0858
 8295SOL    HW227906   5.728   2.471   1.375  2.6756 -0.5456 -0.6579
 8296SOL     OW27907   5.558   0.001   2.162 -0.0085  0.3344  0.2011
 8296SOL    HW127908   5.597   0.035   2.243  1.2074  0.1064 -0.2854
 8296SOL    HW227909   5.587  -0.090   2.156 -0.1360  0.3304 -0.4632
 8297SOL     OW27910   2.638   1.172   8.116  0.0713 -0.1113  0.2212
 8297SOL    HW127911   2.723   1.206   8.144  0.5869 -2.1509  1.2339
 8297SOL    HW227912   2.578   1.246   8.128  1.0632  0.3447  2.8623
 8298SOL     OW27913   1.526   1.812   6.745 -0.3775  0.4048  0.0437
 8298SOL    HW127914   1.453   1.866   6.714  0.7875  1.8507 -0.2721
 8298SOL    HW227915   1.603   1.848   6.700  0.6206 -0.6818  0.8417
 8299SOL     OW27916   5.302   1.963   5.269  0.2695  0.4432  0.3094
 8299SOL    HW127917   5.274   1.985   5.358 -1.4595 -0.4727  0.0090
 8299SOL    HW227918   5.366   1.892   5.281 -0.4367 -0.1145  0.7968
 8300SOL     OW27919   0.663   9.227   6.400  0.4405 -0.3489 -0.2510
 8300SOL    HW127920   0.721   9.182   6.339  0.2470 -0.0416 -0.6675
 8300SOL    HW227921   0.623   9.296   6.347 -0.5827 -0.7921 -0.0556
 8301SOL     OW27922   9.169   0.517   6.500 -0.1862  0.0039  0.1497
 8301SOL    HW127923   9.118   0.527   6.420 -0.8482 -0.2662  0.5333
 8301SOL    HW227924   9.107   0.482   6.564  0.4989 -0.4034  0.5992
 8302SOL     OW27925   0.688   2.814   1.703  0.2743  0.6877 -0.5979
 8302SOL    HW127926   0.660   2.861   1.782  0.8100 -0.4948  0.2994
 8302SOL    HW227927   0.668   2.874   1.632 -0.2768  1.7457  0.4324
 8303SOL     OW27928   4.510   5.009   5.425  0.3271 -0.2693 -0.8255
 8303SOL    HW127929   4.558   5.023   5.344  1.6549 -1.2976 -0.2254
 8303SOL    HW227930   4.423   4.979   5.396  0.6650 -0.2530 -1.8668
 8304SOL     OW27931   2.332   0.948   9.190 -0.0151 -0.2583  0.2521
 8304SOL    HW127932   2.426   0.938   9.172 -0.3006 -1.2402 -0.7545
 8304SOL    HW227933   2.292   0.868   9.155 -1.2371  0.1853  0.6089
 8305SOL     OW27934   4.427   5.988   6.283 -0.6020 -0.4860  0.7116
 8305SOL    HW127935   4.436   6.011   6.191 -0.8039 -0.6620  0.6492
 8305SOL    HW227936   4.367   6.053   6.319 -0.5972 -0.4748  0.6993
 8306SOL     OW27937   3.984   7.120   2.699 -0.1264 -0.5985 -0.0019
 8306SOL    HW127938   4.000   7.044   2.755 -0.2159  0.0349  0.8949
 8306SOL    HW227939   3.889   7.135   2.705 -0.2214 -0.8604 -0.7656
 8307SOL     OW27940   8.551   1.629   7.559  0.6058 -0.0092  0.8170
 8307SOL    HW127941   8.469   1.678   7.557  1.1667  0.8973 -0.4796
 8307SOL    HW227942   8.529   1.543   7.524  0.2931  0.3799  0.0526
 8308SOL     OW27943   8.945   1.472   0.112 -1.0202 -0.0354  0.2153
 8308SOL    HW127944   8.981   1.402   0.058 -1.0459 -0.3013  0.5383
 8308SOL    HW227945   8.977   1.553   0.072  0.2144 -0.2709  0.6927
 8309SOL     OW27946   1.757   4.012   8.045 -0.2072  0.5563  0.5829
 8309SOL    HW127947   1.684   4.009   7.984  0.4437 -0.5605 -0.1709
 8309SOL    HW227948   1.720   3.982   8.128 -0.9769  1.5936  0.6256
 8310SOL     OW27949   7.176   4.788   7.599  0.3112  0.0978 -0.0510
 8310SOL    HW127950   7.242   4.854   7.581  0.1234  0.0890 -0.7975
 8310SOL    HW227951   7.224   4.717   7.641  1.0267 -0.4241 -1.6791
 8311SOL     OW27952   8.804   9.201   6.680  0.0100  0.0011  0.2492
 8311SOL    HW127953   8.881   9.235   6.726  0.7794  0.0641 -1.0442
 8311SOL    HW227954   8.730   9.232   6.731  0.8231  0.5719  1.1062
 8312SOL     OW27955   7.659   4.040   6.057  0.0894  0.1809 -0.0524
 8312SOL    HW127956   7.607   4.064   6.134  1.5468 -1.4591  1.5114
 8312SOL    HW227957   7.608   3.972   6.013 -0.8356  1.2540 -0.6430
 8313SOL     OW27958   4.303   1.815   4.088 -0.4639 -0.5352  0.6673
 8313SOL    HW127959   4.336   1.783   4.004 -0.8925  0.3785  0.1435
 8313SOL    HW227960   4.312   1.741   4.147  0.0776 -1.1076 -0.1266
 8314SOL     OW27961   7.029   2.587   7.069  0.1340 -0.2548 -0.0151
 8314SOL    HW127962   7.047   2.543   6.985 -2.5450 -2.7947  0.6428
 8314SOL    HW227963   6.973   2.525   7.116 -0.8095  2.4172  2.4678
 8315SOL     OW27964   5.188   0.437   0.555 -0.2391  0.1563  0.2394
 8315SOL    HW127965   5.256   0.498   0.581  1.1367 -0.7676 -1.0972
 8315SOL    HW227966   5.190   0.438   0.459 -1.8711 -0.1518  0.1736
 8316SOL     OW27967   8.465   3.403   5.749  0.0565  0.1062  0.1947
 8316SOL    HW127968   8.552   3.437   5.768  0.9857 -1.9328 -0.2176
 8316SOL    HW227969   8.446   3.433   5.660  1.2242 -1.1179 -0.4902
 8317SOL     OW27970   0.372   5.684   9.338 -0.1466  0.6802 -0.5570
 8317SOL    HW127971   0.433   5.671   9.411  0.0936  0.5451 -0.7804
 8317SOL    HW227972   0.316   5.607   9.339  0.2238  0.4097 -0.8698
 8318SOL     OW27973   3.192   3.349   7.620 -0.0720 -0.6048 -0.7949
 8318SOL    HW127974   3.146   3.413   7.565 -0.0417 -0.5788 -0.7900
 8318SOL    HW227975   3.137   3.339   7.697  0.9850  1.0532  0.2238
 8319SOL     OW27976   5.344   0.122   5.026  0.7861  0.0759  0.0539
 8319SOL    HW127977   5.251   0.145   5.035  0.5802  0.1058 -2.0275
 8319SOL    HW227978   5.387   0.204   5.002  1.2283 -0.1314  0.1281
 8320SOL     OW27979   7.377   7.176   4.648 -0.4071  0.0613 -0.3722
 8320SOL    HW127980   7.343   7.086   4.653 -0.0343 -0.1127 -0.8975
 8320SOL    HW227981   7.316   7.221   4.591 -0.3824  0.0402 -0.4160
 8321SOL     OW27982   3.549   3.217   2.174 -0.6570 -0.1359  0.5789
 8321SOL    HW127983   3.599   3.149   2.219  0.9398 -1.0255 -2.3732
 8321SOL    HW227984   3.612   3.289   2.161  0.0261 -1.3258 -3.3108
 8322SOL     OW27985   7.613   7.446   0.225 -0.0770 -0.6196 -0.0465
 8322SOL    HW127986   7.585   7.460   0.315 -0.2056 -1.7191  0.0889
 8322SOL    HW227987   7.624   7.351   0.218  0.9676 -0.4458 -0.8768
 8323SOL     OW27988   7.319   8.469   5.640 -0.1454  0.4915 -0.0188
 8323SOL    HW127989   7.354   8.381   5.647 -0.6461  0.2829 -0.0643
 8323SOL    HW227990   7.338   8.510   5.724  0.0877  0.3410  0.0023
 8324SOL     OW27991   6.435   8.917   5.572  0.1083  0.0209 -0.3355
 8324SOL    HW127992   6.445   8.838   5.520  0.6687 -1.6795  2.2508
 8324SOL    HW227993   6.523   8.955   5.576  0.2313 -0.2916  0.0067
 8325SOL     OW27994   0.145   5.897   0.288  0.0156 -0.2956  0.5285
 8325SOL    HW127995   0.136   5.992   0.282 -0.6472 -0.2486  1.9328
 8325SOL    HW227996   0.061   5.863   0.257  0.9229 -0.5159 -1.7700
 8326SOL     OW27997   5.286   5.139   8.975  0.1257  1.4147  0.0748
 8326SOL    HW127998   5.265   5.071   9.040  0.2844  1.5819  0.3030
 8326SOL    HW227999   5.377   5.120   8.950  0.0973  1.4118 -0.0227
 8327SOL     OW28000   6.809   0.945   8.633 -0.1477 -0.3530  0.2231
 8327SOL    HW128001   6.772   0.856   8.634  0.0878 -0.4971 -1.8517
 8327SOL    HW228002   6.789   0.980   8.719 -1.7501 -1.8242  0.4758
 8328SOL     OW28003   0.366   1.998   0.728  0.2692  0.0812  0.6129
 8328SOL    HW128004   0.319   2.081   0.735  1.2814  0.8314 -1.1227
 8328SOL    HW228005   0.361   1.960   0.815  0.4013  2.3112  1.6252
 8329SOL     OW28006   3.986   3.828   2.448 -0.0245 -0.0194  0.9549
 8329SOL    HW128007   4.071   3.827   2.404 -0.5303  0.9298 -0.0726
 8329SOL    HW228008   3.987   3.750   2.503  2.2259  0.9424  2.3603
 8330SOL     OW28009   1.916   6.804   5.651  0.4626  0.1542 -0.1735
 8330SOL    HW128010   1.861   6.861   5.597  1.1666  0.0289 -1.0453
 8330SOL    HW228011   1.970   6.757   5.587  2.5453  1.2709  0.7186
 8331SOL     OW28012   4.310   2.705   5.912  0.1389  0.1934 -0.3300
 8331SOL    HW128013   4.292   2.743   5.826  1.4606  1.4142 -0.0862
 8331SOL    HW228014   4.267   2.620   5.909  0.4713  0.0584 -2.3280
 8332SOL     OW28015   7.427   3.884   7.647 -0.3188 -0.5755  0.4887
 8332SOL    HW128016   7.351   3.935   7.619  0.5302  1.5203  1.8907
 8332SOL    HW228017   7.405   3.852   7.734  0.4753  0.2276  0.9949
 8333SOL     OW28018   5.610   9.104   4.712 -0.5185 -0.3355 -0.3849
 8333SOL    HW128019   5.682   9.127   4.772 -0.5639 -1.2695  0.0324
 8333SOL    HW228020   5.629   9.153   4.632 -0.9510  1.6700  0.7055
 8334SOL     OW28021   3.277   3.326   5.565 -0.0979 -0.2430 -0.0086
 8334SOL    HW128022   3.332   3.279   5.628 -0.0032 -2.4806 -1.7120
 8334SOL    HW228023   3.192   3.332   5.608  0.4998  0.0530  1.1566
 8335SOL     OW28024   4.116   9.052   2.579 -0.3020  0.0876 -0.0508
 8335SOL    HW128025   4.024   9.027   2.569 -1.1239  2.8879 -0.0755
 8335SOL    HW228026   4.154   9.041   2.492 -0.4848 -1.5037  0.0583
 8336SOL     OW28027   7.464   3.094   1.248  0.3858 -0.0068 -0.0932
 8336SOL    HW128028   7.405   3.168   1.258  1.7248  0.7918  2.2786
 8336SOL    HW228029   7.482   3.090   1.154 -1.2498  1.4195 -0.4950
 8337SOL     OW28030   5.848   3.350   4.961  0.9916  0.0491  0.5668
 8337SOL    HW128031   5.862   3.444   4.969 -0.7453  0.3943 -0.1173
 8337SOL    HW228032   5.817   3.323   5.048  2.0922 -0.0065  0.9432
 8338SOL     OW28033   8.787   0.460   4.677 -0.3867 -0.2243 -0.4142
 8338SOL    HW128034   8.699   0.422   4.672 -0.3208 -0.3923 -0.2885
 8338SOL    HW228035   8.777   0.536   4.735 -0.9899  1.2626 -2.3706
 8339SOL     OW28036   1.735   0.756   4.193 -0.7223 -0.1012  0.1836
 8339SOL    HW128037   1.809   0.696   4.182 -0.4639  0.2230  0.1363
 8339SOL    HW228038   1.772   0.831   4.240 -0.5560  0.9318 -1.5424
 8340SOL     OW28039   8.958   4.483   7.493  0.8786 -0.1629 -0.4095
 8340SOL    HW128040   8.945   4.402   7.443  0.7502 -0.0493 -0.5626
 8340SOL    HW228041   9.049   4.507   7.477  1.0045 -0.4511 -0.1035
 8341SOL     OW28042   0.871   5.655   5.878  0.2032 -0.0435 -0.1860
 8341SOL    HW128043   0.792   5.709   5.882  1.7319  2.4049 -1.8558
 8341SOL    HW228044   0.933   5.706   5.826  3.0567 -1.7473  1.4114
 8342SOL     OW28045   6.814   8.033   1.320  0.1405  0.0527 -0.0947
 8342SOL    HW128046   6.824   8.128   1.318 -0.2060  0.0692 -1.2600
 8342SOL    HW228047   6.798   8.008   1.229 -0.6357 -1.0269  0.3256
 8343SOL     OW28048   7.655   0.053   2.379 -0.0094  0.3887 -0.3988
 8343SOL    HW128049   7.644  -0.032   2.337  0.2112  0.5610 -0.8127
 8343SOL    HW228050   7.714   0.101   2.320  0.6214  0.4967  0.3071
 8344SOL     OW28051   6.885   1.001   0.339  0.1349 -0.1637  0.3296
 8344SOL    HW128052   6.959   1.038   0.291 -0.7578  1.8704  0.4570
 8344SOL    HW228053   6.821   0.980   0.272  0.2143 -0.4786  0.3510
 8345SOL     OW28054   6.559   8.921   7.373  0.4569  0.2649 -0.1285
 8345SOL    HW128055   6.600   8.926   7.460 -1.9136  0.3566  1.0084
 8345SOL    HW228056   6.471   8.889   7.389 -0.8726  2.6975 -2.2254
 8346SOL     OW28057   4.459   2.414   4.958  0.8185  0.4589  0.5200
 8346SOL    HW128058   4.464   2.320   4.945 -1.0824  0.4789 -0.5445
 8346SOL    HW228059   4.489   2.451   4.875 -0.1018  0.7440  0.2993
 8347SOL     OW28060   4.133   0.416   4.930 -0.1155  1.1788  0.2838
 8347SOL    HW128061   4.083   0.432   4.850  0.4211  0.3196 -0.2312
 8347SOL    HW228062   4.068   0.420   5.000 -0.8335  0.5525 -0.3352
 8348SOL     OW28063   4.972   3.181   7.323 -0.3312 -0.2344  0.9132
 8348SOL    HW128064   4.881   3.212   7.317 -0.3765 -0.2970  1.2644
 8348SOL    HW228065   4.971   3.096   7.279 -0.1002  0.4773 -0.4874
 8349SOL     OW28066   5.885   4.304   3.474 -0.3379  0.0750 -0.5558
 8349SOL    HW128067   5.829   4.273   3.403  0.9891 -0.9944 -1.1582
 8349SOL    HW228068   5.854   4.257   3.551 -0.6591 -0.0609 -0.7654
 8350SOL     OW28069   8.589   7.603   9.210  0.2300  0.3982  0.1416
 8350SOL    HW128070   8.583   7.556   9.127  0.3479  0.3947  0.1352
 8350SOL    HW228071   8.641   7.546   9.266  0.1505  0.4011  0.2176
 8351SOL     OW28072   6.604   9.106   3.269  0.2340 -0.2731  0.1741
 8351SOL    HW128073   6.562   9.189   3.290  1.9973  0.2029  1.9122
 8351SOL    HW228074   6.610   9.060   3.352  0.2915 -1.6875 -0.5903
 8352SOL     OW28075   6.794   6.341   7.040  0.2479 -0.0761  0.5489
 8352SOL    HW128076   6.807   6.330   6.946  0.1777 -2.2002  0.7622
 8352SOL    HW228077   6.864   6.290   7.080  0.2212  0.7405  1.6578
 8353SOL     OW28078   6.086   9.267   5.719 -0.0595  0.6445 -0.2157
 8353SOL    HW128079   6.071   9.227   5.805 -1.0633 -1.7907 -1.4703
 8353SOL    HW228080   6.078   9.361   5.735  1.5673  0.3448  2.6977
 8354SOL     OW28081   6.008   7.820   4.494 -0.3124 -0.9488 -0.2868
 8354SOL    HW128082   5.938   7.836   4.557 -0.7075 -0.6946 -0.7901
 8354SOL    HW228083   5.996   7.729   4.467 -0.5912 -0.8359 -0.5471
 8355SOL     OW28084   7.951   0.916   4.617  0.0494 -0.5867  0.2386
 8355SOL    HW128085   8.026   0.857   4.618  0.5618  0.0465 -0.2680
 8355SOL    HW228086   7.890   0.878   4.554 -0.6454 -1.8046  1.6077
 8356SOL     OW28087   4.259   8.001   5.072 -0.1521  0.0895 -0.0321
 8356SOL    HW128088   4.287   8.029   4.985  1.5625  0.0581  0.4956
 8356SOL    HW228089   4.164   8.009   5.070 -0.3080 -1.7913 -2.5517
 8357SOL     OW28090   3.794   7.235   1.913 -0.1059  0.1414  0.0925
 8357SOL    HW128091   3.766   7.168   1.851 -1.0424  0.2992  0.3277
 8357SOL    HW228092   3.845   7.187   1.978 -0.8742 -0.3767  0.3264
 8358SOL     OW28093   1.121   1.788   8.386  0.1527  0.1038  1.0084
 8358SOL    HW128094   1.140   1.878   8.412 -0.6268  0.1109  1.5967
 8358SOL    HW228095   1.134   1.787   8.292  4.1613 -0.2155  1.5039
 8359SOL     OW28096   2.035   8.932   4.118 -0.5600 -0.1814  0.6268
 8359SOL    HW128097   1.949   8.971   4.105  0.0849  1.0444 -0.0967
 8359SOL    HW228098   2.092   8.979   4.057  0.4703 -1.5114  0.5193
 8360SOL     OW28099   8.998   2.661   3.622  0.1431  0.1108  0.0249
 8360SOL    HW128100   8.925   2.689   3.678  0.6485 -0.2049  0.8444
 8360SOL    HW228101   8.995   2.566   3.627 -0.9378  0.0282 -1.9413
 8361SOL     OW28102   1.365   4.968   1.610  0.3047 -0.3338 -0.7290
 8361SOL    HW128103   1.447   4.973   1.562 -0.1558 -0.6599 -1.5610
 8361SOL    HW228104   1.323   4.888   1.578 -0.5129  0.0309 -0.5981
 8362SOL     OW28105   7.274   2.931   1.893 -0.5531  0.2316 -0.1369
 8362SOL    HW128106   7.282   2.881   1.812  0.2256  4.2834 -2.7314
 8362SOL    HW228107   7.181   2.927   1.916 -0.8274 -0.6688 -1.4052
 8363SOL     OW28108   8.591   3.034   9.162 -0.2262  0.2520  0.1089
 8363SOL    HW128109   8.544   3.115   9.143 -1.7677 -0.7712 -0.6359
 8363SOL    HW228110   8.609   2.996   9.075  1.2942  0.2471  0.4174
 8364SOL     OW28111   4.415   6.479   4.150  0.0604 -0.5877  0.5266
 8364SOL    HW128112   4.369   6.531   4.216 -0.3218  0.3403 -0.4467
 8364SOL    HW228113   4.506   6.511   4.154 -0.2391  0.4210 -0.2885
 8365SOL     OW28114   6.518   6.175   3.224 -0.1048  0.1339  0.2932
 8365SOL    HW128115   6.479   6.140   3.144 -0.6780  1.3422  0.0410
 8365SOL    HW228116   6.451   6.234   3.259  0.7226  0.7074  0.9089
 8366SOL     OW28117   1.333   5.297   3.943 -0.1768  0.1595  0.1108
 8366SOL    HW128118   1.302   5.370   3.996 -0.4567 -0.3646  0.6828
 8366SOL    HW228119   1.301   5.219   3.989  1.3461 -0.3704  0.3318
 8367SOL     OW28120   3.526   1.612   5.283  0.0064 -0.4628  0.0014
 8367SOL    HW128121   3.539   1.519   5.296 -0.8770 -0.8861 -1.8774
 8367SOL    HW228122   3.513   1.648   5.370  0.3885 -2.0912  0.7356
 8368SOL     OW28123   4.932   8.900   0.690  0.0293 -0.0845  0.4274
 8368SOL    HW128124   5.001   8.954   0.729  1.0471 -2.4268  1.9953
 8368SOL    HW228125   4.913   8.834   0.757 -1.8302 -1.1056 -1.0658
 8369SOL     OW28126   1.155   6.898   3.991 -0.1011 -0.0183  0.2487
 8369SOL    HW128127   1.093   6.849   4.045 -1.6229  2.5093  0.9097
 8369SOL    HW228128   1.241   6.865   4.017 -1.0749 -2.6267  0.2959
 8370SOL     OW28129   8.367   7.705   6.597 -0.3635 -0.5392 -0.9205
 8370SOL    HW128130   8.298   7.661   6.645 -0.4829  0.9441  0.2804
 8370SOL    HW228131   8.321   7.771   6.543  0.0384 -0.0357 -0.6537
 8371SOL     OW28132   3.779   1.333   8.878  0.9789 -0.2031 -0.0599
 8371SOL    HW128133   3.846   1.275   8.913  0.5432  0.5284  2.0838
 8371SOL    HW228134   3.803   1.419   8.910 -0.2381  0.2714 -0.4069
 8372SOL     OW28135   2.693   6.169   8.543  0.4030 -0.4967 -0.6288
 8372SOL    HW128136   2.603   6.191   8.566  0.4280 -1.0013 -0.0234
 8372SOL    HW228137   2.684   6.092   8.486  0.5077 -1.3981  0.5448
 8373SOL     OW28138   2.251   1.689   3.911  0.8837  0.9389  0.3211
 8373SOL    HW128139   2.206   1.729   3.985  0.3735 -0.9621  1.0867
 8373SOL    HW228140   2.280   1.604   3.944 -0.1204 -0.3196 -1.9104
 8374SOL     OW28141   0.237   3.693   4.670 -0.2734 -0.7051  0.7339
 8374SOL    HW128142   0.155   3.722   4.629 -0.2655  2.1857  2.6077
 8374SOL    HW228143   0.215   3.682   4.763  1.6122  0.8728  1.4062
 8375SOL     OW28144   1.622   2.060   9.090 -0.7530 -0.3902  0.2065
 8375SOL    HW128145   1.536   2.103   9.082 -0.0880  1.2192  1.3042
 8375SOL    HW228146   1.671   2.118   9.149  0.6698 -1.9456  0.5653
 8376SOL     OW28147   8.526   6.506   2.470  0.1535  0.3307  0.5563
 8376SOL    HW128148   8.478   6.588   2.457 -0.7872  0.2495  3.2949
 8376SOL    HW228149   8.614   6.524   2.438 -1.1062  1.1206 -2.6915
 8377SOL     OW28150   2.172   6.653   5.615 -0.3174 -0.2532 -0.3540
 8377SOL    HW128151   2.251   6.701   5.590  0.0743  0.1000  1.4947
 8377SOL    HW228152   2.187   6.628   5.706 -1.3282 -2.2593 -0.7173
 8378SOL     OW28153   8.014   6.336   9.155 -0.5527  0.1291  0.0971
 8378SOL    HW128154   7.969   6.406   9.107  1.0043  1.1346  0.0510
 8378SOL    HW228155   8.011   6.365   9.246 -1.2035 -0.4723  0.2626
 8379SOL     OW28156   5.154   5.555   4.362 -0.3379  0.4092  0.0608
 8379SOL    HW128157   5.250   5.560   4.361 -0.4178  1.7799 -1.6465
 8379SOL    HW228158   5.132   5.542   4.455  1.4033  2.0832  0.7307
 8380SOL     OW28159   1.598   2.736   4.313  0.2748  0.4066 -0.1531
 8380SOL    HW128160   1.534   2.806   4.303 -0.3107 -0.1100 -0.0849
 8380SOL    HW228161   1.567   2.667   4.254  0.4831 -0.0470  0.2653
 8381SOL     OW28162   8.967   2.849   7.618  0.5282  0.5536 -0.5626
 8381SOL    HW128163   8.985   2.755   7.618  1.0373  0.6322  1.0732
 8381SOL    HW228164   8.920   2.864   7.700  0.2415  1.6834 -0.9344
 8382SOL     OW28165   0.192   1.679   4.257 -0.3212  0.1688  0.1409
 8382SOL    HW128166   0.245   1.753   4.286  1.8673 -1.2236 -0.2191
 8382SOL    HW228167   0.195   1.618   4.331 -0.7367 -0.2833 -0.2135
 8383SOL     OW28168   7.113   1.815   3.353  0.6758  0.0188 -0.5055
 8383SOL    HW128169   7.073   1.752   3.412  0.9058  0.2594 -0.0882
 8383SOL    HW228170   7.206   1.789   3.350  0.3386 -1.0547 -2.1295
 8384SOL     OW28171   6.184   2.453   7.239 -0.5540 -0.3031 -0.2417
 8384SOL    HW128172   6.185   2.425   7.148  2.1674 -1.2805  0.0302
 8384SOL    HW228173   6.267   2.421   7.274 -1.3701  0.4471  2.4620
 8385SOL     OW28174   7.379   1.748   3.308  0.1111 -0.0558 -0.3873
 8385SOL    HW128175   7.450   1.799   3.348 -0.8795 -0.6396  2.2542
 8385SOL    HW228176   7.414   1.659   3.303  0.0517 -0.0819 -0.3396
 8386SOL     OW28177   7.198   5.455   2.058  0.0594 -0.0289 -0.0403
 8386SOL    HW128178   7.218   5.443   2.151 -0.4463  2.1437  0.3844
 8386SOL    HW228179   7.120   5.510   2.057 -0.6219 -0.9912 -1.7501
 8387SOL     OW28180   0.966   8.186   1.253  0.1954  0.1780 -0.2187
 8387SOL    HW128181   0.918   8.123   1.200 -2.3621  1.5410  0.3838
 8387SOL    HW228182   0.989   8.256   1.191  0.6480 -0.0805 -0.3399
 8388SOL     OW28183   3.727   7.359   5.944 -0.4910  0.1929 -0.0109
 8388SOL    HW128184   3.648   7.308   5.963 -1.8245  1.8677 -0.8869
 8388SOL    HW228185   3.762   7.382   6.030 -0.9635 -0.5522  0.3815
 8389SOL     OW28186   6.353   9.328   5.860  0.3879 -0.2270 -0.4017
 8389SOL    HW128187   6.423   9.334   5.796 -0.1248 -1.1580 -1.0567
 8389SOL    HW228188   6.273   9.336   5.809 -0.0050 -0.0294  0.2388
 8390SOL     OW28189   5.267   6.833   5.087 -0.1363 -0.4199  0.2640
 8390SOL    HW128190   5.277   6.738   5.082  0.4181 -0.3443 -0.1312
 8390SOL    HW228191   5.299   6.865   5.002 -0.2223  0.1245  0.4348
 8391SOL     OW28192   1.436   7.713   5.273  0.8283  0.6974  0.1214
 8391SOL    HW128193   1.373   7.721   5.202  1.1447 -1.5441 -0.4534
 8391SOL    HW228194   1.383   7.694   5.350  0.6630  0.8284  0.0419
 8392SOL     OW28195   4.767   6.398   5.420  0.0810 -0.1443  0.0879
 8392SOL    HW128196   4.767   6.442   5.336 -0.8949 -0.5835 -0.1447
 8392SOL    HW228197   4.773   6.305   5.399  0.6334 -0.2166  0.5291
 8393SOL     OW28198   2.237   6.937   4.884  0.4955 -0.0756 -0.0474
 8393SOL    HW128199   2.286   6.968   4.807 -0.3697 -0.2574 -0.6760
 8393SOL    HW228200   2.283   6.857   4.910  2.4913  1.4742  1.3446
 8394SOL     OW28201   6.454   1.778   2.714 -0.8070 -0.3024 -0.3308
 8394SOL    HW128202   6.385   1.736   2.766 -0.5269  1.0118  1.1605
 8394SOL    HW228203   6.505   1.706   2.679 -0.8687 -1.2500  1.4437
 8395SOL     OW28204   3.739   5.073   3.015 -0.0354  0.1807 -0.2370
 8395SOL    HW128205   3.726   5.036   2.927  1.6556 -0.8558 -0.0751
 8395SOL    HW228206   3.831   5.054   3.035 -0.3856  0.5037  1.7135
 8396SOL     OW28207   6.566   8.380   2.889 -0.2220  0.0775 -0.0114
 8396SOL    HW128208   6.495   8.319   2.866  0.0521 -0.0354 -0.5709
 8396SOL    HW228209   6.553   8.454   2.830  0.0338  0.1290  0.0005
 8397SOL     OW28210   2.230   5.025   1.344 -0.4527  0.7432  0.3432
 8397SOL    HW128211   2.141   5.005   1.315 -0.1522  0.6873 -0.5829
 8397SOL    HW228212   2.253   4.952   1.402 -1.5568  1.5432  1.8231
 8398SOL     OW28213   1.281   6.931   1.876 -0.2817 -0.5234 -0.1406
 8398SOL    HW128214   1.191   6.901   1.866 -0.1476 -1.1775  0.5363
 8398SOL    HW228215   1.326   6.858   1.919  0.4380  0.0203  0.0478
 8399SOL     OW28216   8.600   7.185   6.159  0.1261  0.0752 -0.5002
 8399SOL    HW128217   8.527   7.223   6.112  0.7822 -0.2785 -1.8307
 8399SOL    HW228218   8.563   7.157   6.243 -1.6979 -1.8363 -1.9099
 8400SOL     OW28219   7.339   1.921   1.056 -0.0298 -0.4638  1.4104
 8400SOL    HW128220   7.254   1.937   1.098 -0.5559  0.7228 -0.0233
 8400SOL    HW228221   7.397   1.897   1.127 -0.8167  1.7727  2.8767
 8401SOL     OW28222   2.335   0.241   1.352  0.0103  0.2598  0.7474
 8401SOL    HW128223   2.419   0.288   1.347 -0.0072  0.3172  1.0146
 8401SOL    HW228224   2.277   0.290   1.294  0.1862  0.1713  0.4967
 8402SOL     OW28225   0.091   6.711   3.166 -0.2714 -0.0232 -0.4116
 8402SOL    HW128226   0.103   6.687   3.258 -0.1267 -0.9972 -0.6800
 8402SOL    HW228227   0.168   6.765   3.145  0.3038 -0.7998 -0.2975
 8403SOL     OW28228   5.391   3.775   3.661  0.0428 -0.3970  0.6538
 8403SOL    HW128229   5.388   3.838   3.733  0.6263  0.5998 -0.1839
 8403SOL    HW228230   5.478   3.787   3.622 -0.3417 -0.7981 -0.3486
 8404SOL     OW28231   3.663   8.961   0.997 -0.3673  0.3553  0.4566
 8404SOL    HW128232   3.624   8.884   1.039 -0.3484  0.3315  0.4323
 8404SOL    HW228233   3.649   8.947   0.904  1.0096 -0.3755  0.3536
 8405SOL     OW28234   3.809   2.740   2.644  0.2890  0.1201 -0.5951
 8405SOL    HW128235   3.724   2.744   2.688  0.8515  2.0065  0.3780
 8405SOL    HW228236   3.869   2.708   2.712  0.6101  0.0728 -0.8998
 8406SOL     OW28237   1.529   3.429   9.310 -0.3828 -0.6453  0.3021
 8406SOL    HW128238   1.562   3.343   9.281  0.3247 -0.7170  1.3027
 8406SOL    HW228239   1.538   3.427   9.405 -0.0475  0.6822  0.3011
 8407SOL     OW28240   1.247   2.600   7.876 -0.0963 -0.1182 -0.6890
 8407SOL    HW128241   1.249   2.625   7.784 -1.5973 -2.1323 -1.3050
 8407SOL    HW228242   1.168   2.642   7.910  0.1587  0.1762 -0.4638
 8408SOL     OW28243   6.805   8.552   3.700  0.1504  0.0347 -0.1787
 8408SOL    HW128244   6.847   8.481   3.650 -1.1940 -0.9056  0.0180
 8408SOL    HW228245   6.869   8.574   3.768  0.7304 -0.7293 -0.4670
 8409SOL     OW28246   5.406   5.234   1.210 -0.0879  0.2544  0.0354
 8409SOL    HW128247   5.337   5.299   1.195  0.5120  0.9102  0.0733
 8409SOL    HW228248   5.384   5.194   1.294 -0.2519  0.6769  0.1956
 8410SOL     OW28249   5.756   4.726   1.963  0.3305 -0.0234  1.0401
 8410SOL    HW128250   5.844   4.754   1.940  0.0850 -0.1899 -0.1621
 8410SOL    HW228251   5.723   4.794   2.021  0.4517  1.1918 -0.2820
 8411SOL     OW28252   2.908   8.546   7.018  0.1676 -0.0592 -0.2329
 8411SOL    HW128253   2.949   8.520   6.936 -1.7972 -0.9025 -0.9746
 8411SOL    HW228254   2.942   8.485   7.083 -0.4000 -1.1534 -0.9618
 8412SOL     OW28255   3.018   9.058   5.817  0.2333  0.0055  0.2564
 8412SOL    HW128256   3.006   8.979   5.869  0.9081  0.7126  1.5119
 8412SOL    HW228257   3.087   9.035   5.754 -0.7227 -0.9079 -0.4816
 8413SOL     OW28258   6.600   2.007   4.952 -0.8479  0.2309  0.2809
 8413SOL    HW128259   6.636   2.096   4.952 -0.9505  0.3053  1.9091
 8413SOL    HW228260   6.604   1.979   4.861 -0.6050  1.8247 -0.2215
 8414SOL     OW28261   5.775   4.905   1.622 -0.9906  0.3655 -0.0524
 8414SOL    HW128262   5.683   4.901   1.597 -1.0117 -1.8000  0.3222
 8414SOL    HW228263   5.807   4.816   1.613  0.5391  0.6839  1.8103
 8415SOL     OW28264   9.367   6.146   7.075  0.8035 -0.0579 -0.1554
 8415SOL    HW128265   9.459   6.135   7.099  0.9335 -1.5058 -1.2599
 8415SOL    HW228266   9.321   6.075   7.120  0.4983 -0.4332 -1.0494
 8416SOL     OW28267   7.022   0.408   1.426 -0.2625 -0.6616 -0.9294
 8416SOL    HW128268   6.946   0.449   1.385 -0.5284 -1.3714 -1.1533
 8416SOL    HW228269   6.994   0.388   1.515 -0.0035  0.0029 -0.7005
 8417SOL     OW28270   1.032   4.828   6.718 -0.1955 -0.2107  0.5599
 8417SOL    HW128271   0.965   4.826   6.786  0.3047 -2.4224  1.0344
 8417SOL    HW228272   0.985   4.844   6.637 -1.1073 -0.1358  1.1063
 8418SOL     OW28273   8.448   2.575   6.888 -0.2770  0.4452 -0.7833
 8418SOL    HW128274   8.541   2.558   6.873 -0.1646  1.6374 -1.5396
 8418SOL    HW228275   8.447   2.633   6.965 -0.2880  1.5764 -1.6176
 8419SOL     OW28276   6.020   2.322   4.638  0.2331  0.1777  0.2697
 8419SOL    HW128277   6.023   2.408   4.598  0.9145  0.1378  0.2398
 8419SOL    HW228278   6.061   2.333   4.724 -0.0713 -0.0186  0.4420
 8420SOL     OW28279   9.159   7.484   1.485 -0.8355 -0.2342 -0.2035
 8420SOL    HW128280   9.238   7.526   1.519  1.0412 -2.7853 -1.2889
 8420SOL    HW228281   9.125   7.546   1.421  0.9762  0.3530 -0.6271
 8421SOL     OW28282   6.094   2.043   9.172 -0.3102  0.0571  0.0170
 8421SOL    HW128283   6.012   2.092   9.164 -0.4515 -0.1445  0.1909
 8421SOL    HW228284   6.149   2.075   9.101  0.0192  1.2713  0.8087
 8422SOL     OW28285   9.325   1.855   7.549 -1.2260  0.2072  0.0998
 8422SOL    HW128286   9.239   1.866   7.509 -1.3532  0.6630  0.4831
 8422SOL    HW228287   9.333   1.930   7.609 -0.2762  0.5552 -0.4509
 8423SOL     OW28288   5.313   7.286   5.567  0.6507 -0.0237  0.5477
 8423SOL    HW128289   5.282   7.195   5.569 -0.0656  0.2068  0.0440
 8423SOL    HW228290   5.409   7.278   5.569  0.5840 -0.7678  1.1811
 8424SOL     OW28291   5.878   9.118   1.976  0.0395 -0.4285 -0.8165
 8424SOL    HW128292   5.851   9.032   1.944 -0.3526 -0.6297  0.0286
 8424SOL    HW228293   5.879   9.173   1.898  0.6212 -1.2795 -1.4176
 8425SOL     OW28294   2.370   9.042   7.237  0.0967 -0.0153 -0.0798
 8425SOL    HW128295   2.460   9.021   7.263  0.9554  0.9561 -2.1510
 8425SOL    HW228296   2.347   8.976   7.171  0.0759  1.0037 -1.1077
 8426SOL     OW28297   8.897   0.810   3.484  0.4962 -0.6088  0.0871
 8426SOL    HW128298   8.966   0.812   3.419  1.4897 -4.3385  0.9014
 8426SOL    HW228299   8.943   0.821   3.568 -0.5052  1.8373  0.3590
 8427SOL     OW28300   4.054   2.171   4.698  0.3781  0.3225  0.1686
 8427SOL    HW128301   4.031   2.100   4.638  1.9817  1.0299 -1.3035
 8427SOL    HW228302   3.969   2.209   4.723 -0.3691 -0.7037 -0.7524
 8428SOL     OW28303   9.037   8.272   8.769  0.2312 -0.1153  0.1162
 8428SOL    HW128304   9.120   8.232   8.743  0.2811  0.1334 -0.1059
 8428SOL    HW228305   9.062   8.342   8.829  0.0708 -1.1993  1.4910
 8429SOL     OW28306   4.016   4.773   8.705 -0.3609  0.3482  0.1949
 8429SOL    HW128307   4.065   4.787   8.624  0.8337 -1.1077  0.6340
 8429SOL    HW228308   3.945   4.714   8.680 -0.7483  0.9184 -0.0503
 8430SOL     OW28309   7.360   3.868   6.114  0.5947 -0.2616  0.4519
 8430SOL    HW128310   7.386   3.800   6.176  0.9368 -0.8568 -0.3432
 8430SOL    HW228311   7.318   3.935   6.168  1.3508 -0.5414  1.3869
 8431SOL     OW28312   4.160   6.467   6.608  0.1748 -0.0106  0.1817
 8431SOL    HW128313   4.112   6.513   6.676  0.6851  1.4296 -0.4171
 8431SOL    HW228314   4.148   6.374   6.628 -0.0053  0.3984  1.9875
 8432SOL     OW28315   0.557   8.907   3.321 -0.3650 -0.3199  0.4471
 8432SOL    HW128316   0.557   8.949   3.235  0.1443 -1.1771  0.0173
 8432SOL    HW228317   0.574   8.814   3.302  1.3812 -0.2571  1.5870
 8433SOL     OW28318   3.421   1.080   2.606  0.3560 -0.1191  0.4805
 8433SOL    HW128319   3.342   1.118   2.567 -0.5263 -0.0557  2.2652
 8433SOL    HW228320   3.388   1.030   2.681  1.9313 -0.8579  0.6861
 8434SOL     OW28321   0.508   3.779   1.462 -0.3349 -0.0442 -0.1209
 8434SOL    HW128322   0.427   3.737   1.493  0.7060 -2.1490 -0.1682
 8434SOL    HW228323   0.489   3.873   1.466 -2.6313 -0.4851  0.2831
 8435SOL     OW28324   5.083   3.240   3.847 -0.3019  0.1089  0.0072
 8435SOL    HW128325   5.066   3.168   3.908 -0.4071 -0.1852 -0.3693
 8435SOL    HW228326   5.164   3.215   3.803  1.2462  1.5776  1.9118
 8436SOL     OW28327   7.708   8.775   5.598 -0.1219  0.3050  0.5166
 8436SOL    HW128328   7.710   8.805   5.689 -1.4596  1.8573  0.0486
 8436SOL    HW228329   7.735   8.851   5.547 -0.5984 -0.1772 -0.4650
 8437SOL     OW28330   6.255   2.355   3.444 -0.2492  0.1864 -0.1331
 8437SOL    HW128331   6.297   2.297   3.381  0.3720 -0.1514  0.5950
 8437SOL    HW228332   6.226   2.298   3.514  0.5165  0.7731  0.6672
 8438SOL     OW28333   7.121   0.839   8.850  0.0527  0.0497 -0.3472
 8438SOL    HW128334   7.105   0.879   8.764 -0.4115  0.3655 -0.1201
 8438SOL    HW228335   7.189   0.774   8.834 -1.3414 -1.2040 -1.3335
 8439SOL     OW28336   2.713   8.360   3.971  0.4130 -0.4871  0.1207
 8439SOL    HW128337   2.706   8.355   3.876  0.7681 -0.9023  0.1209
 8439SOL    HW228338   2.758   8.280   3.997  0.5682 -0.2413  0.6144
 8440SOL     OW28339   9.104   6.999   2.189  0.4495 -0.4442 -0.1671
 8440SOL    HW128340   9.033   6.949   2.147 -1.5559 -0.1997  2.7767
 8440SOL    HW228341   9.157   6.933   2.234  0.2966 -0.3396  0.1679
 8441SOL     OW28342   2.995   2.893   1.109  0.5920  0.2279  0.0176
 8441SOL    HW128343   3.003   2.959   1.040  0.0699  2.5803  2.1600
 8441SOL    HW228344   3.041   2.816   1.074  0.8384  1.5442 -2.6927
 8442SOL     OW28345   7.728   0.271   5.320 -0.0197 -0.9847  0.2417
 8442SOL    HW128346   7.783   0.330   5.268 -0.6728 -0.6810 -0.0972
 8442SOL    HW228347   7.645   0.267   5.273 -0.1202 -1.8498  0.4800
 8443SOL     OW28348   8.574   5.065   7.255  0.0656 -0.2297 -0.8104
 8443SOL    HW128349   8.622   5.033   7.179 -0.9329 -0.0100 -1.5378
 8443SOL    HW228350   8.484   5.034   7.241 -0.1584 -0.0582  0.2031
 8444SOL     OW28351   8.475   8.057   9.100  0.3005  0.7254  0.2523
 8444SOL    HW128352   8.464   8.087   9.190  1.9498  0.3415  0.5798
 8444SOL    HW228353   8.479   7.962   9.106  1.8620  0.7638 -0.0673
 8445SOL     OW28354   6.018   8.372   6.819  0.0137 -0.0870  0.4042
 8445SOL    HW128355   6.049   8.409   6.736 -3.4220  0.0543 -0.9377
 8445SOL    HW228356   5.988   8.447   6.870 -1.9090 -0.4935 -0.0731
 8446SOL     OW28357   3.666   3.328   2.964 -0.1900 -0.1268 -0.1429
 8446SOL    HW128358   3.745   3.355   3.011 -0.7962 -0.0786  0.8795
 8446SOL    HW228359   3.692   3.326   2.872  0.9366  0.1050  0.1600
 8447SOL     OW28360   2.810   1.932   0.514 -0.5441  0.2527  0.1989
 8447SOL    HW128361   2.820   1.866   0.582  1.8072  0.0744 -0.2887
 8447SOL    HW228362   2.758   1.890   0.446  1.7037 -1.4705 -0.5231
 8448SOL     OW28363   6.145   2.852   9.280 -0.0010  0.1199 -0.1619
 8448SOL    HW128364   6.196   2.820   9.353  2.6445  0.4861 -1.7830
 8448SOL    HW228365   6.094   2.925   9.316  1.3313  0.3586  1.2770
 8449SOL     OW28366   8.494   2.667   9.104  1.1046  0.4603 -0.0503
 8449SOL    HW128367   8.546   2.600   9.059  0.3952  0.5610 -1.0240
 8449SOL    HW228368   8.479   2.734   9.038 -0.9530  0.0528 -0.0260
 8450SOL     OW28369   4.199   5.253   5.792 -0.1472 -0.1136  0.0607
 8450SOL    HW128370   4.229   5.257   5.701  1.7548 -3.0691  0.5002
 8450SOL    HW228371   4.211   5.162   5.817 -2.0322  0.3525  2.8543
 8451SOL     OW28372   4.616   5.198   3.852 -0.3835  0.1766  0.5851
 8451SOL    HW128373   4.528   5.193   3.815 -0.4326  3.9642  0.0190
 8451SOL    HW228374   4.669   5.240   3.785  0.5538  2.9869  2.9534
 8452SOL     OW28375   0.376   7.477   5.058  0.0622 -0.0279 -0.0970
 8452SOL    HW128376   0.379   7.558   5.109 -0.1461 -1.1290  1.6949
 8452SOL    HW228377   0.287   7.476   5.021  0.0291  0.5024 -0.0374
 8453SOL     OW28378   7.042   1.481   1.523 -0.1538 -0.1304 -0.9462
 8453SOL    HW128379   7.016   1.427   1.448 -0.0686 -2.0426  0.3432
 8453SOL    HW228380   6.962   1.492   1.574 -0.2919  1.4753 -1.4876
 8454SOL     OW28381   2.376   8.343   2.332 -0.1833  0.3487  0.0089
 8454SOL    HW128382   2.421   8.427   2.330 -1.6216  1.1361  0.0888
 8454SOL    HW228383   2.381   8.315   2.423  0.2096  0.3821 -0.0002
 8455SOL     OW28384   2.341   1.266   6.944  0.1208 -0.1260 -0.1404
 8455SOL    HW128385   2.367   1.279   6.853  0.1329  1.4955  0.0866
 8455SOL    HW228386   2.404   1.202   6.978  0.7201  0.0057 -0.9903
 8456SOL     OW28387   2.394   8.718   5.278 -0.6521 -0.1740 -0.2733
 8456SOL    HW128388   2.415   8.671   5.197 -0.8486  1.0441 -1.0374
 8456SOL    HW228389   2.299   8.733   5.272 -0.6972 -0.2366  0.2710
 8457SOL     OW28390   3.257   5.382   4.044  0.1396  0.3664 -0.4266
 8457SOL    HW128391   3.270   5.453   3.981 -0.0986 -1.3538 -2.4813
 8457SOL    HW228392   3.164   5.385   4.066  0.2034  0.9040 -0.2389
 8458SOL     OW28393   8.032   0.199   0.364  0.8508 -0.2938 -0.2172
 8458SOL    HW128394   7.996   0.248   0.437  0.8738  0.3643 -0.6510
 8458SOL    HW228395   8.050   0.112   0.401  1.1088  0.1134  0.6257
 8459SOL     OW28396   2.492   7.871   2.558  0.5524  0.3612 -0.0245
 8459SOL    HW128397   2.525   7.782   2.546  0.5342  0.6882 -2.7419
 8459SOL    HW228398   2.398   7.860   2.569  0.3988  0.1064 -1.5024
 8460SOL     OW28399   3.151   1.740   6.921  0.3469 -0.0343 -0.5499
 8460SOL    HW128400   3.074   1.692   6.952 -0.1103  0.4527 -0.8996
 8460SOL    HW228401   3.218   1.727   6.988 -0.3109  0.2167  0.1615
 8461SOL     OW28402   4.606   8.974   3.837  0.3023  0.5227 -0.6161
 8461SOL    HW128403   4.597   8.933   3.923  0.9330  0.3958 -0.6067
 8461SOL    HW228404   4.679   9.035   3.847  0.3028  0.5938 -1.0295
 8462SOL     OW28405   7.424   3.506   2.772 -0.1366  0.9363 -0.5854
 8462SOL    HW128406   7.367   3.477   2.701  0.2387 -1.4857  0.0852
 8462SOL    HW228407   7.392   3.460   2.849  1.1384  1.5047  0.2967
 8463SOL     OW28408   5.721   2.586   4.590  0.3358  0.3618  0.4621
 8463SOL    HW128409   5.650   2.648   4.602  1.5713  1.7801  0.6777
 8463SOL    HW228410   5.799   2.641   4.581  1.2792 -1.1189 -0.6599
 8464SOL     OW28411   4.791   7.911   6.776 -0.6640  0.3434 -0.1333
 8464SOL    HW128412   4.828   7.923   6.864 -1.2152 -1.8289  0.4084
 8464SOL    HW228413   4.696   7.913   6.789 -0.7641  1.1124 -0.8656
 8465SOL     OW28414   9.141   1.026   0.740  0.1315  0.1599 -0.1860
 8465SOL    HW128415   9.067   1.047   0.797 -0.5489 -0.8391 -0.6988
 8465SOL    HW228416   9.172   0.941   0.769 -0.2341 -0.3732 -1.3136
 8466SOL     OW28417   5.910   4.928   0.825  0.3964  0.6048  0.0078
 8466SOL    HW128418   5.985   4.986   0.811  1.7203 -0.8287  1.0118
 8466SOL    HW228419   5.938   4.868   0.894 -0.3118 -2.3491 -2.1880
 8467SOL     OW28420   3.154   0.371   2.906  0.6575 -0.1686  0.0535
 8467SOL    HW128421   3.172   0.354   2.999 -1.6031 -1.2295  0.3300
 8467SOL    HW228422   3.061   0.350   2.895  0.4231  1.7878 -2.0423
 8468SOL     OW28423   1.362   0.087   1.911  0.2716 -0.0654 -0.6278
 8468SOL    HW128424   1.343   0.181   1.916 -0.4120 -0.0992 -2.2586
 8468SOL    HW228425   1.447   0.082   1.867  0.8346 -0.1894  0.4448
 8469SOL     OW28426   3.743   4.454   2.855 -0.4511 -0.2608 -0.1072
 8469SOL    HW128427   3.799   4.527   2.829 -0.0654 -0.6199 -0.2868
 8469SOL    HW228428   3.698   4.428   2.775 -0.6914 -0.1372 -0.0153
 8470SOL     OW28429   2.953   7.536   2.916 -0.0303  0.5508  0.3241
 8470SOL    HW128430   2.944   7.551   3.010  0.6206 -0.5152  0.5598
 8470SOL    HW228431   3.019   7.600   2.889  1.5320 -0.7246  1.0347
 8471SOL     OW28432   7.511   5.961   1.578  0.4982 -0.4840  0.7391
 8471SOL    HW128433   7.459   6.027   1.531  0.0319 -1.4240 -0.0905
 8471SOL    HW228434   7.589   5.949   1.525  0.5717 -0.6177  0.8758
 8472SOL     OW28435   0.427   4.420   4.467  0.6420 -0.0307 -0.3615
 8472SOL    HW128436   0.440   4.466   4.550  0.5791 -1.7900  0.6283
 8472SOL    HW228437   0.385   4.338   4.490 -1.8149  0.5818 -2.4091
 8473SOL     OW28438   2.436   2.342   3.230 -0.1733  0.5197 -0.0436
 8473SOL    HW128439   2.527   2.357   3.206 -0.3622 -0.2001 -1.2853
 8473SOL    HW228440   2.440   2.295   3.314  0.6489 -0.7006 -0.7414
 8474SOL     OW28441   5.067   5.304   1.306 -0.6902 -0.4138 -0.4921
 8474SOL    HW128442   5.008   5.269   1.373 -1.0689  0.0501 -0.5798
 8474SOL    HW228443   5.071   5.398   1.324  0.1591 -0.4685 -0.3868
 8475SOL     OW28444   6.633   8.591   4.128 -0.0674  0.1159  0.4170
 8475SOL    HW128445   6.682   8.510   4.141  0.2821 -0.2641 -2.6902
 8475SOL    HW228446   6.691   8.660   4.162  1.4449 -0.5819 -0.6564
 8476SOL     OW28447   2.303   1.573   8.737 -0.0503 -0.0593  0.5884
 8476SOL    HW128448   2.263   1.531   8.813 -2.2585 -0.1421 -0.5900
 8476SOL    HW228449   2.324   1.500   8.678  2.0862 -0.0425  1.2629
 8477SOL     OW28450   4.915   5.542   6.221  0.4963 -0.2990 -0.5951
 8477SOL    HW128451   4.900   5.458   6.177 -1.0891 -0.7424  0.7479
 8477SOL    HW228452   5.003   5.534   6.257 -0.9482 -2.8450  2.6314
 8478SOL     OW28453   1.439   0.992   1.643 -0.8004  0.1854 -0.0724
 8478SOL    HW128454   1.468   0.960   1.728  0.7714  1.0925 -0.2368
 8478SOL    HW228455   1.381   1.065   1.662  1.9561  2.4076  0.2578
 8479SOL     OW28456   7.477   5.363   1.946 -0.0719  0.1326  0.1510
 8479SOL    HW128457   7.551   5.305   1.928 -1.0406 -0.9276 -0.4739
 8479SOL    HW228458   7.513   5.432   2.002  1.3859 -0.3633 -0.1689
 8480SOL     OW28459   0.568   7.040   3.482 -0.0542  0.0602  0.1056
 8480SOL    HW128460   0.550   6.983   3.556  0.6281  1.6597  1.5514
 8480SOL    HW228461   0.648   7.087   3.507 -0.7098  1.7909 -0.9417
 8481SOL     OW28462   2.327   2.764   6.140 -0.1617 -0.0047  0.6542
 8481SOL    HW128463   2.299   2.676   6.165 -2.4851  0.2387 -0.9032
 8481SOL    HW228464   2.293   2.776   6.051  0.1518  2.4267  0.8210
 8482SOL     OW28465   1.162   0.511   3.358  0.2556  0.7066 -0.7190
 8482SOL    HW128466   1.164   0.492   3.264  0.2049 -0.0365 -0.5744
 8482SOL    HW228467   1.115   0.437   3.397  0.0404  1.1427 -0.1384
 8483SOL     OW28468   5.292   9.367   2.207  0.4996 -0.0671 -0.1718
 8483SOL    HW128469   5.244   9.431   2.259 -0.6832  0.0096 -1.3508
 8483SOL    HW228470   5.375   9.411   2.186 -0.5089  1.2840 -1.4043
 8484SOL     OW28471   0.589   5.455   0.273 -0.7114 -0.1433 -0.0366
 8484SOL    HW128472   0.521   5.395   0.305  0.5451 -0.2495  2.5853
 8484SOL    HW228473   0.623   5.413   0.194 -1.6623 -1.5866  0.3034
 8485SOL     OW28474   3.202   0.359   9.233 -0.0988  0.2835  0.4725
 8485SOL    HW128475   3.295   0.339   9.237 -0.7788 -2.8547  4.1272
 8485SOL    HW228476   3.163   0.283   9.191 -1.1647  0.7824  0.5395
 8486SOL     OW28477   4.183   1.405   6.522 -0.0877 -0.3747 -0.2799
 8486SOL    HW128478   4.259   1.356   6.489 -0.5615 -1.5134  0.3184
 8486SOL    HW228479   4.209   1.433   6.609  0.2030  0.5056 -0.6408
 8487SOL     OW28480   5.409   8.672   3.072  0.1585  0.3712  0.0727
 8487SOL    HW128481   5.341   8.736   3.095  0.0397  0.3020 -0.0780
 8487SOL    HW228482   5.359   8.593   3.049  0.2703  0.4573 -0.4773
 8488SOL     OW28483   8.258   6.048   2.642 -0.0210  0.1295 -0.1635
 8488SOL    HW128484   8.303   6.122   2.603 -1.4765  0.9693 -0.3039
 8488SOL    HW228485   8.214   6.084   2.719  1.8419 -1.2546  1.6038
 8489SOL     OW28486   6.643   1.997   3.553  0.0185 -0.1368  0.6040
 8489SOL    HW128487   6.576   1.974   3.488 -0.8206 -0.2440  1.5039
 8489SOL    HW228488   6.681   2.078   3.519 -0.3415 -0.2528 -0.0859
 8490SOL     OW28489   0.361   6.553   0.210 -0.4208 -0.5011  0.4186
 8490SOL    HW128490   0.443   6.516   0.179 -0.3024 -0.1563  0.3212
 8490SOL    HW228491   0.369   6.647   0.195 -0.8031 -0.4573  0.4748
 8491SOL     OW28492   1.862   5.828   3.585 -0.1123 -0.1849 -0.2949
 8491SOL    HW128493   1.948   5.853   3.619 -0.5840  0.8142  0.2120
 8491SOL    HW228494   1.829   5.764   3.648 -0.3619  0.5551  0.3388
 8492SOL     OW28495   1.887   6.958   3.005 -0.7717  0.3316  0.0978
 8492SOL    HW128496   1.875   6.895   3.076 -0.7697 -1.4798 -1.4766
 8492SOL    HW228497   1.800   6.968   2.966 -0.3315 -0.5988 -1.1860
 8493SOL     OW28498   3.016   2.784   3.968 -0.0949  0.0199  0.4209
 8493SOL    HW128499   2.969   2.865   3.986 -1.9158 -1.5376  3.0526
 8493SOL    HW228500   2.987   2.758   3.880  0.2069  1.9986 -0.2704
 8494SOL     OW28501   4.790   5.816   1.922 -0.3172  0.5824  0.3496
 8494SOL    HW128502   4.812   5.807   2.014  0.0169 -0.6363  0.1559
 8494SOL    HW228503   4.873   5.834   1.879 -0.3543  0.3535  0.1820
 8495SOL     OW28504   0.162   1.411   1.446  0.1827  0.4432 -0.8259
 8495SOL    HW128505   0.139   1.422   1.538  0.3167 -0.1334 -0.7267
 8495SOL    HW228506   0.083   1.437   1.398 -0.1557 -0.0382 -0.5291
 8496SOL     OW28507   1.910   2.463   8.177  0.0455  0.0431 -0.2255
 8496SOL    HW128508   1.823   2.483   8.211 -0.2099  0.9997 -1.4032
 8496SOL    HW228509   1.954   2.548   8.172  0.1791 -0.1139 -1.9653
 8497SOL     OW28510   5.379   0.019   6.131 -0.3180  0.0609  0.1546
 8497SOL    HW128511   5.468   0.041   6.103 -0.3909 -0.7456 -0.7492
 8497SOL    HW228512   5.380   0.029   6.226 -0.2384  3.4833 -0.1431
 8498SOL     OW28513   6.565   6.752   2.967  0.0698  0.5791  0.3174
 8498SOL    HW128514   6.507   6.684   2.933  0.0369  0.3585  0.8146
 8498SOL    HW228515   6.530   6.773   3.053  0.3620  0.8848  0.3642
 8499SOL     OW28516   0.907   7.665   7.576 -0.2753  0.1445  0.6881
 8499SOL    HW128517   0.990   7.633   7.540 -1.3093  0.6943 -2.2686
 8499SOL    HW228518   0.861   7.585   7.604  0.5801 -0.2853  0.8874
 8500SOL     OW28519   4.718   9.087   8.250  0.2591 -0.3381  0.3165
 8500SOL    HW128520   4.755   9.002   8.273 -0.8961 -0.6218  1.1738
 8500SOL    HW228521   4.766   9.150   8.303 -0.0708 -0.6466  0.9901
 8501SOL     OW28522   0.197   2.458   7.988  0.2412  0.3787 -0.9124
 8501SOL    HW128523   0.227   2.374   8.024  1.5296  1.7407  1.2790
 8501SOL    HW228524   0.111   2.438   7.951  0.3042 -1.7880  0.0139
 8502SOL     OW28525   1.930   3.310   6.689  0.2578  0.1216  0.2046
 8502SOL    HW128526   1.884   3.270   6.615  2.2188  0.1823 -1.0807
 8502SOL    HW228527   1.906   3.402   6.686  0.0631  0.0581 -0.1505
 8503SOL     OW28528   8.157   7.870   2.540  0.0960  0.2924  0.1414
 8503SOL    HW128529   8.149   7.883   2.635  0.5636  1.3657  0.0455
 8503SOL    HW228530   8.246   7.835   2.529 -1.5379 -4.3366  0.5045
 8504SOL     OW28531   5.866   2.734   2.594 -0.5625 -0.2392 -0.2973
 8504SOL    HW128532   5.811   2.784   2.653 -0.3133  0.3537 -0.5612
 8504SOL    HW228533   5.866   2.785   2.512  1.4667  0.4849  0.1298
 8505SOL     OW28534   5.798   6.343   2.340 -0.9882 -0.2903 -0.2669
 8505SOL    HW128535   5.827   6.432   2.359 -0.7557 -0.1515 -1.2567
 8505SOL    HW228536   5.848   6.317   2.263  0.0597 -1.8535  0.9232
 8506SOL     OW28537   7.024   0.351   1.048  0.4545 -0.3461 -0.2177
 8506SOL    HW128538   7.001   0.258   1.055  1.0494 -0.4040  0.9754
 8506SOL    HW228539   6.940   0.396   1.042  0.1401 -0.8975  0.0137
 8507SOL     OW28540   8.299   5.574   0.523  0.6917 -0.4314 -0.2377
 8507SOL    HW128541   8.347   5.635   0.467 -0.0603 -0.4545 -0.9270
 8507SOL    HW228542   8.214   5.616   0.536  1.6233  0.6278  2.7446
 8508SOL     OW28543   2.785   8.421   5.156 -0.3914  0.3808  0.3304
 8508SOL    HW128544   2.711   8.389   5.105 -1.1181  0.9834  1.0014
 8508SOL    HW228545   2.796   8.357   5.226 -1.0206  0.8967  0.9093
 8509SOL     OW28546   0.996   0.985   1.750 -0.3038 -0.7388 -0.0578
 8509SOL    HW128547   1.052   1.027   1.685  0.5900 -0.6831  0.7230
 8509SOL    HW228548   0.947   0.919   1.702  1.8238 -2.0808 -0.4346
 8510SOL     OW28549   7.429   5.001   2.746  0.0450  0.4176 -0.1907
 8510SOL    HW128550   7.442   5.020   2.653  1.8607  1.8837  0.3247
 8510SOL    HW228551   7.355   4.940   2.748 -0.4129  0.8428 -2.5385
 8511SOL     OW28552   3.954   2.488   3.671  0.8659  0.2622 -0.4625
 8511SOL    HW128553   3.916   2.459   3.753  0.4166  1.7139 -0.1438
 8511SOL    HW228554   3.888   2.546   3.632  2.1525  1.7288 -0.5351
 8512SOL     OW28555   3.387   8.313   9.373  0.3415  0.0348 -0.2007
 8512SOL    HW128556   3.293   8.310   9.385  0.0390  1.8674 -1.8377
 8512SOL    HW228557   3.410   8.228   9.334 -0.4959 -0.7376  0.9868
 8513SOL     OW28558   9.405   4.089   3.791 -0.0747 -0.2552  0.1933
 8513SOL    HW128559   9.333   4.038   3.754 -0.2627  0.9047 -1.1003
 8513SOL    HW228560   9.368   4.176   3.805  1.0574  0.3457 -0.4767
 8514SOL     OW28561   9.258   8.967   6.235  0.1151  0.6329 -0.0575
 8514SOL    HW128562   9.246   8.981   6.329  0.9161  2.0740 -0.1570
 8514SOL    HW228563   9.178   8.923   6.207 -0.9635  1.9156  0.9586
 8515SOL     OW28564   3.359   0.209   1.003  0.1674  0.2061 -0.6987
 8515SOL    HW128565   3.348   0.278   1.068  1.9528  0.7986 -0.9831
 8515SOL    HW228566   3.371   0.129   1.054 -0.5124  0.3345 -0.3395
 8516SOL     OW28567   5.625   8.996   7.841 -0.1054 -0.2496 -0.1398
 8516SOL    HW128568   5.706   8.946   7.833 -0.9786 -1.5779 -0.7880
 8516SOL    HW228569   5.638   9.072   7.784 -0.1137 -1.5287 -1.8649
 8517SOL     OW28570   2.229   6.530   7.183  0.2687  0.2018 -0.0522
 8517SOL    HW128571   2.307   6.525   7.239  0.7622 -1.4027 -0.8511
 8517SOL    HW228572   2.261   6.569   7.101  0.1012  0.1378 -0.1496
 8518SOL     OW28573   7.406   4.209   5.040 -0.7784 -0.3570 -0.2530
 8518SOL    HW128574   7.312   4.190   5.052 -1.0692  0.4527 -1.1748
 8518SOL    HW228575   7.438   4.138   4.985 -0.9467 -0.4035 -0.2918
 8519SOL     OW28576   4.483   3.037   4.207  0.1519  0.4384  0.0309
 8519SOL    HW128577   4.427   3.096   4.157  1.2417 -0.8596 -2.8449
 8519SOL    HW228578   4.531   2.988   4.140  2.8927 -0.2048  2.4016
 8520SOL     OW28579   8.614   4.230   4.378  0.2201 -0.4625 -0.2493
 8520SOL    HW128580   8.660   4.253   4.297  3.7253  0.3914  1.9029
 8520SOL    HW228581   8.575   4.312   4.408 -0.6548 -0.6774 -0.7709
 8521SOL     OW28582   0.550   6.725   3.442 -0.1374 -0.3089 -0.0983
 8521SOL    HW128583   0.539   6.765   3.529 -2.4908 -0.8468 -0.1087
 8521SOL    HW228584   0.642   6.740   3.420  0.8543 -1.3543  3.0709
 8522SOL     OW28585   5.874   0.280   2.800  0.4887  0.3193  0.9689
 8522SOL    HW128586   5.872   0.189   2.827 -0.6608  0.3743  1.1014
 8522SOL    HW228587   5.964   0.309   2.816  0.3868 -0.2666  2.6191
 8523SOL     OW28588   5.551   2.020   1.258  0.0879  0.0018 -0.2733
 8523SOL    HW128589   5.646   2.030   1.264 -0.0916  1.4885  0.3151
 8523SOL    HW228590   5.530   2.046   1.168  0.1861  0.1595 -0.2513
 8524SOL     OW28591   5.913   2.946   6.588 -0.7363  0.0943 -0.5319
 8524SOL    HW128592   5.890   3.038   6.577 -0.8363 -0.0753 -1.8169
 8524SOL    HW228593   5.914   2.911   6.499  1.3838 -0.6642 -0.2283
 8525SOL     OW28594   2.153   6.360   5.597 -0.1673  0.4589 -0.4891
 8525SOL    HW128595   2.179   6.447   5.564  1.5470  0.3143  0.4466
 8525SOL    HW228596   2.222   6.336   5.659 -0.6409 -1.5689 -0.7125
 8526SOL     OW28597   3.864   2.070   9.250 -0.3090 -0.2539  0.1528
 8526SOL    HW128598   3.945   2.082   9.200 -0.1193 -1.1439  0.2234
 8526SOL    HW228599   3.892   2.065   9.341 -0.6025  0.8669  0.3122
 8527SOL     OW28600   4.825   0.852   9.140  0.4218 -0.3017 -0.3552
 8527SOL    HW128601   4.825   0.881   9.231 -1.1667 -0.0465 -0.4293
 8527SOL    HW228602   4.897   0.900   9.099  0.6175  0.1986  0.5683
 8528SOL     OW28603   1.094   1.924   3.964 -0.0939 -0.3151 -0.2722
 8528SOL    HW128604   1.174   1.914   4.016 -0.1660  1.7926  0.3103
 8528SOL    HW228605   1.064   1.835   3.947  1.3226 -1.0766  1.1516
 8529SOL     OW28606   2.029   4.652   5.164 -0.4089 -0.4067 -0.0575
 8529SOL    HW128607   2.089   4.622   5.232  0.3718 -1.5559 -1.2308
 8529SOL    HW228608   2.058   4.741   5.144  0.0770 -0.4839  0.3090
 8530SOL     OW28609   1.758   8.145   7.529  0.3391 -0.1292  0.4373
 8530SOL    HW128610   1.825   8.188   7.583 -0.4675 -1.1473  2.3270
 8530SOL    HW228611   1.677   8.158   7.578 -0.5291 -0.5079 -0.8879
 8531SOL     OW28612   1.156   5.458   7.395 -0.4019 -0.5162 -0.0492
 8531SOL    HW128613   1.208   5.401   7.452  1.2151  0.7501 -0.2160
 8531SOL    HW228614   1.069   5.418   7.395  0.2366 -1.9961  1.2241
 8532SOL     OW28615   2.538   3.833   4.358 -0.1238 -0.1096 -0.5485
 8532SOL    HW128616   2.478   3.796   4.423 -0.0854  1.8640  0.6631
 8532SOL    HW228617   2.624   3.825   4.399  0.2766 -1.5282 -1.6294
 8533SOL     OW28618   0.226   4.016   7.308  0.5702  0.0339  0.0638
 8533SOL    HW128619   0.300   4.074   7.292  2.2733 -1.4929  2.0884
 8533SOL    HW228620   0.239   3.983   7.397 -1.1877 -2.2000 -0.4333
 8534SOL     OW28621   2.594   0.664   0.244 -0.4498 -0.3112 -0.5342
 8534SOL    HW128622   2.685   0.673   0.273  0.0047  0.5077 -2.1367
 8534SOL    HW228623   2.575   0.747   0.200 -1.4607 -1.0624 -1.5315
 8535SOL     OW28624   0.698   0.606   7.542 -0.1305  0.3354  0.3261
 8535SOL    HW128625   0.624   0.565   7.587 -0.3777 -0.4084 -0.7487
 8535SOL    HW228626   0.775   0.564   7.581 -0.3408 -0.2389  0.1296
 8536SOL     OW28627   1.174   5.924   9.362  0.6155  0.0119  0.1595
 8536SOL    HW128628   1.173   5.839   9.407  1.0951 -0.2900 -0.3822
 8536SOL    HW228629   1.167   5.989   9.432  0.6113 -0.4674  0.6077
 8537SOL     OW28630   2.943   1.126   1.754 -0.2588  0.7637 -0.1565
 8537SOL    HW128631   3.038   1.138   1.755 -0.0879 -0.0679 -2.5239
 8537SOL    HW228632   2.928   1.043   1.799  0.3270 -0.1321 -1.6059
 8538SOL     OW28633   6.729   4.131   1.105 -0.1070  0.4805 -0.3177
 8538SOL    HW128634   6.665   4.085   1.159  0.2756 -0.6076 -0.7724
 8538SOL    HW228635   6.677   4.192   1.053 -0.7467 -0.1651 -0.4530
 8539SOL     OW28636   4.257   8.718   3.830 -0.9186 -0.0419 -0.5477
 8539SOL    HW128637   4.328   8.780   3.847  0.5859 -1.3115 -2.1299
 8539SOL    HW228638   4.211   8.754   3.754 -1.4635  0.3397 -0.0398
 8540SOL     OW28639   7.933   6.427   5.604  0.1347  0.2076 -0.2195
 8540SOL    HW128640   7.905   6.438   5.513 -0.9472  0.8540  0.1770
 8540SOL    HW228641   7.931   6.516   5.641  0.2947 -0.0836  0.5000
 8541SOL     OW28642   2.515   9.160   4.024 -0.4935  0.4895  0.1340
 8541SOL    HW128643   2.467   9.243   4.026 -0.2644  0.6169  0.5948
 8541SOL    HW228644   2.570   9.163   4.103 -0.2091  0.0641 -0.0481
 8542SOL     OW28645   2.940   9.433   2.626  0.1035  0.1962 -0.1581
 8542SOL    HW128646   2.901   9.347   2.615  1.1346 -0.1600 -1.1270
 8542SOL    HW228647   2.906   9.485   2.553  0.5665  0.2123 -0.3612
 8543SOL     OW28648   6.278   5.367   0.923 -0.5088  0.0754  0.2575
 8543SOL    HW128649   6.319   5.311   0.857  0.0471  0.2101  0.4816
 8543SOL    HW228650   6.260   5.309   0.996  2.1634  0.5902  1.4088
 8544SOL     OW28651   1.707   3.166   4.273  0.5136 -0.2320 -0.1132
 8544SOL    HW128652   1.710   3.100   4.343 -0.0023  0.2040  0.3209
 8544SOL    HW228653   1.776   3.139   4.212  1.3017 -0.3370  0.8151
 8545SOL     OW28654   3.237   5.483   8.858  0.0000 -0.0285  0.1965
 8545SOL    HW128655   3.227   5.506   8.950 -0.4044 -1.0394  0.4152
 8545SOL    HW228656   3.175   5.540   8.812  0.8907  1.1423  0.4438
 8546SOL     OW28657   9.021   2.678   6.868  0.4446  0.8616  0.1783
 8546SOL    HW128658   9.025   2.686   6.963  1.5036  1.5670  0.0758
 8546SOL    HW228659   9.020   2.584   6.852 -3.5005  0.6829  1.0239
 8547SOL     OW28660   3.454   3.529   2.807  0.0124 -0.0884 -0.5281
 8547SOL    HW128661   3.527   3.547   2.746  0.6058  1.9552  0.7179
 8547SOL    HW228662   3.496   3.523   2.892 -1.3229  1.6229  0.2779
 8548SOL     OW28663   0.996   8.274   4.637 -0.3082 -0.2654  0.0867
 8548SOL    HW128664   1.000   8.189   4.594 -2.1976  0.2989 -1.2546
 8548SOL    HW228665   1.072   8.322   4.604 -0.0753 -0.8955 -0.2909
 8549SOL     OW28666   6.877   3.432   4.548 -0.1021 -0.8103  0.8654
 8549SOL    HW128667   6.902   3.524   4.537 -2.1547 -0.3042  0.2820
 8549SOL    HW228668   6.943   3.396   4.607  1.6387  0.6359 -0.1402
 8550SOL     OW28669   2.217   7.563   2.445 -0.3239  0.2131  0.4553
 8550SOL    HW128670   2.138   7.616   2.431 -1.0771 -0.9211  0.3342
 8550SOL    HW228671   2.184   7.474   2.459  0.9447 -0.2960  0.2796
 8551SOL     OW28672   0.867   7.714   7.214 -0.5269  0.0684  0.8507
 8551SOL    HW128673   0.799   7.649   7.196  0.0112 -0.1374 -0.5300
 8551SOL    HW228674   0.947   7.676   7.177 -0.3268  1.7855 -0.5363
 8552SOL     OW28675   0.160   1.888   9.335 -0.4705  0.2590 -0.3691
 8552SOL    HW128676   0.069   1.901   9.311 -0.2033 -0.1435 -1.6588
 8552SOL    HW228677   0.195   1.976   9.347 -1.1053  0.4029  0.4437
 8553SOL     OW28678   7.346   4.914   3.258  0.3714  0.3554 -0.1929
 8553SOL    HW128679   7.387   4.867   3.186 -0.1957  0.6856 -0.7357
 8553SOL    HW228680   7.265   4.866   3.276  1.2902 -0.6772  1.3073
 8554SOL     OW28681   8.169   0.424   6.968 -0.1298  0.4555  0.2240
 8554SOL    HW128682   8.196   0.426   7.060 -1.7307  1.3513  0.6845
 8554SOL    HW228683   8.223   0.356   6.929  0.7637  0.2544  1.7661
 8555SOL     OW28684   5.704   8.610   5.647 -1.0406 -0.1285  0.0126
 8555SOL    HW128685   5.734   8.649   5.730  0.8409 -0.1692 -0.6352
 8555SOL    HW228686   5.615   8.581   5.666 -1.6245  2.2913  1.2378
 8556SOL     OW28687   7.959   8.777   8.070 -0.1965  0.4923 -0.2079
 8556SOL    HW128688   7.891   8.717   8.041  0.2002  0.1500 -0.4290
 8556SOL    HW228689   8.007   8.800   7.991  2.3596 -2.2722  0.4345
 8557SOL     OW28690   1.262   8.712   6.487  0.2462  0.6889 -0.3734
 8557SOL    HW128691   1.284   8.731   6.396  2.3533  0.8792  0.1644
 8557SOL    HW228692   1.290   8.622   6.500  0.3726  0.8141  0.2291
 8558SOL     OW28693   1.449   7.835   6.952 -0.3192 -0.1653 -0.4781
 8558SOL    HW128694   1.428   7.880   7.034 -1.3462 -0.4200 -0.5864
 8558SOL    HW228695   1.499   7.758   6.979 -1.3703 -0.6891 -0.0163
 8559SOL     OW28696   3.197   6.084   5.294 -0.1192 -0.0291  0.1252
 8559SOL    HW128697   3.235   6.094   5.206  0.2589 -0.3119  0.2573
 8559SOL    HW228698   3.159   6.170   5.313  1.1495  0.4963  0.3213
 8560SOL     OW28699   5.463   8.664   5.116 -0.0053  0.0740 -0.0511
 8560SOL    HW128700   5.485   8.623   5.200  1.5323  2.2343  0.6344
 8560SOL    HW228701   5.484   8.597   5.051  0.9549 -0.8011  1.1413
 8561SOL     OW28702   4.565   3.716   5.905 -0.1163 -0.3858 -0.4113
 8561SOL    HW128703   4.629   3.668   5.851  0.1106 -0.0702 -0.4238
 8561SOL    HW228704   4.604   3.717   5.993 -0.3823 -0.7063 -0.2897
 8562SOL     OW28705   8.967   5.494   6.936 -0.4838 -0.1208 -0.6194
 8562SOL    HW128706   9.054   5.534   6.938 -0.8306  0.5707  1.3425
 8562SOL    HW228707   8.984   5.400   6.941  0.1259  0.0540  0.8573
 8563SOL     OW28708   7.717   1.505   6.924 -0.5888  0.4532  0.9451
 8563SOL    HW128709   7.670   1.432   6.884 -0.5659 -0.1370  1.9620
 8563SOL    HW228710   7.669   1.523   7.005  0.2778  0.5839  1.4428
 8564SOL     OW28711   8.035   6.973   4.660 -0.2992  0.4197 -0.3850
 8564SOL    HW128712   8.126   6.945   4.669 -0.0255  1.3680 -0.0770
 8564SOL    HW228713   7.988   6.895   4.633  0.6054 -0.0879 -0.5092
 8565SOL     OW28714   7.192   7.516   6.342 -0.3979  0.3102 -0.2785
 8565SOL    HW128715   7.226   7.498   6.430  0.0290 -1.3580 -0.7575
 8565SOL    HW228716   7.257   7.574   6.302 -0.8878  1.5552  0.6948
 8566SOL     OW28717   8.601   6.449   8.169  0.1462 -0.6787 -0.3252
 8566SOL    HW128718   8.578   6.356   8.166  2.3693 -1.2149 -3.4582
 8566SOL    HW228719   8.670   6.454   8.236  0.3272 -1.3633 -0.4550
 8567SOL     OW28720   5.156   0.392   7.105 -0.1453 -0.1134 -0.1870
 8567SOL    HW128721   5.204   0.416   7.026  0.3854 -2.2671 -0.5450
 8567SOL    HW228722   5.064   0.402   7.082  0.0345  0.4359 -0.6764
 8568SOL     OW28723   4.469   8.155   3.826 -0.4076  0.0249  0.6529
 8568SOL    HW128724   4.491   8.107   3.906 -0.0121  0.0338  0.5490
 8568SOL    HW228725   4.483   8.092   3.756 -3.8687 -1.0190  0.8136
 8569SOL     OW28726   9.061   8.713   7.933 -0.1294 -0.1309  0.4320
 8569SOL    HW128727   8.999   8.714   7.860  0.1348 -1.8685  0.1485
 8569SOL    HW228728   9.006   8.695   8.010 -0.1723 -0.1979  0.3869
 8570SOL     OW28729   6.361   9.222   7.019  0.6467 -0.5055 -0.0623
 8570SOL    HW128730   6.437   9.280   7.024  0.2513 -0.0887  1.1471
 8570SOL    HW228731   6.392   9.138   7.052  0.6354 -0.3984  0.2144
 8571SOL     OW28732   3.865   0.234   2.006  0.1796 -0.5671 -0.0425
 8571SOL    HW128733   3.833   0.158   1.956 -2.3558  1.5876 -1.8184
 8571SOL    HW228734   3.937   0.269   1.953 -1.4304  0.7418 -1.4056
 8572SOL     OW28735   1.157   0.917   9.044 -0.1921  0.5368  0.6200
 8572SOL    HW128736   1.082   0.891   9.098 -0.7381  0.5592 -0.1168
 8572SOL    HW228737   1.217   0.843   9.048 -2.2178 -1.3887 -2.3565
 8573SOL     OW28738   8.876   7.328   7.866 -0.5261 -0.3255 -0.0400
 8573SOL    HW128739   8.900   7.272   7.792 -2.0243 -0.9441 -0.0747
 8573SOL    HW228740   8.823   7.397   7.828  0.4935  0.5941  0.1564
 8574SOL     OW28741   9.080   7.225   7.138  0.3977 -0.2771  0.1250
 8574SOL    HW128742   8.985   7.237   7.142  0.4870  1.2360 -1.5935
 8574SOL    HW228743   9.113   7.271   7.215 -0.0959  1.3905 -0.6344
 8575SOL     OW28744   6.008   4.221   4.728 -0.1850 -0.1140 -0.2137
 8575SOL    HW128745   5.993   4.134   4.765  1.2242 -0.7186 -1.0111
 8575SOL    HW228746   5.961   4.280   4.786  1.3294 -1.1050  2.1049
 8576SOL     OW28747   4.099   2.853   9.101  0.6640  0.1250  0.1274
 8576SOL    HW128748   4.025   2.883   9.154  0.5021  0.7448 -0.4431
 8576SOL    HW228749   4.167   2.919   9.114  0.3585  0.6812 -1.0184
 8577SOL     OW28750   1.670   0.589   3.715 -0.0287 -0.0734 -0.2010
 8577SOL    HW128751   1.715   0.665   3.752  2.6388 -1.5308 -0.3899
 8577SOL    HW228752   1.617   0.625   3.644  2.2995  1.4390 -1.2240
 8578SOL     OW28753   3.331   7.357   4.696 -0.1745  0.7477 -0.3397
 8578SOL    HW128754   3.287   7.283   4.656 -0.1560  0.5355  0.0226
 8578SOL    HW228755   3.366   7.408   4.623 -0.7100  0.7232 -0.6089
 8579SOL     OW28756   1.230   2.846   2.919  0.0578 -0.0484 -0.5125
 8579SOL    HW128757   1.259   2.794   2.995  1.0335  0.6714 -0.3779
 8579SOL    HW228758   1.309   2.856   2.866 -0.4775  0.0074 -1.3065
 8580SOL     OW28759   4.221   3.719   5.603 -0.7382  0.2549  0.8094
 8580SOL    HW128760   4.262   3.705   5.689  0.3794 -0.4165  0.1829
 8580SOL    HW228761   4.133   3.751   5.623 -0.6755 -0.4091  2.2167
 8581SOL     OW28762   8.392   1.349   0.343  0.0694 -0.2143  0.0873
 8581SOL    HW128763   8.427   1.434   0.369 -0.3317  0.0515 -0.2366
 8581SOL    HW228764   8.468   1.291   0.342  0.5174  0.3763 -0.7168
 8582SOL     OW28765   1.695   7.025   3.588  0.3983 -0.4940 -0.3062
 8582SOL    HW128766   1.658   7.015   3.676  0.0317  0.5900 -0.3303
 8582SOL    HW228767   1.776   6.975   3.591  0.6880  0.0162  0.8436
 8583SOL     OW28768   7.163   0.925   3.086 -0.1477  0.3196  0.7495
 8583SOL    HW128769   7.069   0.945   3.088 -0.0326  1.0669 -0.5693
 8583SOL    HW228770   7.202   0.988   3.147 -0.3588  0.8614  0.3322
 8584SOL     OW28771   2.804   3.897   4.475 -0.3112  0.4692 -0.1860
 8584SOL    HW128772   2.763   3.935   4.552  0.3188  1.1544 -0.1881
 8584SOL    HW228773   2.823   3.807   4.500 -2.2134 -0.0122 -0.3254
 8585SOL     OW28774   0.091   8.702   0.673  0.2104 -0.3679 -0.4793
 8585SOL    HW128775   0.085   8.795   0.696  1.4484 -0.0963 -1.2328
 8585SOL    HW228776   0.178   8.692   0.634 -0.1582 -1.7173 -0.9882
 8586SOL     OW28777   7.090   1.285   4.727 -0.0484 -0.4907 -0.0121
 8586SOL    HW128778   7.009   1.332   4.744 -0.5494 -1.1738 -0.4825
 8586SOL    HW228779   7.144   1.346   4.676 -0.7102 -0.4356 -0.6512
 8587SOL     OW28780   0.732   9.192   2.951  0.2153 -0.3944  0.9172
 8587SOL    HW128781   0.790   9.179   2.876 -0.6882 -4.0431  0.7958
 8587SOL    HW228782   0.721   9.287   2.956  0.1492 -0.0761 -3.6495
 8588SOL     OW28783   4.036   8.695   7.605  0.4141 -0.0451 -0.3497
 8588SOL    HW128784   3.996   8.782   7.615  1.9302  0.5228  1.1163
 8588SOL    HW228785   3.967   8.634   7.629 -0.5630  0.7834 -1.0383
 8589SOL     OW28786   0.790   2.292   3.460  0.1754  0.3906 -0.1594
 8589SOL    HW128787   0.807   2.229   3.390  1.2858 -0.6083  0.9817
 8589SOL    HW228788   0.721   2.252   3.513  0.6341  0.2981  0.3691
 8590SOL     OW28789   4.292   0.132   7.344  0.9048 -0.0365  0.0232
 8590SOL    HW128790   4.247   0.069   7.399  0.9771  0.8970  1.1795
 8590SOL    HW228791   4.227   0.160   7.280  0.3314  0.0755  0.6561
 8591SOL     OW28792   6.251   0.789   4.155  0.3233 -0.8489 -0.0367
 8591SOL    HW128793   6.201   0.721   4.110 -1.3267 -0.6761  1.4471
 8591SOL    HW228794   6.193   0.865   4.155  2.1699  0.6181 -1.7370
 8592SOL     OW28795   3.717   4.550   4.320 -0.1353 -0.2996  0.1402
 8592SOL    HW128796   3.685   4.497   4.247 -1.9214 -2.2158  2.2240
 8592SOL    HW228797   3.809   4.526   4.330 -0.6150 -2.1376  0.2922
 8593SOL     OW28798   3.425   4.982   0.466  0.3344 -0.1789 -0.0779
 8593SOL    HW128799   3.471   4.933   0.398  0.8886  1.9186 -1.2508
 8593SOL    HW228800   3.445   4.934   0.547  0.5576 -2.0745 -1.2111
 8594SOL     OW28801   2.292   5.881   6.904  0.3113  0.2839  0.1245
 8594SOL    HW128802   2.231   5.946   6.870  0.1869 -0.3657 -0.8849
 8594SOL    HW228803   2.270   5.874   6.997 -0.0502  1.2612  0.1214
 8595SOL     OW28804   3.564   2.824   4.408  0.1907  0.2821  0.0859
 8595SOL    HW128805   3.499   2.770   4.362 -0.6377  1.8606 -0.6323
 8595SOL    HW228806   3.575   2.901   4.352  1.2614  0.9204  1.1525
 8596SOL     OW28807   6.448   4.329   8.301 -0.4841 -0.9615  0.2683
 8596SOL    HW128808   6.415   4.267   8.237 -0.5602  0.1428 -0.7814
 8596SOL    HW228809   6.370   4.363   8.345 -0.7398  1.1021 -1.7060
 8597SOL     OW28810   3.053   8.942   8.281 -0.2072  0.2274 -0.1901
 8597SOL    HW128811   3.066   8.923   8.374  0.7077  0.7491 -0.2012
 8597SOL    HW228812   3.139   8.971   8.251 -0.6632  0.7007 -1.0443
 8598SOL     OW28813   6.872   4.581   2.258  0.1495  0.4999  0.4411
 8598SOL    HW128814   6.855   4.495   2.220  0.2819  1.3810 -1.7285
 8598SOL    HW228815   6.923   4.564   2.337 -1.0288 -1.4759  0.7852
 8599SOL     OW28816   1.569   2.439   6.910  0.0636  0.8903 -0.3747
 8599SOL    HW128817   1.480   2.460   6.939  1.0022  1.1354  2.5053
 8599SOL    HW228818   1.622   2.511   6.944  1.2641  1.1688 -2.7673
 8600SOL     OW28819   4.686   6.186   4.450 -0.1538 -0.0585  0.2722
 8600SOL    HW128820   4.680   6.213   4.542  0.1772 -0.9361  0.5569
 8600SOL    HW228821   4.595   6.185   4.419 -0.2545  0.3679  0.5496
 8601SOL     OW28822   0.098   2.175   8.378  0.0171 -0.2093  0.0497
 8601SOL    HW128823   0.151   2.225   8.441  1.7345 -1.0407 -0.6839
 8601SOL    HW228824   0.020   2.150   8.427  0.0900  1.4378  1.0380
 8602SOL     OW28825   8.872   4.255   0.103 -0.1423  0.2498  0.2936
 8602SOL    HW128826   8.837   4.295   0.024  0.9416  0.2596 -0.1843
 8602SOL    HW228827   8.948   4.309   0.125 -0.1027 -0.0973  1.0196
 8603SOL     OW28828   1.771   2.855   2.618  0.2132 -0.4209 -0.0294
 8603SOL    HW128829   1.745   2.935   2.573 -0.0586 -0.6110 -0.2131
 8603SOL    HW228830   1.696   2.796   2.608  0.3347 -0.6309  0.2692
 8604SOL     OW28831   3.682   0.596   0.281 -0.2530  0.5273  0.0387
 8604SOL    HW128832   3.658   0.511   0.242  2.1353  0.1884 -0.7438
 8604SOL    HW228833   3.775   0.588   0.300 -0.3471  2.4586  1.3776
 8605SOL     OW28834   6.607   3.566   5.991  0.2586  0.0804  0.1663
 8605SOL    HW128835   6.513   3.552   5.989  0.4150 -0.9928  0.1825
 8605SOL    HW228836   6.633   3.544   6.081  0.7577 -1.1316 -0.2768
 8606SOL     OW28837   5.499   6.281   3.615 -0.3569  0.0740  0.6930
 8606SOL    HW128838   5.567   6.317   3.558 -0.3764 -0.3227  0.4233
 8606SOL    HW228839   5.501   6.338   3.693 -0.3945  0.6693  0.2626
 8607SOL     OW28840   0.478   4.898   2.596 -0.2399 -0.0762 -0.5206
 8607SOL    HW128841   0.512   4.919   2.683  0.0094 -0.2115 -0.5871
 8607SOL    HW228842   0.555   4.884   2.542 -0.3884  0.3269 -0.8433
 8608SOL     OW28843   3.260   4.438   1.111  0.0914 -0.5848  0.3103
 8608SOL    HW128844   3.316   4.423   1.035 -0.1045  1.3522 -0.2576
 8608SOL    HW228845   3.319   4.432   1.186  0.5587 -1.1517 -0.1005
 8609SOL     OW28846   4.766   0.090   1.639 -0.0006 -0.5068 -0.6925
 8609SOL    HW128847   4.673   0.088   1.663 -0.4801 -0.3022 -2.4056
 8609SOL    HW228848   4.782   0.180   1.611  1.3738  0.0941  1.9567
 8610SOL     OW28849   4.849   6.950   3.559 -0.2616 -0.1385 -0.3567
 8610SOL    HW128850   4.761   6.968   3.592 -0.3006 -0.9389 -0.0385
 8610SOL    HW228851   4.857   6.855   3.562  1.4126  0.0363  1.6690
 8611SOL     OW28852   2.706   3.687   7.096  0.5361 -0.1577  0.7551
 8611SOL    HW128853   2.695   3.648   7.010 -1.7572 -1.8522  1.7469
 8611SOL    HW228854   2.772   3.634   7.139  1.8442  0.8260 -0.0173
 8612SOL     OW28855   1.281   1.732   5.552  0.1476  0.3145  0.1180
 8612SOL    HW128856   1.247   1.687   5.475  1.2211  1.3503 -0.9905
 8612SOL    HW228857   1.251   1.823   5.541  1.0188  0.6466  0.4836
 8613SOL     OW28858   4.184   8.025   1.164 -0.7610 -0.2010 -0.3449
 8613SOL    HW128859   4.160   8.029   1.256 -1.5149  1.4094 -0.5962
 8613SOL    HW228860   4.189   8.116   1.136  1.5998 -0.6013 -1.3586
 8614SOL     OW28861   8.347   2.375   0.434  0.3154  0.3084 -0.2483
 8614SOL    HW128862   8.282   2.309   0.410  0.3470 -0.0147  0.5306
 8614SOL    HW228863   8.367   2.419   0.352 -0.4723  0.0363 -0.6010
 8615SOL     OW28864   1.922   6.775   2.752  0.1051 -0.3537  0.4818
 8615SOL    HW128865   1.906   6.682   2.768 -0.3486 -0.3333  0.1659
 8615SOL    HW228866   1.859   6.820   2.807 -0.4318 -0.2571 -0.2072
 8616SOL     OW28867   8.481   3.875   1.141  0.2062 -0.4603  0.6855
 8616SOL    HW128868   8.533   3.929   1.081 -0.1572 -0.9488 -0.0688
 8616SOL    HW228869   8.493   3.917   1.226  0.8719  0.1319  0.3093
 8617SOL     OW28870   8.809   3.241   6.744 -0.1115  0.2206 -0.0798
 8617SOL    HW128871   8.801   3.300   6.819 -1.1218 -0.2515  0.1955
 8617SOL    HW228872   8.720   3.209   6.729 -0.0400  0.8125 -1.9008
 8618SOL     OW28873   7.732   8.328   9.197  0.3852  0.5650  0.0774
 8618SOL    HW128874   7.824   8.302   9.203  0.4808  1.2154  1.6541
 8618SOL    HW228875   7.725   8.404   9.254 -1.2671  0.1745  0.4236
 8619SOL     OW28876   1.286   5.333   1.612  0.1332  0.4671 -0.0563
 8619SOL    HW128877   1.273   5.427   1.618 -0.5488  0.3128  0.9358
 8619SOL    HW228878   1.272   5.313   1.519  0.5526  1.3736 -0.3199
 8620SOL     OW28879   0.046   8.233   4.029 -0.3286 -0.0536  0.0314
 8620SOL    HW128880   0.007   8.266   3.948  0.6642  0.9222 -0.0575
 8620SOL    HW228881   0.009   8.288   4.097  0.6167  0.6447 -0.0151
 8621SOL     OW28882   0.934   3.778   0.475 -0.2778 -0.2078  0.3793
 8621SOL    HW128883   0.981   3.847   0.429 -1.1839  1.0585  1.3372
 8621SOL    HW228884   0.912   3.715   0.406  1.7249 -0.2220 -0.2709
 8622SOL     OW28885   8.211   5.329   6.175 -0.1105 -0.1385  0.7697
 8622SOL    HW128886   8.178   5.363   6.092 -0.6809  0.2274  1.1453
 8622SOL    HW228887   8.262   5.401   6.211 -0.3836 -0.0795  1.0342
 8623SOL     OW28888   5.965   3.988   0.994  0.2302  0.2517  0.9372
 8623SOL    HW128889   5.964   3.896   0.968 -1.0253  0.3415  0.6621
 8623SOL    HW228890   5.981   4.036   0.913 -2.3888  0.4534  0.5068
 8624SOL     OW28891   6.856   2.485   4.601  0.3861  0.6955  0.3290
 8624SOL    HW128892   6.852   2.498   4.506  0.7555  0.9518  0.3444
 8624SOL    HW228893   6.772   2.447   4.624 -0.2865  2.0279  0.1126
 8625SOL     OW28894   3.444   2.227   6.267 -0.3464  0.5981 -0.6325
 8625SOL    HW128895   3.487   2.197   6.187  0.5740 -0.6162  0.3048
 8625SOL    HW228896   3.381   2.159   6.288 -1.9217  1.8033 -1.3305
 8626SOL     OW28897   7.855   4.165   2.057 -0.0652  0.4861  0.3009
 8626SOL    HW128898   7.922   4.098   2.070  0.7126  0.9042 -1.5493
 8626SOL    HW228899   7.858   4.186   1.964 -1.6203  1.7187  0.4991
 8627SOL     OW28900   2.195   4.476   3.186 -0.0002 -0.0734 -0.2144
 8627SOL    HW128901   2.133   4.468   3.113 -0.3615  3.1686 -0.3569
 8627SOL    HW228902   2.140   4.492   3.262  0.4167 -2.8108  0.7099
 8628SOL     OW28903   6.627   8.332   8.031 -0.5365  0.1997 -0.2266
 8628SOL    HW128904   6.717   8.305   8.015 -0.5214 -0.0664  0.3026
 8628SOL    HW228905   6.617   8.413   7.980  0.1649  0.5186  0.1260
 8629SOL     OW28906   5.634   8.773   2.515 -0.1579 -0.2297 -0.3405
 8629SOL    HW128907   5.708   8.763   2.455  0.7683 -2.1838  1.1109
 8629SOL    HW228908   5.646   8.705   2.581 -2.4372  0.3903  0.7735
 8630SOL     OW28909   6.211   0.182   1.497  0.2962 -0.0590 -0.1065
 8630SOL    HW128910   6.184   0.154   1.585  0.8725  0.8913  0.3795
 8630SOL    HW228911   6.200   0.104   1.443 -0.2022 -0.6146  0.7793
 8631SOL     OW28912   5.829   2.515   7.016 -0.2364  0.0666  0.1515
 8631SOL    HW128913   5.862   2.482   6.932  1.4826  1.3401  0.2794
 8631SOL    HW228914   5.876   2.464   7.081 -0.0955  0.4186  0.3294
 8632SOL     OW28915   6.906   8.244   3.373  0.2908  0.3880 -0.0661
 8632SOL    HW128916   6.954   8.162   3.384 -1.0933 -0.2569  1.3631
 8632SOL    HW228917   6.950   8.306   3.431  1.2498  0.6523 -1.0415
 8633SOL     OW28918   5.646   0.911   7.415 -0.1399 -0.2081 -0.2495
 8633SOL    HW128919   5.610   0.858   7.344  0.6825 -1.1404  0.0271
 8633SOL    HW228920   5.596   0.993   7.411 -0.0520 -0.2248 -1.9404
 8634SOL     OW28921   4.438   0.838   2.712 -0.2431 -0.6850  0.1802
 8634SOL    HW128922   4.419   0.912   2.654 -0.7840  1.1005  2.5461
 8634SOL    HW228923   4.387   0.765   2.676 -1.7110  0.7681 -0.7518
 8635SOL     OW28924   8.618   1.856   3.173 -0.6606 -0.8361 -0.3015
 8635SOL    HW128925   8.622   1.951   3.166 -0.2748 -0.8640 -0.4677
 8635SOL    HW228926   8.702   1.826   3.138 -1.3774 -1.3165 -1.6275
 8636SOL     OW28927   5.681   0.324   7.056 -0.6909  0.3085 -0.8470
 8636SOL    HW128928   5.619   0.374   7.108  0.7838  0.9666  0.2921
 8636SOL    HW228929   5.693   0.375   6.976 -0.7104  0.7759 -0.5494
 8637SOL     OW28930   1.676   1.746   5.515  0.6376  0.3830  0.0480
 8637SOL    HW128931   1.630   1.668   5.544  1.4605 -0.0275  0.2644
 8637SOL    HW228932   1.664   1.810   5.585 -1.4404  1.0377 -0.8484
 8638SOL     OW28933   3.636   3.190   8.823  0.3386  0.1498 -0.2399
 8638SOL    HW128934   3.577   3.214   8.751 -0.1592 -0.1810  0.0548
 8638SOL    HW228935   3.580   3.190   8.901  1.1134  1.5774  0.3142
 8639SOL     OW28936   2.159   6.515   4.111  0.5196  0.0507  0.0095
 8639SOL    HW128937   2.193   6.536   4.023 -0.1080 -2.3010 -0.8301
 8639SOL    HW228938   2.170   6.596   4.160  1.0903  1.3590 -2.1824
 8640SOL     OW28939   8.850   8.953   8.211 -0.5882  0.3899  0.2565
 8640SOL    HW128940   8.865   9.044   8.235 -1.5166  0.3195  1.1210
 8640SOL    HW228941   8.804   8.915   8.285  0.5879 -1.0360  0.2957
 8641SOL     OW28942   6.312   3.858   9.175 -0.5646  0.2160  0.2034
 8641SOL    HW128943   6.286   3.927   9.115 -0.1889  1.2042  1.1557
 8641SOL    HW228944   6.290   3.892   9.262  0.7060 -0.3541  0.7684
 8642SOL     OW28945   2.887   0.325   2.848 -0.2209  0.0919  0.2296
 8642SOL    HW128946   2.850   0.266   2.914  1.3592  0.0052  1.0494
 8642SOL    HW228947   2.852   0.292   2.765 -2.4024  0.3294  1.0138
 8643SOL     OW28948   9.192   0.428   5.775  0.1284  0.1184  0.3953
 8643SOL    HW128949   9.204   0.441   5.869  0.1112  0.7348  0.3172
 8643SOL    HW228950   9.273   0.386   5.746  0.2805  0.2514  0.6285
 8644SOL     OW28951   8.434   0.950   6.086 -0.1383 -0.1861  0.3119
 8644SOL    HW128952   8.489   0.893   6.032 -0.2443  0.2872 -0.2992
 8644SOL    HW228953   8.481   0.958   6.169  0.0622 -0.8573  0.2646
 8645SOL     OW28954   4.748   3.246   6.304  0.1264  0.4465 -0.6641
 8645SOL    HW128955   4.771   3.190   6.230 -0.2560 -0.9745  0.2832
 8645SOL    HW228956   4.665   3.287   6.278 -1.5708 -2.3462  0.1978
 8646SOL     OW28957   8.348   8.329   6.115 -0.7617 -0.4555  0.0257
 8646SOL    HW128958   8.259   8.365   6.116 -0.2056  1.0818 -2.6625
 8646SOL    HW228959   8.390   8.368   6.192 -1.8263  0.3323  0.2208
 8647SOL     OW28960   0.986   4.815   5.158  0.0579  0.2294  0.1315
 8647SOL    HW128961   0.990   4.889   5.097  0.0329  0.8878  0.9256
 8647SOL    HW228962   1.037   4.746   5.115 -0.4403  0.4860 -0.9037
 8648SOL     OW28963   4.724   1.177   2.202  0.4788  0.2994 -0.0149
 8648SOL    HW128964   4.738   1.135   2.286  0.9963  0.2028 -0.1482
 8648SOL    HW228965   4.779   1.129   2.140 -1.3466 -0.8383 -0.7889
 8649SOL     OW28966   3.258   5.288   5.550 -0.4298  0.1713 -0.1493
 8649SOL    HW128967   3.192   5.356   5.539 -0.3887  0.6825  2.4706
 8649SOL    HW228968   3.330   5.315   5.493 -0.6757  1.9850  0.3736
 8650SOL     OW28969   5.121   4.092   6.022  0.3020  0.6484 -0.0647
 8650SOL    HW128970   5.096   4.000   6.030 -0.2594  0.8440  0.4028
 8650SOL    HW228971   5.167   4.112   6.104  1.4401  0.4658 -0.6504
 8651SOL     OW28972   2.440   0.790   5.524  0.1195 -0.2571 -0.1463
 8651SOL    HW128973   2.469   0.713   5.574 -0.6893  0.2797  1.1359
 8651SOL    HW228974   2.497   0.861   5.554 -0.6751  0.1704  0.3425
 8652SOL     OW28975   0.914   3.030   7.287 -0.1070  0.1993  0.1260
 8652SOL    HW128976   0.840   3.086   7.263  0.9384  1.3955 -0.3778
 8652SOL    HW228977   0.978   3.045   7.218  1.0818  0.0811  1.1912
 8653SOL     OW28978   4.860   3.829   3.765 -0.4820 -0.2171 -0.1098
 8653SOL    HW128979   4.771   3.794   3.768 -1.0094  1.1635  1.0105
 8653SOL    HW228980   4.912   3.763   3.811 -1.5398  0.6055  2.3648
 8654SOL     OW28981   3.134   4.893   1.386  0.1646  0.1114 -0.2279
 8654SOL    HW128982   3.212   4.858   1.344  0.5035 -0.3815  0.8020
 8654SOL    HW228983   3.066   4.890   1.318  1.1843  1.1126 -1.3066
 8655SOL     OW28984   1.210   7.490   8.734 -0.3070  0.0552 -0.1786
 8655SOL    HW128985   1.154   7.551   8.687 -1.8398 -0.2265  1.2332
 8655SOL    HW228986   1.162   7.408   8.735  0.5588 -0.4624  0.2354
 8656SOL     OW28987   8.556   3.568   8.385  0.2455 -0.0682  0.2618
 8656SOL    HW128988   8.556   3.473   8.370  0.6766 -0.2190  1.1943
 8656SOL    HW228989   8.640   3.586   8.428 -0.3603  0.5449  1.2188
 8657SOL     OW28990   8.490   1.874   1.925 -0.0755  0.0724 -0.4050
 8657SOL    HW128991   8.495   1.894   2.019  1.7097 -2.1422  0.0207
 8657SOL    HW228992   8.452   1.787   1.921 -0.8835  0.4850 -1.7931
 8658SOL     OW28993   8.758   3.339   1.029 -0.5608 -0.0706  0.2213
 8658SOL    HW128994   8.828   3.317   1.090  0.1085  0.5041 -0.3390
 8658SOL    HW228995   8.802   3.369   0.950 -1.4217 -2.1899 -1.1002
 8659SOL     OW28996   9.142   6.486   0.066 -0.2209  0.5828 -0.2967
 8659SOL    HW128997   9.116   6.560   0.010 -1.8020 -0.7826 -1.3970
 8659SOL    HW228998   9.097   6.501   0.149 -1.7052  0.1161 -1.0028
 8660SOL     OW28999   1.339   4.770   4.835  0.6665 -0.2321  0.3303
 8660SOL    HW129000   1.346   4.851   4.785 -1.7879 -0.8729 -1.1413
 8660SOL    HW229001   1.410   4.714   4.802  0.6171  0.2825 -0.6514
 8661SOL     OW29002   0.769   9.438   8.319 -0.0140 -0.0601  0.0085
 8661SOL    HW129003   0.827   9.367   8.291  0.5756 -0.0202  1.0939
 8661SOL    HW229004   0.827   9.499   8.365 -0.5418  1.0601 -0.7895
 8662SOL     OW29005   1.831   1.313   8.458 -0.2024 -1.1018  0.7491
 8662SOL    HW129006   1.910   1.323   8.511  0.4189 -0.0130 -0.3453
 8662SOL    HW229007   1.831   1.221   8.432  0.2066 -1.3210  1.5252
 8663SOL     OW29008   7.959   1.953   2.287 -0.4539  0.1955 -0.2490
 8663SOL    HW129009   7.909   1.944   2.206  1.0835 -0.3868 -1.1563
 8663SOL    HW229010   7.970   1.864   2.319  0.4652  0.2749 -0.3408
 8664SOL     OW29011   1.921   0.272   5.093 -0.1711  0.2922 -0.0467
 8664SOL    HW129012   2.002   0.315   5.067  0.8920 -1.3141  0.5796
 8664SOL    HW229013   1.878   0.250   5.010 -0.8096  2.6008 -0.3932
 8665SOL     OW29014   5.474   8.047   1.346  0.0712 -0.6495 -0.3669
 8665SOL    HW129015   5.551   8.040   1.289 -0.4756 -0.8722 -1.0910
 8665SOL    HW229016   5.498   7.999   1.425  1.0301  0.1096 -0.2032
 8666SOL     OW29017   9.396   8.336   1.602 -0.0244  0.3320 -0.3254
 8666SOL    HW129018   9.354   8.254   1.576 -0.1776  0.5700 -0.8431
 8666SOL    HW229019   9.340   8.370   1.672 -0.1353  0.1507 -0.3252
 8667SOL     OW29020   8.629   4.997   8.697 -0.3460 -0.0024 -0.3358
 8667SOL    HW129021   8.597   4.908   8.704  2.5506 -0.9774  1.3308
 8667SOL    HW229022   8.618   5.035   8.784  0.1110  0.6614 -0.5520
 8668SOL     OW29023   8.712   6.571   4.796 -0.5255  0.0378  0.4745
 8668SOL    HW129024   8.658   6.567   4.875 -1.2801 -0.1743 -0.0494
 8668SOL    HW229025   8.795   6.609   4.826 -0.4449 -0.9778  1.5592
 8669SOL     OW29026   5.572   8.508   3.354 -0.1811 -0.3535  0.4114
 8669SOL    HW129027   5.517   8.578   3.390  0.7729  0.4747  0.2627
 8669SOL    HW229028   5.630   8.484   3.426 -0.5792 -1.0749  0.4957
 8670SOL     OW29029   6.713   2.479   8.663  0.0467  0.1764 -0.1488
 8670SOL    HW129030   6.625   2.516   8.667 -0.0002 -0.0617  1.4243
 8670SOL    HW229031   6.744   2.501   8.575 -1.9088 -0.5294 -1.0520
 8671SOL     OW29032   1.670   8.313   6.688 -0.3531 -0.2593 -0.3481
 8671SOL    HW129033   1.621   8.242   6.646  0.1903 -1.0580  0.3563
 8671SOL    HW229034   1.699   8.368   6.615 -1.8426 -0.0568 -0.8182
 8672SOL     OW29035   3.826   2.739   0.742  0.3564 -0.3314 -0.0234
 8672SOL    HW129036   3.892   2.737   0.672  0.4825 -2.5722  0.1377
 8672SOL    HW229037   3.870   2.699   0.817  0.0350  1.5684  1.2189
 8673SOL     OW29038   4.646   6.682   2.666 -0.7313 -0.3626  0.2217
 8673SOL    HW129039   4.694   6.763   2.681  0.6621 -1.0243 -0.5913
 8673SOL    HW229040   4.616   6.689   2.575 -2.2505  0.0761  0.7419
 8674SOL     OW29041   3.960   1.972   6.658 -0.6489 -0.2280 -0.0534
 8674SOL    HW129042   3.926   1.945   6.743 -0.4313 -1.6664 -0.4144
 8674SOL    HW229043   3.898   1.935   6.595  0.4146 -1.0603 -0.6212
 8675SOL     OW29044   4.046   6.286   5.485  0.1106  0.4796 -0.8625
 8675SOL    HW129045   4.109   6.236   5.432 -0.4548 -0.9171 -0.2187
 8675SOL    HW229046   4.078   6.278   5.575  1.2395  3.1087 -0.9582
 8676SOL     OW29047   3.885   5.653   1.068  0.4214 -0.1079  0.0175
 8676SOL    HW129048   3.800   5.640   1.027  0.2511 -0.5560  0.5167
 8676SOL    HW229049   3.876   5.615   1.155  1.7307 -1.9629 -0.6218
 8677SOL     OW29050   4.604   9.265   1.868 -0.3658  0.5956 -0.0388
 8677SOL    HW129051   4.695   9.258   1.897 -0.6530 -0.6278  0.5701
 8677SOL    HW229052   4.557   9.300   1.944 -0.7237 -0.5024  0.2508
 8678SOL     OW29053   5.114   8.687   4.215  0.2959 -0.0000  0.4546
 8678SOL    HW129054   5.075   8.627   4.279 -0.1584  1.1567  1.2946
 8678SOL    HW229055   5.197   8.714   4.255  0.8372 -0.6214 -0.2466
 8679SOL     OW29056   0.401   3.413   5.290 -0.4104 -0.4599  0.3813
 8679SOL    HW129057   0.345   3.429   5.366 -2.8425 -0.9134 -1.2837
 8679SOL    HW229058   0.456   3.491   5.284 -2.2052  0.8785  0.8810
 8680SOL     OW29059   0.979   2.952   6.405 -0.7273 -0.1762  0.4667
 8680SOL    HW129060   0.893   2.978   6.438 -1.2087 -1.2068  0.0566
 8680SOL    HW229061   1.039   3.019   6.437 -1.6772  0.5125  0.8103
 8681SOL     OW29062   7.839   1.275   8.027 -0.0857  0.4798  0.3566
 8681SOL    HW129063   7.795   1.314   8.103 -1.1262 -0.8458  0.4352
 8681SOL    HW229064   7.880   1.350   7.983 -0.6151  1.4415  1.4679
 8682SOL     OW29065   3.205   2.483   0.135 -0.5172 -0.6177  0.4502
 8682SOL    HW129066   3.291   2.455   0.103 -0.2184  1.8639 -1.0412
 8682SOL    HW229067   3.143   2.440   0.078 -0.1406  0.0390 -0.4625
 8683SOL     OW29068   0.930   9.199   1.332 -0.3421  0.1902 -0.6983
 8683SOL    HW129069   0.936   9.270   1.396 -1.7937  0.9214 -1.3444
 8683SOL    HW229070   0.858   9.145   1.363 -0.2058 -0.1723 -1.0108
 8684SOL     OW29071   3.756   6.860   6.605  0.1445  0.5986  0.5622
 8684SOL    HW129072   3.785   6.914   6.678  1.2421 -0.8181  1.1920
 8684SOL    HW229073   3.706   6.789   6.645 -2.4335  1.8143 -0.3583
 8685SOL     OW29074   3.311   7.691   4.335 -0.2365  0.3979 -0.2060
 8685SOL    HW129075   3.273   7.732   4.258 -1.2545  0.0431  0.0992
 8685SOL    HW229076   3.316   7.762   4.399  0.1088  0.5669 -0.4183
 8686SOL     OW29077   6.214   2.036   3.032  0.0653 -0.3539 -0.3839
 8686SOL    HW129078   6.136   2.069   2.987 -0.8416 -0.8267  0.8396
 8686SOL    HW229079   6.198   1.942   3.042  1.1605 -0.5946 -0.8542
 8687SOL     OW29080   3.752   6.408   2.575  0.0569 -0.1944 -0.0479
 8687SOL    HW129081   3.797   6.346   2.517  1.4132  0.0876  0.6835
 8687SOL    HW229082   3.746   6.362   2.658 -1.4390 -0.4048 -0.2569
 8688SOL     OW29083   8.200   6.511   3.746 -0.3552 -0.1997 -0.1674
 8688SOL    HW129084   8.169   6.489   3.658 -0.2341  0.4727 -0.3871
 8688SOL    HW229085   8.214   6.427   3.789 -3.3954 -0.5413  0.2827
 8689SOL     OW29086   1.074   2.265   0.234  0.3010  0.0450 -0.7855
 8689SOL    HW129087   1.058   2.360   0.236  1.0150  0.1730 -1.0160
 8689SOL    HW229088   1.161   2.255   0.274 -0.4656 -0.6673  0.7256
 8690SOL     OW29089   8.303   6.568   9.142 -0.2279  1.0617  0.0282
 8690SOL    HW129090   8.391   6.603   9.128 -0.4976  1.0533 -1.9257
 8690SOL    HW229091   8.316   6.479   9.173  0.4571  1.0112 -0.4033
 8691SOL     OW29092   7.750   2.951   5.245 -0.4547 -0.1921  0.5342
 8691SOL    HW129093   7.745   2.994   5.160  0.7465  0.8447  0.9612
 8691SOL    HW229094   7.838   2.913   5.248 -0.1014  0.6705  1.7026
 8692SOL     OW29095   5.905   8.242   2.211 -0.5116 -0.4709 -0.4444
 8692SOL    HW129096   5.975   8.307   2.221 -2.4367  1.6717 -0.3870
 8692SOL    HW229097   5.831   8.279   2.260 -2.0028 -2.2196 -1.3004
 8693SOL     OW29098   2.616   3.468   5.010 -0.7440  0.0117 -0.4833
 8693SOL    HW129099   2.591   3.490   5.100 -0.9540 -0.9626 -0.2873
 8693SOL    HW229100   2.532   3.464   4.963 -0.8501 -1.6966 -0.1916
 8694SOL     OW29101   8.673   5.719   7.283  0.6979 -0.1146 -0.4020
 8694SOL    HW129102   8.684   5.712   7.188  1.0245 -1.2564 -0.2799
 8694SOL    HW229103   8.751   5.766   7.313 -0.0784  1.4947 -0.8607
 8695SOL     OW29104   8.612   0.800   5.935 -0.0070  0.1807  0.1219
 8695SOL    HW129105   8.648   0.832   5.853  0.6567 -1.4957 -0.2775
 8695SOL    HW229106   8.586   0.709   5.916 -1.9332  0.4847  1.1534
 8696SOL     OW29107   3.484   7.170   3.567  0.7205 -0.1231 -0.5690
 8696SOL    HW129108   3.561   7.112   3.563  1.5527  0.9374 -0.1891
 8696SOL    HW229109   3.471   7.184   3.661  1.1805  1.1533 -0.6853
 8697SOL     OW29110   2.563   2.811   8.703 -0.4492 -0.1546 -0.2206
 8697SOL    HW129111   2.503   2.845   8.636  0.0993 -0.2978 -0.7869
 8697SOL    HW229112   2.550   2.869   8.778 -3.7329 -2.1439  0.8786
 8698SOL     OW29113   6.051   2.241   0.372 -0.0710 -0.0494  0.4986
 8698SOL    HW129114   6.063   2.208   0.461 -0.1790 -1.3683  0.0389
 8698SOL    HW229115   6.085   2.330   0.374  1.8212 -0.7794  1.3360
 8699SOL     OW29116   9.168   4.598   9.184 -0.2050  0.2758 -0.3192
 8699SOL    HW129117   9.247   4.609   9.238  1.0010 -0.6889 -1.8680
 8699SOL    HW229118   9.200   4.604   9.094 -2.2961  2.5369 -0.9629
 8700SOL     OW29119   5.620   1.150   6.754 -0.0680 -0.0980  0.3120
 8700SOL    HW129120   5.655   1.125   6.668  2.4220  2.2371  0.5765
 8700SOL    HW229121   5.529   1.173   6.737  0.0789 -0.8007 -1.4996
 8701SOL     OW29122   2.672   6.829   5.363  0.0802 -0.6325 -0.6653
 8701SOL    HW129123   2.763   6.825   5.334  0.9179  3.0492  1.1314
 8701SOL    HW229124   2.665   6.912   5.411 -3.8141 -1.5816  0.6639
 8702SOL     OW29125   8.800   0.939   0.623 -0.5329  0.3659 -0.1732
 8702SOL    HW129126   8.857   0.981   0.687  0.5009 -2.3775  0.7651
 8702SOL    HW229127   8.765   0.862   0.669 -0.8636 -0.8825 -2.4408
 8703SOL     OW29128   8.728   1.024   2.118 -0.4952 -0.3824 -0.2578
 8703SOL    HW129129   8.660   1.060   2.060  0.4288  0.4234 -0.8591
 8703SOL    HW229130   8.760   0.947   2.072  2.8533  2.3267 -2.7043
 8704SOL     OW29131   6.301   6.675   2.097 -0.1194 -0.5792  0.6949
 8704SOL    HW129132   6.373   6.737   2.078 -0.8114 -0.1015 -0.4593
 8704SOL    HW229133   6.266   6.653   2.010 -0.9121 -1.3545  1.2108
 8705SOL     OW29134   8.608   1.374   2.271  0.6638  0.1896 -0.7103
 8705SOL    HW129135   8.597   1.282   2.296 -1.7572 -0.2811 -3.2229
 8705SOL    HW229136   8.644   1.370   2.182 -0.8478  1.6273 -1.4151
 8706SOL     OW29137   3.040   7.655   1.227  0.5688  1.0810 -0.2202
 8706SOL    HW129138   3.113   7.592   1.228 -0.6817 -0.4054  0.8173
 8706SOL    HW229139   2.985   7.627   1.154  0.2093  1.2085  0.0012
 8707SOL     OW29140   6.235   1.211   7.066 -0.0451  0.5739 -0.0752
 8707SOL    HW129141   6.281   1.137   7.105  0.1128  0.9947  0.5540
 8707SOL    HW229142   6.212   1.267   7.141 -1.1126  0.6304 -0.4376
 8708SOL     OW29143   5.421   0.529   9.145 -0.4360 -0.4620 -0.1599
 8708SOL    HW129144   5.335   0.503   9.111 -0.1292  2.2957 -3.3402
 8708SOL    HW229145   5.483   0.472   9.100 -0.3927 -0.2858 -0.3250
 8709SOL     OW29146   6.171   2.796   4.449 -0.0096 -0.2970  0.0918
 8709SOL    HW129147   6.242   2.787   4.386  0.5803  0.8718  0.5859
 8709SOL    HW229148   6.188   2.879   4.493 -1.6328 -0.0507  0.2767
 8710SOL     OW29149   3.875   9.275   5.999 -0.5052 -0.3003 -0.5742
 8710SOL    HW129150   3.833   9.200   5.956  0.7872 -0.0172 -2.4002
 8710SOL    HW229151   3.810   9.345   5.995 -1.0918 -0.8296 -0.3764
 8711SOL     OW29152   8.107   5.462   9.174  0.5683 -0.5527  0.7423
 8711SOL    HW129153   8.123   5.556   9.168  0.2557 -0.5472 -0.0358
 8711SOL    HW229154   8.181   5.428   9.225  1.4782 -0.1067 -0.2777
 8712SOL     OW29155   2.853   7.955   1.289 -0.0227 -0.0249  0.1854
 8712SOL    HW129156   2.945   7.951   1.262  0.0715  0.2171  0.4730
 8712SOL    HW229157   2.820   7.867   1.272 -0.1152  0.2827 -1.2635
 8713SOL     OW29158   4.371   2.210   3.060 -0.2278 -0.2246  0.2549
 8713SOL    HW129159   4.323   2.212   2.977  3.6701 -1.3510 -2.1213
 8713SOL    HW229160   4.421   2.292   3.061  0.8272 -0.8639  0.8422
 8714SOL     OW29161   5.649   4.071   1.914  0.3647  0.0569 -0.0709
 8714SOL    HW129162   5.703   4.147   1.893  2.1135 -0.9915  0.5064
 8714SOL    HW229163   5.639   4.025   1.830  0.0842  0.4343 -0.2439
 8715SOL     OW29164   5.551   8.900   7.366 -0.4883  0.2184 -0.2639
 8715SOL    HW129165   5.465   8.870   7.338 -0.4568  0.9915 -1.2188
 8715SOL    HW229166   5.553   8.883   7.460 -0.7358 -2.0782 -0.6437
 8716SOL     OW29167   1.659   9.256   4.888  0.1514  0.4506 -0.4105
 8716SOL    HW129168   1.578   9.247   4.939  0.0431 -0.6541 -0.7786
 8716SOL    HW229169   1.727   9.272   4.954 -0.0035 -0.8854  0.0825
 8717SOL     OW29170   1.429   6.388   0.729 -0.2647  0.4427  0.2029
 8717SOL    HW129171   1.446   6.481   0.711  3.2716 -0.2804 -0.6013
 8717SOL    HW229172   1.375   6.359   0.656  1.0652  1.2018 -1.1103
 8718SOL     OW29173   0.193   0.360   9.044 -0.1550 -0.4957  0.4253
 8718SOL    HW129174   0.256   0.417   9.001 -0.5647 -0.3674 -0.0123
 8718SOL    HW229175   0.178   0.402   9.129  0.8917 -0.9235  0.8222
 8719SOL     OW29176   0.785   2.912   7.885  0.3467 -0.5774  0.3491
 8719SOL    HW129177   0.723   2.878   7.950  0.4475  0.3790  0.9507
 8719SOL    HW229178   0.795   2.840   7.822 -0.9937 -0.9278  0.5084
 8720SOL     OW29179   1.184   1.415   7.702 -0.2821  0.0766 -0.6284
 8720SOL    HW129180   1.108   1.388   7.753 -1.0716  0.4213 -1.5961
 8720SOL    HW229181   1.169   1.378   7.615  0.3032  0.7403 -1.0249
 8721SOL     OW29182   1.680   7.150   9.247  0.1979  0.7664  0.1710
 8721SOL    HW129183   1.600   7.198   9.267  0.9298  1.5721  1.2599
 8721SOL    HW229184   1.651   7.059   9.234 -0.8703  1.0299  0.6534
 8722SOL     OW29185   4.063   6.204   7.088 -0.1187 -0.1435  0.3217
 8722SOL    HW129186   4.066   6.265   7.162 -0.2159 -0.7307  0.8094
 8722SOL    HW229187   4.082   6.119   7.126  2.9437 -0.0124 -0.8322
 8723SOL     OW29188   7.372   2.025   1.898 -0.3461  0.1846 -0.0490
 8723SOL    HW129189   7.443   1.961   1.900 -1.8007 -1.4533  0.1301
 8723SOL    HW229190   7.302   1.985   1.950 -0.9371  2.3479  0.8908
 8724SOL     OW29191   1.063   1.547   4.980 -0.1546  0.0290  0.5016
 8724SOL    HW129192   1.005   1.556   5.055 -1.2579 -1.1711 -0.1798
 8724SOL    HW229193   1.009   1.504   4.913  1.8990 -2.4917  0.3629
 8725SOL     OW29194   5.847   7.285   5.471  0.5812 -0.1383 -0.0316
 8725SOL    HW129195   5.852   7.207   5.526 -0.3351 -1.0140 -1.1658
 8725SOL    HW229196   5.937   7.316   5.464  0.9146 -0.9797  0.5801
 8726SOL     OW29197   4.600   7.108   2.225 -0.3204  0.7581 -0.4998
 8726SOL    HW129198   4.581   7.103   2.319 -0.4137 -1.3669 -0.6136
 8726SOL    HW229199   4.658   7.184   2.216  1.1687 -0.1024  1.5143
 8727SOL     OW29200   1.017   0.772   5.551 -1.0825  0.4568  0.2137
 8727SOL    HW129201   1.070   0.692   5.561  0.2203  1.3851  0.8129
 8727SOL    HW229202   1.038   0.824   5.628 -2.9421  0.8241  0.4943
 8728SOL     OW29203   0.535   1.709   4.914  0.0886  0.3640 -0.7494
 8728SOL    HW129204   0.606   1.757   4.957 -0.6739  1.2056 -0.4125
 8728SOL    HW229205   0.522   1.753   4.831 -0.3361  0.4947 -0.6177
 8729SOL     OW29206   7.110   5.535   4.199  0.7879  0.0880 -0.3230
 8729SOL    HW129207   7.129   5.474   4.127  1.3166  0.0643 -0.1611
 8729SOL    HW229208   7.032   5.499   4.241  0.4297  0.1402 -0.9297
 8730SOL     OW29209   0.541   7.904   8.282  0.5550 -0.1300  0.2935
 8730SOL    HW129210   0.554   7.982   8.337 -0.5911 -0.2103  0.6951
 8730SOL    HW229211   0.470   7.928   8.222 -1.2434 -1.5563  1.7872
 8731SOL     OW29212   0.566   7.986   4.755  0.0533 -0.5296 -0.7274
 8731SOL    HW129213   0.498   7.919   4.752 -2.1465  1.4407  2.4697
 8731SOL    HW229214   0.636   7.946   4.807 -0.3148 -1.1350 -0.6869
 8732SOL     OW29215   7.177   7.190   0.594 -0.0651  0.2739 -0.0739
 8732SOL    HW129216   7.164   7.280   0.623 -2.4825  0.6829 -2.2380
 8732SOL    HW229217   7.156   7.137   0.670  0.7993  1.5103  1.0494
 8733SOL     OW29218   9.132   2.136   3.723 -0.1557 -0.3941 -0.0599
 8733SOL    HW129219   9.120   2.160   3.815  3.3179 -1.6663  0.8190
 8733SOL    HW229220   9.104   2.045   3.718  2.8522 -1.4073  0.5835
 8734SOL     OW29221   7.232   9.346   5.550  0.4208 -0.4878 -0.9265
 8734SOL    HW129222   7.312   9.388   5.518  0.2627 -0.4219 -1.2360
 8734SOL    HW229223   7.262   9.290   5.622  0.5110  0.8321  0.0997
 8735SOL     OW29224   4.385   4.559   8.697  0.1240 -0.2159  0.0082
 8735SOL    HW129225   4.322   4.492   8.672 -0.0538 -0.8509  2.0816
 8735SOL    HW229226   4.391   4.616   8.620 -2.2996 -0.6508 -0.5366
 8736SOL     OW29227   4.348   1.924   6.701  0.0510 -0.3560 -0.0242
 8736SOL    HW129228   4.419   1.979   6.734  0.2177 -0.4630 -0.2039
 8736SOL    HW229229   4.274   1.983   6.692  0.6511  0.1598 -1.6805
 8737SOL     OW29230   3.137   4.839   8.300 -0.3783  0.3434 -0.3671
 8737SOL    HW129231   3.095   4.912   8.345  0.6280  0.5990  0.1824
 8737SOL    HW229232   3.093   4.761   8.334 -0.4120  0.6073  0.1966
 8738SOL     OW29233   3.075   2.650   7.368  0.2082  0.0610  0.0829
 8738SOL    HW129234   3.090   2.745   7.367  0.8552 -0.0193  1.1436
 8738SOL    HW229235   3.122   2.617   7.292  2.9204  0.1903  1.6234
 8739SOL     OW29236   0.317   0.411   8.286  0.3606  0.1780  0.4865
 8739SOL    HW129237   0.388   0.361   8.248 -0.4354 -1.0165  0.5268
 8739SOL    HW229238   0.297   0.478   8.221 -0.1332 -1.0389 -0.6588
 8740SOL     OW29239   0.893   4.295   2.781  0.2018 -0.3676  1.0623
 8740SOL    HW129240   0.846   4.212   2.770 -0.0233  0.0896 -1.8192
 8740SOL    HW229241   0.985   4.270   2.787  0.0509 -0.8855  1.2569
 8741SOL     OW29242   3.460   2.090   1.820  0.4775 -0.6244  0.2772
 8741SOL    HW129243   3.454   2.031   1.895  2.5218 -0.4928  0.5806
 8741SOL    HW229244   3.404   2.164   1.842  1.8439 -0.1199  2.1206
 8742SOL     OW29245   2.787   2.966   8.480 -0.3765 -0.2262 -0.1761
 8742SOL    HW129246   2.827   2.971   8.567 -1.4423  2.2756  0.2008
 8742SOL    HW229247   2.731   2.889   8.485  2.2997 -2.2631  0.1269
 8743SOL     OW29248   5.955   5.905   6.375 -0.5854  0.0093  0.0793
 8743SOL    HW129249   6.030   5.909   6.315 -0.9219 -1.0860 -0.4407
 8743SOL    HW229250   5.881   5.880   6.319 -0.8464 -1.3327  0.9875
 8744SOL     OW29251   3.236   6.866   7.210  0.3244  0.1198 -0.0932
 8744SOL    HW129252   3.147   6.831   7.198  0.2581  0.0681  0.5063
 8744SOL    HW229253   3.229   6.920   7.289  0.8811 -0.0630  0.0786
 8745SOL     OW29254   4.913   6.413   3.946 -0.0738  0.0297  0.3341
 8745SOL    HW129255   4.988   6.440   3.891 -1.5680 -0.9149 -2.2781
 8745SOL    HW229256   4.947   6.343   4.000  1.5289  1.1640  0.8395
 8746SOL     OW29257   8.870   8.739   8.702 -0.3588  0.5198 -0.2604
 8746SOL    HW129258   8.898   8.806   8.764 -1.7064  2.4591 -1.6973
 8746SOL    HW229259   8.951   8.697   8.673  0.4361  1.0482  1.1844
 8747SOL     OW29260   7.749   5.353   1.182 -0.1783  0.1811 -0.5172
 8747SOL    HW129261   7.797   5.278   1.215 -0.6123 -0.2342 -0.8269
 8747SOL    HW229262   7.809   5.395   1.119 -0.2251 -0.3375 -0.9081
 8748SOL     OW29263   9.006   5.654   2.353 -0.3456  0.0890  0.6584
 8748SOL    HW129264   9.068   5.724   2.331 -1.2387  0.4133 -0.8808
 8748SOL    HW229265   9.045   5.611   2.429 -0.3496  3.0093  2.4135
 8749SOL     OW29266   0.369   4.153   9.061 -0.0924 -0.0207 -0.2942
 8749SOL    HW129267   0.427   4.202   9.002 -0.4936 -0.5065 -1.1121
 8749SOL    HW229268   0.398   4.062   9.053 -0.9500 -0.2694 -0.7110
 8750SOL     OW29269   4.194   2.579   8.272  0.0954 -0.8501 -0.0985
 8750SOL    HW129270   4.158   2.490   8.270  2.1156 -1.6895  0.0336
 8750SOL    HW229271   4.262   2.579   8.205  2.9972 -0.6750  2.7208
 8751SOL     OW29272   1.775   6.441   8.129  0.0606  0.9536  0.2008
 8751SOL    HW129273   1.799   6.423   8.220  0.7179 -0.9924 -0.3339
 8751SOL    HW229274   1.679   6.431   8.127  0.2035 -0.6158  0.3550
 8752SOL     OW29275   6.044   2.470   6.481  0.1016  0.0588  0.6109
 8752SOL    HW129276   6.079   2.420   6.408  0.2893 -0.9517  1.3826
 8752SOL    HW229277   6.117   2.523   6.513  0.4499 -0.7240  1.1034
 8753SOL     OW29278   8.991   4.044   4.184  0.1659 -0.3302  0.0845
 8753SOL    HW129279   9.042   4.125   4.190 -1.8059  1.1067 -2.2605
 8753SOL    HW229280   8.962   4.028   4.274  0.9710  1.2848  0.6499
 8754SOL     OW29281   2.579   0.079   1.215  0.2133  0.6346  0.2422
 8754SOL    HW129282   2.496   0.091   1.169  0.4281 -1.5320 -0.7718
 8754SOL    HW229283   2.626   0.161   1.201  0.4533 -0.0789 -3.8392
 8755SOL     OW29284   3.420   6.672   7.727  0.0626  0.4245  0.4400
 8755SOL    HW129285   3.515   6.673   7.711 -0.0420 -0.6048 -0.2466
 8755SOL    HW229286   3.395   6.581   7.718 -1.3841  0.9839 -1.6013
 8756SOL     OW29287   6.457   0.273   8.600 -0.4195 -0.1172 -0.1678
 8756SOL    HW129288   6.531   0.236   8.647  1.7999  3.8472 -0.3563
 8756SOL    HW229289   6.401   0.310   8.669  0.3311  1.2702 -0.2760
 8757SOL     OW29290   4.752   0.090   1.928 -0.2817  0.3160  0.0810
 8757SOL    HW129291   4.771   0.114   1.837  0.9184  1.7517  0.6867
 8757SOL    HW229292   4.819   0.025   1.950 -0.2829  0.3180  0.0899
 8758SOL     OW29293   1.399   8.519   8.010 -0.1501  1.1078  0.0607
 8758SOL    HW129294   1.487   8.516   8.046 -0.1733  1.7850  0.1724
 8758SOL    HW229295   1.402   8.462   7.933  0.2355  0.6884  0.3843
 8759SOL     OW29296   6.640   3.788   3.479 -0.3750 -0.0532 -0.0970
 8759SOL    HW129297   6.578   3.861   3.485 -0.1002  0.2178 -0.5013
 8759SOL    HW229298   6.724   3.825   3.507 -0.0309  0.0519 -1.2118
 8760SOL     OW29299   6.734   5.453   7.468 -0.0254  0.6284  0.2038
 8760SOL    HW129300   6.717   5.370   7.512  1.1489 -0.8957 -2.0991
 8760SOL    HW229301   6.795   5.499   7.525 -0.6092 -0.1310  1.4459
 8761SOL     OW29302   1.261   1.588   3.025  0.0395 -0.3208 -0.3244
 8761SOL    HW129303   1.255   1.589   2.930 -0.2974  2.3737 -0.3040
 8761SOL    HW229304   1.352   1.564   3.044  0.7210  1.3739 -1.3681
 8762SOL     OW29305   7.836   8.576   6.159  0.3375 -0.2474  0.0241
 8762SOL    HW129306   7.794   8.544   6.239  0.9341 -0.0647  0.4104
 8762SOL    HW229307   7.929   8.569   6.177  0.4715  0.0166 -0.5720
 8763SOL     OW29308   2.540   1.995   7.474 -0.4394 -0.5632 -0.2815
 8763SOL    HW129309   2.531   1.923   7.411 -0.6598  1.5074 -2.7337
 8763SOL    HW229310   2.602   2.054   7.432 -1.3158  1.3211  1.0326
 8764SOL     OW29311   7.830   4.544   3.831  0.2830  0.0995  0.1478
 8764SOL    HW129312   7.819   4.566   3.923 -1.3779  0.6242 -0.1593
 8764SOL    HW229313   7.747   4.569   3.790  0.5946 -1.1341 -1.2928
 8765SOL     OW29314   0.230   8.593   4.668 -0.2918  0.3230  0.4728
 8765SOL    HW129315   0.170   8.580   4.595 -0.7540  0.5755  0.8066
 8765SOL    HW229316   0.298   8.652   4.633  0.9096 -1.6120 -0.5335
 8766SOL     OW29317   3.672   8.393   7.281  0.0966 -0.1959 -0.2462
 8766SOL    HW129318   3.765   8.402   7.302 -0.0533  0.4434  0.1599
 8766SOL    HW229319   3.669   8.319   7.220  0.7540 -0.8713  0.5203
 8767SOL     OW29320   3.446   0.674   2.847 -0.2536  0.1655  0.1908
 8767SOL    HW129321   3.496   0.598   2.818 -0.4189  0.7235 -1.6081
 8767SOL    HW229322   3.470   0.685   2.940  0.1106 -1.7840  0.3370
 8768SOL     OW29323   3.500   5.470   1.865  0.2521 -0.2080  0.3189
 8768SOL    HW129324   3.423   5.521   1.841 -0.5488 -1.6999 -0.3344
 8768SOL    HW229325   3.514   5.412   1.791  1.2973 -0.7707  0.9531
 8769SOL     OW29326   3.292   7.756   1.957 -0.1714  0.3454  0.0462
 8769SOL    HW129327   3.305   7.684   1.895  1.9465 -0.2608  1.1362
 8769SOL    HW229328   3.240   7.718   2.028 -0.7916  0.4488 -0.3568
 8770SOL     OW29329   8.512   1.467   0.017 -0.4127  0.0133  0.3745
 8770SOL    HW129330   8.578   1.444   0.083  1.7492  1.0753 -1.3343
 8770SOL    HW229331   8.555   1.534  -0.036 -1.8857 -1.2131 -2.4439
 8771SOL     OW29332   0.820   6.821   1.081 -0.0374 -0.4975 -0.4804
 8771SOL    HW129333   0.832   6.906   1.124  3.4276 -1.6381  0.9400
 8771SOL    HW229334   0.826   6.840   0.988 -0.1278  0.9197 -0.2143
 8772SOL     OW29335   9.007   6.275   6.753 -0.2532 -0.2503 -0.2081
 8772SOL    HW129336   9.094   6.303   6.779  0.0085 -1.0632 -0.1788
 8772SOL    HW229337   8.991   6.318   6.669 -0.2594  0.7527  0.3095
 8773SOL     OW29338   5.796   2.433   6.391 -0.3939  0.3429  0.3767
 8773SOL    HW129339   5.740   2.509   6.379  0.2488  0.5348 -1.6867
 8773SOL    HW229340   5.863   2.461   6.454 -1.2158  0.8812  1.0129
 8774SOL     OW29341   3.954   4.797   1.417 -0.4178 -0.4275 -0.3298
 8774SOL    HW129342   3.999   4.819   1.336  0.1332 -2.3606 -0.5669
 8774SOL    HW229343   3.868   4.764   1.389 -0.8539  0.4265 -0.0295
 8775SOL     OW29344   1.314   0.964   2.876 -0.3489  0.7545 -0.1603
 8775SOL    HW129345   1.358   0.978   2.960 -1.2544  0.3931  0.3780
 8775SOL    HW229346   1.298   1.052   2.842 -0.2668  0.9108  0.2021
 8776SOL     OW29347   4.409   3.450   5.416  0.6135  0.0389 -0.0316
 8776SOL    HW129348   4.345   3.521   5.407  0.9084  0.5435  1.5213
 8776SOL    HW229349   4.365   3.373   5.382 -0.2589  0.6926 -0.4041
 8777SOL     OW29350   8.013   1.098   5.933  0.5771 -0.4289 -0.1305
 8777SOL    HW129351   8.082   1.059   5.880 -0.5445 -1.7338 -0.6837
 8777SOL    HW229352   8.041   1.188   5.947  3.0889 -1.3374  0.9018
 8778SOL     OW29353   8.555   8.769   9.173  0.0634 -0.3910  0.3928
 8778SOL    HW129354   8.568   8.826   9.097  2.0128 -0.1640  0.8764
 8778SOL    HW229355   8.624   8.703   9.167 -0.1577 -0.7582  1.6165
 8779SOL     OW29356   1.071   4.392   0.806  0.5878  0.0132 -0.7363
 8779SOL    HW129357   1.010   4.449   0.759  1.0040  0.8434 -0.2759
 8779SOL    HW229358   1.158   4.426   0.784  0.8344 -0.3760 -0.3718
 8780SOL     OW29359   4.728   2.112   2.702 -0.2535 -0.3180 -0.3678
 8780SOL    HW129360   4.696   2.195   2.738  0.5916  0.5316 -1.5363
 8780SOL    HW229361   4.669   2.046   2.738 -1.1720  0.8361  0.2760
 8781SOL     OW29362   8.034   1.844   0.767 -0.2439  0.3866 -0.4360
 8781SOL    HW129363   8.084   1.784   0.822 -0.9852  0.5592  0.4376
 8781SOL    HW229364   7.943   1.824   0.786 -0.5012  1.3039 -0.6669
 8782SOL     OW29365   8.936   3.832   5.406  0.2935 -0.4761  0.1918
 8782SOL    HW129366   8.842   3.831   5.423  0.2877 -0.4423  0.1654
 8782SOL    HW229367   8.957   3.742   5.382  0.0028 -0.1791 -1.2284
 8783SOL     OW29368   9.310   2.466   0.529 -0.4910 -0.3653 -0.2443
 8783SOL    HW129369   9.272   2.525   0.464 -0.0184  0.6360  0.3705
 8783SOL    HW229370   9.392   2.436   0.489 -1.6163 -2.0854 -1.3315
 8784SOL     OW29371   1.261   0.009   4.919 -0.1879  0.7601 -0.1147
 8784SOL    HW129372   1.290  -0.074   4.956  0.9167 -0.3876 -3.3962
 8784SOL    HW229373   1.188  -0.013   4.862 -0.2704  2.1228 -0.5614
 8785SOL     OW29374   6.735   3.472   3.123 -0.6168 -0.0286  0.2053
 8785SOL    HW129375   6.819   3.428   3.134 -0.5402  0.0228 -0.1754
 8785SOL    HW229376   6.706   3.491   3.212  1.3108  2.8678  0.2535
 8786SOL     OW29377   2.904   5.573   0.353  0.1408  0.2027 -0.4329
 8786SOL    HW129378   2.916   5.658   0.310  1.6917 -0.4333 -1.3000
 8786SOL    HW229379   2.955   5.512   0.300  0.3087 -0.9989  1.0740
 8787SOL     OW29380   1.416   4.161   7.146  0.3035 -0.5075  0.0146
 8787SOL    HW129381   1.320   4.161   7.144  0.3411 -0.2885 -2.8042
 8787SOL    HW229382   1.440   4.250   7.120  1.2818 -1.0270 -0.9031
 8788SOL     OW29383   2.310   8.758   4.603  0.2865  0.3316  0.0163
 8788SOL    HW129384   2.362   8.816   4.659 -2.1235  4.2065 -1.5604
 8788SOL    HW229385   2.344   8.772   4.515 -1.9925  1.3806 -0.7449
 8789SOL     OW29386   2.207   5.490   8.303 -0.1827  0.5204 -0.1881
 8789SOL    HW129387   2.300   5.506   8.314 -0.0027 -0.0141 -0.8745
 8789SOL    HW229388   2.176   5.564   8.250 -0.1753  0.7671  0.1524
 8790SOL     OW29389   2.259   4.436   3.541  0.2643  0.7546 -0.3757
 8790SOL    HW129390   2.196   4.365   3.530 -1.1998  2.0217 -0.3293
 8790SOL    HW229391   2.209   4.515   3.522  1.6688  1.8283  0.3470
 8791SOL     OW29392   2.607   0.396   8.549 -0.0880  0.2891  0.2660
 8791SOL    HW129393   2.660   0.341   8.491 -0.6661  0.7118 -0.6697
 8791SOL    HW229394   2.669   0.425   8.616  1.6074  3.1065 -2.3799
 8792SOL     OW29395   3.192   7.134   6.300  0.3372 -0.1013 -0.8783
 8792SOL    HW129396   3.120   7.119   6.239  1.0914  1.5133 -2.1953
 8792SOL    HW229397   3.159   7.198   6.362  0.8504  1.1596 -1.8911
 8793SOL     OW29398   8.731   9.078   5.432  0.5426  0.5548 -0.5726
 8793SOL    HW129399   8.642   9.077   5.396  0.1072 -2.5112  0.4034
 8793SOL    HW229400   8.778   9.141   5.378 -2.4665  3.0155 -0.4697
 8794SOL     OW29401   0.868   2.775   0.021  0.7652  0.1929 -0.4182
 8794SOL    HW129402   0.905   2.687   0.030 -1.0533 -0.5248  0.1790
 8794SOL    HW229403   0.942   2.829  -0.009  1.8723 -1.5470 -0.8994
 8795SOL     OW29404   2.846   5.819   4.402  0.1348  0.1919  0.2021
 8795SOL    HW129405   2.789   5.794   4.330  1.3969  1.0757 -1.1357
 8795SOL    HW229406   2.890   5.899   4.371  1.2884  0.1321  1.6230
 8796SOL     OW29407   4.334   2.243   0.540 -0.1352  0.0415  0.0032
 8796SOL    HW129408   4.325   2.246   0.445 -1.7752 -0.5876  0.1089
 8796SOL    HW229409   4.259   2.293   0.573 -0.1889 -0.6428  0.9615
 8797SOL     OW29410   5.524   0.132   8.641  0.0319 -0.3119 -0.0846
 8797SOL    HW129411   5.482   0.200   8.588  0.9504  2.7099  2.9102
 8797SOL    HW229412   5.617   0.140   8.620  0.2323 -0.0774  0.8892
 8798SOL     OW29413   4.470   1.183   8.980 -0.0378 -0.6662 -0.0049
 8798SOL    HW129414   4.562   1.202   8.964 -0.0491 -0.9267 -0.3891
 8798SOL    HW229415   4.470   1.098   9.024 -0.1349 -1.0251 -0.6920
 8799SOL     OW29416   6.080   0.563   2.059 -0.2133 -0.2067 -0.5647
 8799SOL    HW129417   6.123   0.483   2.089 -1.8762 -1.0477 -0.3462
 8799SOL    HW229418   6.022   0.534   1.988 -0.3350  0.9164 -0.9398
 8800SOL     OW29419   3.758   7.851   8.290 -0.9770 -0.7068 -0.0377
 8800SOL    HW129420   3.743   7.930   8.342  0.7803  1.1227 -2.2060
 8800SOL    HW229421   3.717   7.869   8.205  0.9561 -1.3716 -1.1617
 8801SOL     OW29422   4.512   8.554   4.680 -0.1231  0.2711 -0.2346
 8801SOL    HW129423   4.471   8.492   4.620  0.0894  0.3371 -0.4449
 8801SOL    HW229424   4.476   8.531   4.766 -0.5752  0.3054 -0.4137
 8802SOL     OW29425   2.360   2.879   6.460 -0.0254 -0.7516 -0.6521
 8802SOL    HW129426   2.341   2.863   6.368 -1.4884 -0.5994 -0.3966
 8802SOL    HW229427   2.411   2.803   6.487 -2.0847 -2.2844 -0.8781
 8803SOL     OW29428   0.863   0.600   6.201  0.5157 -0.1838 -0.2667
 8803SOL    HW129429   0.918   0.628   6.127  2.0394  0.7464  1.1880
 8803SOL    HW229430   0.846   0.680   6.250 -0.5250 -0.7907  0.3771
 8804SOL     OW29431   5.016   3.722   0.130  0.0235  0.1724 -0.4221
 8804SOL    HW129432   4.926   3.733   0.101  1.1130 -0.3594 -4.2208
 8804SOL    HW229433   5.037   3.631   0.107  2.0969  0.8434 -1.2149
 8805SOL     OW29434   2.581   0.226   9.224  0.2541  0.3571 -0.5980
 8805SOL    HW129435   2.555   0.141   9.257  2.6578 -0.0876  0.2614
 8805SOL    HW229436   2.520   0.244   9.152  0.0596 -2.3209 -1.1406
 8806SOL     OW29437   3.674   3.330   1.126 -0.0809 -0.9157 -0.2372
 8806SOL    HW129438   3.669   3.371   1.040 -0.0978 -2.4901 -0.9937
 8806SOL    HW229439   3.642   3.241   1.113 -0.4148 -1.0748  1.4701
 8807SOL     OW29440   7.219   1.547   2.904  0.4259  0.7922 -0.6888
 8807SOL    HW129441   7.176   1.632   2.894 -0.4563  0.2799 -1.2670
 8807SOL    HW229442   7.165   1.486   2.854  1.3650 -0.0128 -0.7492
 8808SOL     OW29443   3.170   4.969   7.597  0.2866  0.2659 -0.0926
 8808SOL    HW129444   3.207   4.936   7.515  0.4788  0.5585 -0.1259
 8808SOL    HW229445   3.084   5.003   7.572 -0.1511 -0.7339  0.0485
 8809SOL     OW29446   7.445   8.315   9.373 -0.1627 -0.1013  0.2119
 8809SOL    HW129447   7.520   8.339   9.427 -0.0566  0.6859 -0.2751
 8809SOL    HW229448   7.373   8.305   9.435  0.0492  0.4109  0.5425
 8810SOL     OW29449   3.172   7.799   4.111 -0.0903 -0.0467 -0.2052
 8810SOL    HW129450   3.096   7.747   4.085  0.0528 -0.0607 -0.5967
 8810SOL    HW229451   3.155   7.887   4.078 -0.0756  0.0264 -0.0241
 8811SOL     OW29452   7.020   6.141   2.673  0.0815  0.5175  0.0639
 8811SOL    HW129453   6.979   6.226   2.660  0.0874  0.7308  1.3677
 8811SOL    HW229454   7.031   6.106   2.585 -0.6860  1.5017 -0.4337
 8812SOL     OW29455   2.307   4.630   8.166  0.0171 -0.0017 -0.1421
 8812SOL    HW129456   2.292   4.539   8.142  1.8769 -0.0135 -1.3718
 8812SOL    HW229457   2.314   4.630   8.261  0.6923 -1.2522 -0.1872
 8813SOL     OW29458   2.169   3.950   2.180  0.2418  0.6296 -0.2426
 8813SOL    HW129459   2.234   3.947   2.251 -1.6430 -0.3163  1.5030
 8813SOL    HW229460   2.119   4.030   2.197  0.1277  0.6755 -0.8039
 8814SOL     OW29461   9.398   4.692   1.644 -0.4121 -0.0645  0.5496
 8814SOL    HW129462   9.449   4.684   1.724 -1.4700 -1.3179  1.1205
 8814SOL    HW229463   9.354   4.607   1.635 -0.5444  0.1698 -1.1849
 8815SOL     OW29464   0.872   6.135   2.623  0.1622  0.7266  0.1016
 8815SOL    HW129465   0.812   6.068   2.654  3.5930 -2.6059 -0.1156
 8815SOL    HW229466   0.878   6.197   2.696 -0.6004 -0.9130  1.6025
 8816SOL     OW29467   7.120   7.294   1.241 -0.2218 -0.5202 -0.1860
 8816SOL    HW129468   7.089   7.286   1.150 -0.8865  0.4603 -0.0539
 8816SOL    HW229469   7.214   7.309   1.233 -0.2234 -0.7610 -0.7036
 8817SOL     OW29470   0.664   4.846   8.740  0.0389 -0.6465  0.2654
 8817SOL    HW129471   0.653   4.771   8.682 -1.8134 -1.2956  1.3780
 8817SOL    HW229472   0.580   4.893   8.734  0.0193 -0.4098  1.9179
 8818SOL     OW29473   5.649   1.352   2.659  0.6398 -0.5441  0.1388
 8818SOL    HW129474   5.649   1.369   2.565 -2.0394  1.6064  0.4423
 8818SOL    HW229475   5.733   1.386   2.690  1.6375 -1.4775 -1.4683
 8819SOL     OW29476   4.709   5.069   8.005  0.2602  0.2800 -0.3636
 8819SOL    HW129477   4.651   5.133   8.046  0.2907  1.4653 -2.1148
 8819SOL    HW229478   4.754   5.027   8.079 -1.5879  0.5041  0.9287
 8820SOL     OW29479   2.161   4.045   7.343 -0.2815 -0.3142 -0.3640
 8820SOL    HW129480   2.164   4.011   7.432 -0.7666  0.8174  0.0876
 8820SOL    HW229481   2.234   4.107   7.338  0.0243 -0.7025 -0.8999
 8821SOL     OW29482   4.188   4.169   2.851  0.7628 -0.7574  0.1827
 8821SOL    HW129483   4.182   4.074   2.852 -0.1085 -0.7135 -0.4460
 8821SOL    HW229484   4.249   4.188   2.779  1.7414 -0.8727  0.9711
 8822SOL     OW29485   0.944   6.803   7.490  0.0730  0.2617  0.0847
 8822SOL    HW129486   0.905   6.751   7.420  0.1471 -0.3628  0.5058
 8822SOL    HW229487   1.038   6.802   7.471 -0.0989  1.8108 -0.9619
 8823SOL     OW29488   6.842   8.533   1.091  0.2280  0.0994  0.1068
 8823SOL    HW129489   6.857   8.558   0.999 -0.0110  1.2091  0.3619
 8823SOL    HW229490   6.782   8.600   1.124  0.1468 -0.4235  1.0191
 8824SOL     OW29491   1.678   5.595   7.866  0.1803 -0.4484 -0.0833
 8824SOL    HW129492   1.653   5.544   7.789  0.3398 -0.5242 -0.0851
 8824SOL    HW229493   1.771   5.574   7.880  0.0979 -0.5816  0.2483
 8825SOL     OW29494   7.518   1.605   8.413  0.5272 -0.3555  0.2639
 8825SOL    HW129495   7.578   1.619   8.486  1.1414 -2.6637  0.2479
 8825SOL    HW229496   7.574   1.611   8.335  0.1423  0.6348  0.0560
 8826SOL     OW29497   8.753   6.676   2.175 -0.2547  0.0611  0.4177
 8826SOL    HW129498   8.818   6.736   2.140  0.7953 -0.7831  0.8882
 8826SOL    HW229499   8.669   6.714   2.150  0.4303  0.8583 -0.6901
 8827SOL     OW29500   3.627   2.360   7.210 -0.1639  0.2111  0.1882
 8827SOL    HW129501   3.645   2.362   7.304  0.6160 -1.3759  0.0968
 8827SOL    HW229502   3.652   2.447   7.179 -1.4808  1.1132  1.6229
 8828SOL     OW29503   6.024   3.034   1.484 -0.1199  0.5024  0.2484
 8828SOL    HW129504   6.051   3.125   1.496 -1.3102  0.9857 -0.5962
 8828SOL    HW229505   6.026   2.996   1.571  4.3174  0.1998  0.1120
 8829SOL     OW29506   2.504   0.705   8.046 -0.2849  0.2103 -0.3070
 8829SOL    HW129507   2.593   0.671   8.052 -0.5967 -0.3410  1.7891
 8829SOL    HW229508   2.514   0.792   8.008  1.1066  0.0052 -0.4436
 8830SOL     OW29509   7.915   1.792   7.298 -0.4091 -0.6399 -0.3536
 8830SOL    HW129510   7.946   1.710   7.337  0.3627 -0.5003 -0.6813
 8830SOL    HW229511   7.844   1.820   7.356  0.0875 -0.9399  0.4002
 8831SOL     OW29512   1.014   2.572   8.171 -0.1516  0.0342 -0.1642
 8831SOL    HW129513   1.006   2.618   8.088 -0.6615  0.9243  0.3693
 8831SOL    HW229514   0.976   2.485   8.155 -0.1526  0.1663 -0.8791
 8832SOL     OW29515   2.982   2.786   0.368 -0.5415 -0.5474  0.1421
 8832SOL    HW129516   2.959   2.874   0.338 -0.5754  0.1275  2.0687
 8832SOL    HW229517   3.071   2.773   0.337 -0.0087  0.7592  1.0457
 8833SOL     OW29518   8.352   3.553   1.683 -0.5622 -0.2357 -0.2444
 8833SOL    HW129519   8.351   3.610   1.605  2.3143 -0.6459 -0.6530
 8833SOL    HW229520   8.438   3.512   1.681 -0.4787 -0.3616  3.1147
 8834SOL     OW29521   6.990   3.908   5.698  0.2486  0.0296 -0.0098
 8834SOL    HW129522   6.980   3.837   5.635 -0.5798 -0.2301  0.4019
 8834SOL    HW229523   7.063   3.881   5.753  0.3901 -0.1741 -0.2990
 8835SOL     OW29524   2.443   1.672   0.093 -0.2944  0.6064  0.1252
 8835SOL    HW129525   2.505   1.678   0.166 -1.9728 -1.1110  1.7368
 8835SOL    HW229526   2.495   1.635   0.021  0.7245 -0.2444  1.2667
 8836SOL     OW29527   8.105   3.031   8.672  0.1350 -0.0815  0.0057
 8836SOL    HW129528   8.076   3.102   8.615  1.6146  0.6111  0.1008
 8836SOL    HW229529   8.041   2.961   8.657 -1.4893  1.3417  0.0912
 8837SOL     OW29530   7.022   1.956   4.262  0.3507  0.1090  0.3266
 8837SOL    HW129531   7.034   1.871   4.219 -1.1794 -0.4072  0.8870
 8837SOL    HW229532   7.066   1.946   4.347 -0.4996 -0.3985  0.7147
 8838SOL     OW29533   9.132   4.736   5.204 -0.1106  0.1627  0.6352
 8838SOL    HW129534   9.164   4.817   5.244  0.8032  0.5407 -0.8456
 8838SOL    HW229535   9.073   4.764   5.135 -1.3040 -0.4814  1.3810
 8839SOL     OW29536   6.555   2.018   0.136  0.4626 -0.0999  0.1023
 8839SOL    HW129537   6.549   2.010   0.041  0.1410  2.2131 -0.1117
 8839SOL    HW229538   6.595   1.936   0.165  3.6715  0.4590 -2.3758
 8840SOL     OW29539   9.148   0.892   0.481 -0.0301  0.1500 -0.4354
 8840SOL    HW129540   9.123   0.925   0.567  0.2791 -0.0327 -0.2732
 8840SOL    HW229541   9.127   0.964   0.421 -1.6447 -0.2803 -0.4160
 8841SOL     OW29542   6.738   0.976   5.307 -0.4916 -0.3588 -0.6266
 8841SOL    HW129543   6.796   1.052   5.312 -0.4701 -0.3460 -1.0228
 8841SOL    HW229544   6.762   0.923   5.383 -1.9543  1.0387  0.8495
 8842SOL     OW29545   3.247   1.216   7.045  0.2139  0.3208 -0.0375
 8842SOL    HW129546   3.263   1.307   7.069  1.6692 -0.2457  1.3132
 8842SOL    HW229547   3.333   1.184   7.016 -0.6952 -0.1089 -2.3162
 8843SOL     OW29548   8.432   2.913   4.648 -0.1308 -0.4303 -0.4294
 8843SOL    HW129549   8.522   2.884   4.661  0.2359  0.5868 -0.6794
 8843SOL    HW229550   8.381   2.832   4.646  0.9964 -1.1185 -2.0699
 8844SOL     OW29551   1.991   5.295   8.234  0.4587  0.7386 -0.2498
 8844SOL    HW129552   2.035   5.231   8.177  0.1730  0.5819 -0.2969
 8844SOL    HW229553   2.062   5.348   8.270  0.8062 -0.3247  0.6593
 8845SOL     OW29554   8.615   4.873   6.379 -0.4476 -0.0301 -0.0660
 8845SOL    HW129555   8.536   4.924   6.362 -0.0679  1.0676  1.4248
 8845SOL    HW229556   8.673   4.933   6.426  0.9865 -1.0634 -0.4831
 8846SOL     OW29557   4.164   1.876   6.003 -0.0274 -0.0839  0.2014
 8846SOL    HW129558   4.182   1.962   6.039 -2.6974  0.0176  1.4021
 8846SOL    HW229559   4.115   1.831   6.071 -0.3859 -1.8564 -1.1781
 8847SOL     OW29560   9.075   4.148   0.742 -0.2706 -0.2748 -0.2312
 8847SOL    HW129561   8.991   4.160   0.699  0.3320 -0.7041 -1.5461
 8847SOL    HW229562   9.135   4.208   0.698  0.2646 -0.4322  0.2635
 8848SOL     OW29563   0.059   5.300   0.713  0.1782 -0.1483 -0.0726
 8848SOL    HW129564   0.124   5.354   0.669 -0.6047  2.6537  2.0258
 8848SOL    HW229565   0.081   5.308   0.806 -1.2826 -1.6887  0.4150
 8849SOL     OW29566   0.779   5.242   3.474  0.2210 -0.4025 -0.3820
 8849SOL    HW129567   0.824   5.282   3.548 -1.9144  0.2765  0.6179
 8849SOL    HW229568   0.845   5.190   3.429  2.7523  3.0488 -0.8322
 8850SOL     OW29569   3.662   1.523   8.256 -0.2428 -0.6144 -0.2365
 8850SOL    HW129570   3.613   1.598   8.224 -1.0069 -0.1767  1.8915
 8850SOL    HW229571   3.737   1.561   8.301 -0.1765 -1.1583  0.1180
 8851SOL     OW29572   3.642   1.869   2.931 -0.2463 -0.3613  0.0484
 8851SOL    HW129573   3.590   1.804   2.978  0.1947 -0.5667  0.2555
 8851SOL    HW229574   3.730   1.862   2.970 -0.1243  0.1456 -0.1337
 8852SOL     OW29575   0.990   7.807   1.965 -0.4309  0.3469 -0.0120
 8852SOL    HW129576   1.069   7.802   2.018 -0.9919  1.9653  1.0178
 8852SOL    HW229577   0.933   7.868   2.013 -1.6020  0.5554 -1.6383
 8853SOL     OW29578   4.022   3.583   7.257  0.0652 -0.4269  0.4917
 8853SOL    HW129579   4.042   3.656   7.316 -0.5772 -0.2618  0.5166
 8853SOL    HW229580   3.928   3.569   7.270 -0.1321 -0.2122 -0.7049
 8854SOL     OW29581   5.478   2.099   7.716 -0.2332 -0.1782  0.2932
 8854SOL    HW129582   5.533   2.137   7.784  0.1901  1.3922 -0.8953
 8854SOL    HW229583   5.490   2.005   7.725  1.5316  0.1001  0.9803
 8855SOL     OW29584   3.828   5.346   2.016  0.0846  0.2299  0.5202
 8855SOL    HW129585   3.843   5.418   1.955  0.8687 -0.6749 -0.3935
 8855SOL    HW229586   3.801   5.388   2.098 -0.8048  1.4734 -0.3942
 8856SOL     OW29587   7.088   2.234   2.686  0.5387 -0.0502 -0.1611
 8856SOL    HW129588   7.157   2.200   2.742  0.5145  0.5385  0.2307
 8856SOL    HW229589   7.110   2.202   2.598  0.7917 -0.6401  0.1176
 8857SOL     OW29590   5.104   8.028   5.699 -0.8760 -0.0489 -0.3112
 8857SOL    HW129591   5.044   8.095   5.731 -1.7853 -0.9369 -0.1563
 8857SOL    HW229592   5.049   7.953   5.680  0.1995 -0.9240 -0.0165
 8858SOL     OW29593   4.389   1.533   8.712  0.4959 -0.3461 -0.3626
 8858SOL    HW129594   4.454   1.583   8.761  0.2481 -0.2156 -0.1697
 8858SOL    HW229595   4.305   1.557   8.751  0.5575 -2.7225  1.3249
 8859SOL     OW29596   8.918   2.009   5.042 -0.6261  0.0255 -0.5526
 8859SOL    HW129597   8.901   2.070   4.971  0.1047  0.7977 -0.0703
 8859SOL    HW229598   8.832   1.995   5.082 -1.1170 -0.7422 -1.8328
 8860SOL     OW29599   4.999   2.089   3.073 -0.1955  0.5376  0.2002
 8860SOL    HW129600   4.961   2.056   2.991  0.6649 -1.2419  0.5100
 8860SOL    HW229601   4.925   2.127   3.120 -0.6833  1.7068 -1.4564
 8861SOL     OW29602   0.906   6.241   8.634 -0.1639 -0.3070 -0.4641
 8861SOL    HW129603   0.832   6.196   8.675 -0.0753  1.0969  1.3090
 8861SOL    HW229604   0.875   6.262   8.546 -2.2282  1.0214  0.5367
 8862SOL     OW29605   4.250   1.851   4.829  0.0393 -0.4181  0.1070
 8862SOL    HW129606   4.214   1.891   4.908 -0.9471  1.1318 -1.0962
 8862SOL    HW229607   4.344   1.866   4.835  0.0144 -0.6251  1.1353
 8863SOL     OW29608   3.299   5.194   4.233 -0.3957 -0.4901 -0.3003
 8863SOL    HW129609   3.376   5.191   4.290 -0.1772  1.3529 -0.4649
 8863SOL    HW229610   3.311   5.273   4.181 -2.0975 -0.5383 -0.7832
 8864SOL     OW29611   0.925   0.401   0.491  0.1042  0.3908  0.2362
 8864SOL    HW129612   0.947   0.401   0.398  3.1885  2.5223  0.8985
 8864SOL    HW229613   0.976   0.330   0.529  2.0233  2.0747  0.9183
 8865SOL     OW29614   0.090   8.073   9.241 -0.5256 -0.4953 -0.2477
 8865SOL    HW129615   0.067   7.980   9.241 -0.5131 -0.5005 -0.8168
 8865SOL    HW229616   0.034   8.112   9.307  0.5153 -1.1671  1.0540
 8866SOL     OW29617   8.845   7.838   5.269 -0.5585  0.2753 -0.8141
 8866SOL    HW129618   8.803   7.810   5.187  0.4794  1.2801 -1.7111
 8866SOL    HW229619   8.939   7.824   5.253 -0.4065 -0.2690  0.5087
 8867SOL     OW29620   7.492   3.145   4.884 -0.6338  0.5111  0.3435
 8867SOL    HW129621   7.477   3.240   4.880 -2.7474  0.2306  0.8150
 8867SOL    HW229622   7.408   3.108   4.856 -0.4136 -1.2354  1.9994
 8868SOL     OW29623   7.870   3.983   3.894 -0.1306  0.0820 -0.2390
 8868SOL    HW129624   7.813   4.030   3.955 -0.3873 -0.8609  0.2525
 8868SOL    HW229625   7.890   4.047   3.826 -2.1333  0.2984 -0.6617
 8869SOL     OW29626   3.125   0.160   9.071  0.3910  0.0079  0.6168
 8869SOL    HW129627   3.181   0.172   8.993  0.0360 -1.8131  0.0461
 8869SOL    HW229628   3.036   0.176   9.039  0.2259 -0.9273  0.5672
 8870SOL     OW29629   1.969   1.640   5.614 -0.5567 -0.7471  0.0769
 8870SOL    HW129630   1.997   1.731   5.608 -0.5064 -0.4480  3.5323
 8870SOL    HW229631   1.874   1.645   5.618 -0.4787 -0.4684  3.6992
 8871SOL     OW29632   8.662   6.732   6.805  0.1535  0.0022 -0.6417
 8871SOL    HW129633   8.751   6.700   6.794  0.6176  0.9060  0.4331
 8871SOL    HW229634   8.648   6.735   6.900 -0.1961  2.0359 -0.7254
 8872SOL     OW29635   0.133   5.311   7.756  0.2626 -0.2994  0.1031
 8872SOL    HW129636   0.161   5.369   7.685  0.6626 -1.1419 -0.4331
 8872SOL    HW229637   0.198   5.241   7.756  0.1445 -0.4092  1.1710
 8873SOL     OW29638   0.838   2.864   6.114  0.1853  0.4987 -0.0445
 8873SOL    HW129639   0.807   2.784   6.070 -0.6268 -0.8578  2.8720
 8873SOL    HW229640   0.759   2.906   6.147  0.8542  0.9144  1.0594
 8874SOL     OW29641   2.411   0.658   4.261  0.3345  0.6411  0.3391
 8874SOL    HW129642   2.382   0.655   4.170 -1.1187  0.5279  0.7891
 8874SOL    HW229643   2.462   0.739   4.267 -0.2287  1.0576 -0.3911
 8875SOL     OW29644   1.792   5.285   7.466  0.7244  0.4138  0.1563
 8875SOL    HW129645   1.818   5.363   7.417 -1.1943 -0.2257 -1.9633
 8875SOL    HW229646   1.801   5.213   7.404 -1.6723 -0.4418  0.7323
 8876SOL     OW29647   7.098   8.273   5.691  0.0040  0.6537  0.5787
 8876SOL    HW129648   7.106   8.233   5.604  0.6561  1.0644  0.4541
 8876SOL    HW229649   7.128   8.363   5.680  1.2591  0.3545  1.5093
 8877SOL     OW29650   6.230   1.438   5.748  0.0659  0.1372  0.4880
 8877SOL    HW129651   6.320   1.470   5.741 -0.1132  0.3433 -1.0430
 8877SOL    HW229652   6.176   1.515   5.735 -0.3507 -0.1640  0.4264
 8878SOL     OW29653   0.179   5.559   7.167 -0.0151 -0.2615 -0.0244
 8878SOL    HW129654   0.158   5.653   7.174 -0.6202 -0.3223 -0.9019
 8878SOL    HW229655   0.182   5.542   7.073  1.0537 -0.9247  0.1166
 8879SOL     OW29656   8.544   3.688   4.981 -0.7240  0.1301 -0.2059
 8879SOL    HW129657   8.583   3.676   4.895 -1.2762  2.6632 -0.8578
 8879SOL    HW229658   8.453   3.660   4.969 -0.1709 -1.9982  0.2811
 8880SOL     OW29659   7.779   2.942   6.686  0.0939 -0.1127 -0.3341
 8880SOL    HW129660   7.813   2.897   6.609  1.0471  0.9431 -0.5375
 8880SOL    HW229661   7.699   2.985   6.656  1.2720  1.5444 -1.1212
 8881SOL     OW29662   5.121   4.331   0.405  0.1585  0.4812 -0.5843
 8881SOL    HW129663   5.183   4.286   0.462 -0.4975 -1.1029 -1.1096
 8881SOL    HW229664   5.126   4.423   0.433  0.6779 -0.0817  1.2389
 8882SOL     OW29665   6.827   6.755   7.465  0.0436  0.2992  0.1126
 8882SOL    HW129666   6.826   6.700   7.386  1.3038 -0.8781  0.8885
 8882SOL    HW229667   6.908   6.730   7.510 -0.2447  1.5671  1.3612
 8883SOL     OW29668   3.867   3.436   5.480  0.1646 -0.0265  0.6204
 8883SOL    HW129669   3.909   3.430   5.394  1.0693  0.0457  1.0495
 8883SOL    HW229670   3.939   3.421   5.543 -0.4367  0.1882  1.3662
 8884SOL     OW29671   1.440   9.272   6.796 -0.2381  0.0383  0.1781
 8884SOL    HW129672   1.392   9.262   6.878 -0.7590  0.8703 -0.0189
 8884SOL    HW229673   1.511   9.207   6.801  0.2804  0.7010  1.6809
 8885SOL     OW29674   4.428   2.440   6.237  0.2207 -0.3307  0.2015
 8885SOL    HW129675   4.408   2.484   6.154 -0.2711 -0.0735  0.4543
 8885SOL    HW229676   4.343   2.412   6.270  0.2384  1.1080  1.4866
 8886SOL     OW29677   4.018   0.695   7.454 -0.2540 -0.3654  0.6507
 8886SOL    HW129678   3.969   0.649   7.386  2.2637 -0.3362 -1.3040
 8886SOL    HW229679   4.083   0.747   7.405  0.6341  0.8539  3.0278
 8887SOL     OW29680   3.981   6.768   6.446  0.1512 -0.3200 -0.2081
 8887SOL    HW129681   3.942   6.743   6.362 -1.7880  2.5181 -0.2528
 8887SOL    HW229682   3.906   6.792   6.501  1.5460  0.3078  1.4651
 8888SOL     OW29683   0.552   5.960   2.079 -0.2626  0.0318  0.4487
 8888SOL    HW129684   0.464   5.978   2.112 -0.3961 -1.8714  1.1784
 8888SOL    HW229685   0.537   5.917   1.994 -0.0514 -0.4098  0.6320
 8889SOL     OW29686   4.817   7.698   8.712 -0.6521  0.1814 -0.0616
 8889SOL    HW129687   4.884   7.629   8.705  1.1480  2.1005 -2.7774
 8889SOL    HW229688   4.755   7.678   8.642 -2.0821 -0.6344  1.3953
 8890SOL     OW29689   5.949   4.156   5.887 -0.4884 -0.5339  0.6904
 8890SOL    HW129690   5.935   4.070   5.927  1.3359  0.3837  3.4666
 8890SOL    HW229691   5.910   4.218   5.949  0.4052  0.8088 -0.0580
 8891SOL     OW29692   1.752   6.713   4.487  0.0185  0.2571 -0.6991
 8891SOL    HW129693   1.693   6.787   4.502 -0.2444  0.1082 -0.9968
 8891SOL    HW229694   1.760   6.672   4.573 -0.6298  0.0414 -0.7405
 8892SOL     OW29695   6.233   4.183   6.750  0.2003  0.1805  1.0595
 8892SOL    HW129696   6.281   4.215   6.674 -0.3413 -0.3593  0.4805
 8892SOL    HW229697   6.211   4.261   6.800 -1.4205  0.7772 -0.5254
 8893SOL     OW29698   2.790   4.975   8.790  0.0381  0.1418 -0.2128
 8893SOL    HW129699   2.787   4.980   8.886  1.5470  0.7282 -0.1786
 8893SOL    HW229700   2.789   4.881   8.771  1.0172 -0.0124  0.4488
 8894SOL     OW29701   3.909   9.231   9.183 -0.3973  0.6306  0.7596
 8894SOL    HW129702   3.966   9.223   9.106  2.7698  2.2115  2.8471
 8894SOL    HW229703   3.909   9.143   9.222 -1.7824 -0.1007 -0.8500
 8895SOL     OW29704   4.651   8.401   7.286 -0.0765 -0.4801 -0.1592
 8895SOL    HW129705   4.689   8.433   7.204  1.3953  0.3616  0.8279
 8895SOL    HW229706   4.561   8.434   7.285 -0.1024 -0.5705 -1.4878
 8896SOL     OW29707   4.911   5.327   6.924 -0.6075 -0.2037  0.9886
 8896SOL    HW129708   4.886   5.235   6.925 -1.1220 -0.1032 -0.6676
 8896SOL    HW229709   4.910   5.351   6.831  0.1890  1.2878  1.3463
 8897SOL     OW29710   6.139   0.534   7.597 -0.0013 -0.0177 -0.5526
 8897SOL    HW129711   6.164   0.600   7.662 -0.4807 -1.5582  1.2435
 8897SOL    HW229712   6.157   0.576   7.512  4.2391  0.6749  0.5700
 8898SOL     OW29713   6.474   2.490   7.301  0.1795  0.3234  0.4647
 8898SOL    HW129714   6.526   2.434   7.243  0.9443  2.1299 -0.6501
 8898SOL    HW229715   6.475   2.445   7.385  0.8695 -1.2684 -0.3729
 8899SOL     OW29716   2.148   2.112   1.508 -0.1592 -0.6942 -0.5591
 8899SOL    HW129717   2.175   2.203   1.495  0.5736 -0.8214  0.0212
 8899SOL    HW229718   2.077   2.117   1.572  1.1723 -0.6850  0.9337
 8900SOL     OW29719   8.399   3.936   4.017 -0.2628 -0.0658  0.3933
 8900SOL    HW129720   8.412   3.851   3.974 -0.0326  0.2094 -0.0858
 8900SOL    HW229721   8.488   3.966   4.037 -0.3575 -0.0755  0.8353
 8901SOL     OW29722   7.422   5.183   8.796  0.0877 -0.1741  0.6298
 8901SOL    HW129723   7.365   5.238   8.850 -1.1459 -1.4106  0.5990
 8901SOL    HW229724   7.497   5.165   8.852  0.4646  1.4539  0.6737
 8902SOL     OW29725   0.696   0.659   1.229 -0.0386 -0.1285 -0.4752
 8902SOL    HW129726   0.785   0.652   1.265 -0.0527 -2.1276 -0.7716
 8902SOL    HW229727   0.697   0.739   1.177  0.9895  0.9729  1.1918
 8903SOL     OW29728   3.824   0.939   0.358  0.1464 -0.2341  0.7034
 8903SOL    HW129729   3.774   1.017   0.381  1.3261  1.5140 -2.3528
 8903SOL    HW229730   3.767   0.866   0.383 -2.3810  1.6332  0.6239
 8904SOL     OW29731   8.485   4.227   1.769  0.3064  0.1222  0.1333
 8904SOL    HW129732   8.465   4.308   1.815 -0.4186 -1.7587  3.3443
 8904SOL    HW229733   8.407   4.172   1.780  1.2833 -1.5180 -0.7620
 8905SOL     OW29734   7.380   4.629   3.462 -0.1414  0.4366 -0.3706
 8905SOL    HW129735   7.440   4.703   3.474 -0.5849  0.7185  0.1088
 8905SOL    HW229736   7.294   4.670   3.448 -0.1473  0.0504 -1.5214
 8906SOL     OW29737   6.073   5.459   2.853 -0.1796  0.1142 -0.3766
 8906SOL    HW129738   6.131   5.390   2.885  0.3033  1.5095  1.8843
 8906SOL    HW229739   5.993   5.450   2.905 -0.3421  0.8997 -0.4809
 8907SOL     OW29740   7.083   3.460   2.750 -0.4149  0.3766 -0.3235
 8907SOL    HW129741   7.117   3.386   2.699  1.6408 -0.4399  2.1324
 8907SOL    HW229742   7.014   3.423   2.804  0.3642  0.3000  0.6362
 8908SOL     OW29743   0.470   3.351   6.302  0.1853 -0.0746  0.4855
 8908SOL    HW129744   0.417   3.383   6.376 -0.0479 -1.4762  0.9407
 8908SOL    HW229745   0.532   3.422   6.285 -0.4064  0.6815  1.3791
 8909SOL     OW29746   4.267   0.705   5.945 -0.0186 -0.3751  0.2319
 8909SOL    HW129747   4.355   0.737   5.923 -0.3007 -0.1142 -0.5005
 8909SOL    HW229748   4.227   0.777   5.993 -0.6939  0.4284 -1.5157
 8910SOL     OW29749   0.708   0.073   4.617  0.2425 -0.0827 -0.3533
 8910SOL    HW129750   0.761   0.077   4.537 -0.1973  1.9676 -0.5841
 8910SOL    HW229751   0.624   0.037   4.589  0.9371 -1.7453 -0.3148
 8911SOL     OW29752   9.175   4.429   0.605  0.0204  0.0939  0.2608
 8911SOL    HW129753   9.084   4.405   0.588 -0.4838  1.0381  1.5430
 8911SOL    HW229754   9.202   4.478   0.527 -0.8582  0.5772  0.2582
 8912SOL     OW29755   0.023   4.833   0.523 -0.5798  0.0112 -0.1951
 8912SOL    HW129756   0.059   4.920   0.540 -1.4707  0.4415 -0.5105
 8912SOL    HW229757   0.008   4.796   0.609  1.8242 -0.6913 -0.0216
 8913SOL     OW29758   5.643   3.662   4.145  0.3704  0.0297 -0.1151
 8913SOL    HW129759   5.611   3.591   4.089  1.4370 -0.4701 -0.1058
 8913SOL    HW229760   5.624   3.632   4.234  1.0127 -0.3497 -0.1009
 8914SOL     OW29761   0.858   8.205   1.994  0.7405  0.5652  0.4234
 8914SOL    HW129762   0.865   8.252   2.077  0.0590  0.1127  0.7459
 8914SOL    HW229763   0.948   8.188   1.967  1.0095  2.4124  0.0933
 8915SOL     OW29764   7.157   6.964   5.162  0.0598 -0.3948 -0.0249
 8915SOL    HW129765   7.195   6.937   5.245 -1.0313 -0.0865  0.5948
 8915SOL    HW229766   7.228   7.008   5.115  0.8689 -1.1926  0.4490
 8916SOL     OW29767   4.624   8.616   4.333  0.5808 -0.5411 -0.0326
 8916SOL    HW129768   4.626   8.536   4.385  2.4941  0.5311  1.6444
 8916SOL    HW229769   4.560   8.672   4.377  1.6680  0.0847  0.8009
 8917SOL     OW29770   6.037   7.392   6.374  0.2342  0.5659 -0.2630
 8917SOL    HW129771   6.001   7.406   6.462  0.3627  0.5460 -0.2069
 8917SOL    HW229772   6.039   7.479   6.335  0.6050  0.6388 -0.0808
 8918SOL     OW29773   1.895   7.839   2.730  0.6506 -0.6238  0.1885
 8918SOL    HW129774   1.888   7.917   2.676  0.1216 -0.6532  0.2099
 8918SOL    HW229775   1.879   7.766   2.670  0.5470 -0.6824  0.2860
 8919SOL     OW29776   0.500   2.282   1.714 -0.5829  0.3684 -0.7599
 8919SOL    HW129777   0.548   2.359   1.685  0.5702 -0.7115 -1.7682
 8919SOL    HW229778   0.479   2.300   1.806  2.8812  0.3310  0.1065
 8920SOL     OW29779   6.450   5.226   4.925  0.0432  0.0651 -0.2621
 8920SOL    HW129780   6.513   5.290   4.957 -1.7222  1.4694  0.5553
 8920SOL    HW229781   6.469   5.147   4.974 -0.7516  1.3537  2.2076
 8921SOL     OW29782   2.195   1.161   0.486  0.0414 -0.3407 -0.3233
 8921SOL    HW129783   2.115   1.115   0.513  0.6800 -1.9826 -1.1585
 8921SOL    HW229784   2.231   1.108   0.415  1.5137  0.7502 -0.4262
 8922SOL     OW29785   6.754   2.021   6.030 -0.6239  0.1992 -0.2576
 8922SOL    HW129786   6.841   2.010   6.069 -0.0544  0.5950 -1.4138
 8922SOL    HW229787   6.751   1.957   5.959 -2.1819 -1.4875  1.2559
 8923SOL     OW29788   7.297   1.727   5.833  0.8508 -0.3626  0.4248
 8923SOL    HW129789   7.379   1.723   5.883  0.7771 -0.3284  0.5466
 8923SOL    HW229790   7.229   1.742   5.899  0.5297 -2.1300  0.5121
 8924SOL     OW29791   5.787   1.420   6.440 -0.0290  0.6803 -0.2020
 8924SOL    HW129792   5.713   1.452   6.389 -0.5335 -0.4149 -0.1520
 8924SOL    HW229793   5.779   1.465   6.525 -1.3825 -0.4213  0.2631
 8925SOL     OW29794   9.133   3.501   7.581  0.4318 -0.1038  0.3278
 8925SOL    HW129795   9.165   3.481   7.493  0.5041 -0.2442  0.3847
 8925SOL    HW229796   9.057   3.558   7.567 -0.3694 -1.2008  0.1202
 8926SOL     OW29797   6.313   3.303   4.784 -0.3313 -0.1516  0.0031
 8926SOL    HW129798   6.304   3.215   4.821 -2.5576 -0.1265 -0.3782
 8926SOL    HW229799   6.353   3.290   4.698 -0.3712 -0.7688  0.0792
 8927SOL     OW29800   1.578   0.373   7.707 -0.5500  0.2509 -0.0560
 8927SOL    HW129801   1.546   0.298   7.657 -0.8377 -1.3745  2.4381
 8927SOL    HW229802   1.672   0.357   7.717 -0.8795 -0.7072  1.8798
 8928SOL     OW29803   5.125   7.576   2.533  0.2636 -0.0195 -0.0823
 8928SOL    HW129804   5.143   7.607   2.622  0.5928  1.3042 -0.5987
 8928SOL    HW229805   5.191   7.618   2.479  0.5496 -1.4546 -0.8462
 8929SOL     OW29806   0.727   3.082   5.430 -0.0493 -0.2286 -0.1656
 8929SOL    HW129807   0.669   3.158   5.431 -0.8577 -0.8285 -0.7181
 8929SOL    HW229808   0.771   3.087   5.345 -0.6307 -0.7668 -0.5012
 8930SOL     OW29809   2.993   9.365   9.191  0.3004  0.3128 -0.1857
 8930SOL    HW129810   2.899   9.376   9.206 -0.0364 -1.7156 -0.7655
 8930SOL    HW229811   3.025   9.454   9.176 -1.3342  1.1364  1.0525
 8931SOL     OW29812   9.348   8.044   5.891  0.5256 -0.4240 -0.4968
 8931SOL    HW129813   9.336   8.033   5.986 -0.0509 -1.7885 -0.7118
 8931SOL    HW229814   9.442   8.056   5.880  0.6143 -0.4352  0.2410
 8932SOL     OW29815   3.672   7.398   0.133  0.2310  0.5669 -0.1332
 8932SOL    HW129816   3.642   7.332   0.071  1.4700  0.6401 -0.8162
 8932SOL    HW229817   3.597   7.411   0.191 -0.2331 -1.0031 -0.3477
 8933SOL     OW29818   5.355   4.824   2.076  0.1601 -0.5024 -0.6015
 8933SOL    HW129819   5.363   4.730   2.093 -0.7875 -0.3648  0.6834
 8933SOL    HW229820   5.271   4.848   2.114  0.9160  1.0883  0.1344
 8934SOL     OW29821   0.489   5.728   5.663 -0.1545 -0.4907  0.3135
 8934SOL    HW129822   0.420   5.724   5.597 -0.8595 -0.8542  1.0550
 8934SOL    HW229823   0.569   5.746   5.614 -1.1000  2.0470 -0.3482
 8935SOL     OW29824   3.503   7.683   7.249  0.5258 -0.7549  0.3801
 8935SOL    HW129825   3.441   7.611   7.264  0.9194 -1.4053 -1.0200
 8935SOL    HW229826   3.585   7.652   7.287  0.5986 -0.9107  0.1043
 8936SOL     OW29827   1.776   4.407   8.006 -0.1335 -0.1369 -0.4012
 8936SOL    HW129828   1.697   4.456   7.981  0.4177  0.1661 -1.6390
 8936SOL    HW229829   1.803   4.364   7.925  0.1830 -1.3682  0.3560
 8937SOL     OW29830   4.419   1.833   2.968  0.2752 -0.5513 -0.0951
 8937SOL    HW129831   4.357   1.847   3.039  1.2436 -1.1759  0.8708
 8937SOL    HW229832   4.404   1.908   2.909  0.0133  0.3909  1.1436
 8938SOL     OW29833   6.779   2.806   4.477 -0.0617  0.1920 -0.4080
 8938SOL    HW129834   6.714   2.751   4.521  0.5742  0.1527  0.4857
 8938SOL    HW229835   6.842   2.744   4.440  0.4886  0.3125  0.3345
 8939SOL     OW29836   0.577   9.074   5.476  0.5596 -0.5427 -0.9588
 8939SOL    HW129837   0.525   9.020   5.535  0.4957 -0.5523 -1.0240
 8939SOL    HW229838   0.620   9.137   5.533  1.2029 -1.1208 -0.7961
 8940SOL     OW29839   5.377   3.402   5.966 -0.7565  0.7805 -0.2379
 8940SOL    HW129840   5.288   3.369   5.979 -0.3770 -0.1545  0.0074
 8940SOL    HW229841   5.389   3.468   6.034 -0.4496 -0.7466  1.2195
 8941SOL     OW29842   8.840   6.343   8.540  0.4038 -0.4944  0.1974
 8941SOL    HW129843   8.839   6.387   8.455  1.1431  0.7523  0.8358
 8941SOL    HW229844   8.784   6.397   8.596  1.7054 -0.0975  1.1163
 8942SOL     OW29845   8.302   0.053   3.982 -0.4061  0.0461 -0.4449
 8942SOL    HW129846   8.361  -0.012   4.018 -1.6262 -0.2636  1.0527
 8942SOL    HW229847   8.359   0.117   3.939  0.8385 -1.5183 -1.1373
 8943SOL     OW29848   9.062   7.479   8.027  0.3425 -0.3333  0.0934
 8943SOL    HW129849   9.003   7.429   7.971  1.5978 -1.2884 -0.3889
 8943SOL    HW229850   9.046   7.570   8.003  0.8321 -0.7280 -1.7747
 8944SOL     OW29851   8.112   5.947   4.915  0.0856  0.1070 -0.5999
 8944SOL    HW129852   8.115   6.001   4.836  1.8093 -1.1846 -1.4456
 8944SOL    HW229853   8.075   5.863   4.885  0.4066 -0.2633  0.0410
 8945SOL     OW29854   1.642   5.672   8.106  0.1121  0.4248  0.2430
 8945SOL    HW129855   1.662   5.655   8.014  1.4875  1.2331  0.3747
 8945SOL    HW229856   1.698   5.611   8.154 -0.6309 -0.0217  0.5375
 8946SOL     OW29857   2.166   8.209   2.888 -0.1425 -0.1911 -0.4504
 8946SOL    HW129858   2.114   8.289   2.889  2.1484  1.3481  0.0922
 8946SOL    HW229859   2.238   8.226   2.949  1.2560 -2.0541 -1.5098
 8947SOL     OW29860   4.113   8.560   1.776 -0.2712  0.8374  0.1831
 8947SOL    HW129861   4.019   8.549   1.764 -0.5106  0.1773  2.3290
 8947SOL    HW229862   4.135   8.496   1.845  1.7799  0.8069 -0.4780
 8948SOL     OW29863   8.768   2.635   1.581  0.1086 -0.7722  0.4585
 8948SOL    HW129864   8.849   2.615   1.535 -0.0157 -0.5734  0.1436
 8948SOL    HW229865   8.717   2.686   1.517  0.7409  1.2029  1.5098
 8949SOL     OW29866   7.060   5.406   7.044 -0.0961  0.0787 -0.0727
 8949SOL    HW129867   6.993   5.417   7.112  0.4614  1.1079  0.3229
 8949SOL    HW229868   7.127   5.471   7.066  0.1437  0.3448 -1.5452
 8950SOL     OW29869   8.775   5.971   5.716  0.3921  0.4939 -0.1465
 8950SOL    HW129870   8.715   5.998   5.786  0.5178 -0.0161  0.1649
 8950SOL    HW229871   8.718   5.936   5.648 -0.0641  4.6271 -2.0490
 8951SOL     OW29872   8.024   1.170   3.705 -0.3080  0.3243  0.2807
 8951SOL    HW129873   8.093   1.169   3.639 -0.6007 -1.1184 -0.0019
 8951SOL    HW229874   7.953   1.119   3.667 -1.7061  2.0901  0.4159
 8952SOL     OW29875   2.828   4.617   1.259 -0.5982  0.1209 -0.0105
 8952SOL    HW129876   2.897   4.593   1.197  0.6584 -1.9001  2.0844
 8952SOL    HW229877   2.748   4.620   1.206  0.7783  0.6436 -2.1214
 8953SOL     OW29878   8.591   8.341   4.320 -0.7660 -0.6217  0.3420
 8953SOL    HW129879   8.523   8.407   4.335  0.8710  1.2147 -0.2407
 8953SOL    HW229880   8.622   8.319   4.408 -1.8928 -1.2611  0.5954
 8954SOL     OW29881   1.789   0.085   4.262 -0.8017  0.3404 -0.7150
 8954SOL    HW129882   1.709   0.048   4.299  0.7424 -0.8014  1.6433
 8954SOL    HW229883   1.807   0.031   4.185 -1.3723 -0.4952 -0.2690
 8955SOL     OW29884   8.555   0.350   4.598 -0.5550 -0.3715 -0.1686
 8955SOL    HW129885   8.503   0.277   4.631  0.0728 -1.3577 -1.3394
 8955SOL    HW229886   8.508   0.381   4.521 -0.5993  0.2127  0.0829
 8956SOL     OW29887   7.566   5.299   2.979  0.6800 -0.5869 -0.1168
 8956SOL    HW129888   7.548   5.233   3.046 -0.2951 -1.1722 -0.9484
 8956SOL    HW229889   7.643   5.267   2.933  1.6287  0.0373  0.9851
 8957SOL     OW29890   8.077   7.462   0.531 -0.1220  0.1513  0.7213
 8957SOL    HW129891   8.143   7.439   0.597  1.0819 -0.6829 -0.7245
 8957SOL    HW229892   8.061   7.379   0.484  1.6374  1.4142 -2.2720
 8958SOL     OW29893   0.269   8.279   7.075  0.2040  0.5488  0.5093
 8958SOL    HW129894   0.272   8.280   7.171 -0.8182 -1.1905  0.5734
 8958SOL    HW229895   0.328   8.208   7.049 -1.0494 -0.3028 -0.0622
 8959SOL     OW29896   2.731   8.999   0.656 -0.4862 -0.0072  0.0862
 8959SOL    HW129897   2.824   9.022   0.657 -0.2859 -0.6942 -1.4256
 8959SOL    HW229898   2.729   8.909   0.689 -0.4010 -0.6586 -1.6408
 8960SOL     OW29899   4.183   7.416   1.035  0.4459 -0.2025 -0.0717
 8960SOL    HW129900   4.164   7.334   0.990  0.7940 -0.8458  0.9575
 8960SOL    HW229901   4.170   7.397   1.127  1.5312  0.6207  0.2601
 8961SOL     OW29902   7.069   8.749   1.471 -0.4218 -0.5323 -0.3415
 8961SOL    HW129903   7.044   8.739   1.563  0.4650 -2.4782 -0.2956
 8961SOL    HW229904   7.164   8.759   1.474 -0.4614  0.0229 -1.0048
 8962SOL     OW29905   1.272   5.801   7.105  0.5662 -0.1500  0.1427
 8962SOL    HW129906   1.203   5.736   7.114  0.8953 -0.4511  0.4890
 8962SOL    HW229907   1.277   5.818   7.011  1.2531 -1.4580 -0.0542
 8963SOL     OW29908   2.306   6.920   6.795  0.6129  0.0788  0.2099
 8963SOL    HW129909   2.240   6.960   6.739  0.9413 -0.2923 -0.4482
 8963SOL    HW229910   2.377   6.896   6.735  2.1869  2.2201  1.1581
 8964SOL     OW29911   7.513   8.352   3.801  0.0531  0.5439  0.5332
 8964SOL    HW129912   7.476   8.433   3.766 -1.1226  0.4163  1.4068
 8964SOL    HW229913   7.527   8.370   3.894  0.7861  0.0938  0.5124
 8965SOL     OW29914   6.955   2.224   7.835  0.4784  0.0703  0.0487
 8965SOL    HW129915   7.047   2.243   7.851  0.9512 -2.0931  0.0275
 8965SOL    HW229916   6.924   2.183   7.915 -0.3794  0.4136 -0.0943
 8966SOL     OW29917   1.260   2.476   2.688  0.6671 -0.2725 -0.4185
 8966SOL    HW129918   1.261   2.538   2.762  1.2090  0.8815 -1.3623
 8966SOL    HW229919   1.221   2.397   2.724 -3.2386  1.6921 -0.0552
 8967SOL     OW29920   3.915   5.208   4.231 -0.1566 -0.4466  0.2758
 8967SOL    HW129921   3.825   5.176   4.217  0.0073 -1.4615  1.4257
 8967SOL    HW229922   3.934   5.185   4.322  0.5710  1.5225  0.6297
 8968SOL     OW29923   1.425   1.778   0.266 -0.3107 -0.3064 -0.0329
 8968SOL    HW129924   1.357   1.712   0.280 -0.3076 -0.0100  1.4417
 8968SOL    HW229925   1.397   1.825   0.187 -1.3740 -0.7367  0.0823
 8969SOL     OW29926   0.231   3.486   6.847 -0.5436  0.0588 -0.1042
 8969SOL    HW129927   0.260   3.397   6.863  1.4259  0.5519 -0.8329
 8969SOL    HW229928   0.140   3.488   6.878 -0.1719 -1.8197  1.1417
 8970SOL     OW29929   1.961   8.635   2.316  0.2628  0.0371  0.2667
 8970SOL    HW129930   1.867   8.640   2.336  0.0707 -1.3351 -0.2173
 8970SOL    HW229931   1.967   8.655   2.223  0.5908  1.3166  0.5551
 8971SOL     OW29932   9.296   9.044   8.708  0.0790 -0.2883 -0.5560
 8971SOL    HW129933   9.285   9.088   8.623 -1.1212 -1.4266 -1.0084
 8971SOL    HW229934   9.327   9.112   8.766 -2.1931  1.2951 -1.1340
 8972SOL     OW29935   3.395   3.207   2.911  0.1106 -0.2040  0.0052
 8972SOL    HW129936   3.480   3.234   2.945 -0.2538 -1.1380  1.7206
 8972SOL    HW229937   3.401   3.112   2.904 -0.2286 -0.1262 -1.4427
 8973SOL     OW29938   5.771   0.415   7.533 -0.1488 -0.1321 -0.0686
 8973SOL    HW129939   5.793   0.428   7.626  1.0387 -0.2894 -0.3229
 8973SOL    HW229940   5.815   0.333   7.510 -0.4218 -0.0746 -0.7773
 8974SOL     OW29941   2.242   5.473   4.178 -0.5324  0.0834  0.2756
 8974SOL    HW129942   2.214   5.563   4.160  0.4301 -0.0371 -1.9326
 8974SOL    HW229943   2.280   5.443   4.096 -0.4904 -2.2229  1.1133
 8975SOL     OW29944   4.189   3.782   8.471 -0.2556 -0.3383  0.0144
 8975SOL    HW129945   4.175   3.697   8.511  0.8158 -0.3243  0.4256
 8975SOL    HW229946   4.151   3.845   8.532  1.5082 -0.3041  1.0977
 8976SOL     OW29947   7.854   5.072   8.154 -0.0452  0.2281 -0.0118
 8976SOL    HW129948   7.824   5.000   8.099  0.3680  0.0405  0.0051
 8976SOL    HW229949   7.784   5.084   8.218 -0.3664  0.2121 -0.3596
 8977SOL     OW29950   3.407   3.703   6.035 -0.2295 -0.2449  0.1460
 8977SOL    HW129951   3.316   3.714   6.010  0.0012 -0.1628 -0.6896
 8977SOL    HW229952   3.433   3.620   5.993  0.0391 -0.3407  0.4976
 8978SOL     OW29953   8.992   9.392   2.280 -0.2191 -0.4331  0.2956
 8978SOL    HW129954   9.020   9.304   2.302 -0.2949 -1.2161 -2.6275
 8978SOL    HW229955   8.946   9.384   2.197  0.4526  2.4750 -0.4373
 8979SOL     OW29956   7.362   0.718   5.825  0.5406  0.3183  0.2210
 8979SOL    HW129957   7.425   0.732   5.756 -0.3307  1.4864 -0.3514
 8979SOL    HW229958   7.333   0.627   5.813  0.7554  0.3599 -0.6372
 8980SOL     OW29959   7.856   3.773   2.480  0.0664  0.2948  0.4783
 8980SOL    HW129960   7.851   3.731   2.394  1.2347 -1.1428  1.0850
 8980SOL    HW229961   7.868   3.866   2.461  1.8656 -0.1965 -0.9376
 8981SOL     OW29962   4.957   8.414   7.009 -0.1411  0.4889 -0.3499
 8981SOL    HW129963   5.024   8.441   6.945 -0.9167 -1.5274 -2.0607
 8981SOL    HW229964   4.897   8.489   7.013  0.2902  0.9108 -1.4865
 8982SOL     OW29965   3.828   1.337   2.040 -0.1710  0.5574  0.8653
 8982SOL    HW129966   3.792   1.305   2.124 -1.2987  0.8654  0.5079
 8982SOL    HW229967   3.918   1.306   2.040 -0.3220  0.0748  1.9553
 8983SOL     OW29968   2.344   0.040   1.637 -0.1846  0.1552  0.3768
 8983SOL    HW129969   2.419   0.096   1.616  0.4106 -0.9095 -0.3920
 8983SOL    HW229970   2.286   0.049   1.562 -0.4111  0.2558  0.5614
 8984SOL     OW29971   2.995   5.317   4.127 -0.3300 -0.1164 -0.6555
 8984SOL    HW129972   2.912   5.270   4.119 -0.2283 -0.6371  1.1439
 8984SOL    HW229973   2.974   5.395   4.178  0.1579  0.1268 -0.8155
 8985SOL     OW29974   3.751   0.881   6.607 -0.3069 -0.2299  0.0812
 8985SOL    HW129975   3.656   0.867   6.607 -0.4047  0.1743 -2.0108
 8985SOL    HW229976   3.783   0.820   6.541  0.7876  0.2470  0.1752
 8986SOL     OW29977   3.087   8.738   8.980  0.2070 -0.0661 -0.1865
 8986SOL    HW129978   3.044   8.734   8.895 -0.8475 -0.5745  0.3690
 8986SOL    HW229979   3.115   8.648   8.997 -0.6947 -0.2106  0.5700
 8987SOL     OW29980   4.937   2.455   8.097 -0.0788 -0.4173  0.3354
 8987SOL    HW129981   4.926   2.360   8.097 -0.7956 -0.3425  0.1004
 8987SOL    HW229982   4.862   2.487   8.047  1.0873  0.1832 -1.0587
 8988SOL     OW29983   5.424   8.794   0.458 -0.5426  0.0665 -0.3377
 8988SOL    HW129984   5.409   8.790   0.553 -1.2080 -1.2215 -0.4946
 8988SOL    HW229985   5.341   8.824   0.422  0.2181  2.2067 -0.3892
 8989SOL     OW29986   4.850   0.507   6.085  0.2036  0.0510 -0.2650
 8989SOL    HW129987   4.775   0.459   6.121 -0.8306  1.4091 -0.5733
 8989SOL    HW229988   4.813   0.558   6.013  1.3945  0.8805 -0.2981
 8990SOL     OW29989   3.986   6.391   6.012 -0.1278  0.3726  0.3349
 8990SOL    HW129990   4.017   6.311   5.970 -1.1916  0.3488 -0.4096
 8990SOL    HW229991   3.897   6.402   5.981 -0.1759  1.5624  0.8610
 8991SOL     OW29992   3.261   4.089   6.657  0.1130 -0.3714 -0.4361
 8991SOL    HW129993   3.205   4.094   6.580  0.4234 -1.8615 -0.7736
 8991SOL    HW229994   3.280   3.996   6.666  0.3524 -0.1678  1.2433
 8992SOL     OW29995   9.169   9.328   9.274 -0.5289  0.1971  0.0485
 8992SOL    HW129996   9.115   9.399   9.239  0.8588  0.3478 -1.8694
 8992SOL    HW229997   9.107   9.259   9.295 -1.4541  0.2169 -2.5038
 8993SOL     OW29998   3.058   5.441   0.180  0.3080  0.6993 -0.1567
 8993SOL    HW129999   3.128   5.499   0.150 -1.0495  1.7902 -1.2377
 8993SOL    HW230000   3.015   5.411   0.100  1.7396 -2.8221  0.2907
 8994SOL     OW30001   5.651   4.067   4.542  0.0889  0.0739 -0.0927
 8994SOL    HW130002   5.675   3.978   4.516  1.4387  0.0644  1.1089
 8994SOL    HW230003   5.572   4.055   4.595  1.4856 -0.6673  1.8922
 8995SOL     OW30004   9.192   0.867   8.108 -0.4340  0.3631  0.1016
 8995SOL    HW130005   9.238   0.950   8.106 -0.2922  0.2875  0.2262
 8995SOL    HW230006   9.147   0.866   8.193 -0.9627  0.5966 -0.1698
 8996SOL     OW30007   3.732   1.686   4.501  0.4515 -0.1503  0.0505
 8996SOL    HW130008   3.777   1.611   4.462  2.1323  0.3420  0.9861
 8996SOL    HW230009   3.663   1.647   4.555 -0.0117 -0.9336 -1.0957
 8997SOL     OW30010   2.763   2.107   1.879 -0.1154 -0.6703  0.8052
 8997SOL    HW130011   2.695   2.059   1.926 -1.2483 -0.6673 -0.7759
 8997SOL    HW230012   2.835   2.113   1.941 -0.4523 -3.2413  1.5161
 8998SOL     OW30013   1.699   2.217   6.882 -0.0605  0.7146 -0.6378
 8998SOL    HW130014   1.657   2.301   6.901 -0.6322  0.3306 -0.2004
 8998SOL    HW230015   1.778   2.218   6.937 -1.0058  0.1915  0.7423
 8999SOL     OW30016   8.036   4.374   3.008  0.1237 -0.4317  0.2058
 8999SOL    HW130017   8.039   4.469   3.004  0.1908 -0.4945 -1.3051
 8999SOL    HW230018   8.006   4.355   3.097  0.9263  0.9745  0.7841
 9000SOL     OW30019   4.961   8.945   1.618 -0.5334  0.0443  0.0223
 9000SOL    HW130020   5.007   8.871   1.658  0.0747 -0.3004 -1.3078
 9000SOL    HW230021   5.021   9.018   1.627  0.3082 -0.4186 -1.7644
 9001SOL     OW30022   2.873   3.632   6.463  0.1103  0.1413  0.0076
 9001SOL    HW130023   2.882   3.725   6.480  0.6269 -0.0985  1.1297
 9001SOL    HW230024   2.823   3.599   6.539  1.5233 -0.7939  0.5528
 9002SOL     OW30025   4.991   3.387   0.866 -0.6349  0.1656  0.1427
 9002SOL    HW130026   4.972   3.414   0.956 -1.0419 -2.1681  0.8016
 9002SOL    HW230027   4.976   3.465   0.813 -1.6108  1.2333  1.9645
 9003SOL     OW30028   6.441   5.214   4.643 -0.0197 -0.5483  0.0290
 9003SOL    HW130029   6.412   5.124   4.655 -0.6225 -0.1245  1.8877
 9003SOL    HW230030   6.465   5.244   4.731  0.4231  1.0180 -0.5975
 9004SOL     OW30031   8.725   6.280   4.574 -0.1192 -0.2664  0.2073
 9004SOL    HW130032   8.792   6.213   4.589  1.5317  1.2073 -0.3596
 9004SOL    HW230033   8.713   6.281   4.479 -0.3220  0.0646  0.2356
 9005SOL     OW30034   1.066   6.708   2.764 -0.3063 -0.1453 -0.6091
 9005SOL    HW130035   1.058   6.615   2.788 -2.3198  0.3515  0.8197
 9005SOL    HW230036   1.088   6.752   2.847  1.4657  0.5687 -1.4398
 9006SOL     OW30037   7.469   6.990   2.626  0.2848 -0.1974 -0.1401
 9006SOL    HW130038   7.493   6.901   2.652 -0.6931 -0.7502 -1.1039
 9006SOL    HW230039   7.412   7.021   2.696 -0.1654 -0.6826 -0.2956
 9007SOL     OW30040   2.212   3.796   7.870 -0.4032  0.2255 -0.3237
 9007SOL    HW130041   2.121   3.772   7.881  0.1972 -0.6561  3.3000
 9007SOL    HW230042   2.211   3.892   7.865 -1.4767  0.2314 -0.0656
 9008SOL     OW30043   2.055   2.481   3.468 -0.7664  0.3363  0.4728
 9008SOL    HW130044   1.976   2.485   3.523 -0.9399  0.3496  0.2239
 9008SOL    HW230045   2.092   2.569   3.474 -1.5200  0.7365 -0.5009
 9009SOL     OW30046   4.339   4.786   8.293  0.1226 -0.0953 -0.1064
 9009SOL    HW130047   4.342   4.711   8.234 -0.1673 -0.4667  0.3423
 9009SOL    HW230048   4.316   4.860   8.238  0.8690 -0.2504 -0.6377
 9010SOL     OW30049   5.442   0.307   9.319  0.3910  0.0398  0.7979
 9010SOL    HW130050   5.515   0.245   9.316 -1.0853 -1.7655  1.3869
 9010SOL    HW230051   5.434   0.339   9.229  1.7159  0.0520  0.6719
 9011SOL     OW30052   3.544   6.483   3.157  0.2729  0.6334  0.4176
 9011SOL    HW130053   3.472   6.472   3.095  0.5338  0.5730  0.1230
 9011SOL    HW230054   3.536   6.409   3.216 -1.6980  2.2004  2.2078
 9012SOL     OW30055   0.654   2.321   0.015  0.8344  0.7099  0.0277
 9012SOL    HW130056   0.639   2.402   0.065  0.2804 -0.1850  1.3611
 9012SOL    HW230057   0.607   2.334  -0.067  0.4783  1.6225  0.3682
 9013SOL     OW30058   0.354   8.111   3.340 -0.1825 -0.2467 -1.1764
 9013SOL    HW130059   0.442   8.102   3.304  0.7496 -2.7619  1.5244
 9013SOL    HW230060   0.365   8.163   3.419 -0.7432 -2.3628  0.3434
 9014SOL     OW30061   7.660   6.062   2.398  0.0730  0.2752  0.5264
 9014SOL    HW130062   7.693   5.976   2.375 -1.3127 -0.5094  1.4008
 9014SOL    HW230063   7.690   6.120   2.328 -0.7062 -1.2927 -1.1232
 9015SOL     OW30064   8.876   5.804   1.302  0.0568 -0.3965 -0.0614
 9015SOL    HW130065   8.939   5.819   1.231  0.3382  0.1485  0.3009
 9015SOL    HW230066   8.794   5.784   1.257 -0.0689  1.1401 -0.5583
 9016SOL     OW30067   3.645   3.276   1.809 -0.1290  0.3107 -0.2300
 9016SOL    HW130068   3.738   3.262   1.827 -0.3631 -2.0352 -0.7607
 9016SOL    HW230069   3.605   3.276   1.896 -0.1158 -2.5047 -0.1855
 9017SOL     OW30070   6.635   3.944   1.618  0.4663  0.0855  0.2862
 9017SOL    HW130071   6.596   3.875   1.564 -0.5040  0.1729  0.8842
 9017SOL    HW230072   6.660   3.900   1.699  1.8608 -0.0276 -0.1780
 9018SOL     OW30073   5.235   0.139   6.615 -0.5105 -1.1411 -0.7020
 9018SOL    HW130074   5.309   0.126   6.556 -0.4976  0.0263 -0.9632
 9018SOL    HW230075   5.180   0.062   6.602  0.5441 -1.8982 -0.6800
 9019SOL     OW30076   6.804   3.832   4.402  0.1503  0.6715  0.4393
 9019SOL    HW130077   6.805   3.847   4.308 -0.0341  1.2885  0.5274
 9019SOL    HW230078   6.791   3.920   4.440 -0.7732  0.3020  1.0018
 9020SOL     OW30079   0.380   0.830   4.403 -0.5846  0.1186 -0.3376
 9020SOL    HW130080   0.306   0.877   4.365 -0.1432 -1.1947 -3.0078
 9020SOL    HW230081   0.349   0.739   4.411  1.2143 -0.8166 -3.1424
 9021SOL     OW30082   7.361   6.168   0.263  0.0926 -0.6040  0.0285
 9021SOL    HW130083   7.360   6.195   0.172  0.3546 -0.8865 -0.0595
 9021SOL    HW230084   7.280   6.120   0.275  0.6417 -1.6483 -0.3867
 9022SOL     OW30085   3.759   5.760   3.086 -0.1449  0.0702 -0.7719
 9022SOL    HW130086   3.710   5.699   3.031 -1.0845 -0.2707  0.4016
 9022SOL    HW230087   3.714   5.844   3.074  0.5960  0.3378 -1.6981
 9023SOL     OW30088   1.929   8.547   4.844  0.3821 -0.3138  0.0794
 9023SOL    HW130089   2.014   8.580   4.814  0.0414  1.2881  0.8335
 9023SOL    HW230090   1.944   8.523   4.935  0.2529 -0.8929 -0.0529
 9024SOL     OW30091   8.346   7.849   6.854 -0.3681 -0.2564  0.3626
 9024SOL    HW130092   8.415   7.801   6.900 -0.0238  1.9067  2.2162
 9024SOL    HW230093   8.384   7.867   6.768  1.8496  1.7289  1.6749
 9025SOL     OW30094   0.688   0.174   3.634 -0.4039 -0.4259  0.0429
 9025SOL    HW130095   0.754   0.105   3.625 -0.9763 -0.6086 -3.5186
 9025SOL    HW230096   0.625   0.139   3.697  0.2892 -2.3768 -0.3217
 9026SOL     OW30097   1.788   8.952   2.359 -0.0510 -0.2148 -0.1924
 9026SOL    HW130098   1.711   9.003   2.330 -0.5549  0.0576  1.5819
 9026SOL    HW230099   1.857   9.018   2.370  0.0149 -0.2570 -0.3578
 9027SOL     OW30100   4.833   1.470   3.379 -0.2301 -0.0087 -0.4871
 9027SOL    HW130101   4.906   1.504   3.430  0.2347  0.8087 -1.6697
 9027SOL    HW230102   4.857   1.381   3.356  0.7930  0.5289 -1.5769
 9028SOL     OW30103   3.507   7.044   4.660  0.3848  0.1207  0.4514
 9028SOL    HW130104   3.562   7.095   4.719 -1.2614  3.6696 -0.9497
 9028SOL    HW230105   3.564   7.021   4.587  1.2630 -0.4470  1.3089
 9029SOL     OW30106   0.838   4.346   6.536  0.0796 -0.2317 -0.2463
 9029SOL    HW130107   0.791   4.414   6.583 -0.4618  0.3306 -1.5700
 9029SOL    HW230108   0.853   4.383   6.449  1.8200 -0.9124 -0.2603
 9030SOL     OW30109   8.240   5.200   2.105  0.3711  0.5427  0.7345
 9030SOL    HW130110   8.199   5.271   2.056  1.3148 -0.1007 -1.0326
 9030SOL    HW230111   8.247   5.233   2.194 -2.1593  1.4179  0.6581
 9031SOL     OW30112   7.824   5.000   7.083 -0.3107  0.2067  0.3691
 9031SOL    HW130113   7.806   5.073   7.142 -2.2981  0.4089 -0.4503
 9031SOL    HW230114   7.811   5.037   6.996  1.8241 -0.3025 -0.2052
 9032SOL     OW30115   8.457   8.342   4.940  0.8965  0.6382 -0.4926
 9032SOL    HW130116   8.478   8.280   4.870  0.5935 -0.0913  0.0587
 9032SOL    HW230117   8.525   8.329   5.005  0.7034  0.7276 -0.2708
 9033SOL     OW30118   7.945   3.774   8.373  0.6686 -0.2529  0.0384
 9033SOL    HW130119   7.913   3.692   8.337 -1.9561  0.2914  1.0613
 9033SOL    HW230120   8.023   3.749   8.423  1.2969 -1.7350 -1.6215
 9034SOL     OW30121   7.195   1.189   1.394  0.4672  0.0984 -0.4690
 9034SOL    HW130122   7.183   1.128   1.321 -0.6675 -0.5008  0.1972
 9034SOL    HW230123   7.248   1.140   1.457 -1.3997 -0.6496  0.5600
 9035SOL     OW30124   4.746   8.848   5.041  0.4944  0.0095  0.9478
 9035SOL    HW130125   4.656   8.845   5.073  0.9989 -0.2962  2.4196
 9035SOL    HW230126   4.796   8.877   5.118  1.7958 -1.0083  0.4904
 9036SOL     OW30127   6.552   4.229   6.186  0.3034 -0.2917 -0.4532
 9036SOL    HW130128   6.558   4.300   6.250  0.7406 -1.1481  0.4781
 9036SOL    HW230129   6.460   4.203   6.189  0.3997 -0.5820  0.1198
 9037SOL     OW30130   5.719   6.263   3.109 -0.3972 -0.9440  0.0503
 9037SOL    HW130131   5.750   6.351   3.130  0.2363 -1.3885  1.0252
 9037SOL    HW230132   5.670   6.235   3.187 -1.4172 -1.0904 -0.6307
 9038SOL     OW30133   4.947   4.810   1.944  0.0196  0.0089 -0.2813
 9038SOL    HW130134   4.973   4.828   2.035 -1.1569  1.6464 -0.2388
 9038SOL    HW230135   4.853   4.793   1.950 -0.0873  0.2717 -1.2106
 9039SOL     OW30136   5.194   1.335   6.909 -0.0979  0.5850  0.0846
 9039SOL    HW130137   5.135   1.406   6.882  0.3846  0.4770 -1.3412
 9039SOL    HW230138   5.216   1.291   6.827  0.9555 -0.1642  0.7613
 9040SOL     OW30139   8.519   1.330   7.544 -0.0265  0.0324 -0.1272
 9040SOL    HW130140   8.608   1.301   7.524  0.2306 -0.7826  2.0864
 9040SOL    HW230141   8.506   1.307   7.636 -1.5485  2.6164  0.3560
 9041SOL     OW30142   7.293   2.101   0.828 -0.5157 -0.5964  0.5616
 9041SOL    HW130143   7.287   2.066   0.917  1.7505  0.9967  1.3747
 9041SOL    HW230144   7.349   2.038   0.782  1.0723  0.3362  1.1963
 9042SOL     OW30145   4.806   0.468   6.793  0.1798  0.3335 -0.3546
 9042SOL    HW130146   4.723   0.507   6.766  0.2483 -0.7743 -2.1702
 9042SOL    HW230147   4.808   0.382   6.752  1.5929 -0.2338  0.8363
 9043SOL     OW30148   5.213   0.361   5.414 -0.0828  0.5475  0.1494
 9043SOL    HW130149   5.166   0.365   5.498  0.7910 -1.0568  0.7410
 9043SOL    HW230150   5.148   0.327   5.352 -0.1890 -0.1273  0.6182
 9044SOL     OW30151   3.126   7.210   3.679  0.2348  0.0174 -0.0047
 9044SOL    HW130152   3.101   7.284   3.624  1.8593  1.2944  0.9297
 9044SOL    HW230153   3.087   7.228   3.764  0.5820 -0.2136  0.2089
 9045SOL     OW30154   0.147   6.956   7.545 -0.2040  0.3999 -0.5327
 9045SOL    HW130155   0.122   6.972   7.454  0.6035 -0.0980 -0.8403
 9045SOL    HW230156   0.242   6.945   7.543  0.0667  2.2014  0.6377
 9046SOL     OW30157   7.390   3.112   0.411  0.4287 -0.1087  0.1927
 9046SOL    HW130158   7.384   3.033   0.464 -0.7245 -0.0769  0.1226
 9046SOL    HW230159   7.477   3.147   0.430  1.2611 -1.8154 -0.3804
 9047SOL     OW30160   3.819   7.084   6.088 -0.2808 -0.0452 -0.4534
 9047SOL    HW130161   3.860   7.032   6.157 -3.4865 -0.6801  1.0292
 9047SOL    HW230162   3.774   7.154   6.134 -0.7212  0.7601 -2.0684
 9048SOL     OW30163   7.196   2.519   4.465  0.2700 -0.1480  0.1000
 9048SOL    HW130164   7.257   2.465   4.516  0.5745 -0.2625 -0.3806
 9048SOL    HW230165   7.223   2.506   4.375 -1.5142 -1.5299 -0.2708
 9049SOL     OW30166   2.832   0.128   1.002  0.0761  0.4802 -0.1892
 9049SOL    HW130167   2.865   0.125   1.092 -0.8440  0.0394  0.1476
 9049SOL    HW230168   2.785   0.212   0.997 -1.2797 -0.2325  0.2659
 9050SOL     OW30169   1.519   3.578   7.964 -0.5802 -0.0151  0.7301
 9050SOL    HW130170   1.538   3.486   7.987  0.0330 -0.3228 -0.9079
 9050SOL    HW230171   1.433   3.575   7.924 -0.0437 -0.0872 -0.4499
 9051SOL     OW30172   6.186   6.704   2.981 -0.1541 -0.3181  0.0228
 9051SOL    HW130173   6.170   6.769   2.913  0.4516  0.8982  1.0460
 9051SOL    HW230174   6.189   6.753   3.063  2.7606 -1.2829  0.5582
 9052SOL     OW30175   5.262   2.612   4.913 -0.4898 -0.5471 -0.1641
 9052SOL    HW130176   5.187   2.669   4.893 -1.9357 -2.1068  0.6574
 9052SOL    HW230177   5.250   2.589   5.005  0.9587 -0.9246 -0.0557
 9053SOL     OW30178   5.406   5.589   4.865  0.4336 -0.0518 -0.1337
 9053SOL    HW130179   5.499   5.610   4.866  0.6251 -0.8103 -0.9310
 9053SOL    HW230180   5.400   5.512   4.808 -0.6678 -0.0508 -0.0250
 9054SOL     OW30181   3.576   9.421   7.115 -0.3493  0.0128 -0.0387
 9054SOL    HW130182   3.584   9.329   7.140 -1.9098  0.3332  1.7748
 9054SOL    HW230183   3.496   9.424   7.062  0.6207  0.0509 -1.5121
 9055SOL     OW30184   7.038   0.596   5.057  0.3781  0.3313 -0.0087
 9055SOL    HW130185   7.052   0.618   5.149 -0.5675  0.1163  0.1848
 9055SOL    HW230186   7.023   0.680   5.014  0.5739  0.4068  0.0679
 9056SOL     OW30187   2.768   5.097   1.331 -0.2731 -0.3168 -0.0946
 9056SOL    HW130188   2.757   5.173   1.388 -0.8305  0.7763 -1.6220
 9056SOL    HW230189   2.854   5.107   1.291 -0.6286 -0.0928 -0.8322
 9057SOL     OW30190   8.401   2.970   9.366 -0.2001  0.4009 -0.0719
 9057SOL    HW130191   8.416   2.907   9.436 -0.2305  0.9237  0.4096
 9057SOL    HW230192   8.485   2.977   9.321  0.0288  0.6295  0.3859
 9058SOL     OW30193   5.006   1.340   5.388  0.1394 -0.1815  0.5904
 9058SOL    HW130194   4.942   1.328   5.318  0.0357  0.2572  0.6105
 9058SOL    HW230195   5.088   1.304   5.353  0.7638  2.4622 -0.7723
 9059SOL     OW30196   2.374   6.828   8.575  0.4016  0.6874 -0.1026
 9059SOL    HW130197   2.301   6.768   8.590  0.3283  1.0391  0.9700
 9059SOL    HW230198   2.452   6.777   8.598  0.3954  0.7647  0.0879
 9060SOL     OW30199   3.502   7.145   6.213 -0.3745  0.4214 -0.5479
 9060SOL    HW130200   3.561   7.158   6.287 -0.9023  2.2029 -0.4210
 9060SOL    HW230201   3.441   7.076   6.242  0.3743  0.0132  0.0680
 9061SOL     OW30202   0.466   3.965   5.134 -0.8772  0.5910 -0.0564
 9061SOL    HW130203   0.535   3.973   5.069 -1.2967 -2.1554 -0.9048
 9061SOL    HW230204   0.510   3.977   5.218  0.0588  1.9811 -0.7344
 9062SOL     OW30205   4.500   4.656   8.920 -0.8720 -0.4427  0.3160
 9062SOL    HW130206   4.512   4.573   8.967 -1.9390  0.2627  1.8648
 9062SOL    HW230207   4.472   4.629   8.832  0.0159 -1.7496  0.4086
 9063SOL     OW30208   0.226   3.200   0.475  0.8675 -0.2734  0.6510
 9063SOL    HW130209   0.189   3.140   0.540  0.0216 -0.5425 -0.0679
 9063SOL    HW230210   0.175   3.280   0.484  0.0530 -0.6653 -0.3868
 9064SOL     OW30211   0.168   5.484   9.335  0.0010 -0.6021  0.2909
 9064SOL    HW130212   0.153   5.446   9.248  0.4144 -2.0788  0.8565
 9064SOL    HW230213   0.159   5.410   9.395  1.3425  0.1042  1.3627
 9065SOL     OW30214   7.388   4.389   4.714  0.0721 -0.3212 -0.6525
 9065SOL    HW130215   7.308   4.377   4.765  0.0305  0.7499 -0.4653
 9065SOL    HW230216   7.446   4.318   4.744  0.0397  0.2754  0.8652
 9066SOL     OW30217   3.596   1.778   3.503  0.2530  0.0209 -0.1850
 9066SOL    HW130218   3.686   1.745   3.506  0.9311  1.6126 -2.0696
 9066SOL    HW230219   3.590   1.826   3.420 -2.4901 -0.4752 -0.3303
 9067SOL     OW30220   8.686   2.921   1.324 -0.6164 -0.0388  0.3864
 9067SOL    HW130221   8.725   2.838   1.350 -2.0404 -0.6086  0.7266
 9067SOL    HW230222   8.752   2.962   1.268 -0.3491 -1.8754 -0.6783
 9068SOL     OW30223   7.664   7.455   6.645  0.3538  0.2244  0.3671
 9068SOL    HW130224   7.592   7.509   6.677  1.9086  0.7906  2.9880
 9068SOL    HW230225   7.735   7.469   6.707  0.9228 -4.5549  0.9712
 9069SOL     OW30226   2.566   0.759   3.282 -0.2260 -0.2976  0.2167
 9069SOL    HW130227   2.566   0.667   3.308  0.3574  0.1001  1.6842
 9069SOL    HW230228   2.589   0.807   3.362  1.2335  0.9963 -0.9303
 9070SOL     OW30229   6.399   8.248   8.524 -0.1019  0.4542 -0.9747
 9070SOL    HW130230   6.471   8.218   8.580  0.4418  2.4388 -0.5809
 9070SOL    HW230231   6.439   8.259   8.438 -0.6335 -1.2607 -1.4824
 9071SOL     OW30232   0.126   8.044   0.196  0.2322  0.1585  0.6877
 9071SOL    HW130233   0.154   7.957   0.226  1.4813  0.0175 -0.8354
 9071SOL    HW230234   0.139   8.100   0.272  2.4871 -0.3724  0.7353
 9072SOL     OW30235   4.708   3.374   3.685  0.1300  0.1111 -0.5330
 9072SOL    HW130236   4.733   3.344   3.598  0.3411 -0.8454 -0.1545
 9072SOL    HW230237   4.772   3.441   3.706 -1.1099  1.7574 -1.9093
 9073SOL     OW30238   2.714   8.843   5.027  0.1455 -0.7283 -0.6642
 9073SOL    HW130239   2.785   8.799   5.073 -0.3983 -0.6017  0.2967
 9073SOL    HW230240   2.713   8.802   4.940  2.6239  0.5793 -1.3705
 9074SOL     OW30241   3.702   6.158   0.928  0.0838 -0.0740  0.0058
 9074SOL    HW130242   3.758   6.208   0.987  3.3217 -2.9829 -0.3801
 9074SOL    HW230243   3.644   6.109   0.986  0.7695 -0.1530  0.6387
 9075SOL     OW30244   5.887   1.929   2.324 -0.7234 -0.7028  0.2825
 9075SOL    HW130245   5.982   1.933   2.324 -0.7634  0.7980  2.1265
 9075SOL    HW230246   5.867   1.835   2.321  0.7845 -1.0106 -0.4853
 9076SOL     OW30247   4.438   3.622   4.692 -0.4647 -0.4712 -0.1284
 9076SOL    HW130248   4.355   3.668   4.691 -1.2216 -1.6947  2.6965
 9076SOL    HW230249   4.495   3.676   4.746 -0.2789 -1.0670  0.2724
 9077SOL     OW30250   2.751   5.448   2.664  0.2361 -0.4263 -0.2959
 9077SOL    HW130251   2.752   5.502   2.743  1.7591  0.7661 -1.1077
 9077SOL    HW230252   2.781   5.362   2.693 -1.9970 -0.8167  0.9631
 9078SOL     OW30253   6.706   5.637   6.108 -0.1427  0.1500  0.2040
 9078SOL    HW130254   6.626   5.654   6.057 -0.8652 -0.9809  0.9340
 9078SOL    HW230255   6.743   5.558   6.069 -0.6328 -0.6531  1.3279
 9079SOL     OW30256   8.059   5.128   6.575 -0.5183  0.2473 -0.6975
 9079SOL    HW130257   8.060   5.145   6.481 -1.3620 -1.8964 -1.1235
 9079SOL    HW230258   8.032   5.211   6.615 -0.4949  1.0626 -2.3559
 9080SOL     OW30259   7.042   1.476   6.489 -0.1443  0.1008  0.7030
 9080SOL    HW130260   7.030   1.409   6.422  1.5316 -0.5142  0.9942
 9080SOL    HW230261   6.994   1.444   6.565  0.5767 -0.7326  0.8089
 9081SOL     OW30262   8.806   4.628   8.276 -0.6029 -0.0497  0.3317
 9081SOL    HW130263   8.760   4.581   8.206 -2.3572  1.2117  0.6143
 9081SOL    HW230264   8.896   4.595   8.272 -0.7353 -0.1930 -2.3495
 9082SOL     OW30265   3.833   3.613   2.858  0.6501  0.2323  0.6478
 9082SOL    HW130266   3.863   3.547   2.920  1.8324 -0.0792 -0.2348
 9082SOL    HW230267   3.794   3.682   2.912 -1.1716 -1.4540  1.5477
 9083SOL     OW30268   1.588   1.674   6.191 -0.3071  0.3202  0.0966
 9083SOL    HW130269   1.627   1.725   6.120 -0.6649  0.6300  0.1186
 9083SOL    HW230270   1.648   1.601   6.204 -0.3120  0.1797 -0.6236
 9084SOL     OW30271   4.772   2.060   2.435 -0.3386 -0.2867  0.4019
 9084SOL    HW130272   4.750   2.077   2.526  0.2456  0.3307  0.4340
 9084SOL    HW230273   4.829   2.133   2.410  0.6726 -1.2052 -0.0259
 9085SOL     OW30274   4.061   1.212   9.275  0.6812 -0.1701  0.4678
 9085SOL    HW130275   4.110   1.271   9.218 -1.7770  0.4341 -1.0713
 9085SOL    HW230276   4.077   1.245   9.363  2.4293  0.4346 -0.0567
 9086SOL     OW30277   4.614   3.018   8.468 -0.3638 -0.3039  0.0912
 9086SOL    HW130278   4.694   2.970   8.447 -1.3757 -1.4957 -1.1711
 9086SOL    HW230279   4.637   3.110   8.456  1.3104 -0.5126  1.5320
 9087SOL     OW30280   4.834   4.390   5.644 -0.3451  0.5478 -0.4067
 9087SOL    HW130281   4.739   4.397   5.639 -0.4002  2.2240  1.8020
 9087SOL    HW230282   4.852   4.365   5.735  1.2177 -3.4521 -1.6983
 9088SOL     OW30283   5.811   0.110   5.410 -0.4648  0.0053 -0.1167
 9088SOL    HW130284   5.817   0.088   5.317  3.2027 -0.1168  0.0858
 9088SOL    HW230285   5.786   0.202   5.411  0.2115  0.2131 -1.2300
 9089SOL     OW30286   0.507   5.832   8.301  0.2175 -0.5003  0.0905
 9089SOL    HW130287   0.511   5.763   8.235 -0.0137 -1.9159  1.5103
 9089SOL    HW230288   0.530   5.788   8.383  0.9556  1.3167  0.8883
 9090SOL     OW30289   2.026   1.231   2.541 -0.0137  0.0908 -0.3980
 9090SOL    HW130290   1.963   1.229   2.469 -0.2812  2.2898 -0.2772
 9090SOL    HW230291   2.103   1.186   2.506 -0.4579  0.3383 -1.7594
 9091SOL     OW30292   5.046   5.147   2.667 -0.1487  0.2068  0.7007
 9091SOL    HW130293   5.010   5.076   2.613 -0.3837  0.3613  0.6518
 9091SOL    HW230294   5.133   5.163   2.630 -0.9928  1.5280 -0.7852
 9092SOL     OW30295   3.010   8.246   4.185 -0.2873  0.0119  0.2423
 9092SOL    HW130296   3.021   8.163   4.231  0.6840 -0.0010 -0.0194
 9092SOL    HW230297   2.929   8.234   4.134 -1.0166 -0.1996  1.4233
 9093SOL     OW30298   0.174   0.514   7.017  0.4151  0.5175 -0.3302
 9093SOL    HW130299   0.172   0.571   7.094 -0.1035  0.1901 -0.0985
 9093SOL    HW230300   0.118   0.558   6.953  1.1868  1.0034 -0.6713
 9094SOL     OW30301   0.282   9.307   8.591 -0.2816 -0.5185  0.1353
 9094SOL    HW130302   0.312   9.356   8.668 -0.2826 -0.7806  0.3021
 9094SOL    HW230303   0.257   9.374   8.528  1.8187 -0.2687 -0.4638
 9095SOL     OW30304   6.111   6.629   7.450  0.2421  0.4441 -0.0592
 9095SOL    HW130305   6.104   6.713   7.496  0.1309  0.0637  0.6272
 9095SOL    HW230306   6.021   6.606   7.428  0.1744  0.0163  0.6485
 9096SOL     OW30307   7.576   7.442   5.082  0.0202  0.9661 -0.0577
 9096SOL    HW130308   7.598   7.355   5.115 -1.1085  0.2726 -1.1012
 9096SOL    HW230309   7.506   7.473   5.139  0.5306  1.2562  0.4117
 9097SOL     OW30310   0.528   0.172   1.104 -0.0210  0.0937  0.1692
 9097SOL    HW130311   0.569   0.243   1.055  1.3692  0.4974  1.8638
 9097SOL    HW230312   0.590   0.152   1.174 -1.4307 -1.2536  1.0696
 9098SOL     OW30313   6.117   6.217   9.240 -0.7122  0.1882 -0.5630
 9098SOL    HW130314   6.168   6.251   9.167  0.0934 -0.8006 -0.4736
 9098SOL    HW230315   6.045   6.279   9.250  0.7690  1.9008 -0.3270
 9099SOL     OW30316   8.868   1.579   7.296 -0.0631  0.4616  0.5210
 9099SOL    HW130317   8.777   1.606   7.302  0.0756  1.0912 -0.2195
 9099SOL    HW230318   8.866   1.496   7.249 -0.2650  0.3795  0.6729
 9100SOL     OW30319   1.244   7.784   2.078 -0.5661  0.7594 -0.1038
 9100SOL    HW130320   1.246   7.733   2.159  1.7126 -0.1217 -0.6884
 9100SOL    HW230321   1.252   7.875   2.106  2.9186  0.2971  0.5488
 9101SOL     OW30322   6.096   1.521   6.940 -0.3181 -0.0926 -0.4946
 9101SOL    HW130323   6.181   1.548   6.905 -0.4666  1.0624  0.0342
 9101SOL    HW230324   6.093   1.558   7.028 -1.5177  0.1537 -0.6306
 9102SOL     OW30325   0.863   8.190   6.950 -0.5444  0.1129 -0.1569
 9102SOL    HW130326   0.782   8.191   6.899 -0.8457 -0.9626  0.2971
 9102SOL    HW230327   0.849   8.123   7.016  1.6192 -1.8081 -1.5641
 9103SOL     OW30328   3.926   3.776   1.527 -0.6570 -0.3307 -0.4026
 9103SOL    HW130329   3.873   3.701   1.554 -0.2643 -0.9333 -1.3044
 9103SOL    HW230330   4.015   3.755   1.555 -0.8491  0.5970  0.9421
 9104SOL     OW30331   4.340   1.797   1.461  0.2501  0.0104 -0.1845
 9104SOL    HW130332   4.389   1.746   1.397  0.0683 -0.7678  0.2959
 9104SOL    HW230333   4.396   1.800   1.538  0.2640  0.5432 -0.2160
 9105SOL     OW30334   2.671   5.336   6.731 -0.0802 -0.1687  0.1964
 9105SOL    HW130335   2.761   5.336   6.699  0.0239 -0.9100  0.4856
 9105SOL    HW230336   2.673   5.390   6.810 -0.1241  0.7642 -0.4251
 9106SOL     OW30337   1.261   8.551   9.124 -0.0491 -0.2399 -0.6049
 9106SOL    HW130338   1.329   8.617   9.114  0.3560 -0.6724 -0.7403
 9106SOL    HW230339   1.236   8.557   9.216  0.1937 -0.0975 -0.5460
 9107SOL     OW30340   9.407   9.346   1.028  0.1349 -0.0631 -0.3618
 9107SOL    HW130341   9.430   9.371   1.117  1.0765 -1.5973 -0.1565
 9107SOL    HW230342   9.325   9.296   1.037 -0.5271  0.9728 -0.5238
 9108SOL     OW30343   4.787   8.644   9.033  0.8094  0.1973  0.2470
 9108SOL    HW130344   4.713   8.704   9.038 -0.2959 -0.8892 -2.1604
 9108SOL    HW230345   4.858   8.695   8.994  0.1385  0.1880 -0.9957
 9109SOL     OW30346   0.359   2.530   4.886  0.0286  0.3724  0.3314
 9109SOL    HW130347   0.447   2.504   4.857  0.7300  0.4506  2.3612
 9109SOL    HW230348   0.369   2.619   4.918 -0.9701  0.6672 -0.1446
 9110SOL     OW30349   2.721   1.528   7.414  0.3720  0.2894  0.4775
 9110SOL    HW130350   2.705   1.507   7.506 -0.1219  1.6213  0.7009
 9110SOL    HW230351   2.730   1.442   7.371  1.2533 -0.3340  1.8664
 9111SOL     OW30352   1.013   6.020   3.357  0.1331 -0.5191  0.1147
 9111SOL    HW130353   0.962   5.952   3.401 -1.1228  0.8993  0.9331
 9111SOL    HW230354   1.088   5.974   3.320  0.6875 -1.9625  2.8527
 9112SOL     OW30355   1.349   6.899   7.351  0.2464  0.5297  0.2116
 9112SOL    HW130356   1.286   6.960   7.312 -0.0522  0.1622  0.1066
 9112SOL    HW230357   1.295   6.825   7.379  0.7625 -0.2530 -0.8176
 9113SOL     OW30358   1.198   2.043   2.222 -0.7725  0.0320 -0.6121
 9113SOL    HW130359   1.256   2.029   2.147  0.0851  3.1479 -0.6194
 9113SOL    HW230360   1.161   2.130   2.207 -2.7248 -0.4354  1.2276
 9114SOL     OW30361   7.861   8.897   0.609 -0.3357  0.3644  0.3358
 9114SOL    HW130362   7.770   8.900   0.578 -0.3086 -0.4683  0.1574
 9114SOL    HW230363   7.898   8.820   0.566  0.9249  1.6160 -0.8343
 9115SOL     OW30364   4.433   0.305   2.042  0.6300  0.4587 -0.6303
 9115SOL    HW130365   4.364   0.248   2.077  2.4033 -2.0164 -1.0054
 9115SOL    HW230366   4.398   0.394   2.050 -3.2297 -0.8338 -2.2223
 9116SOL     OW30367   0.668   1.457   1.078 -0.1883 -0.2471 -1.0413
 9116SOL    HW130368   0.607   1.456   1.004 -0.6819 -0.9030 -0.6265
 9116SOL    HW230369   0.707   1.370   1.078 -0.4374 -0.3645 -0.3261
 9117SOL     OW30370   7.974   8.745   2.777  0.4913  0.3306  1.0281
 9117SOL    HW130371   8.040   8.794   2.825  1.9944 -1.4179  0.8110
 9117SOL    HW230372   8.017   8.722   2.694 -0.6147 -0.2558  0.6072
 9118SOL     OW30373   1.466   4.075   6.277 -0.4240 -0.3538  0.7038
 9118SOL    HW130374   1.516   3.994   6.266 -0.0519  0.0944 -1.0285
 9118SOL    HW230375   1.478   4.122   6.194 -2.6910  0.3250  0.7366
 9119SOL     OW30376   2.083   3.398   7.638  0.0934 -0.8486 -0.1844
 9119SOL    HW130377   2.113   3.315   7.677  0.8044 -0.3551  0.3318
 9119SOL    HW230378   2.140   3.409   7.562  0.2887 -0.6188 -0.0057
 9120SOL     OW30379   8.620   2.860   0.789  0.1482  0.1564  0.0939
 9120SOL    HW130380   8.683   2.804   0.833  1.7700  0.7934 -1.3619
 9120SOL    HW230381   8.665   2.944   0.780 -1.3880  1.0163  0.1618
 9121SOL     OW30382   9.391   1.578   1.631 -0.1806  0.2667  0.4098
 9121SOL    HW130383   9.300   1.582   1.661  0.1596 -0.7434  1.6189
 9121SOL    HW230384   9.440   1.548   1.707  0.9301 -0.7979 -0.7072
 9122SOL     OW30385   2.858   8.492   0.874  0.7277 -0.1041  0.1815
 9122SOL    HW130386   2.839   8.582   0.901  1.2186 -0.4220  1.6038
 9122SOL    HW230387   2.951   8.481   0.889  0.1304 -1.8013  2.8897
 9123SOL     OW30388   2.315   3.389   2.283 -0.0760 -0.3773 -0.4923
 9123SOL    HW130389   2.397   3.393   2.332 -0.7093  0.4235  0.5197
 9123SOL    HW230390   2.340   3.410   2.193  1.2352 -2.7147 -0.7167
 9124SOL     OW30391   6.678   3.268   4.598 -0.5435  0.1037  0.2080
 9124SOL    HW130392   6.743   3.334   4.573 -1.5109  0.2887 -1.8722
 9124SOL    HW230393   6.704   3.189   4.551  1.6514 -1.6142  4.0414
 9125SOL     OW30394   8.944   7.456   6.695 -0.1605 -0.3573 -0.2874
 9125SOL    HW130395   9.030   7.491   6.672 -0.2545  1.1671  1.5715
 9125SOL    HW230396   8.897   7.452   6.612  1.3149 -0.1080 -1.1546
 9126SOL     OW30397   0.171   5.237   6.803  0.0234 -0.8992 -0.4040
 9126SOL    HW130398   0.228   5.164   6.780 -0.8483 -1.2939 -1.3700
 9126SOL    HW230399   0.098   5.230   6.742 -0.2831  0.5252 -0.2123
 9127SOL     OW30400   5.755   6.372   5.753 -0.1112 -0.2791  0.1650
 9127SOL    HW130401   5.801   6.313   5.813 -3.8536 -2.3899  1.1011
 9127SOL    HW230402   5.703   6.428   5.810  0.7970  1.7064 -0.9034
 9128SOL     OW30403   7.998   7.118   4.937 -0.8662  0.3094 -0.3087
 9128SOL    HW130404   8.021   7.211   4.940 -1.1283  0.4005 -1.0662
 9128SOL    HW230405   8.057   7.082   4.870 -0.4674 -0.1528  0.2881
 9129SOL     OW30406   9.316   1.404   5.166  0.1818  0.2657  0.4440
 9129SOL    HW130407   9.404   1.439   5.154 -0.4520  1.6544 -0.3266
 9129SOL    HW230408   9.268   1.474   5.211 -1.0815  0.3733 -1.0269
 9130SOL     OW30409   7.093   6.022   7.379  0.2005  0.4041  0.0463
 9130SOL    HW130410   7.054   5.952   7.327  0.7152  0.5869 -0.5919
 9130SOL    HW230411   7.020   6.061   7.427 -0.1041 -0.4761  0.2914
 9131SOL     OW30412   4.035   9.293   0.759  0.1154  0.2071 -0.3688
 9131SOL    HW130413   3.954   9.242   0.756 -1.1007  1.9971  1.1129
 9131SOL    HW230414   4.020   9.364   0.696  1.7270 -1.0753 -2.2833
 9132SOL     OW30415   7.736   3.851   1.583  0.5315 -0.4773  0.5202
 9132SOL    HW130416   7.768   3.876   1.496  1.2888  0.0874  0.9637
 9132SOL    HW230417   7.808   3.801   1.621  0.2100 -0.6955  0.8376
 9133SOL     OW30418   1.167   8.279   1.605  0.0711 -0.6691 -0.0342
 9133SOL    HW130419   1.201   8.368   1.602 -0.8514 -0.3267 -0.4386
 9133SOL    HW230420   1.192   8.241   1.521  0.8325 -0.9285  0.3085
 9134SOL     OW30421   1.535   5.900   0.866  0.5256  0.1484  0.3322
 9134SOL    HW130422   1.465   5.881   0.803  0.8091  1.1461 -0.2987
 9134SOL    HW230423   1.606   5.937   0.814  0.7851  0.9481  1.2219
 9135SOL     OW30424   0.848   5.939   5.398 -0.4888 -0.0336  0.0063
 9135SOL    HW130425   0.911   5.867   5.406 -0.0159  0.4778  0.9692
 9135SOL    HW230426   0.829   5.944   5.305  1.1829  0.0353 -0.3421
 9136SOL     OW30427   0.012   7.087   3.618  0.1032  0.8438  0.4793
 9136SOL    HW130428   0.007   7.143   3.696 -0.9475  0.6635  0.5473
 9136SOL    HW230429  -0.071   7.102   3.573  0.1726 -0.0320  0.0552
 9137SOL     OW30430   1.122   2.649   5.677 -0.4837 -0.8352 -0.2624
 9137SOL    HW130431   1.095   2.592   5.749 -0.2141 -1.0301 -0.3127
 9137SOL    HW230432   1.052   2.712   5.668  0.3403  0.3351  1.3753
 9138SOL     OW30433   8.317   4.134   3.178  0.3390 -0.0036 -0.0592
 9138SOL    HW130434   8.224   4.124   3.156  0.2221  0.5746  0.1717
 9138SOL    HW230435   8.351   4.193   3.111  1.1488 -2.2625 -1.7324
 9139SOL     OW30436   2.066   0.113   0.900 -0.0058 -0.2049  0.1577
 9139SOL    HW130437   1.995   0.066   0.857 -1.3658 -0.6754  2.8588
 9139SOL    HW230438   2.028   0.198   0.923  1.0125  0.4159 -0.4071
 9140SOL     OW30439   6.997   6.307   3.822  0.0175 -0.4429  0.0831
 9140SOL    HW130440   6.903   6.294   3.812 -0.1866 -0.7501  2.1748
 9140SOL    HW230441   7.010   6.400   3.804 -0.7879 -0.2631  0.4054
 9141SOL     OW30442   2.369   1.454   2.257  0.2631 -0.0837 -0.3675
 9141SOL    HW130443   2.278   1.453   2.227  0.4906 -2.9934 -1.0605
 9141SOL    HW230444   2.362   1.467   2.352 -0.8098  0.8276 -0.5599
 9142SOL     OW30445   0.371   8.309   8.778 -0.0833  0.1821 -0.8398
 9142SOL    HW130446   0.405   8.221   8.763  0.6478  0.0302  1.5547
 9142SOL    HW230447   0.333   8.306   8.865  0.7253  2.4775 -0.3696
 9143SOL     OW30448   2.516   2.584   7.135 -0.2705  0.3290 -0.0151
 9143SOL    HW130449   2.429   2.549   7.113 -0.2818 -0.2275  0.8929
 9143SOL    HW230450   2.517   2.670   7.094 -0.4994 -0.4444 -1.7298
 9144SOL     OW30451   1.469   2.644   1.772 -0.9663 -0.0243 -0.1334
 9144SOL    HW130452   1.461   2.729   1.728 -0.4279  1.0630  1.7832
 9144SOL    HW230453   1.508   2.587   1.706 -0.8724  1.3431 -1.3070
 9145SOL     OW30454   4.539   1.329   3.474 -0.1477  0.1234 -0.7492
 9145SOL    HW130455   4.563   1.417   3.447 -3.1229  1.4372  0.5979
 9145SOL    HW230456   4.447   1.320   3.448 -0.9322 -1.2613  2.1825
 9146SOL     OW30457   1.321   8.329   0.545 -0.1568 -0.0784 -0.6304
 9146SOL    HW130458   1.316   8.364   0.457 -1.0874  0.4692 -0.3617
 9146SOL    HW230459   1.325   8.406   0.602 -0.4729 -0.4189 -0.1391
 9147SOL     OW30460   0.148   8.047   5.574 -0.0568  0.0288  0.2035
 9147SOL    HW130461   0.069   8.053   5.521 -0.5102  2.9301  1.1343
 9147SOL    HW230462   0.116   8.026   5.662  0.3104  0.0205  0.3344
 9148SOL     OW30463   0.951   8.376   7.109 -0.1620  0.6606 -0.2066
 9148SOL    HW130464   0.918   8.320   7.039  1.0383  0.7815 -0.8673
 9148SOL    HW230465   0.907   8.343   7.188 -0.5981 -0.2477 -0.8189
 9149SOL     OW30466   7.369   0.939   5.460 -0.6434 -0.3445 -0.5688
 9149SOL    HW130467   7.331   0.980   5.382 -0.4314 -1.0050 -1.0259
 9149SOL    HW230468   7.305   0.955   5.529 -1.2893 -0.5814 -1.1037
 9150SOL     OW30469   0.955   5.354   1.666  0.1600 -0.3875  0.1482
 9150SOL    HW130470   0.971   5.418   1.736 -1.7104 -0.7778  0.9507
 9150SOL    HW230471   1.030   5.294   1.670  0.7137  0.3519  0.9539
 9151SOL     OW30472   6.659   3.985   7.472  0.4704 -0.4733 -0.1438
 9151SOL    HW130473   6.633   4.065   7.427  1.9781  0.4787  0.6087
 9151SOL    HW230474   6.579   3.934   7.481 -0.7065  1.4362  0.3349
 9152SOL     OW30475   9.301   0.834   1.383 -0.3288  0.6213 -0.1264
 9152SOL    HW130476   9.361   0.825   1.308 -0.0120 -1.7846  0.3829
 9152SOL    HW230477   9.346   0.894   1.442  1.1663 -0.3915 -0.2012
 9153SOL     OW30478   0.468   7.948   3.975 -0.3630  0.6900  0.3452
 9153SOL    HW130479   0.413   7.993   3.912  1.5325  0.9263 -1.2089
 9153SOL    HW230480   0.469   8.006   4.052 -0.4067  1.7998 -0.4802
 9154SOL     OW30481   0.460   2.751   2.091  0.1091  0.1003 -0.1479
 9154SOL    HW130482   0.508   2.669   2.079 -1.7723 -1.0350 -0.0632
 9154SOL    HW230483   0.499   2.811   2.028  2.1645 -0.5630  0.4578
 9155SOL     OW30484   9.078   5.722   8.471 -0.2010 -0.1962  0.0258
 9155SOL    HW130485   9.064   5.798   8.414  0.5788 -0.6751 -0.8262
 9155SOL    HW230486   9.174   5.713   8.475 -0.2756 -0.6881  0.7117
 9156SOL     OW30487   2.493   3.936   5.582  0.8672 -0.0201 -0.1372
 9156SOL    HW130488   2.567   3.883   5.612  0.9423  0.0008 -0.2832
 9156SOL    HW230489   2.509   4.023   5.619  0.1819 -0.3647  1.0056
 9157SOL     OW30490   1.308   1.179   2.026  0.2944 -0.3762 -0.8106
 9157SOL    HW130491   1.387   1.201   1.977  0.5832  3.6810  1.2660
 9157SOL    HW230492   1.238   1.184   1.962  1.3234 -0.8784 -2.0032
 9158SOL     OW30493   0.244   6.832   5.237 -0.9809  0.2007  0.0128
 9158SOL    HW130494   0.190   6.894   5.287 -1.6877  0.3896 -0.9707
 9158SOL    HW230495   0.317   6.886   5.204 -2.2973  0.8260 -1.9512
 9159SOL     OW30496   7.753   7.835   6.068 -0.5005  0.0265  0.0229
 9159SOL    HW130497   7.733   7.814   5.976 -3.9047  1.2066  0.4291
 9159SOL    HW230498   7.766   7.749   6.109 -1.9715 -0.6777 -0.9281
 9160SOL     OW30499   6.671   0.224   8.345 -0.0616  0.0316 -0.0792
 9160SOL    HW130500   6.580   0.212   8.372 -0.0684 -0.3767 -0.2725
 9160SOL    HW230501   6.667   0.224   8.249  0.3417 -1.6863 -0.1119
 9161SOL     OW30502   8.974   8.207   7.806  0.0009 -0.5281  0.0703
 9161SOL    HW130503   9.024   8.178   7.883  0.5082 -1.1270 -0.4841
 9161SOL    HW230504   9.001   8.298   7.793  1.5817 -1.1149 -0.7401
 9162SOL     OW30505   2.994   5.093   5.900 -0.2028  0.1949  0.1557
 9162SOL    HW130506   2.927   5.036   5.862 -0.4095  0.2157  0.4898
 9162SOL    HW230507   2.995   5.170   5.842 -1.2607  0.6950  0.7956
 9163SOL     OW30508   3.554   0.503   7.644 -0.1355  0.0302  0.4981
 9163SOL    HW130509   3.588   0.422   7.683 -1.3350 -0.7218  0.0041
 9163SOL    HW230510   3.632   0.555   7.626  0.6430 -0.9434  0.9769
 9164SOL     OW30511   3.732   0.289   6.219 -0.2401  0.6015  0.4917
 9164SOL    HW130512   3.688   0.287   6.304  1.1585 -1.8266  1.2139
 9164SOL    HW230513   3.796   0.360   6.227 -0.1496  0.4214  1.4522
 9165SOL     OW30514   9.292   1.687   4.594  0.4493 -0.0894  0.7669
 9165SOL    HW130515   9.365   1.749   4.599  0.9993 -0.7601  1.1850
 9165SOL    HW230516   9.216   1.740   4.571  0.6083  0.9842  2.6807
 9166SOL     OW30517   4.586   0.046   2.507 -0.7227 -0.2201  0.1042
 9166SOL    HW130518   4.564  -0.021   2.442  1.7577 -1.7260  0.7582
 9166SOL    HW230519   4.681   0.041   2.515 -0.9548  0.0672  3.7096
 9167SOL     OW30520   2.160   0.638   4.412  0.1472 -0.8369 -0.1025
 9167SOL    HW130521   2.173   0.606   4.501  0.4729  2.2575  0.9944
 9167SOL    HW230522   2.245   0.628   4.369  0.6162 -0.1084  0.6647
 9168SOL     OW30523   1.863   9.290   5.691  0.0619 -0.6459  0.1459
 9168SOL    HW130524   1.868   9.297   5.596  0.7471 -2.4345  0.0386
 9168SOL    HW230525   1.876   9.380   5.722 -2.0603  0.2580 -1.5001
 9169SOL     OW30526   2.268   2.876   5.264  0.1297 -0.4569 -0.1227
 9169SOL    HW130527   2.256   2.874   5.359  1.3663  0.6649  0.0659
 9169SOL    HW230528   2.351   2.829   5.249  0.2789 -0.0451 -0.5916
 9170SOL     OW30529   1.509   7.154   6.981 -0.2140  0.0268 -0.2986
 9170SOL    HW130530   1.462   7.228   6.942 -1.1659 -0.6772 -0.5128
 9170SOL    HW230531   1.490   7.160   7.075  0.5688  0.6607 -0.1810
 9171SOL     OW30532   3.583   8.913   7.884  0.3224 -0.1491  0.2790
 9171SOL    HW130533   3.594   8.969   7.961 -2.2102 -1.7229  1.8589
 9171SOL    HW230534   3.536   8.968   7.822  0.6246  0.4801  0.5925
 9172SOL     OW30535   9.242   6.627   7.476  0.1236 -0.2925 -0.0681
 9172SOL    HW130536   9.275   6.546   7.437 -0.3367 -1.1279  1.2342
 9172SOL    HW230537   9.146   6.619   7.470  0.0872  0.4811 -0.5869
 9173SOL     OW30538   6.466   0.811   1.009  0.0549 -0.0269  0.4738
 9173SOL    HW130539   6.508   0.740   1.056  0.4943 -0.2684 -0.2736
 9173SOL    HW230540   6.446   0.775   0.923  0.4313  0.8033  0.0328
 9174SOL     OW30541   1.727   1.565   8.393  0.4805 -0.0434  0.3690
 9174SOL    HW130542   1.773   1.491   8.432  0.1978  0.2435  1.2439
 9174SOL    HW230543   1.727   1.632   8.461  3.1891  1.8042 -1.2991
 9175SOL     OW30544   6.354   1.703   0.060  0.2464 -0.1440  0.3091
 9175SOL    HW130545   6.349   1.610   0.083  0.2266 -0.4252 -0.8282
 9175SOL    HW230546   6.447   1.723   0.064  0.2508 -0.2074  0.5657
 9176SOL     OW30547   5.677   2.582   9.247  0.3002  0.1278  0.1102
 9176SOL    HW130548   5.765   2.583   9.210  0.2970  0.6625  0.1180
 9176SOL    HW230549   5.621   2.610   9.175  0.1023 -0.4568  0.0302
 9177SOL     OW30550   3.055   9.400   6.459 -0.2036  0.2097 -0.4872
 9177SOL    HW130551   2.986   9.441   6.511  0.3909  0.7054 -0.0878
 9177SOL    HW230552   3.096   9.338   6.519  0.0211  0.2729 -0.5753
 9178SOL     OW30553   5.757   4.193   5.595  0.4464  0.0668 -0.5948
 9178SOL    HW130554   5.728   4.284   5.589 -0.5392 -0.1918  0.2695
 9178SOL    HW230555   5.815   4.191   5.671  1.9213  0.3458 -1.6777
 9179SOL     OW30556   2.382   1.789   0.456 -0.1668 -0.0489 -0.5709
 9179SOL    HW130557   2.452   1.724   0.461  0.4877  0.7442  0.7559
 9179SOL    HW230558   2.420   1.862   0.408  0.1501  0.6595  0.7410
 9180SOL     OW30559   0.770   1.562   3.943 -0.2238 -0.2949 -0.3128
 9180SOL    HW130560   0.749   1.471   3.923  1.0451 -0.6578  0.0198
 9180SOL    HW230561   0.707   1.587   4.010 -0.3904 -1.0064 -0.2056
 9181SOL     OW30562   0.271   7.980   4.314 -0.2110 -0.0342 -0.4223
 9181SOL    HW130563   0.244   7.900   4.270 -2.4863  0.8659 -0.7044
 9181SOL    HW230564   0.350   8.007   4.267 -2.2472  0.5984 -3.6070
 9182SOL     OW30565   6.923   0.138   9.354 -0.5738  0.3726  0.3986
 9182SOL    HW130566   6.869   0.199   9.305 -1.3479 -0.0930  0.6700
 9182SOL    HW230567   6.900   0.154   9.446  1.4323  1.7927  0.6834
 9183SOL     OW30568   4.637   1.105   7.926  0.1416 -0.1878  0.3773
 9183SOL    HW130569   4.608   1.065   8.008  1.1456 -0.0287  0.8163
 9183SOL    HW230570   4.669   1.032   7.874  0.0170 -0.2208  0.3469
 9184SOL     OW30571   8.892   5.671   5.849 -0.0768  0.1903  0.1581
 9184SOL    HW130572   8.946   5.680   5.928 -0.3204  1.4305  0.2036
 9184SOL    HW230573   8.921   5.743   5.792 -2.3656  1.5492  0.6227
 9185SOL     OW30574   2.463   6.347   3.674 -0.1924 -0.4537  0.2906
 9185SOL    HW130575   2.441   6.262   3.637 -1.6340  0.5853 -1.3038
 9185SOL    HW230576   2.553   6.364   3.646 -0.2099 -1.0421 -0.1154
 9186SOL     OW30577   8.411   3.136   1.719 -0.5525 -0.5470 -0.3275
 9186SOL    HW130578   8.413   3.091   1.635 -1.8477  0.3450 -0.8543
 9186SOL    HW230579   8.341   3.201   1.710  0.2910  0.5714  0.9161
 9187SOL     OW30580   7.991   5.007   1.679  0.2290 -0.3545 -0.5034
 9187SOL    HW130581   7.999   4.920   1.720  0.1367 -0.8184 -1.4589
 9187SOL    HW230582   7.930   4.993   1.606  0.0005  0.5796 -0.4916
 9188SOL     OW30583   1.612   2.547   1.246  0.0711 -0.6577  0.0157
 9188SOL    HW130584   1.663   2.627   1.246 -0.5292 -0.2675 -0.9696
 9188SOL    HW230585   1.667   2.484   1.198  0.8770 -1.0641  1.4516
 9189SOL     OW30586   3.611   4.572   0.042 -0.2066 -0.1563  0.3672
 9189SOL    HW130587   3.621   4.565  -0.053 -1.9194  0.1115  0.1559
 9189SOL    HW230588   3.520   4.597   0.055 -0.6890 -2.6425  2.1909
 9190SOL     OW30589   1.565   8.679   7.210  0.3246 -0.3637 -0.1001
 9190SOL    HW130590   1.580   8.706   7.120  0.8801  2.1792  0.7263
 9190SOL    HW230591   1.652   8.683   7.251  0.1209 -1.7334  0.5149
 9191SOL     OW30592   7.533   5.043   7.196  0.0794  0.7133 -0.4231
 9191SOL    HW130593   7.524   4.967   7.139  2.9288  0.6841 -0.9492
 9191SOL    HW230594   7.563   5.007   7.279 -0.0309  1.1297 -0.2013
 9192SOL     OW30595   5.152   5.178   3.880 -0.5594  0.1189 -0.4575
 9192SOL    HW130596   5.098   5.215   3.950  0.3457 -2.8265  1.8973
 9192SOL    HW230597   5.242   5.197   3.906 -0.0897 -3.2348  0.6052
 9193SOL     OW30598   2.096   0.325   8.479  0.7814 -0.1990  0.4084
 9193SOL    HW130599   2.178   0.359   8.515  1.1271 -1.4174  0.8028
 9193SOL    HW230600   2.068   0.260   8.543 -0.8076  0.6216  0.5657
 9194SOL     OW30601   1.109   8.534   1.759  0.4759 -0.0973 -0.0881
 9194SOL    HW130602   1.043   8.602   1.749 -1.0320 -1.3480  1.1462
 9194SOL    HW230603   1.080   8.483   1.834  2.8797 -0.6596  0.5096
 9195SOL     OW30604   2.266   4.794   0.082 -0.0490  0.0285  0.6159
 9195SOL    HW130605   2.190   4.794   0.141 -0.0847  0.0121  0.5691
 9195SOL    HW230606   2.297   4.885   0.084 -1.0795  0.4135 -0.6849
 9196SOL     OW30607   1.325   2.528   4.587  0.4060 -0.2041  0.0979
 9196SOL    HW130608   1.349   2.464   4.521 -0.7895  0.6521 -1.2095
 9196SOL    HW230609   1.402   2.585   4.595  0.7300 -0.6024 -0.1918
 9197SOL     OW30610   8.348   4.339   3.529  0.3129 -0.1203 -0.9926
 9197SOL    HW130611   8.274   4.290   3.563 -0.6114  0.8076 -1.6250
 9197SOL    HW230612   8.391   4.279   3.468  1.0564 -1.2290  0.5709
 9198SOL     OW30613   0.123   4.199   8.975 -0.3059  0.3074  0.7134
 9198SOL    HW130614   0.087   4.115   8.947  0.5773  0.3731 -0.6550
 9198SOL    HW230615   0.211   4.179   9.007  0.1019  0.7645 -0.0911
 9199SOL     OW30616   0.278   6.992   1.016 -0.0990  0.0287 -0.3025
 9199SOL    HW130617   0.303   7.071   1.065 -0.3836  0.3450 -0.6643
 9199SOL    HW230618   0.216   6.947   1.073  0.7430 -0.3826  0.2839
 9200SOL     OW30619   2.013   8.590   3.798  0.2673 -0.4416  0.3707
 9200SOL    HW130620   2.059   8.506   3.789  0.2123 -0.5433  1.0309
 9200SOL    HW230621   1.940   8.583   3.736  0.4627 -0.7445  0.1704
 9201SOL     OW30622   2.364   6.864   1.579  0.1985 -0.1855  0.4861
 9201SOL    HW130623   2.285   6.822   1.612 -1.1375  1.3248 -0.7506
 9201SOL    HW230624   2.389   6.811   1.504  0.4196 -0.6977  0.9128
 9202SOL     OW30625   0.795   5.907   0.802 -0.0374 -0.1637  0.1949
 9202SOL    HW130626   0.860   5.891   0.871 -0.1259  1.1916  0.5996
 9202SOL    HW230627   0.717   5.938   0.849  0.2615  1.8384 -0.5918
 9203SOL     OW30628   8.833   5.817   6.219 -0.7963  0.1988  0.1107
 9203SOL    HW130629   8.899   5.751   6.200  0.5499  2.3054 -2.9882
 9203SOL    HW230630   8.873   5.874   6.285 -1.1988 -0.9245  1.3403
 9204SOL     OW30631   2.818   0.637   3.455 -0.0592  0.6068  0.6435
 9204SOL    HW130632   2.864   0.606   3.376  0.1996 -2.3773  1.8914
 9204SOL    HW230633   2.812   0.732   3.443  0.4727  0.3052 -2.6970
 9205SOL     OW30634   1.489   1.324   1.929 -0.5868 -0.5246  0.0796
 9205SOL    HW130635   1.435   1.403   1.933 -0.0182 -0.1318 -0.0030
 9205SOL    HW230636   1.572   1.353   1.891 -0.3411 -1.1421  0.1361
 9206SOL     OW30637   0.763   0.657   8.002 -0.3905 -0.4777 -0.4897
 9206SOL    HW130638   0.813   0.691   7.927 -1.2183  0.7323 -0.5197
 9206SOL    HW230639   0.704   0.593   7.963 -0.2174 -0.4781 -0.7547
 9207SOL     OW30640   3.017   2.699   9.142 -0.0204  0.5055  0.0228
 9207SOL    HW130641   3.001   2.697   9.047  1.5689  1.7524 -0.2990
 9207SOL    HW230642   2.997   2.611   9.171 -0.3057  0.0374 -1.5239
 9208SOL     OW30643   3.547   7.121   1.020  0.6872 -0.6227 -1.0156
 9208SOL    HW130644   3.607   7.116   0.946  1.8406 -1.8781 -0.0162
 9208SOL    HW230645   3.579   7.056   1.082 -0.8281 -0.2666  0.1891
 9209SOL     OW30646   3.069   7.924   6.099  0.7614 -0.1667 -0.0196
 9209SOL    HW130647   3.092   7.845   6.050  1.6145 -0.7271  1.2538
 9209SOL    HW230648   2.984   7.903   6.139  0.7861 -0.2795 -0.0260
 9210SOL     OW30649   4.367   8.968   1.972  0.1971  0.1176 -0.3045
 9210SOL    HW130650   4.289   8.914   1.976 -0.2937  0.9717  4.0707
 9210SOL    HW230651   4.437   8.911   2.004  0.3646  0.8874  0.7384
 9211SOL     OW30652   0.692   7.813   6.752  0.0830  0.2190 -0.1233
 9211SOL    HW130653   0.619   7.751   6.753  0.6743 -0.4752  0.9359
 9211SOL    HW230654   0.659   7.888   6.702 -0.9863 -0.5220 -0.5474
 9212SOL     OW30655   1.948   7.373   7.970  0.5647  0.5112 -0.2163
 9212SOL    HW130656   1.902   7.416   8.042 -0.5920 -0.2593 -0.4884
 9212SOL    HW230657   1.898   7.293   7.954  1.8882 -0.2334 -0.6490
 9213SOL     OW30658   7.843   3.941   8.685 -0.0568  0.0649 -0.4793
 9213SOL    HW130659   7.775   4.004   8.710  0.0097  0.2771 -0.8308
 9213SOL    HW230660   7.794   3.860   8.665  0.1742 -1.4275  4.3278
 9214SOL     OW30661   7.492   8.096   6.380 -0.5009  0.1424 -0.2101
 9214SOL    HW130662   7.575   8.061   6.412 -0.8945  0.1895  0.8838
 9214SOL    HW230663   7.484   8.062   6.291  0.8309  0.3820 -0.4248
 9215SOL     OW30664   9.031   1.506   8.291  0.4126  0.2511 -0.6442
 9215SOL    HW130665   9.004   1.480   8.203  0.3850  0.5998 -0.7406
 9215SOL    HW230666   8.957   1.558   8.324 -0.3109 -1.3160  0.2396
 9216SOL     OW30667   4.580   8.238   1.147 -0.0582 -0.2934 -0.4456
 9216SOL    HW130668   4.610   8.206   1.232 -2.1387 -0.6217  0.1826
 9216SOL    HW230669   4.565   8.158   1.096 -0.4596 -0.1568 -0.5416
 9217SOL     OW30670   5.818   9.249   5.526  0.3798 -0.6082 -1.0017
 9217SOL    HW130671   5.821   9.327   5.582 -0.3605 -1.5092  0.3127
 9217SOL    HW230672   5.774   9.278   5.446 -1.1524 -0.0058  0.0375
 9218SOL     OW30673   7.500   1.802   0.047 -0.1601 -0.3147  0.0428
 9218SOL    HW130674   7.437   1.786   0.117 -0.4116  1.7940  0.3355
 9218SOL    HW230675   7.447   1.823  -0.030  0.1383  0.7990  0.1202
 9219SOL     OW30676   0.305   6.553   5.192 -0.1428 -0.3633  0.0186
 9219SOL    HW130677   0.392   6.531   5.162 -1.1714 -1.2810 -2.3890
 9219SOL    HW230678   0.306   6.649   5.200  1.3191 -0.4354  0.8783
 9220SOL     OW30679   1.019   2.879   1.013  0.1305  0.1410 -0.3532
 9220SOL    HW130680   1.034   2.925   1.095  1.8908 -0.2688 -0.4220
 9220SOL    HW230681   1.039   2.787   1.032  0.1641 -0.0183 -1.1362
 9221SOL     OW30682   3.484   7.627   3.949  0.3913  0.5012  1.0725
 9221SOL    HW130683   3.547   7.559   3.925  0.2152  0.4483  0.7575
 9221SOL    HW230684   3.436   7.646   3.868  0.4702  1.0354  1.1445
 9222SOL     OW30685   0.585   3.249   1.492  0.6181  0.0486  0.0454
 9222SOL    HW130686   0.526   3.287   1.557  0.3641 -0.8299  0.3334
 9222SOL    HW230687   0.545   3.166   1.469  1.6459 -0.4657  0.1041
 9223SOL     OW30688   2.455   8.945   0.271 -0.0778  0.4823  0.0647
 9223SOL    HW130689   2.495   9.023   0.310  1.0995 -1.1430  2.1929
 9223SOL    HW230690   2.519   8.916   0.205  1.7987 -1.4153  2.6247
 9224SOL     OW30691   3.397   3.560   2.531  0.2699  0.0813 -0.1746
 9224SOL    HW130692   3.381   3.618   2.456  1.3468  1.5158  0.6831
 9224SOL    HW230693   3.489   3.574   2.553 -0.2723  0.3909  2.0152
 9225SOL     OW30694   7.458   6.379   1.712  0.4993  0.0916  0.2280
 9225SOL    HW130695   7.380   6.334   1.679 -1.2189  3.5108 -0.5392
 9225SOL    HW230696   7.518   6.382   1.637 -0.2972  1.0796 -0.3753
 9226SOL     OW30697   1.304   9.155   7.041  0.3982  0.1442  0.3367
 9226SOL    HW130698   1.359   9.085   7.075  1.4124  1.0173  0.5266
 9226SOL    HW230699   1.332   9.233   7.089 -0.7227  0.6842  0.1402
 9227SOL     OW30700   1.526   6.953   8.597  0.3727  0.3600 -0.2243
 9227SOL    HW130701   1.547   6.946   8.504  0.4388  0.9352 -0.2552
 9227SOL    HW230702   1.453   6.893   8.611 -1.3318  2.1422 -1.1774
 9228SOL     OW30703   1.593   5.628   4.546 -0.1419  0.0706 -0.8393
 9228SOL    HW130704   1.639   5.614   4.463  1.9857 -1.9940  0.6270
 9228SOL    HW230705   1.637   5.704   4.584  0.2910 -0.2702 -0.6536
 9229SOL     OW30706   6.508   7.115   1.562 -0.2364  0.1635 -0.0011
 9229SOL    HW130707   6.514   7.021   1.545 -1.0495  0.1525 -0.2409
 9229SOL    HW230708   6.553   7.127   1.646  1.9533 -0.0955 -1.0914
 9230SOL     OW30709   3.065   6.909   6.576  0.5682  0.1422 -0.0202
 9230SOL    HW130710   3.032   6.847   6.641  0.2584  1.7095  1.3597
 9230SOL    HW230711   2.987   6.946   6.535  0.6563  1.5202  1.0101
 9231SOL     OW30712   1.312   4.481   3.652  0.2487  0.0683  0.4670
 9231SOL    HW130713   1.367   4.437   3.716 -0.1393 -0.0142  0.7454
 9231SOL    HW230714   1.326   4.432   3.571 -0.7558 -1.0470  0.9461
 9232SOL     OW30715   4.802   0.183   8.413 -0.2142 -0.5398  0.5696
 9232SOL    HW130716   4.840   0.104   8.453  0.3964  0.0578  1.1883
 9232SOL    HW230717   4.709   0.178   8.433 -0.3512 -1.6628 -0.3401
 9233SOL     OW30718   4.209   1.844   8.881 -0.2905 -0.0993  0.3713
 9233SOL    HW130719   4.272   1.873   8.815 -1.2998 -0.0742 -0.5681
 9233SOL    HW230720   4.264   1.819   8.956  0.8655 -0.4614 -0.5860
 9234SOL     OW30721   4.468   5.159   0.118 -0.6689 -0.0026  0.2373
 9234SOL    HW130722   4.519   5.098   0.065  0.1057  0.6688  0.2126
 9234SOL    HW230723   4.504   5.152   0.206  0.5044  1.6011 -0.0931
 9235SOL     OW30724   6.174   0.643   1.484  0.3243  0.5524  0.2301
 9235SOL    HW130725   6.212   0.563   1.521 -1.2865 -1.0780 -1.4929
 9235SOL    HW230726   6.127   0.683   1.557  0.5926 -0.4358  0.9580
 9236SOL     OW30727   3.561   9.393   8.222 -0.4418  0.7682 -0.5181
 9236SOL    HW130728   3.513   9.328   8.171 -0.2794  0.6602 -0.5340
 9236SOL    HW230729   3.641   9.347   8.249 -1.1382  0.3726  0.9677
 9237SOL     OW30730   7.621   7.549   0.864 -0.1202  0.0810  0.8118
 9237SOL    HW130731   7.713   7.531   0.847 -0.4182  0.4703 -1.3283
 9237SOL    HW230732   7.603   7.631   0.818 -1.3784  0.3419  1.7409
 9238SOL     OW30733   2.804   2.897   3.473  0.1096 -0.1940  0.1612
 9238SOL    HW130734   2.837   2.987   3.476 -2.5774  0.7926  1.6211
 9238SOL    HW230735   2.807   2.873   3.381 -0.4655  1.9249 -0.4351
 9239SOL     OW30736   6.549   5.060   7.268  0.1739 -0.4879 -0.6262
 9239SOL    HW130737   6.541   5.106   7.352  1.1433  0.1367 -0.8666
 9239SOL    HW230738   6.485   5.103   7.212 -0.7490 -1.1604 -0.1049
 9240SOL     OW30739   5.055   5.779   6.503  0.1346  0.2218  0.8135
 9240SOL    HW130740   5.005   5.715   6.454  0.9851 -0.6949  1.1243
 9240SOL    HW230741   5.146   5.765   6.475  0.4230  0.7719  1.4469
 9241SOL     OW30742   3.109   7.848   1.045  0.5162 -0.0881  0.5107
 9241SOL    HW130743   3.034   7.789   1.058  0.1000  0.2158 -0.4291
 9241SOL    HW230744   3.148   7.856   1.132 -0.4456 -0.3902  0.9888
 9242SOL     OW30745   4.367   7.054   4.290  0.0510  0.0306 -0.2607
 9242SOL    HW130746   4.330   7.067   4.203 -2.8704 -1.0224  0.7676
 9242SOL    HW230747   4.378   6.959   4.296 -1.2491 -0.0442  1.0806
 9243SOL     OW30748   4.229   5.676   5.773 -0.3217 -0.3553  0.0929
 9243SOL    HW130749   4.285   5.601   5.794 -1.5633 -1.2078  0.4483
 9243SOL    HW230750   4.200   5.659   5.683  1.3921  0.9899 -0.7372
 9244SOL     OW30751   9.067   3.573   4.151 -0.4680  0.2549  0.6722
 9244SOL    HW130752   9.158   3.553   4.172 -1.4298 -1.2413  3.6360
 9244SOL    HW230753   9.028   3.488   4.129 -0.6998  1.1518 -2.7645
 9245SOL     OW30754   6.106   3.332   0.027 -0.2844 -0.5879  0.0450
 9245SOL    HW130755   6.177   3.373  -0.022 -1.1378 -0.9852 -1.5745
 9245SOL    HW230756   6.115   3.366   0.116  1.2139  0.2680 -0.4144
 9246SOL     OW30757   5.071   7.845   7.238  0.2888 -0.0193  0.2398
 9246SOL    HW130758   5.104   7.758   7.212  0.1154 -0.1388  0.4169
 9246SOL    HW230759   5.014   7.827   7.312 -0.1018  0.2025 -0.0087
 9247SOL     OW30760   8.031   6.246   1.897  0.0066 -0.1693  0.5065
 9247SOL    HW130761   8.015   6.243   1.802  1.8548  0.2235  0.1779
 9247SOL    HW230762   7.957   6.197   1.934 -1.2064  0.3986 -1.0704
 9248SOL     OW30763   6.497   6.272   9.255 -0.7230  0.4741  0.1241
 9248SOL    HW130764   6.480   6.246   9.164 -2.3214 -1.1011  0.8503
 9248SOL    HW230765   6.488   6.368   9.254  1.3398  0.7180 -1.7767
 9249SOL     OW30766   1.184   8.033   2.610 -0.0650  0.4507  0.0699
 9249SOL    HW130767   1.180   8.127   2.624  0.5729  0.2865  1.5074
 9249SOL    HW230768   1.257   8.021   2.549  1.0243  0.7660  1.2878
 9250SOL     OW30769   8.193   3.793   3.202  0.0752 -0.9208 -0.3144
 9250SOL    HW130770   8.134   3.731   3.245  0.0861 -0.2333  0.6966
 9250SOL    HW230771   8.135   3.854   3.157  0.0564 -1.3900 -0.9380
 9251SOL     OW30772   5.625   3.932   9.130 -0.1014  0.2509 -0.7097
 9251SOL    HW130773   5.648   3.996   9.198  0.9054  0.7081 -1.4667
 9251SOL    HW230774   5.556   3.879   9.169  0.3730  0.6014  0.6215
 9252SOL     OW30775   6.492   4.437   7.799  0.0482 -0.1046  0.1445
 9252SOL    HW130776   6.552   4.386   7.853 -0.2436  0.4635  1.0158
 9252SOL    HW230777   6.549   4.498   7.752  0.2628 -0.3114  0.1321
 9253SOL     OW30778   4.938   6.775   5.964 -0.2651 -0.6117 -0.3196
 9253SOL    HW130779   4.935   6.832   6.041  3.4260  0.5567 -0.9438
 9253SOL    HW230780   4.939   6.686   6.001 -1.8234 -0.1811  0.8185
 9254SOL     OW30781   8.900   1.567   9.017 -0.2801  0.6679  0.0601
 9254SOL    HW130782   8.963   1.636   9.040 -1.1104  1.5132 -0.1709
 9254SOL    HW230783   8.878   1.526   9.100 -0.1687  1.0156  0.2614
 9255SOL     OW30784   7.153   5.147   6.236  0.3360  0.6932 -0.4702
 9255SOL    HW130785   7.244   5.175   6.229  1.0203 -1.3894  0.0139
 9255SOL    HW230786   7.138   5.133   6.329 -0.4806  1.0009 -0.5447
 9256SOL     OW30787   5.171   7.818   4.385  0.0377  0.2581  0.2302
 9256SOL    HW130788   5.217   7.830   4.302 -1.4451  1.3605 -0.4450
 9256SOL    HW230789   5.095   7.763   4.363 -0.9346  1.4216  0.6548
 9257SOL     OW30790   8.746   2.570   6.910 -0.5987 -0.1933  0.2952
 9257SOL    HW130791   8.766   2.620   6.831 -0.3850 -2.5977 -1.1967
 9257SOL    HW230792   8.807   2.605   6.976  1.3541 -0.2904 -1.4207
 9258SOL     OW30793   0.368   4.525   4.768 -0.3430 -0.9237  0.2216
 9258SOL    HW130794   0.448   4.538   4.820  1.1699 -1.3454 -1.9491
 9258SOL    HW230795   0.352   4.431   4.771 -0.8108 -0.8303  0.7160
 9259SOL     OW30796   6.764   1.823   7.489 -0.0965 -0.5651  0.0698
 9259SOL    HW130797   6.796   1.895   7.435  0.0358 -0.4139  0.3455
 9259SOL    HW230798   6.815   1.829   7.570 -1.7209  0.4987  1.0568
 9260SOL     OW30799   1.404   1.696   6.449 -0.0968 -0.2947  0.0727
 9260SOL    HW130800   1.437   1.769   6.397  0.3445  0.7074  1.7109
 9260SOL    HW230801   1.482   1.645   6.472 -0.1383 -0.0717  0.7278
 9261SOL     OW30802   1.942   3.051   3.463  0.3216 -0.8388 -0.0133
 9261SOL    HW130803   2.004   3.122   3.482  0.1508 -0.7389  0.1711
 9261SOL    HW230804   1.857   3.095   3.459  0.5213 -0.6235 -2.4167
 9262SOL     OW30805   4.536   3.073   7.022 -0.1991  0.5337  0.2341
 9262SOL    HW130806   4.458   3.127   7.032 -1.1151 -0.6002 -0.7027
 9262SOL    HW230807   4.574   3.100   6.938 -0.0239  0.5268  0.3097
 9263SOL     OW30808   6.730   3.012   2.998  0.0131 -0.5565  0.5128
 9263SOL    HW130809   6.739   3.028   3.092  1.4922 -0.6321  0.4020
 9263SOL    HW230810   6.783   3.080   2.957 -1.7034  0.3048 -0.3357
 9264SOL     OW30811   5.765   2.326   8.164  0.0077  0.0897 -0.0337
 9264SOL    HW130812   5.841   2.370   8.201  1.1821 -0.2606 -1.9614
 9264SOL    HW230813   5.800   2.274   8.092 -1.8655 -1.1797 -0.0819
 9265SOL     OW30814   0.222   6.343   2.361 -0.3539  0.1988 -0.0018
 9265SOL    HW130815   0.135   6.337   2.401 -0.3840 -1.2440 -0.2577
 9265SOL    HW230816   0.281   6.360   2.435 -0.9459  2.2411  0.0522
 9266SOL     OW30817   1.563   1.946   8.776 -0.1662  0.6278 -0.2462
 9266SOL    HW130818   1.607   1.992   8.847 -0.5952 -0.5865  0.8161
 9266SOL    HW230819   1.534   1.863   8.814 -2.9850  1.1947 -1.0341
 9267SOL     OW30820   2.093   3.662   9.138  0.0502 -0.0083 -0.0509
 9267SOL    HW130821   2.122   3.639   9.226 -0.2993  1.0900  0.3648
 9267SOL    HW230822   1.998   3.647   9.139  0.1702 -0.8037 -0.5020
 9268SOL     OW30823   6.042   8.833   8.339 -0.4341 -0.5265 -0.1073
 9268SOL    HW130824   6.124   8.820   8.292  0.1402  0.2162  0.6730
 9268SOL    HW230825   5.994   8.752   8.326  0.9366 -1.4419  0.4622
 9269SOL     OW30826   7.853   0.835   8.761  0.0573  0.1161 -0.5213
 9269SOL    HW130827   7.828   0.803   8.848 -1.2451  0.4547 -0.7571
 9269SOL    HW230828   7.819   0.767   8.701 -1.5936  1.2722 -0.9405
 9270SOL     OW30829   3.553   0.274   2.111 -0.3899  0.4204 -1.0786
 9270SOL    HW130830   3.602   0.319   2.180 -1.4197 -1.8475  1.2426
 9270SOL    HW230831   3.601   0.294   2.030  1.5794  2.1360  0.4521
 9271SOL     OW30832   3.521   2.801   8.488 -0.9572  0.0714 -0.3382
 9271SOL    HW130833   3.515   2.741   8.562 -1.5672 -1.5044 -1.6520
 9271SOL    HW230834   3.602   2.776   8.444 -1.1991  0.2255 -0.8723
 9272SOL     OW30835   4.715   0.460   6.476 -0.3365  0.6664 -0.3404
 9272SOL    HW130836   4.691   0.497   6.391  0.9540 -0.8294 -1.3865
 9272SOL    HW230837   4.693   0.529   6.539 -0.5784  2.1030 -1.9515
 9273SOL     OW30838   2.800   7.676   8.880  0.4224  0.0708 -0.4221
 9273SOL    HW130839   2.707   7.701   8.880  0.9632  2.1734  0.9473
 9273SOL    HW230840   2.811   7.625   8.960  0.2220 -1.1373 -1.1511
 9274SOL     OW30841   3.628   7.678   1.709  0.0169 -0.0018  0.0488
 9274SOL    HW130842   3.625   7.611   1.778 -0.7361  1.1237  1.1389
 9274SOL    HW230843   3.580   7.752   1.746  1.1646  1.2852 -0.9847
 9275SOL     OW30844   3.452   1.920   5.212 -0.7224 -0.2390  0.1474
 9275SOL    HW130845   3.441   1.827   5.194 -1.1958 -0.1012 -0.3139
 9275SOL    HW230846   3.495   1.924   5.297  1.1321 -0.9237 -0.7414
 9276SOL     OW30847   3.823   7.089   2.166  0.4409  0.0805 -0.2361
 9276SOL    HW130848   3.739   7.072   2.122  1.2272  1.9120 -2.5509
 9276SOL    HW230849   3.802   7.155   2.233 -0.2998 -0.8654  0.4766
 9277SOL     OW30850   5.756   1.069   2.005 -0.2004 -0.0944 -0.5995
 9277SOL    HW130851   5.730   0.994   2.058  1.1058 -1.0117 -1.2501
 9277SOL    HW230852   5.769   1.139   2.069 -1.2008 -0.4642  0.0258
 9278SOL     OW30853   8.307   3.407   1.003  0.2861  0.3469 -0.2202
 9278SOL    HW130854   8.280   3.463   0.931 -0.8442  0.0964  0.0002
 9278SOL    HW230855   8.308   3.464   1.080 -1.8152 -0.1308  0.1867
 9279SOL     OW30856   7.884   6.828   5.885 -0.2542  0.0588 -0.3974
 9279SOL    HW130857   7.798   6.847   5.921 -0.0788  0.4923 -0.2074
 9279SOL    HW230858   7.885   6.732   5.875 -0.9362  0.0933 -0.8670
 9280SOL     OW30859   6.933   2.220   4.276  0.0515 -0.3905  0.1749
 9280SOL    HW130860   6.955   2.130   4.300 -2.9301 -1.1532  0.2561
 9280SOL    HW230861   6.970   2.232   4.189  1.5758 -1.2609  0.6994
 9281SOL     OW30862   4.087   3.938   3.723 -0.0024  0.0865 -0.4187
 9281SOL    HW130863   4.123   3.849   3.725  1.1781  0.5823  0.4516
 9281SOL    HW230864   4.163   3.994   3.710 -0.4510  1.1244  1.3003
 9282SOL     OW30865   8.023   2.270   2.191  0.1121  1.1742  0.4487
 9282SOL    HW130866   7.952   2.257   2.253 -0.7364  0.5004 -0.6300
 9282SOL    HW230867   7.980   2.272   2.105  1.3630  1.0071 -0.2004
 9283SOL     OW30868   9.189   0.030   7.023 -0.2696  0.8338  0.4328
 9283SOL    HW130869   9.202  -0.037   7.091 -0.6313 -0.1325 -0.4440
 9283SOL    HW230870   9.161   0.108   7.072 -0.2533  0.2268  1.4265
 9284SOL     OW30871   1.625   5.037   1.160  0.2301 -0.4457 -0.2536
 9284SOL    HW130872   1.689   5.106   1.171  0.2101 -0.3465 -0.7467
 9284SOL    HW230873   1.580   5.058   1.078 -1.1576  0.0692  0.6264
 9285SOL     OW30874   4.548   4.581   7.363 -0.0564 -0.1232  0.2043
 9285SOL    HW130875   4.626   4.526   7.364 -0.1435 -0.2620 -0.1600
 9285SOL    HW230876   4.539   4.613   7.452  0.1810 -0.4420  0.3436
 9286SOL     OW30877   8.145   6.766   2.170 -0.1146 -0.2624  0.4516
 9286SOL    HW130878   8.110   6.798   2.087  2.7032 -1.2139 -1.1653
 9286SOL    HW230879   8.120   6.833   2.234 -2.1288  0.5959 -1.1879
 9287SOL     OW30880   2.075   1.386   9.338 -0.1204 -0.1204 -0.0202
 9287SOL    HW130881   2.089   1.427   9.424  1.3007  1.2262 -0.8553
 9287SOL    HW230882   1.982   1.400   9.320 -0.0712  1.0771  0.5772
 9288SOL     OW30883   7.041   5.164   0.783  0.4070  0.0965  0.5617
 9288SOL    HW130884   6.983   5.175   0.859 -0.5998 -1.1231 -0.0074
 9288SOL    HW230885   7.069   5.253   0.762 -0.6381  0.6301  1.3364
 9289SOL     OW30886   8.419   1.740   0.848  0.1636 -0.0261 -0.5881
 9289SOL    HW130887   8.332   1.721   0.882  0.4410 -1.8661 -0.8667
 9289SOL    HW230888   8.404   1.798   0.773 -0.8966 -1.1570 -1.2667
 9290SOL     OW30889   9.438   2.982   3.484  0.4943 -0.2105  0.3856
 9290SOL    HW130890   9.532   2.989   3.467  0.4196 -0.4899 -0.1716
 9290SOL    HW230891   9.398   3.044   3.424  0.2783 -0.6029  0.1199
 9291SOL     OW30892   7.804   7.798   7.977 -0.4258 -0.7104  0.0234
 9291SOL    HW130893   7.893   7.769   8.001  0.6704  1.1403 -1.6755
 9291SOL    HW230894   7.782   7.863   8.043 -0.0980 -0.4086 -0.1651
 9292SOL     OW30895   0.391   6.586   7.984 -0.1848  0.0944 -0.1958
 9292SOL    HW130896   0.311   6.627   7.950  0.5654  2.0198  0.2805
 9292SOL    HW230897   0.453   6.659   7.992  1.1532 -1.1393  0.7888
 9293SOL     OW30898   3.478   3.915   4.558  0.0414 -0.4311  0.2271
 9293SOL    HW130899   3.540   3.980   4.525  0.4040 -0.6330  0.4983
 9293SOL    HW230900   3.523   3.831   4.546  0.3176 -0.4762  1.5277
 9294SOL     OW30901   2.365   2.057   8.240 -0.1866 -0.0935 -0.7870
 9294SOL    HW130902   2.451   2.040   8.200  1.0610 -0.3609  1.9251
 9294SOL    HW230903   2.364   2.151   8.257  0.7261 -0.4978  1.6828
 9295SOL     OW30904   3.230   7.070   3.459  0.7887  0.0991 -0.3003
 9295SOL    HW130905   3.183   7.132   3.514  1.8820 -0.6448  1.5346
 9295SOL    HW230906   3.322   7.090   3.474  1.1252 -1.2418 -0.5347
 9296SOL     OW30907   3.090   3.888   3.390  0.0240 -0.5357 -0.0223
 9296SOL    HW130908   3.048   3.921   3.310 -0.9573 -1.1479  0.2367
 9296SOL    HW230909   3.052   3.942   3.459  1.3864  0.4599 -0.0328
 9297SOL     OW30910   6.428   2.929   8.319  0.2208  0.5995 -0.1500
 9297SOL    HW130911   6.377   2.891   8.391 -0.2552  2.0583  0.3108
 9297SOL    HW230912   6.393   3.018   8.310  0.4813  0.5310 -1.9971
 9298SOL     OW30913   4.067   4.647   4.544 -0.6018  0.3930  0.2239
 9298SOL    HW130914   4.046   4.660   4.451  0.5851  0.4063 -0.0541
 9298SOL    HW230915   4.000   4.587   4.575  0.0062 -1.0228 -1.1068
 9299SOL     OW30916   5.229   0.988   0.341  0.2332  0.2004 -0.2079
 9299SOL    HW130917   5.209   1.065   0.287  0.6631  0.0453 -0.5925
 9299SOL    HW230918   5.289   1.021   0.408 -1.1791  0.6382  0.8694
 9300SOL     OW30919   2.515   0.082   7.859  0.1517  0.2132  0.1279
 9300SOL    HW130920   2.464   0.151   7.901 -1.1336 -0.2835 -0.5696
 9300SOL    HW230921   2.540   0.119   7.774 -0.0689  0.0136 -0.0227
 9301SOL     OW30922   7.211   0.932   3.740 -0.0130  0.4201  0.3612
 9301SOL    HW130923   7.118   0.935   3.762 -0.1714 -0.3041 -0.2013
 9301SOL    HW230924   7.255   0.959   3.820 -0.7327  1.5814  0.3891
 9302SOL     OW30925   3.858   6.865   1.017 -0.1523  0.0297 -0.5769
 9302SOL    HW130926   3.915   6.904   0.951 -0.0354  0.1880 -0.3814
 9302SOL    HW230927   3.883   6.908   1.099 -0.9219  0.5011 -0.5772
 9303SOL     OW30928   0.445   7.285   2.766  0.0564 -0.1210  0.1144
 9303SOL    HW130929   0.480   7.223   2.830 -0.3596 -0.2899  0.1732
 9303SOL    HW230930   0.471   7.371   2.800  0.6482 -0.2608  0.0227
 9304SOL     OW30931   0.979   3.605   6.211  0.2370  0.0122  0.1323
 9304SOL    HW130932   0.997   3.663   6.285  1.7030  0.2285 -0.3780
 9304SOL    HW230933   0.972   3.518   6.250  0.2355  0.2274  0.6161
 9305SOL     OW30934   2.815   8.158   2.669  0.0875 -0.0270  0.1989
 9305SOL    HW130935   2.779   8.127   2.586 -0.5700  0.2499  0.3781
 9305SOL    HW230936   2.835   8.250   2.654 -1.4443  0.4210  0.7989
 9306SOL     OW30937   5.656   8.886   5.113  0.3991 -0.4301 -0.2469
 9306SOL    HW130938   5.620   8.916   5.196  0.4318 -0.5374 -0.1925
 9306SOL    HW230939   5.615   8.800   5.099  1.1191 -0.8526  0.1430
 9307SOL     OW30940   1.708   3.637   5.770  0.2252 -0.2645  0.2932
 9307SOL    HW130941   1.732   3.728   5.785  0.3235 -0.3424  0.6215
 9307SOL    HW230942   1.632   3.641   5.712  1.0775 -0.0274 -0.8114
 9308SOL     OW30943   8.717   0.959   6.264 -0.0561 -0.4571  0.6155
 9308SOL    HW130944   8.663   0.880   6.261  1.4428 -1.6431  2.9133
 9308SOL    HW230945   8.695   0.999   6.349  0.3706  0.7588  0.1661
 9309SOL     OW30946   7.872   0.937   6.976 -0.5715  0.2116  0.3040
 9309SOL    HW130947   7.844   1.008   6.918  0.5249  1.1440  0.9049
 9309SOL    HW230948   7.920   0.981   7.046 -0.0173 -1.1137  0.7624
 9310SOL     OW30949   0.409   5.585   1.945  0.2848  0.4981 -0.1014
 9310SOL    HW130950   0.315   5.567   1.947  0.4891 -0.5603  0.4023
 9310SOL    HW230951   0.440   5.559   2.032  1.4045 -1.1883 -0.9814
 9311SOL     OW30952   2.247   8.901   2.648 -0.6648  0.1986  0.2960
 9311SOL    HW130953   2.219   8.988   2.676 -3.3406 -0.5391  0.0565
 9311SOL    HW230954   2.233   8.901   2.553 -1.0040 -0.5787  0.3379
 9312SOL     OW30955   6.962   5.949   2.872 -0.1716  0.0153 -0.7492
 9312SOL    HW130956   7.036   5.892   2.892  0.6493  0.8395 -1.4454
 9312SOL    HW230957   6.980   5.982   2.784 -1.3502  0.2356 -0.9138
 9313SOL     OW30958   5.616   1.853   6.322  0.0105 -0.3158  0.5847
 9313SOL    HW130959   5.641   1.820   6.408  2.8449  0.4594  0.0953
 9313SOL    HW230960   5.619   1.948   6.330  0.0803 -0.2353 -0.3277
 9314SOL     OW30961   0.805   7.725   2.852  0.6322  0.2559 -0.5902
 9314SOL    HW130962   0.750   7.710   2.775  0.4429 -0.6275 -0.2877
 9314SOL    HW230963   0.852   7.806   2.832 -1.5587  1.6184 -0.3843
 9315SOL     OW30964   2.056   4.102   1.061 -0.2771  0.4313 -1.0272
 9315SOL    HW130965   2.001   4.124   1.136  0.6700 -0.4945 -0.0446
 9315SOL    HW230966   2.060   4.182   1.009 -0.4424  1.2553  0.2235
 9316SOL     OW30967   7.525   8.274   7.218 -0.1201 -0.1957  0.0388
 9316SOL    HW130968   7.496   8.225   7.295  1.1552 -0.1591  0.5426
 9316SOL    HW230969   7.577   8.346   7.253 -1.3193  1.0686 -0.7500
 9317SOL     OW30970   1.504   8.607   2.717  0.6641 -0.0864  0.3089
 9317SOL    HW130971   1.493   8.651   2.633 -1.7095 -1.1204  0.0577
 9317SOL    HW230972   1.456   8.661   2.779  0.3387 -0.6622  0.5588
 9318SOL     OW30973   0.385   1.817   8.912 -0.4962  0.5255 -0.3807
 9318SOL    HW130974   0.290   1.805   8.910 -0.5124  0.8752 -1.8769
 9318SOL    HW230975   0.400   1.901   8.869  0.4915  0.5169 -0.0696
 9319SOL     OW30976   1.511   3.040   8.548 -0.3422  0.1032 -0.3455
 9319SOL    HW130977   1.522   3.127   8.588  2.0442 -0.8879  1.2858
 9319SOL    HW230978   1.416   3.024   8.552 -0.7903  2.5178 -0.4726
 9320SOL     OW30979   9.412   4.280   1.363  0.2524  0.9514 -0.1953
 9320SOL    HW130980   9.487   4.337   1.342  0.7805  0.7604  1.0999
 9320SOL    HW230981   9.439   4.234   1.442 -1.2602  0.8896  0.2986
 9321SOL     OW30982   5.381   6.163   4.728  0.4593  0.1672 -0.5884
 9321SOL    HW130983   5.353   6.232   4.789 -2.2450 -0.9321 -0.4998
 9321SOL    HW230984   5.354   6.195   4.642 -0.5572 -0.6272 -0.5753
 9322SOL     OW30985   3.154   0.075   4.146 -0.0425  0.0435  0.3705
 9322SOL    HW130986   3.216   0.033   4.088  0.5728  0.5367  0.6619
 9322SOL    HW230987   3.174   0.169   4.140 -1.1840  0.2712 -0.0327
 9323SOL     OW30988   2.193   7.608   1.272  0.2121  0.2290  0.1321
 9323SOL    HW130989   2.143   7.650   1.202 -1.1547  0.1042  1.0194
 9323SOL    HW230990   2.129   7.589   1.340  1.2598 -1.0083  0.8079
 9324SOL     OW30991   6.297   6.844   1.699 -0.0597  1.0392 -0.1108
 9324SOL    HW130992   6.369   6.816   1.644  0.7557  1.4401  0.7360
 9324SOL    HW230993   6.249   6.764   1.720 -0.5513  0.9326 -1.6322
 9325SOL     OW30994   3.515   1.197   3.187  0.2571 -0.3689 -0.0114
 9325SOL    HW130995   3.421   1.189   3.204  0.1308 -0.8795 -0.9490
 9325SOL    HW230996   3.551   1.230   3.269 -0.6014 -1.1458  0.6909
 9326SOL     OW30997   0.846   3.217   6.921 -0.2469 -0.6041 -0.1814
 9326SOL    HW130998   0.913   3.284   6.907  0.6976 -1.4894  0.0019
 9326SOL    HW230999   0.764   3.265   6.925  0.5545  0.6726  1.1771
 9327SOL     OW31000   7.803   7.903   5.608 -0.2414 -0.5529  0.6511
 9327SOL    HW131001   7.809   7.839   5.537  0.2047 -1.8433  1.8215
 9327SOL    HW231002   7.862   7.974   5.582  0.2243 -1.2018 -0.0838
 9328SOL     OW31003   5.853   4.608   3.102  0.2516 -0.2975  0.3233
 9328SOL    HW131004   5.832   4.520   3.071 -0.2200 -0.2288  0.4463
 9328SOL    HW231005   5.940   4.599   3.141  1.3594 -0.1366 -2.0567
 9329SOL     OW31006   3.592   1.800   1.583  0.0100 -0.4155  0.9913
 9329SOL    HW131007   3.626   1.711   1.579  0.2611 -0.2153 -2.2727
 9329SOL    HW231008   3.668   1.855   1.566 -0.1449  0.4807  3.0016
 9330SOL     OW31009   5.478   2.908   6.613 -0.2745 -0.1145 -0.1149
 9330SOL    HW131010   5.431   2.991   6.604 -0.8932 -0.0607  2.9128
 9330SOL    HW231011   5.489   2.876   6.524 -3.8277  1.1179 -1.0804
 9331SOL     OW31012   5.070   4.975   6.694 -0.0136 -0.1564  0.2630
 9331SOL    HW131013   5.165   4.978   6.699 -0.0681 -0.2570  1.6877
 9331SOL    HW231014   5.051   4.891   6.651  0.5314 -0.4126  0.5129
 9332SOL     OW31015   0.831   9.000   3.132  0.0325 -0.0830  0.0313
 9332SOL    HW131016   0.924   9.020   3.142 -0.3114  1.6998 -0.0692
 9332SOL    HW231017   0.798   9.069   3.075 -1.0922 -1.4773 -1.0342
 9333SOL     OW31018   6.284   4.175   6.249  0.2726 -0.0324 -0.4221
 9333SOL    HW131019   6.242   4.255   6.281 -0.4520 -0.1325 -1.0868
 9333SOL    HW231020   6.256   4.107   6.310 -0.0846  0.0065 -0.5412
 9334SOL     OW31021   3.070   6.696   3.210 -0.1170  0.0814  0.7642
 9334SOL    HW131022   3.091   6.770   3.267 -1.0506  1.1110 -0.1906
 9334SOL    HW231023   3.065   6.735   3.122  2.0870 -1.5959 -0.1782
 9335SOL     OW31024   2.054   4.466   5.801  0.9217  0.3079 -0.3811
 9335SOL    HW131025   2.027   4.376   5.823  2.6617 -0.1451 -0.0323
 9335SOL    HW231026   2.105   4.495   5.876  2.3272  0.7465 -1.4832
 9336SOL     OW31027   8.327   0.353   5.836  0.3227 -0.5364  0.0830
 9336SOL    HW131028   8.285   0.269   5.851 -0.4295 -0.2540 -0.4096
 9336SOL    HW231029   8.317   0.369   5.742  0.7500 -0.0520  0.1179
 9337SOL     OW31030   0.778   9.362   3.972  0.4382  0.4589  0.0733
 9337SOL    HW131031   0.710   9.394   3.913 -0.3606  0.5005  1.0023
 9337SOL    HW231032   0.763   9.408   4.055  1.1892 -0.0160  0.4898
 9338SOL     OW31033   5.498   7.798   1.488 -0.4235 -0.0645 -0.3176
 9338SOL    HW131034   5.528   7.749   1.565 -0.1051  0.7256  0.0655
 9338SOL    HW231035   5.404   7.779   1.483 -0.6210  0.5595  0.7784
 9339SOL     OW31036   8.342   1.155   3.217  0.2678  0.0105  0.3473
 9339SOL    HW131037   8.396   1.228   3.247  0.3283  0.3918 -0.6891
 9339SOL    HW231038   8.404   1.082   3.208  0.4890  0.2636 -0.1799
 9340SOL     OW31039   1.993   8.103   1.685  0.4382 -0.0003  0.3342
 9340SOL    HW131040   1.997   8.045   1.761 -2.1684  0.1152  0.6218
 9340SOL    HW231041   1.980   8.190   1.722 -0.8623  0.0551 -0.2106
 9341SOL     OW31042   5.409   2.212   4.168  0.4197  0.3394 -0.6696
 9341SOL    HW131043   5.439   2.279   4.229  2.8264 -1.2082 -0.0633
 9341SOL    HW231044   5.315   2.207   4.182  0.2896  3.1141 -0.2812
 9342SOL     OW31045   3.259   5.753   0.228 -0.4344  0.2900 -0.8685
 9342SOL    HW131046   3.272   5.688   0.158  0.5607 -0.2341 -0.1978
 9342SOL    HW231047   3.344   5.795   0.238 -0.4230 -0.0466  0.4381
 9343SOL     OW31048   2.583   1.361   6.228  0.0872 -0.0879 -0.0785
 9343SOL    HW131049   2.651   1.298   6.202  0.8240  0.7888 -0.3273
 9343SOL    HW231050   2.559   1.335   6.317 -1.6061 -2.3932 -1.1712
 9344SOL     OW31051   6.037   1.509   9.167 -0.3228 -0.3228 -0.0430
 9344SOL    HW131052   6.113   1.565   9.183 -0.4489 -0.5156  1.2312
 9344SOL    HW231053   5.962   1.563   9.191 -0.3956 -1.3779  2.2141
 9345SOL     OW31054   4.626   2.351   1.396 -0.0723 -0.3336  0.2745
 9345SOL    HW131055   4.658   2.350   1.486 -0.2507 -0.8126  0.3287
 9345SOL    HW231056   4.613   2.444   1.377  0.0183 -0.2289  0.7217
 9346SOL     OW31057   2.387   5.405   3.575 -0.1348 -0.2448 -0.1827
 9346SOL    HW131058   2.413   5.334   3.517 -0.5462  0.4644 -1.2593
 9346SOL    HW231059   2.452   5.474   3.558  0.3560 -0.4126  0.9682
 9347SOL     OW31060   2.498   4.431   5.036  0.4340  0.8788  0.2063
 9347SOL    HW131061   2.429   4.496   5.028  0.6160  0.6967 -3.4267
 9347SOL    HW231062   2.453   4.351   5.062 -0.4414  1.2618 -0.1091
 9348SOL     OW31063   1.228   7.588   9.432 -0.1375 -0.4934 -0.7437
 9348SOL    HW131064   1.285   7.649   9.479 -2.0138 -0.5401  1.7009
 9348SOL    HW231065   1.235   7.506   9.482 -1.3117 -0.8734 -1.1898
 9349SOL     OW31066   6.674   4.978   2.872  0.0183 -0.1883  0.4423
 9349SOL    HW131067   6.600   4.935   2.915 -0.5783 -0.9554 -1.2954
 9349SOL    HW231068   6.641   5.002   2.786  1.6134  0.0166 -0.1364
 9350SOL     OW31069   1.241   5.454   6.803 -0.5254 -0.1325 -0.1862
 9350SOL    HW131070   1.278   5.525   6.750 -0.5020 -0.6955 -0.9278
 9350SOL    HW231071   1.317   5.415   6.847 -0.3235 -0.8446 -1.1683
 9351SOL     OW31072   8.244   5.515   5.271 -0.8905 -0.1796 -0.6521
 9351SOL    HW131073   8.264   5.426   5.243  0.4405  0.2044 -0.9691
 9351SOL    HW231074   8.305   5.570   5.223 -0.7671  0.7803  0.5623
 9352SOL     OW31075   7.640   5.607   1.266 -0.1305  0.1636 -0.0820
 9352SOL    HW131076   7.668   5.516   1.268 -1.1451 -0.1593 -0.6130
 9352SOL    HW231077   7.667   5.639   1.180 -0.0716  0.2701 -0.0245
 9353SOL     OW31078   3.039   2.864   8.210 -0.1151  0.1085 -0.5216
 9353SOL    HW131079   3.094   2.801   8.257  0.4486  1.2802  0.4038
 9353SOL    HW231080   3.078   2.869   8.123  0.0739 -0.5382 -0.4784
 9354SOL     OW31081   3.558   7.085   3.853  0.0225  0.5343  0.2106
 9354SOL    HW131082   3.625   7.022   3.825 -1.2061 -0.3127 -0.8943
 9354SOL    HW231083   3.542   7.063   3.945 -0.3843 -0.7689 -0.1663
 9355SOL     OW31084   0.812   1.297   0.692 -0.0891  0.0275 -0.1154
 9355SOL    HW131085   0.830   1.243   0.615 -0.5441  0.4535 -0.5232
 9355SOL    HW231086   0.725   1.334   0.675  0.2758  0.9936  0.0903
 9356SOL     OW31087   0.335   8.081   8.422 -0.5155 -0.0424 -0.3462
 9356SOL    HW131088   0.268   8.024   8.461 -1.2109  0.6366 -0.5323
 9356SOL    HW231089   0.311   8.169   8.450 -0.3242  0.3180 -1.3116
 9357SOL     OW31090   8.534   6.405   6.450  0.2118 -0.1731 -0.0280
 9357SOL    HW131091   8.620   6.416   6.409  0.1314  1.7827  0.2719
 9357SOL    HW231092   8.553   6.400   6.544 -0.0335  1.0407  0.1015
 9358SOL     OW31093   2.592   0.619   2.284  0.3477  0.4271  0.4599
 9358SOL    HW131094   2.523   0.661   2.335 -0.7762  0.8880 -1.4290
 9358SOL    HW231095   2.567   0.527   2.280 -0.5345  0.7261 -0.8453
 9359SOL     OW31096   8.500   3.028   6.611  0.0125  0.3178  0.4597
 9359SOL    HW131097   8.494   2.937   6.639  0.4315  0.0710 -0.2481
 9359SOL    HW231098   8.516   3.077   6.692 -2.8986  0.0857  1.2165
 9360SOL     OW31099   3.262   0.370   6.056 -0.4169 -0.0027 -0.6182
 9360SOL    HW131100   3.212   0.448   6.031 -0.1283  0.7356  1.0721
 9360SOL    HW231101   3.353   0.399   6.054 -0.2309 -0.5876 -0.9466
 9361SOL     OW31102   0.493   2.612   1.769 -0.1158  0.2028 -0.6055
 9361SOL    HW131103   0.546   2.540   1.734  0.1020  1.2647 -2.4795
 9361SOL    HW231104   0.554   2.686   1.774 -0.1240  0.0865  2.0884
 9362SOL     OW31105   2.167   7.943   2.833 -0.5186 -0.0685  0.7754
 9362SOL    HW131106   2.077   7.918   2.814 -0.3533 -0.5858  0.6418
 9362SOL    HW231107   2.163   8.036   2.856 -1.0342 -0.0098  0.4469
 9363SOL     OW31108   6.958   5.410   0.249 -0.1848 -0.3331  0.3929
 9363SOL    HW131109   6.913   5.351   0.309 -0.9077 -0.4250 -0.2225
 9363SOL    HW231110   6.936   5.376   0.162 -0.3612  0.6601  0.0456
 9364SOL     OW31111   8.926   1.701   4.997  0.0440 -0.0476  0.3234
 9364SOL    HW131112   8.998   1.681   5.057 -0.0442  0.0030  0.4454
 9364SOL    HW231113   8.879   1.773   5.039  0.7318  0.8362 -0.4219
 9365SOL     OW31114   6.367   3.997   8.502  0.0035 -0.2930  0.6700
 9365SOL    HW131115   6.304   3.932   8.471 -1.5537  1.1992  0.6047
 9365SOL    HW231116   6.313   4.069   8.536  1.6668  1.3454 -0.0588
 9366SOL     OW31117   4.432   2.070   1.639 -0.4030  0.0525  0.2641
 9366SOL    HW131118   4.353   2.017   1.628  0.1006 -0.5703 -0.4362
 9366SOL    HW231119   4.409   2.135   1.705 -1.9482  0.7412 -0.9365
 9367SOL     OW31120   4.464   6.143   1.251 -0.0848 -0.1920  0.0924
 9367SOL    HW131121   4.422   6.166   1.334 -3.3281 -0.3707 -1.4254
 9367SOL    HW231122   4.497   6.054   1.265  2.3457  1.0065  2.2416
 9368SOL     OW31123   1.074   6.772   0.010  0.2526 -0.5061 -0.2516
 9368SOL    HW131124   0.995   6.733   0.046 -1.0089 -0.0807 -2.4817
 9368SOL    HW231125   1.058   6.867   0.013  0.6576 -0.4194 -0.7570
 9369SOL     OW31126   6.443   7.505   4.011  0.2981  0.1959 -0.2006
 9369SOL    HW131127   6.446   7.479   3.919  0.3716  0.4612 -0.2712
 9369SOL    HW231128   6.353   7.487   4.038  0.7735 -1.7120  0.1951
 9370SOL     OW31129   5.451   0.797   3.651  0.3208 -0.2382 -0.0514
 9370SOL    HW131130   5.470   0.809   3.744  0.2223  1.1143 -0.1972
 9370SOL    HW231131   5.395   0.719   3.648 -2.1592  1.4104  1.3527
 9371SOL     OW31132   4.562   5.874   4.830 -0.2088 -0.0801 -0.3455
 9371SOL    HW131133   4.619   5.951   4.838 -2.0676  1.2500  0.5754
 9371SOL    HW231134   4.479   5.909   4.797 -1.2262 -1.6056  0.5084
 9372SOL     OW31135   0.946   7.880   8.510  0.9752 -0.2791 -0.3782
 9372SOL    HW131136   0.900   7.875   8.426  1.5082 -1.4841 -0.6071
 9372SOL    HW231137   1.031   7.917   8.489  0.9536 -0.1926 -0.3108
 9373SOL     OW31138   3.588   4.585   0.542 -0.5439 -0.3612 -0.0054
 9373SOL    HW131139   3.552   4.656   0.594 -1.8543 -1.2711  0.3713
 9373SOL    HW231140   3.675   4.615   0.516 -1.4108  1.7161 -0.5843
 9374SOL     OW31141   6.145   2.752   8.026  0.1847 -0.6729  0.4800
 9374SOL    HW131142   6.063   2.712   7.997  0.5402 -0.9391 -0.1619
 9374SOL    HW231143   6.194   2.769   7.945  0.0949  0.9468  0.7392
 9375SOL     OW31144   3.410   2.601   7.429  0.0651 -0.8630 -0.2722
 9375SOL    HW131145   3.412   2.616   7.523 -0.3389  1.2626 -0.5712
 9375SOL    HW231146   3.467   2.525   7.415 -1.2044 -2.2467  1.8505
 9376SOL     OW31147   5.957   4.877   4.910 -0.4026 -0.5081  0.4593
 9376SOL    HW131148   6.004   4.846   4.833  0.3563  1.3936  0.1319
 9376SOL    HW231149   5.870   4.902   4.878  0.4438  1.8319 -0.1415
 9377SOL     OW31150   5.147   7.743   5.616  0.2187 -0.4844 -0.4848
 9377SOL    HW131151   5.232   7.738   5.660  0.1979  0.7717 -0.2915
 9377SOL    HW231152   5.085   7.708   5.681  0.4855 -0.7642 -0.3762
 9378SOL     OW31153   6.179   0.853   8.634  0.0235  0.5132 -0.0952
 9378SOL    HW131154   6.167   0.767   8.673 -0.0170  0.4433 -0.2629
 9378SOL    HW231155   6.101   0.902   8.660 -0.0442  0.4399 -0.1584
 9379SOL     OW31156   4.698   1.373   2.925 -0.3227 -0.3705  0.4656
 9379SOL    HW131157   4.613   1.335   2.945 -0.7877  0.6622  0.4667
 9379SOL    HW231158   4.718   1.428   3.000  0.3961 -0.6852  0.5102
 9380SOL     OW31159   7.235   9.060   7.978 -0.3552 -0.1241 -0.1724
 9380SOL    HW131160   7.245   9.124   7.908  0.1989  0.6004  0.5623
 9380SOL    HW231161   7.180   9.103   8.043 -0.8603 -0.7911 -0.1543
 9381SOL     OW31162   6.042   2.884   5.705 -0.2723 -0.2149  0.7312
 9381SOL    HW131163   6.036   2.880   5.800  0.1839  0.9019  0.8142
 9381SOL    HW231164   6.035   2.793   5.677  0.7963 -0.6654  1.9006
 9382SOL     OW31165   0.361   1.665   4.036 -0.0940  0.1108 -0.0189
 9382SOL    HW131166   0.361   1.746   3.986  0.9544  0.3153  0.2904
 9382SOL    HW231167   0.292   1.676   4.101  0.4242  0.9841  0.3858
 9383SOL     OW31168   7.384   0.067   8.970 -0.2844  0.5986  0.3869
 9383SOL    HW131169   7.343   0.096   8.888 -1.0837 -0.7197  0.2974
 9383SOL    HW231170   7.329  -0.006   8.999  1.3318 -0.4121  0.9114
 9384SOL     OW31171   3.752   9.255   3.517  0.0732 -0.2964 -0.1573
 9384SOL    HW131172   3.755   9.179   3.460 -0.1799  0.4876 -1.2409
 9384SOL    HW231173   3.815   9.317   3.478  0.7155 -0.1782  1.0398
 9385SOL     OW31174   5.293   1.482   1.539  0.2563 -0.5877  0.3915
 9385SOL    HW131175   5.273   1.475   1.633  0.2148 -0.4108  0.3958
 9385SOL    HW231176   5.219   1.531   1.503  0.4847 -0.2832  0.3364
 9386SOL     OW31177   0.062   2.306   6.287  0.1755  0.0023  0.1781
 9386SOL    HW131178   0.125   2.333   6.220  0.6109  1.0988  1.0195
 9386SOL    HW231179  -0.022   2.301   6.240  0.8382 -1.2901 -0.9049
 9387SOL     OW31180   0.391   3.387   1.954 -0.5048  0.0777  0.4634
 9387SOL    HW131181   0.428   3.326   2.018  1.3198  1.6100  0.9016
 9387SOL    HW231182   0.338   3.447   2.007  3.4501  3.2501  1.0819
 9388SOL     OW31183   1.455   3.660   6.925  0.1258 -0.4653 -0.1099
 9388SOL    HW131184   1.519   3.638   6.994  1.0244  2.3136  0.0089
 9388SOL    HW231185   1.429   3.750   6.945 -1.3644 -0.4370 -2.0928
 9389SOL     OW31186   2.568   0.292   2.848  0.0542  0.1938 -0.3791
 9389SOL    HW131187   2.529   0.359   2.792 -1.0731  1.5751  2.0102
 9389SOL    HW231188   2.604   0.339   2.923 -0.7798 -1.8342  1.3654
 9390SOL     OW31189   0.066   2.864   4.758 -0.4941 -0.2054  0.3541
 9390SOL    HW131190   0.119   2.830   4.686 -1.4220 -0.5270 -0.1884
 9390SOL    HW231191   0.088   2.957   4.763 -2.2620  0.4000 -2.0189
 9391SOL     OW31192   0.666   8.358   1.563 -0.0280  0.0557 -0.6744
 9391SOL    HW131193   0.596   8.294   1.551 -0.0121 -0.8219  3.3551
 9391SOL    HW231194   0.746   8.305   1.563  0.0022 -0.0011  2.3989
 9392SOL     OW31195   8.263   0.261   0.730  0.6722 -0.1701 -0.0154
 9392SOL    HW131196   8.284   0.349   0.761 -0.2809  0.1355 -0.2301
 9392SOL    HW231197   8.173   0.247   0.758  0.7397 -0.9864 -0.2060
 9393SOL     OW31198   0.613   2.012   2.322 -0.1613  0.3491 -0.1261
 9393SOL    HW131199   0.660   2.095   2.324 -0.7053  0.6373  1.1468
 9393SOL    HW231200   0.564   2.014   2.240 -1.6944  2.1365  0.8079
 9394SOL     OW31201   1.511   9.293   8.395  0.3376 -0.3562 -0.0464
 9394SOL    HW131202   1.517   9.282   8.300 -0.7035 -0.6006 -0.0924
 9394SOL    HW231203   1.478   9.208   8.427  1.4434 -0.5456  0.6138
 9395SOL     OW31204   5.291   4.451   6.030  0.1497 -0.3643  0.2918
 9395SOL    HW131205   5.339   4.370   6.050  0.6188  0.0567  0.8969
 9395SOL    HW231206   5.290   4.498   6.113  1.0902  0.8943 -0.4031
 9396SOL     OW31207   4.542   0.068   7.435  0.7780  0.1107 -0.5939
 9396SOL    HW131208   4.471   0.103   7.380  0.6009 -0.7109 -0.9014
 9396SOL    HW231209   4.587   0.006   7.378  0.3453 -1.0582  0.3189
 9397SOL     OW31210   3.915   5.202   3.294 -0.1919 -0.4624  0.2275
 9397SOL    HW131211   3.992   5.233   3.247  0.4887 -0.1497  1.5362
 9397SOL    HW231212   3.844   5.257   3.262  0.5513  0.8053  0.7284
 9398SOL     OW31213   5.694   1.908   5.448 -0.1075  0.7144 -1.1479
 9398SOL    HW131214   5.606   1.872   5.444  0.0272  0.1056  0.6241
 9398SOL    HW231215   5.751   1.835   5.426  0.1230 -0.0127  1.6359
 9399SOL     OW31216   6.996   1.497   5.306 -0.0606 -0.0421 -0.0336
 9399SOL    HW131217   6.943   1.453   5.239 -1.4919  0.8511  0.4788
 9399SOL    HW231218   7.057   1.551   5.257 -0.8338  0.2985 -0.6362
 9400SOL     OW31219   8.533   8.950   2.551  0.0300 -0.0105  0.3407
 9400SOL    HW131220   8.615   8.917   2.588 -0.3928  0.0473  1.3661
 9400SOL    HW231221   8.493   8.998   2.623 -1.6662 -1.3805  0.3482
 9401SOL     OW31222   8.101   7.866   0.240  0.1266 -0.8121 -0.4212
 9401SOL    HW131223   8.103   7.771   0.229 -0.5553 -0.7005 -1.5778
 9401SOL    HW231224   8.011   7.886   0.265  0.9220 -0.7338  2.6634
 9402SOL     OW31225   4.966   1.100   2.452 -0.0878  0.3079 -0.1410
 9402SOL    HW131226   5.012   1.135   2.375 -0.6178 -0.6290 -0.8996
 9402SOL    HW231227   5.029   1.106   2.523 -0.3189  3.2313 -0.1462
 9403SOL     OW31228   5.123   1.859   6.672  0.1669 -0.4026  0.0267
 9403SOL    HW131229   5.106   1.899   6.758  1.3307 -1.7694  0.9228
 9403SOL    HW231230   5.083   1.919   6.609 -0.2423  0.8959  1.4911
 9404SOL     OW31231   7.818   5.649   0.616  0.1677  0.2951 -0.4769
 9404SOL    HW131232   7.749   5.589   0.646 -0.7421  0.3764 -2.3520
 9404SOL    HW231233   7.842   5.698   0.695 -1.1033 -0.5276  0.4537
 9405SOL     OW31234   6.650   5.874   9.195  0.0099 -0.1817  0.0579
 9405SOL    HW131235   6.633   5.792   9.242  1.9911 -0.6751 -0.0761
 9405SOL    HW231236   6.653   5.940   9.264 -0.7165 -0.3350  0.2474
 9406SOL     OW31237   3.723   0.446   5.370  0.1628  0.2083 -0.9204
 9406SOL    HW131238   3.669   0.450   5.449 -1.7743  1.8550 -2.2765
 9406SOL    HW231239   3.803   0.493   5.393 -0.1848  0.2543  0.2064
 9407SOL     OW31240   2.154   0.489   6.698  0.6550  0.4849  0.1239
 9407SOL    HW131241   2.130   0.581   6.706  0.2030  0.4348 -0.6814
 9407SOL    HW231242   2.129   0.465   6.609  0.5674 -0.4758  0.4039
 9408SOL     OW31243   5.174   8.649   5.412  0.3882  0.5419 -0.3801
 9408SOL    HW131244   5.222   8.725   5.381 -0.4044 -0.3878 -4.0797
 9408SOL    HW231245   5.213   8.575   5.367  0.6551 -1.2352  2.5974
 9409SOL     OW31246   5.231   3.423   2.545 -0.0083  0.4713 -0.3915
 9409SOL    HW131247   5.147   3.385   2.569 -0.0607 -0.7249 -2.3374
 9409SOL    HW231248   5.209   3.503   2.498 -0.0280  0.8072  0.1936
 9410SOL     OW31249   3.760   3.774   3.257 -0.2320 -0.1330 -0.0169
 9410SOL    HW131250   3.776   3.705   3.321  0.7847  0.0382 -0.0847
 9410SOL    HW231251   3.758   3.855   3.309 -2.1237 -0.2720  0.1600
 9411SOL     OW31252   4.126   6.186   3.681 -0.2330 -0.6946  0.2509
 9411SOL    HW131253   4.116   6.236   3.762 -0.4691 -1.4492  0.6894
 9411SOL    HW231254   4.148   6.098   3.709 -0.9574 -1.1205 -0.4892
 9412SOL     OW31255   5.229   2.371   9.322  0.2689 -0.3646 -0.0724
 9412SOL    HW131256   5.212   2.394   9.413 -2.2970 -1.0145 -0.3714
 9412SOL    HW231257   5.262   2.281   9.325 -1.4863 -1.0024  0.0682
 9413SOL     OW31258   5.883   4.395   7.078  0.4588  0.0091 -0.0569
 9413SOL    HW131259   5.953   4.333   7.059  0.0648 -0.6691  0.6457
 9413SOL    HW231260   5.837   4.357   7.153  1.1815  1.9329  1.3951
 9414SOL     OW31261   7.022   6.916   4.905 -0.0176 -0.1345 -0.0089
 9414SOL    HW131262   7.020   6.825   4.935 -2.3168  0.3184  1.3273
 9414SOL    HW231263   7.064   6.964   4.977  1.7987 -0.2100 -0.9933
 9415SOL     OW31264   2.299   5.545   6.754 -0.3377 -0.1132  0.1982
 9415SOL    HW131265   2.288   5.473   6.816 -2.2503  0.1987  0.2571
 9415SOL    HW231266   2.246   5.521   6.679 -0.5085  0.9473 -0.0364
 9416SOL     OW31267   9.031   7.731   4.820  0.2970  0.5129  0.0919
 9416SOL    HW131268   9.054   7.709   4.910  0.2444 -0.0357 -0.0244
 9416SOL    HW231269   9.011   7.825   4.822 -1.5024  0.1356  1.0200
 9417SOL     OW31270   2.302   1.280   5.952  0.9290  0.7941 -0.2017
 9417SOL    HW131271   2.253   1.271   6.034  0.4901  0.4422 -0.5045
 9417SOL    HW231272   2.276   1.365   5.918  0.0465  0.3337 -0.6800
 9418SOL     OW31273   4.876   4.043   3.127 -0.0682 -0.2626 -0.0491
 9418SOL    HW131274   4.822   4.043   3.206  0.6037 -0.7284  0.4147
 9418SOL    HW231275   4.944   4.108   3.144 -0.6636  0.5522 -0.7613
 9419SOL     OW31276   1.113   7.842   8.196 -0.2417 -0.2574  0.1516
 9419SOL    HW131277   1.026   7.860   8.160  0.8758  1.8238 -1.6410
 9419SOL    HW231278   1.130   7.915   8.256  0.0085 -0.9998  0.9902
 9420SOL     OW31279   9.069   4.049   3.260 -0.9682 -0.3980 -0.0706
 9420SOL    HW131280   9.090   3.957   3.241 -1.3683 -0.3445 -0.8248
 9420SOL    HW231281   9.034   4.048   3.349  0.3871 -0.7648  0.4658
 9421SOL     OW31282   8.443   2.917   7.653 -0.6223  0.2279  0.0127
 9421SOL    HW131283   8.504   2.854   7.691 -0.5921  0.6453  0.6619
 9421SOL    HW231284   8.403   2.961   7.728 -1.9829 -0.2816 -0.3921
 9422SOL     OW31285   4.229   4.557   6.935 -0.1464 -0.2117 -0.2102
 9422SOL    HW131286   4.258   4.582   7.023  1.4423 -0.3831 -0.6674
 9422SOL    HW231287   4.159   4.493   6.950 -0.8698  0.8130  0.9274
 9423SOL     OW31288   8.765   9.033   4.450  0.1493 -0.1774 -0.3180
 9423SOL    HW131289   8.793   8.974   4.520  0.6584  1.4768  0.9019
 9423SOL    HW231290   8.686   8.993   4.415 -0.4251 -0.7518  1.5725
 9424SOL     OW31291   5.446   3.125   0.292 -0.3619  0.0534  0.0517
 9424SOL    HW131292   5.521   3.170   0.253  0.4186 -0.6547  0.7175
 9424SOL    HW231293   5.433   3.048   0.236 -1.2105  0.6812 -0.6315
 9425SOL     OW31294   5.015   8.672   5.962 -0.0517 -0.0736  0.2657
 9425SOL    HW131295   5.071   8.607   6.004 -0.5915 -1.7220 -1.4905
 9425SOL    HW231296   4.940   8.623   5.930 -1.2172  1.6679  0.2201
 9426SOL     OW31297   4.836   3.011   2.009 -0.1324  0.0798  0.6334
 9426SOL    HW131298   4.903   3.079   2.004  1.1449 -1.1548  0.7785
 9426SOL    HW231299   4.771   3.046   2.070  1.0783  0.6791  1.5892
 9427SOL     OW31300   0.042   3.739   2.252 -0.2352 -0.3454 -0.4901
 9427SOL    HW131301   0.064   3.650   2.281 -0.3116 -0.2735 -0.2131
 9427SOL    HW231302  -0.023   3.726   2.182 -0.3976 -0.5011 -0.3117
 9428SOL     OW31303   8.068   4.058   3.084  0.2043 -0.0732  0.0173
 9428SOL    HW131304   8.013   4.034   3.009 -0.5701 -1.3483  0.9609
 9428SOL    HW231305   8.006   4.091   3.150  0.9205  1.4389 -0.0482
 9429SOL     OW31306   3.929   4.359   5.498  0.0292  0.1636 -0.6002
 9429SOL    HW131307   3.967   4.331   5.581 -0.4814  1.4679  0.0803
 9429SOL    HW231308   4.004   4.388   5.446  0.3708 -0.8412 -0.6787
 9430SOL     OW31309   0.736   7.113   1.195 -0.5393  0.0792  0.5847
 9430SOL    HW131310   0.777   7.162   1.267  0.1912  1.0830 -0.4852
 9430SOL    HW231311   0.719   7.179   1.128 -0.0064 -1.0580 -0.6951
 9431SOL     OW31312   0.263   4.261   0.482 -0.0137 -0.2992 -0.3620
 9431SOL    HW131313   0.276   4.216   0.565 -0.5992 -0.9774 -0.6320
 9431SOL    HW231314   0.179   4.306   0.492 -1.4325 -2.5545 -1.5125
 9432SOL     OW31315   5.348   8.474   4.493 -0.3375  0.3956 -0.5507
 9432SOL    HW131316   5.434   8.432   4.497 -0.7102 -0.2529  1.1703
 9432SOL    HW231317   5.295   8.414   4.440  0.3099  0.9101 -1.8113
 9433SOL     OW31318   2.086   5.969   2.605  0.4844 -0.0736  0.8195
 9433SOL    HW131319   2.119   6.056   2.583 -2.7060  0.7639 -1.0732
 9433SOL    HW231320   2.006   5.986   2.656 -0.4063 -1.8739  0.0722
 9434SOL     OW31321   7.234   9.354   2.317  0.3731  0.0492 -0.1017
 9434SOL    HW131322   7.290   9.305   2.377  0.2906  0.8861  0.6618
 9434SOL    HW231323   7.288   9.368   2.239  0.6403 -0.6203 -0.0467
 9435SOL     OW31324   2.111   8.487   1.681 -0.5374 -0.1494 -1.1478
 9435SOL    HW131325   2.144   8.421   1.619  1.8993  1.0188 -1.1736
 9435SOL    HW231326   2.146   8.570   1.648 -0.4149  0.6684  0.9717
 9436SOL     OW31327   3.098   7.218   5.186 -0.0195  0.2460 -0.6480
 9436SOL    HW131328   3.169   7.187   5.243 -0.0052 -1.1036 -1.3751
 9436SOL    HW231329   3.063   7.295   5.232  2.7892  1.8001 -0.9237
 9437SOL     OW31330   1.254   1.019   5.075  0.0392 -0.1293 -0.6146
 9437SOL    HW131331   1.209   0.948   5.029  1.6318 -2.1604  0.8872
 9437SOL    HW231332   1.205   1.029   5.157  1.0075 -0.8578  0.0580
 9438SOL     OW31333   4.438   2.721   4.674 -0.4144 -0.4577  0.2903
 9438SOL    HW131334   4.415   2.692   4.763  2.0013 -0.6271  0.8839
 9438SOL    HW231335   4.436   2.816   4.679  0.5251 -0.4586  0.7512
 9439SOL     OW31336   2.255   3.035   6.723 -0.5502 -0.4562  0.3081
 9439SOL    HW131337   2.239   3.093   6.649  0.2120 -1.6244 -0.7970
 9439SOL    HW231338   2.338   2.992   6.703 -0.5954 -1.1855  1.5870
 9440SOL     OW31339   4.995   6.210   2.831  0.0625  0.7344  0.4716
 9440SOL    HW131340   4.975   6.117   2.826  0.5905  0.7370 -2.4598
 9440SOL    HW231341   4.913   6.252   2.857 -0.0352 -0.5740  2.3429
 9441SOL     OW31342   2.722   2.948   4.227  0.5569 -0.3000 -0.0857
 9441SOL    HW131343   2.770   3.006   4.287 -0.6038 -1.9190  2.5207
 9441SOL    HW231344   2.641   2.995   4.207  0.4104 -0.2565  0.5992
 9442SOL     OW31345   3.645   0.503   8.629 -0.1304  0.3535  0.0440
 9442SOL    HW131346   3.669   0.475   8.717  0.4789 -0.8791 -0.5071
 9442SOL    HW231347   3.708   0.572   8.608  0.3863 -0.0739  0.1806
 9443SOL     OW31348   5.218   8.787   5.153  0.1401  0.0384 -0.2374
 9443SOL    HW131349   5.306   8.753   5.135 -0.2484 -0.0826 -1.9237
 9443SOL    HW231350   5.229   8.882   5.152  0.1143  0.0286 -1.0912
 9444SOL     OW31351   0.677   5.419   5.285  0.2390 -0.5076 -0.2897
 9444SOL    HW131352   0.609   5.353   5.274  0.4189 -0.4918 -1.6884
 9444SOL    HW231353   0.757   5.369   5.306  0.0201 -0.6028  0.3220
 9445SOL     OW31354   5.627   0.475   3.353 -0.3403  0.1764  0.4026
 9445SOL    HW131355   5.560   0.542   3.338 -0.2775  0.7119  2.3892
 9445SOL    HW231356   5.707   0.513   3.316 -0.8115  0.1599 -0.6545
 9446SOL     OW31357   5.213   6.129   3.060  0.1228  0.2709 -0.8285
 9446SOL    HW131358   5.227   6.200   3.122  1.4714  0.1838 -1.0184
 9446SOL    HW231359   5.119   6.112   3.064  0.1821  0.2537  1.2153
 9447SOL     OW31360   7.019   2.173   0.796 -0.4291  0.1680 -0.0761
 9447SOL    HW131361   7.002   2.224   0.875  0.3453 -0.9132  0.7942
 9447SOL    HW231362   7.108   2.139   0.808  0.5674  1.8237 -2.4023
 9448SOL     OW31363   1.042   1.844   1.357 -0.2225 -0.3231  0.1282
 9448SOL    HW131364   0.986   1.779   1.315  0.5277 -1.4159  0.8013
 9448SOL    HW231365   1.131   1.815   1.338  0.1180  0.3541  0.6693
 9449SOL     OW31366   0.281   4.869   5.396  0.2671 -0.3291 -0.3119
 9449SOL    HW131367   0.372   4.846   5.416  0.0404  1.1607  2.8119
 9449SOL    HW231368   0.283   4.965   5.386 -0.7381 -0.4351 -1.5995
 9450SOL     OW31369   7.322   6.037   7.517 -0.6907 -0.1010  0.1368
 9450SOL    HW131370   7.230   6.034   7.491 -0.9616 -1.4284  1.1685
 9450SOL    HW231371   7.323   6.000   7.606  0.7302  0.6267  0.4430
 9451SOL     OW31372   7.414   7.820   3.292 -0.1747  0.3093  0.3623
 9451SOL    HW131373   7.428   7.904   3.336  2.1881 -0.7197  1.6882
 9451SOL    HW231374   7.500   7.777   3.296 -1.9121 -3.1554  1.8004
 9452SOL     OW31375   4.346   3.279   7.585 -0.1421 -0.2439  0.5932
 9452SOL    HW131376   4.438   3.303   7.585 -0.1702 -0.1033  2.2288
 9452SOL    HW231377   4.345   3.188   7.556  0.4355 -0.0282 -0.1288
 9453SOL     OW31378   3.123   7.828   6.959 -0.7310 -0.4773 -0.1517
 9453SOL    HW131379   3.048   7.868   7.003  1.7725  4.7429 -0.1948
 9453SOL    HW231380   3.099   7.825   6.867  0.0488  3.9424 -0.6073
 9454SOL     OW31381   3.409   0.165   0.736  0.0352  0.1477 -0.1424
 9454SOL    HW131382   3.354   0.088   0.752 -1.0288  0.7218 -0.9701
 9454SOL    HW231383   3.414   0.209   0.821 -0.4122 -0.1536  0.0446
 9455SOL     OW31384   7.192   1.474   0.185  0.0247 -0.2300  0.0851
 9455SOL    HW131385   7.218   1.435   0.101  0.5198 -0.5911  0.4095
 9455SOL    HW231386   7.216   1.566   0.176 -1.0339 -0.0057 -0.6326
 9456SOL     OW31387   3.786   1.709   0.601 -0.1065 -0.6125 -0.0230
 9456SOL    HW131388   3.718   1.645   0.624 -0.2316  0.0115  1.4078
 9456SOL    HW231389   3.737   1.786   0.572  0.0343 -0.8929 -1.0330
 9457SOL     OW31390   9.175   4.359   5.915 -0.3136  0.4793 -0.1597
 9457SOL    HW131391   9.230   4.431   5.947 -2.8866  2.4585  0.0355
 9457SOL    HW231392   9.102   4.357   5.976 -1.0175 -1.3433 -1.0524
 9458SOL     OW31393   1.837   3.314   9.155 -0.4841 -0.3150 -0.5811
 9458SOL    HW131394   1.768   3.253   9.179 -1.6785  1.5772  0.9466
 9458SOL    HW231395   1.904   3.303   9.222 -0.7353  0.1142 -0.2607
 9459SOL     OW31396   2.871   8.559   1.192  0.4021  0.3627 -0.0615
 9459SOL    HW131397   2.880   8.534   1.284 -0.4785  1.9062  0.4687
 9459SOL    HW231398   2.960   8.552   1.156  0.3623 -2.4390  0.3027
 9460SOL     OW31399   9.437   7.344   4.161 -0.6620 -0.1512 -0.1761
 9460SOL    HW131400   9.413   7.278   4.226 -1.6696  0.9979  0.6439
 9460SOL    HW231401   9.494   7.404   4.209  1.9782 -1.5325 -1.4712
 9461SOL     OW31402   0.238   5.596   6.460  0.3351  1.0626  0.0812
 9461SOL    HW131403   0.179   5.562   6.393 -0.6962  1.2232  0.9138
 9461SOL    HW231404   0.270   5.679   6.424  0.4921  0.7131 -0.6046
 9462SOL     OW31405   8.941   6.828   5.664 -0.3889  0.2419 -0.1949
 9462SOL    HW131406   8.958   6.919   5.639 -0.2301  0.1067 -0.5909
 9462SOL    HW231407   8.895   6.791   5.589  0.2255 -0.2156 -0.3534
 9463SOL     OW31408   7.279   8.518   2.175  0.6658  0.3267  0.2722
 9463SOL    HW131409   7.251   8.582   2.109  1.1921  0.7753  0.4773
 9463SOL    HW231410   7.330   8.569   2.237 -0.4191  0.0434  1.4201
 9464SOL     OW31411   7.917   1.257   0.725 -0.2005  0.7063 -0.0000
 9464SOL    HW131412   7.988   1.321   0.721 -0.5085  0.9870 -1.3870
 9464SOL    HW231413   7.861   1.288   0.796  0.1368  1.4581 -0.0519
 9465SOL     OW31414   8.434   6.499   7.966  0.1320 -0.0837 -0.0260
 9465SOL    HW131415   8.480   6.500   8.050 -1.1330  2.8620  0.6955
 9465SOL    HW231416   8.433   6.407   7.940 -1.5122 -1.4450  4.3951
 9466SOL     OW31417   6.555   2.995   5.111 -0.2694  0.0118 -0.3537
 9466SOL    HW131418   6.551   2.899   5.114 -0.4728 -0.0295 -1.5537
 9466SOL    HW231419   6.547   3.016   5.018 -0.4962  1.2121 -0.0688
 9467SOL     OW31420   5.718   4.226   2.263 -0.3214 -0.0100  0.0307
 9467SOL    HW131421   5.695   4.302   2.316 -2.0551 -1.0664  0.8680
 9467SOL    HW231422   5.800   4.194   2.301  0.3994  1.4021 -0.3099
 9468SOL     OW31423   5.962   1.588   1.336 -0.1999 -0.5646  0.2047
 9468SOL    HW131424   5.944   1.494   1.332  2.8566 -1.3011  1.5838
 9468SOL    HW231425   5.959   1.609   1.429 -0.9295  0.7115 -0.1060
 9469SOL     OW31426   0.283   8.755   2.733  0.0138  0.7681  0.1246
 9469SOL    HW131427   0.190   8.748   2.755 -0.7281 -0.5620 -3.2380
 9469SOL    HW231428   0.327   8.720   2.811 -2.3344 -0.0159  1.1744
 9470SOL     OW31429   8.551   2.554   7.191  0.5077  0.0368 -0.6154
 9470SOL    HW131430   8.460   2.556   7.220  0.8471  1.0706  0.4305
 9470SOL    HW231431   8.560   2.633   7.138  0.7438 -0.1731 -0.8851
 9471SOL     OW31432   1.251   1.224   1.671  0.2666 -0.3791 -0.3305
 9471SOL    HW131433   1.234   1.250   1.581  0.3979 -0.7414 -0.4595
 9471SOL    HW231434   1.174   1.254   1.720 -0.4308 -1.3815 -0.7915
 9472SOL     OW31435   0.076   2.614   0.285  0.0448  0.3084  0.0011
 9472SOL    HW131436  -0.015   2.585   0.275  0.2380 -0.0228 -0.8607
 9472SOL    HW231437   0.089   2.675   0.213  0.9460 -0.7720 -0.7762
 9473SOL     OW31438   7.645   0.589   0.502  0.0403 -0.6298 -1.0364
 9473SOL    HW131439   7.664   0.611   0.411 -0.8097  1.0632 -0.8244
 9473SOL    HW231440   7.552   0.608   0.512  0.4897  0.8439  0.6284
 9474SOL     OW31441   4.713   1.221   2.708  0.1738 -0.6206 -0.9502
 9474SOL    HW131442   4.717   1.284   2.780 -0.1582 -1.4026 -0.2535
 9474SOL    HW231443   4.805   1.196   2.693  0.1693 -1.0269 -0.3014
 9475SOL     OW31444   2.252   7.200   6.152 -0.0777  0.4389  0.8768
 9475SOL    HW131445   2.177   7.258   6.138 -0.2063  0.5731  2.0928
 9475SOL    HW231446   2.239   7.128   6.090 -0.0920  1.5311 -0.4116
 9476SOL     OW31447   5.048   1.570   2.918  0.2619 -0.1198 -0.0668
 9476SOL    HW131448   5.114   1.612   2.974 -1.8364  0.2714  2.1908
 9476SOL    HW231449   4.996   1.517   2.979 -1.4805 -0.4490 -1.8141
 9477SOL     OW31450   5.998   8.808   0.026  0.1582  0.0369  0.2756
 9477SOL    HW131451   5.909   8.816  -0.010 -0.1713 -1.6950  0.6892
 9477SOL    HW231452   6.033   8.729  -0.015  0.9770 -0.1019  1.2422
 9478SOL     OW31453   8.759   7.925   7.550  0.7385  0.4155  0.2907
 9478SOL    HW131454   8.847   7.905   7.520 -0.1450 -1.7227 -0.9417
 9478SOL    HW231455   8.733   7.850   7.603  0.1370  1.6226  1.7494
 9479SOL     OW31456   3.595   0.607   0.745  0.9473  0.0144 -0.2968
 9479SOL    HW131457   3.521   0.582   0.690 -0.2567  1.9035  0.3904
 9479SOL    HW231458   3.666   0.549   0.719 -0.5559 -1.2941 -1.5329
 9480SOL     OW31459   4.207   2.332   6.341  0.4282  0.2152 -0.0431
 9480SOL    HW131460   4.234   2.297   6.426  0.2273 -1.3082 -0.5968
 9480SOL    HW231461   4.117   2.362   6.355  1.0313  1.7248  0.7709
 9481SOL     OW31462   1.304   5.291   6.387 -0.3935 -0.3212  0.2990
 9481SOL    HW131463   1.337   5.215   6.337 -1.4171 -1.0060  0.6584
 9481SOL    HW231464   1.212   5.270   6.405 -1.1761  1.7895 -1.0957
 9482SOL     OW31465   5.788   1.190   5.437  0.1578 -0.4441 -0.1205
 9482SOL    HW131466   5.865   1.160   5.486 -0.9330 -2.3450  0.4964
 9482SOL    HW231467   5.751   1.259   5.492 -0.5988 -2.0086  1.4155
 9483SOL     OW31468   7.596   3.438   7.821  0.7057  0.2484  0.2320
 9483SOL    HW131469   7.527   3.382   7.786 -0.9870  1.2220  1.9475
 9483SOL    HW231470   7.634   3.480   7.744 -0.4854 -0.4566 -0.7489
 9484SOL     OW31471   3.337   6.357   5.249 -0.3659 -0.3292 -0.4281
 9484SOL    HW131472   3.375   6.368   5.336 -0.2155  1.4393 -0.7019
 9484SOL    HW231473   3.409   6.321   5.196 -0.0574 -0.1354 -0.1432
 9485SOL     OW31474   5.397   1.921   4.449  0.0819  0.2122  0.3637
 9485SOL    HW131475   5.399   1.884   4.537  0.8036 -0.6918 -0.0157
 9485SOL    HW231476   5.479   1.970   4.441 -1.5329  3.1472  1.3680
 9486SOL     OW31477   3.362   0.671   7.102 -0.6091  0.0316 -0.2244
 9486SOL    HW131478   3.309   0.735   7.149 -0.9599 -0.8510  0.6018
 9486SOL    HW231479   3.353   0.590   7.152  1.8585 -0.0456  0.1767
 9487SOL     OW31480   5.976   5.254   4.759 -0.3112  0.4311  0.1610
 9487SOL    HW131481   6.022   5.189   4.707 -1.0226 -1.4681  1.8614
 9487SOL    HW231482   6.021   5.253   4.844 -1.0918  1.3006  0.5990
 9488SOL     OW31483   3.113   5.853   9.253  0.4484 -0.3902 -0.2623
 9488SOL    HW131484   3.076   5.908   9.185 -0.2751 -0.1996  0.2714
 9488SOL    HW231485   3.195   5.821   9.217  0.8164  0.9453 -0.6150
 9489SOL     OW31486   2.163   5.529   1.682  0.3777  0.0698  0.1448
 9489SOL    HW131487   2.072   5.515   1.709  0.0998  1.3352 -0.1222
 9489SOL    HW231488   2.187   5.448   1.636  0.1433 -1.2046  2.1945
 9490SOL     OW31489   6.385   4.634   0.685 -0.1696  0.3779 -0.5824
 9490SOL    HW131490   6.404   4.540   0.692  0.4475  0.5028 -0.5945
 9490SOL    HW231491   6.392   4.653   0.591  1.3635  0.7869 -0.3906
 9491SOL     OW31492   2.341   4.172   5.515 -0.7649  0.3279 -0.0110
 9491SOL    HW131493   2.365   4.091   5.469 -0.0818  0.9056 -0.6789
 9491SOL    HW231494   2.257   4.197   5.478 -1.1878 -0.3126  0.5074
 9492SOL     OW31495   2.678   4.087   7.108 -0.1438 -0.1874  0.3232
 9492SOL    HW131496   2.749   4.079   7.044 -2.6053  0.4649 -2.6294
 9492SOL    HW231497   2.636   4.169   7.086 -0.6327  0.4057  3.3295
 9493SOL     OW31498   1.722   5.264   8.933 -0.2740  0.0076  0.4200
 9493SOL    HW131499   1.783   5.338   8.935 -0.0478 -0.1869  0.8142
 9493SOL    HW231500   1.654   5.290   8.872 -0.8188  1.0380  1.4411
 9494SOL     OW31501   6.325   6.663   5.949 -0.6475 -0.4400 -0.4268
 9494SOL    HW131502   6.291   6.585   5.993 -0.8694  0.3048  0.7309
 9494SOL    HW231503   6.417   6.668   5.976 -0.4669 -0.6421 -0.9920
 9495SOL     OW31504   2.965   1.333   5.036 -0.7773 -0.3596  0.3293
 9495SOL    HW131505   2.994   1.368   4.952 -3.5353  0.1086 -0.4650
 9495SOL    HW231506   3.037   1.352   5.096  1.1197 -0.4711 -1.8440
 9496SOL     OW31507   8.320   0.881   1.551 -0.4967  0.0696  0.0921
 9496SOL    HW131508   8.281   0.885   1.638 -3.2183 -0.7254 -1.0426
 9496SOL    HW231509   8.296   0.964   1.510 -0.0704  0.0327 -0.2379
 9497SOL     OW31510   9.069   9.292   4.819 -0.1342  0.2577  0.0151
 9497SOL    HW131511   9.070   9.371   4.873  2.2244  0.7991 -0.7536
 9497SOL    HW231512   9.099   9.222   4.878  1.4889  0.6665 -0.3056
 9498SOL     OW31513   4.563   7.090   1.927 -0.1519  0.1173 -0.1517
 9498SOL    HW131514   4.535   7.059   2.013 -1.7130 -1.2544 -1.1424
 9498SOL    HW231515   4.571   7.185   1.937 -1.7252  0.1317  1.1160
 9499SOL     OW31516   9.173   6.466   5.474  0.4231 -0.4909  0.1302
 9499SOL    HW131517   9.096   6.521   5.459 -0.1340 -1.6373 -1.3559
 9499SOL    HW231518   9.248   6.525   5.463 -0.1457 -0.1304 -2.0424
 9500SOL     OW31519   3.469   0.995   6.641 -0.0896 -0.8015  0.0395
 9500SOL    HW131520   3.412   0.965   6.712 -0.7467  0.3230  0.0002
 9500SOL    HW231521   3.411   1.003   6.565  0.0551  0.5466  0.0520
 9501SOL     OW31522   6.107   4.680   7.397 -0.1629  0.5511 -0.0929
 9501SOL    HW131523   6.079   4.589   7.386 -3.6439  1.5303  0.0580
 9501SOL    HW231524   6.092   4.699   7.490  0.7644  1.2188 -0.0704
 9502SOL     OW31525   2.262   2.002   6.665 -0.2333  0.2865  0.4089
 9502SOL    HW131526   2.245   1.908   6.668  1.2171 -0.0335 -0.8303
 9502SOL    HW231527   2.311   2.021   6.745  1.5519 -0.4615 -0.4861
 9503SOL     OW31528   7.732   2.471   6.546 -0.7457  0.0267  0.1644
 9503SOL    HW131529   7.666   2.482   6.476 -0.8326 -0.4185  0.1757
 9503SOL    HW231530   7.683   2.486   6.627 -0.6810  0.3868  0.1356
 9504SOL     OW31531   3.870   5.128   9.176 -0.3056 -0.2237  0.0662
 9504SOL    HW131532   3.824   5.127   9.260  0.3782 -0.1985  0.4450
 9504SOL    HW231533   3.920   5.209   9.177  1.0540 -1.0381  0.3900
 9505SOL     OW31534   4.810   1.617   1.059 -0.2236  0.3956  0.4218
 9505SOL    HW131535   4.797   1.625   1.153  0.7453  0.4857  0.5508
 9505SOL    HW231536   4.774   1.531   1.037 -1.1745  0.7052  0.7395
 9506SOL     OW31537   9.393   8.011   4.781  0.3248 -0.1354  1.1144
 9506SOL    HW131538   9.355   7.940   4.833 -0.4863 -0.0730  0.6014
 9506SOL    HW231539   9.404   7.974   4.694  2.0169 -0.3496  1.3900
 9507SOL     OW31540   8.176   8.250   3.245 -0.0538 -0.2569  0.3383
 9507SOL    HW131541   8.136   8.165   3.264  0.8140 -0.9327 -0.7496
 9507SOL    HW231542   8.176   8.297   3.328 -2.2627 -0.5833  0.5641
 9508SOL     OW31543   4.427   3.916   8.411  0.3368 -0.6457 -0.1387
 9508SOL    HW131544   4.480   3.844   8.377  0.0341 -0.9050 -0.0650
 9508SOL    HW231545   4.360   3.874   8.464  0.9284 -0.2331  0.9586
 9509SOL     OW31546   6.972   4.532   6.940  0.0717 -0.5194  0.1891
 9509SOL    HW131547   7.063   4.543   6.965  0.3766 -2.8800  0.1780
 9509SOL    HW231548   6.955   4.438   6.949 -2.4159 -0.0909  0.4076
 9510SOL     OW31549   1.469   6.915   1.131 -0.3752 -0.5017  0.2728
 9510SOL    HW131550   1.499   6.898   1.220 -2.4552  2.0355  1.5181
 9510SOL    HW231551   1.447   7.008   1.130  1.8798  0.1103 -3.6003
 9511SOL     OW31552   4.182   2.743   3.063  0.1134 -0.3149  0.4304
 9511SOL    HW131553   4.108   2.738   3.124  0.0557 -2.3240  0.2432
 9511SOL    HW231554   4.145   2.715   2.979  0.7540  0.0429  0.0273
 9512SOL     OW31555   2.928   4.608   2.539 -0.3673  0.4244 -0.3353
 9512SOL    HW131556   2.889   4.675   2.484 -1.0420  0.7368  0.5057
 9512SOL    HW231557   2.990   4.655   2.595  0.6776  0.0400 -1.1573
 9513SOL     OW31558   8.015   6.342   5.912 -0.5158 -0.3486 -0.3018
 9513SOL    HW131559   8.024   6.336   6.007 -1.1625  3.8594  0.1243
 9513SOL    HW231560   8.105   6.334   5.879  0.1692  1.6881  0.9720
 9514SOL     OW31561   2.468   4.082   8.927  0.3446  0.3324  0.6235
 9514SOL    HW131562   2.507   4.169   8.937  0.4511  0.2383  1.0088
 9514SOL    HW231563   2.527   4.036   8.867  1.8977 -0.4674  2.7121
 9515SOL     OW31564   3.007   6.617   0.118 -0.0547  0.0635 -0.7792
 9515SOL    HW131565   2.965   6.547   0.168 -0.2729  0.8562  0.1726
 9515SOL    HW231566   2.957   6.695   0.139  0.4337  0.5815 -1.5169
 9516SOL     OW31567   3.349   4.370   7.049 -0.3921 -0.0970  0.2127
 9516SOL    HW131568   3.357   4.415   6.965 -0.5465 -0.0144  0.2414
 9516SOL    HW231569   3.284   4.421   7.097 -0.4495 -0.2558  0.3069
 9517SOL     OW31570   8.388   7.043   5.686  0.1477 -0.7003 -0.6613
 9517SOL    HW131571   8.346   6.957   5.677  0.4062 -0.8644 -0.3234
 9517SOL    HW231572   8.315   7.104   5.689 -0.0872 -1.0130  0.2063
 9518SOL     OW31573   1.861   0.346   7.674  0.5525  0.3755 -0.6656
 9518SOL    HW131574   1.900   0.386   7.752 -0.7394  1.0806 -0.3628
 9518SOL    HW231575   1.869   0.413   7.606 -1.2231  1.0190 -0.2728
 9519SOL     OW31576   6.876   6.067   6.167 -0.1796 -0.3799  0.4934
 9519SOL    HW131577   6.931   6.130   6.212  2.0479 -0.2131 -2.3848
 9519SOL    HW231578   6.935   6.019   6.109 -2.6162 -1.9116 -0.8424
 9520SOL     OW31579   2.686   4.119   0.609  0.0539  0.0414  0.0867
 9520SOL    HW131580   2.747   4.056   0.570  0.8721 -0.3115  1.8805
 9520SOL    HW231581   2.668   4.181   0.538  1.0333 -0.9045 -1.0278
 9521SOL     OW31582   5.171   5.000   7.550  0.4209  0.0043  0.0219
 9521SOL    HW131583   5.164   4.931   7.615  0.0157 -1.3979 -1.4643
 9521SOL    HW231584   5.159   5.082   7.599  0.4922 -0.9899  1.7302
 9522SOL     OW31585   3.306   8.034   4.735 -0.0300 -0.1631  0.1771
 9522SOL    HW131586   3.220   8.072   4.715  0.4718  1.0086  0.2272
 9522SOL    HW231587   3.291   7.982   4.815 -0.9759 -1.0389 -0.5457
 9523SOL     OW31588   7.884   2.981   0.339 -0.0948 -0.1302  0.2694
 9523SOL    HW131589   7.795   2.963   0.369 -0.3175  2.8979  1.6128
 9523SOL    HW231590   7.939   2.962   0.415  0.1740  0.0117  0.1132
 9524SOL     OW31591   6.888   6.553   0.339 -0.1863 -0.0265 -0.3801
 9524SOL    HW131592   6.848   6.537   0.254 -2.4299 -0.8833  0.8020
 9524SOL    HW231593   6.830   6.616   0.381 -0.0026 -0.8728  1.1641
 9525SOL     OW31594   1.262   9.029   4.076 -0.1517  0.9005  0.5273
 9525SOL    HW131595   1.333   8.987   4.125  0.5649  3.8044  2.0674
 9525SOL    HW231596   1.183   9.009   4.127  0.0999  0.8428  0.9004
 9526SOL     OW31597   0.009   1.258   5.462  1.0050 -0.2205  0.1675
 9526SOL    HW131598  -0.022   1.302   5.541  1.7549  0.2093  0.2287
 9526SOL    HW231599  -0.070   1.242   5.410  0.5184 -0.4476  0.9728
 9527SOL     OW31600   5.312   5.111   2.551 -0.3744 -0.0175  0.9258
 9527SOL    HW131601   5.367   5.104   2.629  0.1044  0.5861  0.6430
 9527SOL    HW231602   5.333   5.034   2.499 -1.1724 -0.7631  1.6987
 9528SOL     OW31603   6.699   0.295   0.634  0.1366  0.2529  0.0604
 9528SOL    HW131604   6.680   0.386   0.612 -0.4662  0.3514  0.9346
 9528SOL    HW231605   6.790   0.282   0.608 -0.0933  0.7912 -1.0460
 9529SOL     OW31606   0.550   0.403   9.209  0.1285 -0.2040 -0.4884
 9529SOL    HW131607   0.478   0.341   9.203  0.4908 -0.5833 -0.9156
 9529SOL    HW231608   0.629   0.352   9.191  0.5196  0.1927  0.0385
 9530SOL     OW31609   4.055   1.206   1.987 -0.0260 -0.0161 -0.1927
 9530SOL    HW131610   4.087   1.252   1.909 -1.0805  2.9791  1.0692
 9530SOL    HW231611   4.130   1.156   2.018  1.2241  0.9848 -1.5173
 9531SOL     OW31612   3.682   2.137   2.827  0.1743  0.4024 -0.4397
 9531SOL    HW131613   3.670   2.057   2.879 -1.6326  1.0724  0.2132
 9531SOL    HW231614   3.644   2.116   2.742  1.8522 -0.2149 -1.0588
 9532SOL     OW31615   0.850   7.635   4.648 -0.2586 -0.2861 -0.6651
 9532SOL    HW131616   0.946   7.636   4.643 -0.3160 -0.0666 -1.8777
 9532SOL    HW231617   0.830   7.549   4.686  0.4114 -0.4262 -0.6089
 9533SOL     OW31618   7.589   1.258   1.126 -0.7399  0.4269 -0.0064
 9533SOL    HW131619   7.658   1.233   1.188 -0.6412 -0.5144 -0.4865
 9533SOL    HW231620   7.551   1.337   1.164 -1.3300 -0.6829  1.7784
 9534SOL     OW31621   1.805   2.846   7.923 -0.4444 -0.4159 -0.0108
 9534SOL    HW131622   1.897   2.852   7.898 -0.0557 -1.7212  1.0531
 9534SOL    HW231623   1.770   2.774   7.871 -1.1048  0.6627 -1.0828
 9535SOL     OW31624   3.656   2.364   8.749  0.3957 -0.0078  0.2814
 9535SOL    HW131625   3.564   2.339   8.737  0.8109 -1.2209 -0.4831
 9535SOL    HW231626   3.670   2.359   8.843  0.3231 -2.2197  0.2043
 9536SOL     OW31627   4.198   9.436   2.356  0.6172 -0.4798 -0.0826
 9536SOL    HW131628   4.183   9.499   2.286 -4.4275 -3.0382 -1.5709
 9536SOL    HW231629   4.262   9.375   2.321  0.7162  0.2257 -1.1289
 9537SOL     OW31630   7.900   5.476   0.993 -0.0268 -0.0367  0.0060
 9537SOL    HW131631   7.898   5.563   0.954 -0.3111  0.0204  0.1476
 9537SOL    HW231632   7.937   5.420   0.925 -1.0286 -0.0365 -0.5471
 9538SOL     OW31633   5.925   3.981   4.849  0.0141 -0.0225  0.0548
 9538SOL    HW131634   5.865   4.001   4.920  1.6428  1.0467  1.1794
 9538SOL    HW231635   5.991   3.924   4.888  0.0666 -0.6948 -0.9975
 9539SOL     OW31636   4.920   8.072   6.595 -0.1263 -0.3632 -0.3776
 9539SOL    HW131637   4.916   8.165   6.618  1.1787 -0.1687 -0.8680
 9539SOL    HW231638   4.880   8.027   6.669 -1.3692  0.6246 -0.4275
 9540SOL     OW31639   8.784   7.821   9.194  0.3195 -0.2021 -0.1596
 9540SOL    HW131640   8.776   7.859   9.282  1.3122 -1.0912  0.3487
 9540SOL    HW231641   8.711   7.759   9.188 -0.7424  1.0864 -0.6268
 9541SOL     OW31642   1.440   3.294   6.021 -0.2300 -0.1664  0.4686
 9541SOL    HW131643   1.410   3.243   5.946 -0.4811  1.6294 -0.6573
 9541SOL    HW231644   1.361   3.312   6.072 -0.4397  0.7943 -0.1858
 9542SOL     OW31645   7.509   7.825   0.377 -0.1163 -0.6503 -0.1675
 9542SOL    HW131646   7.511   7.757   0.444 -2.1523 -0.3299  0.2741
 9542SOL    HW231647   7.553   7.786   0.302  0.1158 -1.8895  0.5917
 9543SOL     OW31648   3.329   4.743   3.746  0.5003  0.0467 -0.5497
 9543SOL    HW131649   3.367   4.773   3.664 -0.5875  1.4367 -0.5717
 9543SOL    HW231650   3.259   4.683   3.720  0.8534 -0.3415 -0.6016
 9544SOL     OW31651   6.737   2.935   8.319 -0.1472  0.2021  0.3491
 9544SOL    HW131652   6.648   2.901   8.332 -0.2723  0.3462 -0.1272
 9544SOL    HW231653   6.726   3.030   8.319  0.1265  0.2390  1.1169
 9545SOL     OW31654   1.805   8.213   8.504  0.2192 -0.5167  0.3220
 9545SOL    HW131655   1.726   8.262   8.483  0.0302  0.3755  2.9069
 9545SOL    HW231656   1.774   8.131   8.544  0.5675 -0.0099  1.6747
 9546SOL     OW31657   3.693   2.352   8.475 -0.4010 -0.1620 -1.2223
 9546SOL    HW131658   3.685   2.355   8.571  0.0691  0.4851 -1.1906
 9546SOL    HW231659   3.617   2.400   8.443 -1.1517 -1.3447 -1.2091
 9547SOL     OW31660   7.284   1.788   8.161 -0.1683  0.6208  0.7732
 9547SOL    HW131661   7.200   1.773   8.117  0.4386  0.7038 -0.4498
 9547SOL    HW231662   7.310   1.701   8.193  1.3580 -0.2883 -2.6952
 9548SOL     OW31663   6.046   2.021   6.746 -0.0557 -0.3361 -0.2061
 9548SOL    HW131664   6.011   1.949   6.694  0.4461 -0.4513 -0.3858
 9548SOL    HW231665   6.135   2.035   6.712 -0.8984  1.7914 -1.6441
 9549SOL     OW31666   3.971   2.942   5.921  0.2182 -0.2846 -0.3646
 9549SOL    HW131667   4.033   2.886   5.968  2.4235  2.0706 -0.4105
 9549SOL    HW231668   3.917   2.880   5.871  1.2538 -2.4860  1.1341
 9550SOL     OW31669   7.964   8.787   3.425  0.2333 -0.7295 -0.1439
 9550SOL    HW131670   8.016   8.866   3.436  1.3145 -0.9845 -3.0639
 9550SOL    HW231671   7.940   8.761   3.514  3.3138  0.5700  1.1036
 9551SOL     OW31672   6.418   1.503   3.925  0.0330 -0.4382  0.1593
 9551SOL    HW131673   6.480   1.539   3.988  0.1479 -2.6538  1.3582
 9551SOL    HW231674   6.464   1.429   3.885 -1.0422 -0.7727 -0.4979
 9552SOL     OW31675   5.555   0.477   3.824 -0.2639 -0.3761  0.1354
 9552SOL    HW131676   5.524   0.533   3.894 -2.8483 -0.3722 -0.9360
 9552SOL    HW231677   5.491   0.405   3.821 -0.1929 -0.3937 -2.1224
 9553SOL     OW31678   4.172   1.736   0.081 -0.5210 -0.4298 -0.1441
 9553SOL    HW131679   4.265   1.723   0.063  0.0241  1.9502  0.8609
 9553SOL    HW231680   4.152   1.671   0.148  0.8292  0.1313  0.8312
 9554SOL     OW31681   5.851   8.439   4.556  0.3134 -0.4637 -0.2565
 9554SOL    HW131682   5.876   8.455   4.647 -2.7529 -1.3820  0.8103
 9554SOL    HW231683   5.914   8.374   4.526  1.2192 -0.3363  1.2765
 9555SOL     OW31684   4.208   8.831   3.531 -1.0234 -0.1878 -0.0236
 9555SOL    HW131685   4.122   8.847   3.571 -0.1520  1.8333  1.1419
 9555SOL    HW231686   4.234   8.916   3.497  0.1830 -0.9636 -1.0609
 9556SOL     OW31687   9.395   6.566   2.125  0.3815  0.3993 -0.2137
 9556SOL    HW131688   9.451   6.643   2.112  0.5752  0.4789  1.0788
 9556SOL    HW231689   9.321   6.598   2.176  0.5841 -0.3226  0.5470
 9557SOL     OW31690   2.712   8.978   1.815 -0.1890  0.2271  0.6304
 9557SOL    HW131691   2.712   8.945   1.905  0.7641 -0.0750  0.5281
 9557SOL    HW231692   2.761   9.060   1.819 -1.2218  0.8602  0.6026
 9558SOL     OW31693   9.309   7.156   8.510 -0.3398  0.4548 -0.3567
 9558SOL    HW131694   9.372   7.166   8.582 -1.4340 -0.2633  0.7123
 9558SOL    HW231695   9.303   7.243   8.471  0.2117  0.8703  0.4656
 9559SOL     OW31696   0.945   8.154   5.818 -0.7015  0.0363  0.2630
 9559SOL    HW131697   0.939   8.138   5.912  0.1156 -1.2448  0.1064
 9559SOL    HW231698   1.016   8.217   5.809  2.3559 -3.3064  0.1701
 9560SOL     OW31699   1.730   5.741   8.651  0.6866 -0.0789  0.2107
 9560SOL    HW131700   1.657   5.706   8.702 -1.4646  2.6320 -0.8701
 9560SOL    HW231701   1.703   5.730   8.560  2.6093 -1.0300 -0.2671
 9561SOL     OW31702   6.465   8.817   7.836 -0.1982  0.0138  0.3600
 9561SOL    HW131703   6.502   8.846   7.918  0.8952 -0.6307  0.1013
 9561SOL    HW231704   6.533   8.834   7.771 -1.0168  0.4372 -0.4031
 9562SOL     OW31705   4.960   5.256   5.628  0.0215 -0.0438  0.0382
 9562SOL    HW131706   4.883   5.254   5.570 -0.2927  1.6440  0.3553
 9562SOL    HW231707   5.018   5.321   5.588  1.0100 -0.8368  0.1570
 9563SOL     OW31708   7.792   3.708   5.959 -0.1663  0.1591  0.5088
 9563SOL    HW131709   7.699   3.724   5.976 -0.1653 -0.4933  1.1977
 9563SOL    HW231710   7.794   3.669   5.872 -0.6621 -0.9392  0.9790
 9564SOL     OW31711   8.129   4.130   8.993 -0.2474  0.1525 -0.3618
 9564SOL    HW131712   8.046   4.165   8.962 -0.5432  0.1488  0.4047
 9564SOL    HW231713   8.133   4.041   8.957 -0.2579  0.3915 -0.9546
 9565SOL     OW31714   2.384   7.011   1.320 -0.1969  0.0776  0.6137
 9565SOL    HW131715   2.454   7.013   1.386 -0.6252  1.2558  1.0518
 9565SOL    HW231716   2.306   7.040   1.367 -0.1155  2.7625 -0.8163
 9566SOL     OW31717   9.152   7.940   6.948 -0.3979  0.5530  0.0996
 9566SOL    HW131718   9.062   7.908   6.950 -0.2795  0.1649 -0.4486
 9566SOL    HW231719   9.194   7.900   7.024 -0.1789 -0.8387 -0.7401
 9567SOL     OW31720   1.638   4.108   0.460 -0.4139 -0.4515  0.0600
 9567SOL    HW131721   1.666   4.073   0.375  0.3404 -1.3316  0.6663
 9567SOL    HW231722   1.684   4.192   0.467 -2.6132  0.9512 -1.6173
 9568SOL     OW31723   1.121   6.386   3.159  0.5329  0.1753 -0.7530
 9568SOL    HW131724   1.085   6.437   3.231 -1.0062  0.2716 -1.5736
 9568SOL    HW231725   1.216   6.396   3.168  0.3024  1.8841  0.0226
 9569SOL     OW31726   6.044   2.953   2.023  0.0310  0.0839 -0.6850
 9569SOL    HW131727   5.966   2.905   2.049 -0.0844 -0.1535 -1.4745
 9569SOL    HW231728   6.114   2.914   2.075 -0.5086  0.8523  0.6384
 9570SOL     OW31729   6.467   6.010   6.432 -0.1368 -0.4704  0.2696
 9570SOL    HW131730   6.504   5.941   6.377 -1.0402 -2.2999  1.8814
 9570SOL    HW231731   6.396   5.966   6.479 -0.3948  1.4526  1.6956
 9571SOL     OW31732   2.712   9.440   9.119 -0.1579  0.1608  0.1120
 9571SOL    HW131733   2.660   9.430   9.198  1.2638  1.6361  1.2619
 9571SOL    HW231734   2.647   9.449   9.049 -1.4215 -1.1886  1.0713
 9572SOL     OW31735   5.784   2.867   2.834  0.1818  0.0976 -0.0586
 9572SOL    HW131736   5.700   2.852   2.790 -0.6055  1.6118  0.8470
 9572SOL    HW231737   5.769   2.835   2.924  0.4355  0.7270  0.2094
 9573SOL     OW31738   8.033   4.824   5.971  0.0964  0.0375 -0.0081
 9573SOL    HW131739   7.946   4.809   6.008 -0.3946 -0.2707 -1.2544
 9573SOL    HW231740   8.018   4.881   5.896  0.8589 -0.7383 -0.7647
 9574SOL     OW31741   5.833   2.400   3.799  0.5444 -0.3596  0.2496
 9574SOL    HW131742   5.781   2.479   3.809  0.9513 -0.0638  0.0643
 9574SOL    HW231743   5.791   2.335   3.856  1.4964  0.6187  2.1049
 9575SOL     OW31744   4.419   1.415   4.640  0.4393 -0.3273  0.2186
 9575SOL    HW131745   4.457   1.347   4.695 -1.2477 -0.0611  1.7584
 9575SOL    HW231746   4.441   1.497   4.685  2.1204  0.1350 -1.4136
 9576SOL     OW31747   6.624   0.779   8.091 -0.2566 -0.0381  0.1207
 9576SOL    HW131748   6.661   0.750   8.174 -2.6546  0.6818  1.4767
 9576SOL    HW231749   6.635   0.874   8.092 -0.9085  0.0371 -0.0999
 9577SOL     OW31750   4.411   7.884   5.338  0.3517 -0.2164  0.1426
 9577SOL    HW131751   4.348   7.899   5.408  1.2307  0.9799  0.6823
 9577SOL    HW231752   4.358   7.883   5.258 -0.5740 -0.9937  0.7497
 9578SOL     OW31753   6.843   7.355   3.707 -0.1665 -0.2068 -0.0962
 9578SOL    HW131754   6.777   7.287   3.696  0.6465 -1.0646  0.3062
 9578SOL    HW231755   6.889   7.356   3.623 -2.9177  2.8149 -1.6918
 9579SOL     OW31756   0.113   8.370   5.996  0.4574 -0.2664 -0.3498
 9579SOL    HW131757   0.074   8.372   6.083 -0.4344  0.4485 -0.7527
 9579SOL    HW231758   0.168   8.448   5.992  2.6403 -1.7326  0.5240
 9580SOL     OW31759   8.530   6.532   3.362 -0.0472  0.3841 -0.2648
 9580SOL    HW131760   8.614   6.529   3.408 -0.6157 -0.5844  0.7417
 9580SOL    HW231761   8.488   6.612   3.393  0.1156  0.3843 -0.0424
 9581SOL     OW31762   5.071   7.424   5.592  0.2459 -0.0161 -0.5583
 9581SOL    HW131763   5.137   7.355   5.601  0.7071  0.3461 -1.1248
 9581SOL    HW231764   5.114   7.491   5.539  0.8129  1.9330  2.2162
 9582SOL     OW31765   4.690   1.846   9.053  1.0131 -0.1737  0.4135
 9582SOL    HW131766   4.785   1.850   9.067  0.8049  2.5038  1.2899
 9582SOL    HW231767   4.652   1.858   9.140 -0.1603 -0.2951 -0.0740
 9583SOL     OW31768   5.498   8.875   9.440 -0.8917 -0.0799  0.2259
 9583SOL    HW131769   5.422   8.902   9.389 -1.3675 -1.0608  0.3920
 9583SOL    HW231770   5.492   8.927   9.521 -1.2126  0.0696  0.1075
 9584SOL     OW31771   5.204   6.097   8.066 -0.1280 -0.7940  0.3511
 9584SOL    HW131772   5.143   6.165   8.037 -1.6328 -2.2473  0.0761
 9584SOL    HW231773   5.181   6.020   8.014  2.5110 -1.1392 -0.3899
 9585SOL     OW31774   2.596   5.794   2.654  0.5480 -0.5802 -0.3978
 9585SOL    HW131775   2.541   5.715   2.649  1.8375 -1.4417 -1.2052
 9585SOL    HW231776   2.661   5.783   2.585  0.9399  1.0602 -0.3162
 9586SOL     OW31777   4.394   6.167   1.535  0.1287  0.2781 -0.3557
 9586SOL    HW131778   4.320   6.177   1.595  1.0685 -0.3884  0.9225
 9586SOL    HW231779   4.438   6.252   1.537  0.3676  0.1434  0.1814
 9587SOL     OW31780   0.844   7.965   8.745 -0.5975 -0.2111 -0.0391
 9587SOL    HW131781   0.820   7.885   8.793  1.9139 -2.2934 -2.0549
 9587SOL    HW231782   0.879   7.932   8.662  0.5424  3.0385 -0.8888
 9588SOL     OW31783   3.466   8.716   2.859  0.4604 -0.2186  0.0166
 9588SOL    HW131784   3.475   8.785   2.793 -0.7638 -0.3998 -0.3539
 9588SOL    HW231785   3.466   8.634   2.810  0.8633 -0.4333  0.3648
 9589SOL     OW31786   9.144   3.893   4.480  0.0462 -0.0804  0.3681
 9589SOL    HW131787   9.142   3.822   4.416 -0.0297 -0.9432  1.3202
 9589SOL    HW231788   9.055   3.928   4.479  0.4296  0.8851 -1.0701
 9590SOL     OW31789   0.409   5.491   7.344  0.3663 -0.3474 -0.5421
 9590SOL    HW131790   0.341   5.502   7.277 -0.8854 -1.2005  0.5537
 9590SOL    HW231791   0.387   5.408   7.386  2.4490 -0.9078 -0.5416
 9591SOL     OW31792   6.800   4.696   5.785  0.0452  0.4439 -0.2820
 9591SOL    HW131793   6.742   4.636   5.737  0.5374  0.0730 -0.4215
 9591SOL    HW231794   6.763   4.783   5.769  0.7264  0.4178 -2.1140
 9592SOL     OW31795   4.591   4.081   2.610 -0.1457  0.0229  0.3577
 9592SOL    HW131796   4.658   4.131   2.658 -0.4708  1.4961 -0.6648
 9592SOL    HW231797   4.508   4.107   2.651 -0.1964 -0.8267  0.7924
 9593SOL     OW31798   6.608   7.039   1.259  0.4601  0.3521 -0.0162
 9593SOL    HW131799   6.619   6.969   1.322  1.1041 -0.8949 -1.4953
 9593SOL    HW231800   6.533   7.013   1.206  1.4995  0.1247 -1.4083
 9594SOL     OW31801   0.120   0.942   4.353 -0.2016 -0.6049 -0.3291
 9594SOL    HW131802   0.080   1.002   4.291  0.2515  0.9027  0.7998
 9594SOL    HW231803   0.133   0.995   4.432  1.2819 -1.8696  0.2939
 9595SOL     OW31804   6.500   5.902   2.574  0.0780 -0.0673  0.2198
 9595SOL    HW131805   6.476   5.980   2.624  0.9683  0.1847  0.2674
 9595SOL    HW231806   6.417   5.871   2.537 -0.4278  0.3500  0.9827
 9596SOL     OW31807   8.880   0.304   6.512  0.2873  0.8153  0.4061
 9596SOL    HW131808   8.884   0.213   6.484 -1.3656 -0.0179  2.6858
 9596SOL    HW231809   8.871   0.299   6.607 -1.4112  3.3204  0.4159
 9597SOL     OW31810   6.180   1.591   5.365  0.5115  0.0399  0.1279
 9597SOL    HW131811   6.224   1.506   5.356 -1.9297 -1.2852  0.2388
 9597SOL    HW231812   6.176   1.625   5.276  1.4084  0.0009  0.0664
 9598SOL     OW31813   1.085   9.317   7.009 -0.5109 -0.0442  0.4014
 9598SOL    HW131814   1.158   9.256   7.009 -0.9691 -0.6039 -0.1032
 9598SOL    HW231815   1.064   9.329   6.916 -2.9581 -2.1929  0.6289
 9599SOL     OW31816   4.497   3.885   5.105  0.2481 -0.3449 -0.2326
 9599SOL    HW131817   4.565   3.945   5.075  2.9772 -2.7912  0.7499
 9599SOL    HW231818   4.496   3.894   5.200  1.1329 -2.2275 -0.0125
 9600SOL     OW31819   3.787   9.210   5.684  0.1230 -0.4534 -0.5886
 9600SOL    HW131820   3.814   9.302   5.687  1.7161 -0.8347 -2.3535
 9600SOL    HW231821   3.744   9.200   5.600 -0.0184 -1.3299 -0.4208
 9601SOL     OW31822   6.513   9.415   6.551 -0.3209  0.1019 -0.2200
 9601SOL    HW131823   6.581   9.353   6.577 -0.2423  0.0438 -0.5623
 9601SOL    HW231824   6.532   9.494   6.602 -0.6663 -0.2891  0.5257
 9602SOL     OW31825   2.279   5.032   6.775  0.4319 -0.6123  0.4156
 9602SOL    HW131826   2.352   5.060   6.829 -0.0012 -2.8071  2.2298
 9602SOL    HW231827   2.233   4.967   6.829 -1.5657 -0.8933 -1.5497
 9603SOL     OW31828   8.990   9.097   9.005 -0.0654 -0.3227  0.7987
 9603SOL    HW131829   8.909   9.092   9.055  0.6742  2.3794  2.3440
 9603SOL    HW231830   9.060   9.100   9.070  1.3170 -2.4218 -0.5053
 9604SOL     OW31831   0.367   6.411   2.123 -0.6612 -0.4062  0.2852
 9604SOL    HW131832   0.454   6.395   2.160  0.0114  0.3275 -0.9041
 9604SOL    HW231833   0.306   6.380   2.189  0.5091 -0.2817  1.4466
 9605SOL     OW31834   2.854   5.902   6.888  0.0736 -0.0840  0.5264
 9605SOL    HW131835   2.784   5.896   6.823 -0.5295 -1.4930  1.2843
 9605SOL    HW231836   2.899   5.984   6.867 -0.1493 -0.4700 -1.6244
 9606SOL     OW31837   7.910   0.648   6.012 -0.3647  0.1463 -0.2377
 9606SOL    HW131838   8.002   0.628   5.992  0.3412  1.9331  0.9906
 9606SOL    HW231839   7.870   0.663   5.927 -0.3847 -3.9262 -1.0363
 9607SOL     OW31840   0.226   5.079   4.481  0.2659  0.5406  0.2658
 9607SOL    HW131841   0.204   5.000   4.432 -3.5433  1.2280  0.7355
 9607SOL    HW231842   0.272   5.135   4.418 -0.9760 -0.2443 -1.3659
 9608SOL     OW31843   7.089   2.522   5.930  0.2370 -0.1852  0.3374
 9608SOL    HW131844   7.006   2.551   5.891 -0.2185 -1.9613 -0.0413
 9608SOL    HW231845   7.118   2.451   5.874  1.8506  0.1865  0.6944
 9609SOL     OW31846   8.853   8.725   1.165  0.2508 -0.0921 -0.2097
 9609SOL    HW131847   8.876   8.800   1.220  2.8735 -0.5959 -0.5447
 9609SOL    HW231848   8.804   8.762   1.092 -0.0346  1.0419  0.5415
 9610SOL     OW31849   3.555   3.891   6.991 -0.7256 -0.0447  0.6639
 9610SOL    HW131850   3.647   3.885   7.017 -0.4923 -0.2329 -0.1763
 9610SOL    HW231851   3.526   3.977   7.023  0.0283  0.4436  0.0518
 9611SOL     OW31852   9.094   4.419   0.078  0.1910  0.4139 -0.4004
 9611SOL    HW131853   9.186   4.434   0.098  0.7958 -0.3986 -2.4612
 9611SOL    HW231854   9.055   4.507   0.079  1.4935  1.0500 -1.8133
 9612SOL     OW31855   0.388   0.865   1.392 -0.5399  0.2508 -0.2479
 9612SOL    HW131856   0.447   0.924   1.345 -1.0619  0.9216 -0.0716
 9612SOL    HW231857   0.389   0.784   1.341  0.3622  0.3317 -0.3611
 9613SOL     OW31858   9.144   4.789   8.042 -0.9532  0.5071  0.0595
 9613SOL    HW131859   9.074   4.771   7.979 -0.5650  2.1124 -0.8222
 9613SOL    HW231860   9.196   4.709   8.042 -0.8091  0.5794 -1.8413
 9614SOL     OW31861   1.483   5.480   1.098 -0.3349 -0.2808  0.4903
 9614SOL    HW131862   1.458   5.572   1.106 -0.1267 -0.0104 -1.6828
 9614SOL    HW231863   1.400   5.433   1.090 -0.4143 -0.2505  1.0581
 9615SOL     OW31864   5.908   7.885   7.798 -0.8536 -0.1806 -0.3707
 9615SOL    HW131865   5.819   7.888   7.834 -1.1195 -1.7892 -0.8545
 9615SOL    HW231866   5.945   7.971   7.819 -1.7471 -0.2969  1.8091
 9616SOL     OW31867   4.154   1.925   8.101  0.1886  0.0258 -0.1749
 9616SOL    HW131868   4.239   1.944   8.059  1.5731 -1.4550  1.8869
 9616SOL    HW231869   4.124   1.846   8.057  0.7394 -0.4599  0.3109
 9617SOL     OW31870   3.956   0.513   5.869  0.1089  0.6304  0.3936
 9617SOL    HW131871   3.874   0.562   5.860  0.1422  0.7218  0.6090
 9617SOL    HW231872   3.940   0.433   5.819  1.1165  2.1734 -2.5029
 9618SOL     OW31873   3.540   0.129   1.498  0.0255  0.0072  0.8098
 9618SOL    HW131874   3.453   0.095   1.478 -0.9492  2.4938  0.5768
 9618SOL    HW231875   3.538   0.219   1.466  2.5711  0.2208  1.1529
 9619SOL     OW31876   0.108   3.034   6.871 -0.1807  0.6452  0.6045
 9619SOL    HW131877   0.128   3.015   6.779  1.0837 -1.0197  1.2033
 9619SOL    HW231878   0.015   3.057   6.871 -0.0330  1.3346 -1.1776
 9620SOL     OW31879   8.275   7.120   7.492 -0.0922 -0.3571  0.1804
 9620SOL    HW131880   8.260   7.211   7.518  0.9586  0.4782 -1.9907
 9620SOL    HW231881   8.368   7.106   7.511 -0.0109 -0.6398 -0.4228
 9621SOL     OW31882   0.739   1.851   6.577  0.0552 -0.1213  0.0710
 9621SOL    HW131883   0.782   1.847   6.492  0.1793 -0.7385  0.1631
 9621SOL    HW231884   0.801   1.812   6.638  0.6703  1.8187  0.7372
 9622SOL     OW31885   2.517   1.635   3.199  0.3252 -0.2258 -0.6507
 9622SOL    HW131886   2.546   1.624   3.109  0.9657 -0.9108 -0.3642
 9622SOL    HW231887   2.421   1.635   3.194  0.3599  1.2034 -1.4952
 9623SOL     OW31888   8.616   4.205   5.493 -0.5246 -0.2169  0.4776
 9623SOL    HW131889   8.692   4.207   5.434 -1.0502 -0.9263 -0.2270
 9623SOL    HW231890   8.654   4.193   5.580  0.2863  1.1603  0.3375
 9624SOL     OW31891   8.832   0.051   2.763  0.5099 -0.1175 -0.0325
 9624SOL    HW131892   8.870   0.046   2.851  0.4564 -3.4757 -0.1295
 9624SOL    HW231893   8.749   0.097   2.776  0.2747 -0.9904  1.7504
 9625SOL     OW31894   5.215   2.610   1.929 -0.2185  0.4997  0.0972
 9625SOL    HW131895   5.159   2.655   1.993  0.8350  0.3464  1.1492
 9625SOL    HW231896   5.204   2.517   1.949  1.3619  0.5145  1.1555
 9626SOL     OW31897   3.684   5.713   4.708 -0.0228 -0.6537 -0.6490
 9626SOL    HW131898   3.703   5.636   4.654  2.0967 -1.0780  0.6618
 9626SOL    HW231899   3.728   5.785   4.664 -0.6839 -0.4688 -1.0152
 9627SOL     OW31900   3.471   9.150   7.063  0.6893 -0.2806  0.1975
 9627SOL    HW131901   3.541   9.110   7.115  1.8071  2.6539  1.0619
 9627SOL    HW231902   3.395   9.095   7.078  2.1018 -1.9120  1.5497
 9628SOL     OW31903   1.154   3.147   7.144 -0.0677  0.2747  0.3006
 9628SOL    HW131904   1.223   3.081   7.137  0.2913  0.3822  2.3611
 9628SOL    HW231905   1.167   3.205   7.069 -0.1007 -1.7136 -1.2798
 9629SOL     OW31906   2.798   2.951   9.296 -0.1560  0.1844 -0.3600
 9629SOL    HW131907   2.869   2.945   9.232 -0.3656  1.7291 -0.7589
 9629SOL    HW231908   2.735   3.011   9.256 -2.9300 -3.1376 -1.1947
 9630SOL     OW31909   2.738   8.804   7.653 -0.4589  0.7774  0.1473
 9630SOL    HW131910   2.795   8.754   7.711 -3.2297  0.1509  2.4077
 9630SOL    HW231911   2.654   8.758   7.655 -1.5025  2.4844 -1.9702
 9631SOL     OW31912   1.095   1.352   2.544 -0.3492 -0.5915 -0.3089
 9631SOL    HW131913   1.140   1.389   2.467 -1.2153  0.0076 -0.5474
 9631SOL    HW231914   1.002   1.367   2.525 -0.6419 -1.7593  0.1960
 9632SOL     OW31915   9.387   2.364   4.143 -0.1704 -0.2444 -0.0384
 9632SOL    HW131916   9.461   2.388   4.198  1.1973 -1.7760 -1.1472
 9632SOL    HW231917   9.310   2.396   4.190  1.1655  1.0523  1.3003
 9633SOL     OW31918   1.895   0.482   6.081  0.6226 -0.8701 -0.1020
 9633SOL    HW131919   1.886   0.417   6.151 -0.5618 -0.6130 -0.0115
 9633SOL    HW231920   1.813   0.530   6.082  0.2400 -1.4491 -2.2670
 9634SOL     OW31921   0.024   8.932   0.211  0.0563 -0.5177 -0.5406
 9634SOL    HW131922   0.003   9.002   0.272  1.8802 -1.8783  1.7756
 9634SOL    HW231923   0.117   8.915   0.225 -0.8091 -5.0245  0.8340
 9635SOL     OW31924   2.028   7.463   5.133  0.2062 -0.2303 -0.1506
 9635SOL    HW131925   2.009   7.552   5.161  2.1690  0.3254 -0.4646
 9635SOL    HW231926   2.003   7.460   5.041  2.1549  0.6793 -0.7383
 9636SOL     OW31927   4.828   4.750   8.112 -0.4934  0.0724  0.2483
 9636SOL    HW131928   4.913   4.736   8.154  1.5340  0.1442 -3.6234
 9636SOL    HW231929   4.786   4.664   8.113  0.0575 -0.1970  1.2595
 9637SOL     OW31930   7.922   6.803   7.197 -0.6984 -0.3929 -0.2080
 9637SOL    HW131931   7.972   6.771   7.122  0.2285  0.9876 -0.1963
 9637SOL    HW231932   7.960   6.889   7.216 -0.9226 -0.7279  1.8429
 9638SOL     OW31933   6.679   6.918   6.263  0.3850  0.2581  0.1115
 9638SOL    HW131934   6.703   6.974   6.189  0.2468 -2.0835 -1.7659
 9638SOL    HW231935   6.740   6.943   6.333  1.6994  1.2861 -1.3707
 9639SOL     OW31936   8.920   6.968   5.022  0.0107 -0.1945  0.0780
 9639SOL    HW131937   8.872   7.035   4.972  0.0201  0.0617  0.4133
 9639SOL    HW231938   9.011   7.000   5.022  0.2486 -0.8330 -0.8215
 9640SOL     OW31939   4.005   7.664   3.728 -0.1084 -0.6445 -0.1358
 9640SOL    HW131940   4.032   7.584   3.682 -0.1858 -0.6050 -0.2494
 9640SOL    HW231941   4.053   7.661   3.810 -1.6665 -1.8605  0.7714
 9641SOL     OW31942   1.621   8.087   3.337  0.5107  0.1478  0.3259
 9641SOL    HW131943   1.566   8.085   3.259  0.3932 -2.1312  0.4103
 9641SOL    HW231944   1.697   8.140   3.313 -1.2685  2.5755 -0.0863
 9642SOL     OW31945   8.747   7.954   1.666  0.5312  0.1614 -0.9790
 9642SOL    HW131946   8.663   7.917   1.692  0.0924  1.1076 -1.0375
 9642SOL    HW231947   8.737   8.048   1.677  1.4015  0.3298 -1.5133
 9643SOL     OW31948   5.586   0.518   7.793  0.3076 -0.0509 -0.2959
 9643SOL    HW131949   5.668   0.562   7.770  0.1753  0.4563  0.1828
 9643SOL    HW231950   5.613   0.439   7.839  0.5550 -0.6026 -1.3618
 9644SOL     OW31951   0.984   4.500   3.571  0.1061 -0.8889  0.4935
 9644SOL    HW131952   1.021   4.431   3.626  0.4789 -1.7985 -0.8852
 9644SOL    HW231953   1.060   4.548   3.539 -0.1045 -0.4831  0.5977
 9645SOL     OW31954   8.992   0.432   5.031 -0.4428 -0.0511  0.1842
 9645SOL    HW131955   8.904   0.413   5.000  0.2200 -1.4493 -0.8993
 9645SOL    HW231956   9.004   0.373   5.106  0.1039 -0.9449 -0.5974
 9646SOL     OW31957   7.683   8.196   0.960 -0.0401  0.2760 -0.0035
 9646SOL    HW131958   7.595   8.164   0.938  0.8389 -1.7465 -0.7568
 9646SOL    HW231959   7.716   8.233   0.878  0.0379  0.4834  0.1213
 9647SOL     OW31960   3.583   3.807   3.987 -0.1723  0.0083  0.4458
 9647SOL    HW131961   3.529   3.802   4.066  0.7846 -1.2930  1.0328
 9647SOL    HW231962   3.611   3.717   3.972  1.1687  0.5544 -0.3185
 9648SOL     OW31963   0.017   2.316   7.565  0.6743  0.1156 -0.1359
 9648SOL    HW131964   0.010   2.345   7.656  1.7884  0.7967 -0.2566
 9648SOL    HW231965  -0.040   2.239   7.560 -0.6640  1.0219  0.7240
 9649SOL     OW31966   2.992   0.632   4.074 -0.1195 -0.1475 -0.4605
 9649SOL    HW131967   2.934   0.661   4.004 -0.7430 -0.7977 -0.2248
 9649SOL    HW231968   3.044   0.562   4.035 -2.0601 -2.1084  0.3304
 9650SOL     OW31969   8.273   1.938   6.843  0.9048  0.5613  0.0259
 9650SOL    HW131970   8.234   1.850   6.841  0.8688  0.5668  0.4435
 9650SOL    HW231971   8.367   1.922   6.835  0.8003  0.5692 -1.3812
 9651SOL     OW31972   1.715   2.199   5.122  0.0157  0.9264  0.3356
 9651SOL    HW131973   1.642   2.260   5.114 -0.5514  0.3587  1.0220
 9651SOL    HW231974   1.680   2.116   5.090  1.1324  1.2146 -1.6457
 9652SOL     OW31975   7.528   6.177   3.070  0.0829  0.4766 -0.5037
 9652SOL    HW131976   7.485   6.091   3.065 -1.0078  0.9942 -0.0797
 9652SOL    HW231977   7.603   6.162   3.128  0.1914 -0.3092 -0.8363
 9653SOL     OW31978   5.737   0.716   1.763  0.1568 -0.2497 -0.1431
 9653SOL    HW131979   5.694   0.681   1.685 -0.5835  1.1132 -0.3601
 9653SOL    HW231980   5.707   0.807   1.768  2.7267  0.6259 -0.0855
 9654SOL     OW31981   6.349   6.516   4.098  0.5869 -0.0548 -0.6577
 9654SOL    HW131982   6.425   6.547   4.147 -0.7645  0.5581  1.1034
 9654SOL    HW231983   6.333   6.584   4.033  0.3158  0.8230  0.3134
 9655SOL     OW31984   0.041   1.946   8.049  0.7874  0.0123  0.2896
 9655SOL    HW131985   0.063   1.930   8.141  0.8394 -3.2751 -0.2307
 9655SOL    HW231986   0.125   1.946   8.004  0.6128 -0.5868 -0.0409
 9656SOL     OW31987   4.216   4.614   2.665  0.3489 -0.3302 -0.1964
 9656SOL    HW131988   4.267   4.533   2.657  0.3152 -0.6216  2.3096
 9656SOL    HW231989   4.253   4.672   2.598 -0.0496 -2.6163 -2.4686
 9657SOL     OW31990   6.596   2.400   8.894 -0.7552  0.0062  0.2840
 9657SOL    HW131991   6.546   2.319   8.883 -0.1475 -0.8472  3.3881
 9657SOL    HW231992   6.665   2.395   8.828 -1.3016 -1.5361 -0.1845
 9658SOL     OW31993   1.620   5.698   5.870  0.3564 -0.2402 -0.4962
 9658SOL    HW131994   1.627   5.603   5.881 -0.8441 -0.2904 -0.1030
 9658SOL    HW231995   1.528   5.717   5.890  0.7451  1.0848  0.0499
 9659SOL     OW31996   9.148   3.421   6.496  0.0887 -0.1045  0.7826
 9659SOL    HW131997   9.195   3.338   6.498  0.4604  0.0824  0.0030
 9659SOL    HW231998   9.187   3.473   6.566 -0.1369 -0.5824  1.2654
 9660SOL     OW31999   4.219   0.407   3.425 -0.3289  0.9456 -0.1843
 9660SOL    HW132000   4.167   0.368   3.496 -0.9844  1.3095 -0.4605
 9660SOL    HW232001   4.269   0.333   3.389 -0.4859  0.6352  0.2321
 9661SOL     OW32002   3.869   3.088   4.084  0.0849 -0.1197  0.4862
 9661SOL    HW132003   3.875   2.994   4.098 -0.0480 -0.4105 -1.2647
 9661SOL    HW232004   3.776   3.103   4.064 -0.1444  0.5774  2.0108
 9662SOL     OW32005   1.029   1.616   0.164  0.1457  0.0384  0.0004
 9662SOL    HW132006   0.986   1.658   0.238 -3.2727 -0.3008 -1.6828
 9662SOL    HW232007   1.098   1.677   0.137 -1.0841  1.9320  1.0801
 9663SOL     OW32008   9.190   1.131   5.787 -0.2993  0.3644  0.6488
 9663SOL    HW132009   9.175   1.105   5.878  0.3670 -1.3040  0.3038
 9663SOL    HW232010   9.279   1.101   5.768 -0.4308  0.7064 -0.5465
 9664SOL     OW32011   0.935   4.265   6.833  0.5975 -0.2352 -0.2202
 9664SOL    HW132012   0.864   4.303   6.780 -0.6261 -0.3705  1.3047
 9664SOL    HW232013   0.996   4.229   6.768 -0.8250 -0.3051 -1.5535
 9665SOL     OW32014   1.789   6.350   9.331  0.5734  0.1842  0.3216
 9665SOL    HW132015   1.712   6.389   9.374 -0.9395 -0.4290 -1.7274
 9665SOL    HW232016   1.798   6.264   9.372 -0.7372 -0.3189 -0.4181
 9666SOL     OW32017   3.726   5.602   6.310  0.3535  0.1695  0.0772
 9666SOL    HW132018   3.725   5.584   6.216  0.7434  0.2872  0.0478
 9666SOL    HW232019   3.811   5.567   6.339 -0.5810 -1.6193  0.7278
 9667SOL     OW32020   6.138   0.891   7.022  0.3428  0.0835 -0.4473
 9667SOL    HW132021   6.196   0.916   7.094  0.9871 -0.1271 -0.9001
 9667SOL    HW232022   6.196   0.860   6.953 -0.3068 -0.1748 -0.8820
 9668SOL     OW32023   7.296   5.198   1.466  0.3832 -0.1571 -0.3353
 9668SOL    HW132024   7.291   5.290   1.440  0.9599 -0.2208 -0.6866
 9668SOL    HW232025   7.235   5.153   1.408  0.5110 -0.0747 -0.5323
 9669SOL     OW32026   4.959   1.536   4.227  0.1255 -0.2031 -0.0917
 9669SOL    HW132027   4.896   1.560   4.295 -0.3331  0.0384 -0.5970
 9669SOL    HW232028   5.021   1.609   4.225  0.5415 -0.5389  0.5502
 9670SOL     OW32029   3.520   2.462   1.046  0.4482  0.4939  0.3718
 9670SOL    HW132030   3.535   2.516   1.123 -0.6612  0.5759  0.5362
 9670SOL    HW232031   3.473   2.519   0.985  0.7682  0.2345 -0.1247
 9671SOL     OW32032   7.614   1.208   9.043  0.2308 -0.6775  0.2837
 9671SOL    HW132033   7.563   1.129   9.027 -0.8375  0.3508 -1.5629
 9671SOL    HW232034   7.550   1.276   9.062  0.6675  0.9829 -3.5409
 9672SOL     OW32035   0.572   5.080   4.493 -0.2743 -0.0677 -0.2487
 9672SOL    HW132036   0.644   5.143   4.501  0.8572 -1.2608 -0.8224
 9672SOL    HW232037   0.521   5.113   4.419  1.0734 -0.5429 -1.4170
 9673SOL     OW32038   6.650   0.158   0.869 -0.3801 -0.2262  0.4169
 9673SOL    HW132039   6.563   0.120   0.883 -0.3168 -0.1499  1.0341
 9673SOL    HW232040   6.640   0.212   0.790 -0.4144 -1.6648 -0.5796
 9674SOL     OW32041   7.955   1.168   2.449 -0.0329  0.0985 -0.5268
 9674SOL    HW132042   7.978   1.090   2.399  0.0621 -0.1005 -0.1761
 9674SOL    HW232043   7.860   1.174   2.442 -0.1531 -0.6742  0.3609
 9675SOL     OW32044   5.299   8.303   3.850 -0.0996 -0.2064  0.2813
 9675SOL    HW132045   5.245   8.248   3.906  0.0365  0.2091  0.8187
 9675SOL    HW232046   5.238   8.364   3.809 -0.2262 -0.6393 -0.1760
 9676SOL     OW32047   0.485   8.098   4.217  0.5212 -0.2427  0.4104
 9676SOL    HW132048   0.532   8.117   4.298  2.1688  0.3491 -0.6577
 9676SOL    HW232049   0.438   8.179   4.197  1.9317  0.3721 -0.4254
 9677SOL     OW32050   8.841   6.937   2.798 -0.1368 -0.3213  0.0441
 9677SOL    HW132051   8.875   6.925   2.886  0.0429  0.4357  0.0827
 9677SOL    HW232052   8.914   6.977   2.749 -0.4981  0.0023 -0.2342
 9678SOL     OW32053   1.048   8.497   1.365  0.2287 -0.4760 -0.3420
 9678SOL    HW132054   1.046   8.429   1.297 -0.0294  0.4760 -1.2977
 9678SOL    HW232055   0.956   8.510   1.388  0.3272 -0.9073  0.3068
 9679SOL     OW32056   7.860   1.448   5.343 -0.3719  0.1846  0.1837
 9679SOL    HW132057   7.883   1.454   5.435  0.4704  1.3001 -0.0929
 9679SOL    HW232058   7.818   1.362   5.334 -2.6824  1.0690  2.0813
 9680SOL     OW32059   7.947   2.360   3.483  0.8009 -0.0743 -0.6034
 9680SOL    HW132060   8.016   2.427   3.488 -0.3046  1.1278 -1.1559
 9680SOL    HW232061   7.990   2.284   3.444  2.4697 -0.2263  1.4495
 9681SOL     OW32062   6.033   3.872   8.860 -0.2404 -0.0941  0.1318
 9681SOL    HW132063   6.060   3.797   8.808  1.7610  2.2819 -2.4108
 9681SOL    HW232064   5.940   3.884   8.839  0.0477 -0.3745 -1.3616
 9682SOL     OW32065   1.626   2.498   4.826  0.0112  0.2460  0.3069
 9682SOL    HW132066   1.710   2.524   4.787 -1.4847  1.2149 -2.4049
 9682SOL    HW232067   1.565   2.567   4.799 -2.7071 -2.8437 -1.8239
 9683SOL     OW32068   7.172   4.987   6.835 -0.2357 -0.8320 -0.0792
 9683SOL    HW132069   7.121   5.031   6.903 -2.0853  0.2246 -2.0719
 9683SOL    HW232070   7.170   5.047   6.761  3.9881 -0.7723 -0.2422
 9684SOL     OW32071   0.915   3.098   4.712  0.2966  0.8705 -0.4605
 9684SOL    HW132072   0.927   3.058   4.798 -0.1091  0.2935 -0.6752
 9684SOL    HW232073   0.866   3.179   4.730  2.0609  1.8598  0.1051
 9685SOL     OW32074   1.568   9.222   8.127 -0.2251 -0.3403  0.9224
 9685SOL    HW132075   1.658   9.239   8.099 -0.7257  0.4098 -0.2879
 9685SOL    HW232076   1.557   9.128   8.118 -0.0031 -0.2584 -0.3350
 9686SOL     OW32077   2.540   2.011   9.440 -0.1356  0.0394  0.1425
 9686SOL    HW132078   2.448   2.006   9.466 -0.0948  1.0906  0.5123
 9686SOL    HW232079   2.589   2.008   9.523  0.1238  0.4080  0.0017
 9687SOL     OW32080   6.715   8.771   1.136  0.2358  0.3557 -0.3140
 9687SOL    HW132081   6.642   8.718   1.168  2.9558 -3.2576  0.2017
 9687SOL    HW232082   6.757   8.804   1.216 -0.5281  2.0460 -0.5958
 9688SOL     OW32083   3.131   7.533   6.342  0.1487  0.3054 -0.0933
 9688SOL    HW132084   3.173   7.513   6.426  0.4403 -1.0583 -0.5440
 9688SOL    HW232085   3.204   7.546   6.281 -0.0710 -0.5110 -0.5326
 9689SOL     OW32086   9.315   8.640   8.829  0.5439 -0.0015 -0.0171
 9689SOL    HW132087   9.261   8.716   8.852  1.2197  0.8551 -1.2423
 9689SOL    HW232088   9.264   8.565   8.859 -0.7384  0.8622  0.0118
 9690SOL     OW32089   1.492   0.075   8.760  0.0250 -0.4208  0.1690
 9690SOL    HW132090   1.459   0.120   8.838  0.3084  1.1181 -0.5639
 9690SOL    HW232091   1.462  -0.015   8.770  0.5954 -0.4112  2.3606
 9691SOL     OW32092   2.230   0.283   8.872 -0.1296 -0.2022 -0.4605
 9691SOL    HW132093   2.317   0.318   8.889 -0.8961  1.1063  0.9544
 9691SOL    HW232094   2.245   0.202   8.823  1.8720 -0.0763 -0.0884
 9692SOL     OW32095   0.172   5.982   2.450  0.1813 -0.1893  0.0611
 9692SOL    HW132096   0.118   5.973   2.529  0.8271  1.4341  0.7009
 9692SOL    HW232097   0.109   5.999   2.380 -0.3207 -0.7865  0.3546
 9693SOL     OW32098   0.656   1.557   6.459  0.4665 -0.0618 -0.0636
 9693SOL    HW132099   0.732   1.591   6.412  0.5563  2.2323  1.6249
 9693SOL    HW232100   0.676   1.573   6.552 -0.5399 -2.6883  0.6556
 9694SOL     OW32101   0.137   3.574   3.580 -0.0576  0.0460 -0.8788
 9694SOL    HW132102   0.045   3.589   3.601  0.2342 -0.2988  0.6982
 9694SOL    HW232103   0.135   3.506   3.512 -0.9045 -1.4812  0.6245
 9695SOL     OW32104   6.939   0.447   7.568  0.6512  0.5172 -0.6911
 9695SOL    HW132105   7.019   0.449   7.620  0.5305 -0.2631 -0.4733
 9695SOL    HW232106   6.934   0.534   7.529 -0.4374  1.9554  2.4408
 9696SOL     OW32107   0.422   9.427   0.914  0.2362  0.2188 -0.6897
 9696SOL    HW132108   0.441   9.473   0.995 -0.9245  0.1003 -0.3439
 9696SOL    HW232109   0.444   9.489   0.845 -1.4352  1.3648 -0.2224
 9697SOL     OW32110   7.281   0.461   5.728 -0.9435 -0.1589  0.3509
 9697SOL    HW132111   7.193   0.493   5.711 -1.1644  0.2104  2.1218
 9697SOL    HW232112   7.270   0.393   5.795 -0.0153 -0.9960 -0.3184
 9698SOL     OW32113   1.843   6.428   1.047  0.0205 -0.9189 -0.6092
 9698SOL    HW132114   1.922   6.469   1.084  0.4013 -1.2230 -1.0831
 9698SOL    HW232115   1.783   6.421   1.121  0.2114 -0.1235 -0.3790
 9699SOL     OW32116   2.887   0.974   3.049 -0.0025  0.1476  0.3332
 9699SOL    HW132117   2.829   0.905   3.015  0.9725 -0.0596 -0.9500
 9699SOL    HW232118   2.940   0.930   3.116 -0.0332 -0.1287  0.1761
 9700SOL     OW32119   4.058   2.434   2.894  0.4330 -0.3329 -0.3262
 9700SOL    HW132120   4.038   2.377   2.968 -1.5687 -1.2788 -1.5526
 9700SOL    HW232121   4.019   2.390   2.819  1.5911  1.0947 -1.8050
 9701SOL     OW32122   4.782   1.224   5.860 -0.3535  0.5769 -0.0223
 9701SOL    HW132123   4.835   1.228   5.780  0.0699 -1.0377  0.1585
 9701SOL    HW232124   4.703   1.273   5.840  0.4887  1.6089 -0.8629
 9702SOL     OW32125   7.951   2.364   7.424 -0.0831 -0.3182 -0.0287
 9702SOL    HW132126   7.984   2.385   7.511  1.9963 -3.2314 -0.0226
 9702SOL    HW232127   7.893   2.289   7.437  0.4140 -0.9208 -1.1383
 9703SOL     OW32128   9.334   0.037   0.217  0.1421  0.2333  0.1351
 9703SOL    HW132129   9.263   0.087   0.176 -0.7311 -0.8325  0.3000
 9703SOL    HW232130   9.371  -0.015   0.145 -0.7435 -0.9018  0.4849
 9704SOL     OW32131   5.644   2.608   7.458 -0.0355 -0.0510  0.3004
 9704SOL    HW132132   5.655   2.701   7.478 -3.3141  0.0736  1.7537
 9704SOL    HW232133   5.645   2.604   7.362 -1.1645  1.6612  0.1962
 9705SOL     OW32134   3.840   1.288   6.365 -0.0197 -0.6008  0.2544
 9705SOL    HW132135   3.773   1.250   6.421  0.6099 -1.8055  0.1953
 9705SOL    HW232136   3.798   1.295   6.279  0.1280 -1.9472  0.0647
 9706SOL     OW32137   0.754   8.183   6.455  0.0200 -0.4729 -0.7492
 9706SOL    HW132138   0.842   8.147   6.461  0.1784  0.0926  0.4646
 9706SOL    HW232139   0.725   8.162   6.366  1.0669 -1.3632 -0.8819
 9707SOL     OW32140   2.993   5.217   6.146  0.5933 -0.8351 -0.1290
 9707SOL    HW132141   3.013   5.153   6.214  0.3757 -1.0278 -0.2478
 9707SOL    HW232142   2.984   5.166   6.066 -0.5791 -0.7800 -0.0444
 9708SOL     OW32143   1.185   5.206   5.187 -0.1272  0.1463  0.2550
 9708SOL    HW132144   1.231   5.125   5.166 -2.5171 -1.1868 -0.0236
 9708SOL    HW232145   1.251   5.261   5.230  2.1007 -1.0539 -1.5425
 9709SOL     OW32146   3.573   2.906   5.069 -0.5235 -0.0879 -0.0973
 9709SOL    HW132147   3.632   2.869   5.134 -0.3300 -0.5001 -0.5029
 9709SOL    HW232148   3.548   2.991   5.104  1.9809  1.0306 -0.9187
 9710SOL     OW32149   5.445   7.704   2.231  0.6284 -0.2026  0.4480
 9710SOL    HW132150   5.382   7.670   2.167 -1.5292  1.7540  1.4563
 9710SOL    HW232151   5.503   7.761   2.180  0.1592 -0.2279 -0.1209
 9711SOL     OW32152   6.142   7.490   2.385  0.6559  0.5845 -0.7088
 9711SOL    HW132153   6.180   7.491   2.472  2.7975  1.5704 -1.6220
 9711SOL    HW232154   6.108   7.401   2.374  1.1834  0.1955  0.7747
 9712SOL     OW32155   5.327   1.542   5.478 -0.4908 -0.2683  0.4275
 9712SOL    HW132156   5.267   1.536   5.553  2.0444  1.9805  2.7852
 9712SOL    HW232157   5.382   1.464   5.485 -0.3214 -0.1107  0.9112
 9713SOL     OW32158   7.885   9.035   1.583  0.1128 -0.0659  0.1282
 9713SOL    HW132159   7.951   9.086   1.536  0.3563 -1.1528 -0.7339
 9713SOL    HW232160   7.929   8.952   1.603 -0.5609 -0.2765  0.7366
 9714SOL     OW32161   2.694   4.744   8.563  0.7283 -0.0032  0.4982
 9714SOL    HW132162   2.723   4.713   8.477  2.0699  1.1772  0.5104
 9714SOL    HW232163   2.725   4.678   8.624  1.0127 -0.1188  0.2274
 9715SOL     OW32164   7.308   4.748   6.833 -0.1466 -0.5769  0.5550
 9715SOL    HW132165   7.397   4.766   6.804 -0.0223 -0.3549  1.0696
 9715SOL    HW232166   7.265   4.833   6.832  0.2482 -0.3303  2.3322
 9716SOL     OW32167   8.388   3.029   2.582  0.0472 -0.7227 -0.0392
 9716SOL    HW132168   8.372   3.123   2.579  1.1237 -0.4724  1.3915
 9716SOL    HW232169   8.382   3.007   2.675 -0.5309 -2.1407 -0.3942
 9717SOL     OW32170   2.766   3.484   8.577  0.1440  0.1740 -0.5929
 9717SOL    HW132171   2.748   3.412   8.517  0.1124  0.5975 -1.1014
 9717SOL    HW232172   2.815   3.445   8.649  0.9755 -0.1602 -1.3474
 9718SOL     OW32173   2.793   1.456   0.139  0.9102 -0.3454  0.1553
 9718SOL    HW132174   2.713   1.435   0.090  0.7847 -1.4842  0.8272
 9718SOL    HW232175   2.781   1.413   0.224  1.3327  1.2197  1.0202
 9719SOL     OW32176   5.259   8.352   5.598  0.3911  0.1182  0.1530
 9719SOL    HW132177   5.269   8.260   5.573  3.0851  0.6780 -1.0011
 9719SOL    HW232178   5.178   8.354   5.650 -0.8388 -2.5115 -1.5624
 9720SOL     OW32179   2.557   5.024   7.284 -0.5242  0.3029 -0.2568
 9720SOL    HW132180   2.513   4.941   7.269  0.2730  0.1265 -1.7386
 9720SOL    HW232181   2.518   5.058   7.365  0.3270 -2.3023  1.3088
 9721SOL     OW32182   6.821   6.609   1.080 -0.3162 -0.2648 -0.4158
 9721SOL    HW132183   6.876   6.611   1.159 -0.2399  0.0828 -0.4734
 9721SOL    HW232184   6.743   6.561   1.106  0.5681 -1.8878 -0.6955
 9722SOL     OW32185   6.963   5.132   5.900  0.3504  0.2053 -0.2420
 9722SOL    HW132186   7.053   5.141   5.931  1.1269  1.7648 -2.7215
 9722SOL    HW232187   6.912   5.114   5.979  2.7282 -0.0717  1.3041
 9723SOL     OW32188   1.799   2.847   5.667 -0.0153 -0.3527  0.4117
 9723SOL    HW132189   1.773   2.867   5.577 -0.3334 -1.3243  0.2863
 9723SOL    HW232190   1.719   2.860   5.718  0.4388  1.2923  0.7254
 9724SOL     OW32191   5.924   7.648   5.341  0.5975 -0.2440 -0.5954
 9724SOL    HW132192   5.878   7.664   5.259 -0.4606 -1.7723 -0.3209
 9724SOL    HW232193   6.017   7.655   5.318  0.2914  0.1253 -1.7569
 9725SOL     OW32194   7.502   2.478   8.771 -0.1315 -0.5033 -0.0313
 9725SOL    HW132195   7.437   2.444   8.709 -0.4875 -1.1872  0.7177
 9725SOL    HW232196   7.461   2.555   8.809 -0.7458 -1.2881  0.8908
 9726SOL     OW32197   8.240   8.355   5.168 -0.1953 -0.1958  0.2423
 9726SOL    HW132198   8.298   8.377   5.240  0.5942  0.3043 -0.5396
 9726SOL    HW232199   8.298   8.336   5.095 -1.0326  1.1838 -0.7928
 9727SOL     OW32200   9.438   3.878   5.402  0.4668  0.9701  0.2618
 9727SOL    HW132201   9.364   3.933   5.377 -0.3663  0.8682  2.3512
 9727SOL    HW232202   9.440   3.884   5.498  1.9135 -0.6444  0.3515
 9728SOL     OW32203   7.570   8.400   0.401 -0.3225 -0.2761 -0.4195
 9728SOL    HW132204   7.527   8.316   0.415 -1.3894  0.9954  4.5961
 9728SOL    HW232205   7.499   8.460   0.378 -0.4043  0.4538  1.6636
 9729SOL     OW32206   7.236   5.297   3.998  0.1061  0.2708 -0.0267
 9729SOL    HW132207   7.154   5.265   3.961 -0.3866  1.1174  0.3278
 9729SOL    HW232208   7.255   5.376   3.949  0.3290  0.4795  0.3959
 9730SOL     OW32209   2.093   8.665   4.058  0.4581  0.5787 -0.5184
 9730SOL    HW132210   2.072   8.654   3.965  0.4028  0.3622 -0.4806
 9730SOL    HW232211   2.093   8.760   4.071 -3.3809  0.5394  0.1469
 9731SOL     OW32212   7.865   6.498   5.328 -1.1735 -0.3914 -0.0722
 9731SOL    HW132213   7.846   6.531   5.240 -1.3448  1.0978  0.5041
 9731SOL    HW232214   7.857   6.575   5.384  0.5080 -1.0044  1.0345
 9732SOL     OW32215   7.652   3.887   4.352 -0.4743 -0.6999  0.2794
 9732SOL    HW132216   7.679   3.807   4.396  0.5196 -0.3480  0.3308
 9732SOL    HW232217   7.734   3.926   4.321 -0.7837  1.0115  1.5102
 9733SOL     OW32218   7.875   2.237   7.056 -0.4207  0.5198 -0.2396
 9733SOL    HW132219   7.814   2.247   7.129  1.7324 -0.7713  1.8152
 9733SOL    HW232220   7.849   2.157   7.013  0.6388 -0.8060  1.5081
 9734SOL     OW32221   3.614   4.071   8.667  0.1381  0.9014  0.0894
 9734SOL    HW132222   3.671   4.100   8.595 -1.9767  0.7263 -1.6798
 9734SOL    HW232223   3.673   4.021   8.724  1.6722  0.2965 -1.9475
 9735SOL     OW32224   3.714   7.648   3.717  0.2779 -0.4976 -1.0105
 9735SOL    HW132225   3.787   7.616   3.770  0.4476 -0.7560 -1.4013
 9735SOL    HW232226   3.709   7.742   3.737 -0.2172 -0.7603  0.1340
 9736SOL     OW32227   4.600   5.326   1.896 -1.1593 -0.1127 -0.1522
 9736SOL    HW132228   4.661   5.330   1.969  1.0559 -2.1949 -1.8138
 9736SOL    HW232229   4.556   5.412   1.896  2.6355  1.9285  0.3741
 9737SOL     OW32230   9.026   6.174   7.236 -0.4244 -0.1540 -0.0018
 9737SOL    HW132231   8.947   6.204   7.281 -0.1082 -0.3254  0.6702
 9737SOL    HW232232   9.091   6.165   7.305 -0.0043 -0.6729 -0.4585
 9738SOL     OW32233   3.750   3.071   1.361  0.1834  0.1276  0.0422
 9738SOL    HW132234   3.680   3.053   1.424 -0.4678  3.1344  0.2321
 9738SOL    HW232235   3.781   3.158   1.384  0.0204  1.2547 -3.7324
 9739SOL     OW32236   4.080   5.927   5.473  0.4492 -0.1011  0.1821
 9739SOL    HW132237   4.159   5.940   5.420  0.7746 -1.9130  0.1994
 9739SOL    HW232238   4.008   5.941   5.411  0.8294 -1.9268 -0.6792
 9740SOL     OW32239   8.103   2.252   8.227  0.3947  0.1069 -0.3714
 9740SOL    HW132240   8.091   2.343   8.254 -1.7353 -0.4600  0.6678
 9740SOL    HW232241   8.191   2.229   8.256  0.4686  1.4499  0.4802
 9741SOL     OW32242   5.149   1.469   0.532 -0.2504 -0.4000  0.2045
 9741SOL    HW132243   5.089   1.441   0.464  2.9443  0.9012 -3.2936
 9741SOL    HW232244   5.122   1.558   0.553 -1.3720 -0.8795  0.8553
 9742SOL     OW32245   9.246   3.023   7.174  0.2399  0.0863  0.1351
 9742SOL    HW132246   9.245   3.107   7.128  1.9866  0.2753  0.3961
 9742SOL    HW232247   9.193   3.038   7.252 -0.3966  0.5995 -0.3827
 9743SOL     OW32248   7.184   6.458   4.348 -0.6152  0.1552 -0.0043
 9743SOL    HW132249   7.089   6.456   4.337 -0.6708  0.4226  0.4493
 9743SOL    HW232250   7.201   6.399   4.421 -0.4951  0.7326  0.4290
 9744SOL     OW32251   4.355   9.279   4.556 -0.4245 -0.0065  0.2188
 9744SOL    HW132252   4.277   9.310   4.511 -0.9469 -0.4501  0.8023
 9744SOL    HW232253   4.406   9.235   4.489 -0.0598  1.3932 -0.4412
 9745SOL     OW32254   8.842   4.946   1.022 -0.1899  0.1869 -0.2608
 9745SOL    HW132255   8.862   4.868   1.073  0.8150  0.0752 -0.8198
 9745SOL    HW232256   8.806   4.913   0.940  1.1131  0.2635 -0.8840
 9746SOL     OW32257   1.543   7.708   6.634 -0.5185 -0.2795  0.6404
 9746SOL    HW132258   1.481   7.644   6.601  1.4368 -1.7258 -0.3150
 9746SOL    HW232259   1.592   7.736   6.557  0.7627 -0.0049  1.5412
 9747SOL     OW32260   7.485   9.037   4.972 -0.3085  0.1776  0.2722
 9747SOL    HW132261   7.415   9.003   4.916  0.3679  0.0853 -0.5212
 9747SOL    HW232262   7.549   9.074   4.911 -0.2116  1.3052  1.0444
 9748SOL     OW32263   8.432   8.378   5.383  0.2806 -0.3138 -0.5533
 9748SOL    HW132264   8.430   8.290   5.420  1.5507 -0.1945 -0.1866
 9748SOL    HW232265   8.493   8.426   5.439 -1.3529  1.1387  0.0187
 9749SOL     OW32266   6.964   5.950   3.487 -0.8333 -0.4531  0.4596
 9749SOL    HW132267   7.020   5.954   3.564  0.2128  0.1992 -0.3181
 9749SOL    HW232268   7.024   5.930   3.415 -1.3790  1.4824 -0.5783
 9750SOL     OW32269   5.346   3.274   7.305  0.2270 -0.1707 -0.2334
 9750SOL    HW132270   5.311   3.215   7.371  1.0134  0.4760  0.7697
 9750SOL    HW232271   5.401   3.219   7.250 -0.8859 -0.8248 -0.7178
 9751SOL     OW32272   6.998   7.102   5.855  0.2478  0.1424 -0.2269
 9751SOL    HW132273   7.053   7.177   5.836 -0.1663  0.7059  0.7535
 9751SOL    HW232274   6.937   7.097   5.781  0.3764  0.6769 -0.3704
 9752SOL     OW32275   1.340   8.362   1.808  0.3773  0.4627 -0.3690
 9752SOL    HW132276   1.246   8.379   1.804  0.1728 -0.6334 -0.2643
 9752SOL    HW232277   1.380   8.448   1.794 -0.6324  0.8928 -0.6803
 9753SOL     OW32278   0.838   8.493   3.226  0.0368  0.2652  0.0377
 9753SOL    HW132279   0.797   8.431   3.167 -0.3421 -0.8203  1.4107
 9753SOL    HW232280   0.932   8.488   3.206  0.1502 -1.7003  1.0198
 9754SOL     OW32281   0.253   0.023   7.258 -0.6777  0.3120  0.2317
 9754SOL    HW132282   0.289   0.043   7.345 -2.3331  0.7854  0.8262
 9754SOL    HW232283   0.328   0.030   7.199  0.7848 -1.5213  1.8283
 9755SOL     OW32284   7.782   3.896   5.685 -0.3785 -0.1455  0.8420
 9755SOL    HW132285   7.755   3.910   5.594  1.7431 -0.0996  0.1805
 9755SOL    HW232286   7.735   3.963   5.734 -0.9184  0.3748 -0.3559
 9756SOL     OW32287   7.351   6.098   8.302  0.6444 -0.3258  0.7428
 9756SOL    HW132288   7.314   6.165   8.245  0.3028  0.4421  1.8604
 9756SOL    HW232289   7.289   6.026   8.299  0.6759 -0.3281  0.0772
 9757SOL     OW32290   7.999   1.621   6.220  0.0350  0.0194 -0.2779
 9757SOL    HW132291   8.046   1.607   6.302 -0.4324 -3.1547 -0.4845
 9757SOL    HW232292   8.052   1.577   6.153 -1.2930 -0.3335 -1.1263
 9758SOL     OW32293   8.734   1.886   6.137  0.2861  0.1668  0.4372
 9758SOL    HW132294   8.781   1.945   6.078  1.0676  0.4392  1.3183
 9758SOL    HW232295   8.799   1.821   6.163 -0.6609 -1.2869 -0.7793
 9759SOL     OW32296   0.664   0.053   5.456  0.4941  0.5539 -0.4965
 9759SOL    HW132297   0.597   0.121   5.450  0.4788  0.3867 -2.2465
 9759SOL    HW232298   0.651  -0.001   5.378  0.9468 -1.0542  0.5197
 9760SOL     OW32299   5.851   9.444   9.401  0.6043  0.0445  0.1665
 9760SOL    HW132300   5.868   9.468   9.492  1.8451  0.7163 -0.2403
 9760SOL    HW232301   5.882   9.353   9.395 -1.6447 -0.8179  1.0074
 9761SOL     OW32302   6.357   7.897   3.227  0.7729  0.9865 -0.3217
 9761SOL    HW132303   6.272   7.938   3.208 -0.3259 -1.5617 -1.1597
 9761SOL    HW232304   6.410   7.917   3.150 -0.4079 -0.7510 -1.6508
 9762SOL     OW32305   5.931   2.276   0.006 -0.5291  0.1988 -0.1455
 9762SOL    HW132306   5.943   2.370   0.017  1.1560  0.1540 -1.5678
 9762SOL    HW232307   5.920   2.263  -0.088 -1.2180 -0.9866  0.0822
 9763SOL     OW32308   8.943   7.089   2.375  0.4409  0.4361 -0.2445
 9763SOL    HW132309   8.884   7.014   2.374  0.9926  0.0074 -1.1023
 9763SOL    HW232310   9.022   7.059   2.330  1.9930  0.4808  2.3723
 9764SOL     OW32311   1.842   9.017   4.323  0.2852 -0.0656  0.5301
 9764SOL    HW132312   1.825   8.984   4.412 -1.8137 -0.1823  0.1009
 9764SOL    HW232313   1.893   9.098   4.337  1.5485 -1.0362  1.7449
 9765SOL     OW32314   0.234   8.913   1.535  0.1777  0.2794  0.0324
 9765SOL    HW132315   0.150   8.870   1.550  0.2701  0.2847  0.5797
 9765SOL    HW232316   0.214   9.007   1.533  0.4618  0.4138  2.2751
 9766SOL     OW32317   7.351   0.327   0.142 -0.0512 -0.1351 -0.4588
 9766SOL    HW132318   7.389   0.347   0.228  0.5174 -2.4306 -0.1555
 9766SOL    HW232319   7.269   0.283   0.162 -0.1382 -0.2614 -1.1003
 9767SOL     OW32320   7.727   5.004   6.609  0.5979  0.1515 -0.1854
 9767SOL    HW132321   7.787   4.933   6.631  0.3128  0.3597  1.3018
 9767SOL    HW232322   7.719   5.000   6.513  2.6036 -0.1631 -0.3548
 9768SOL     OW32323   7.596   8.564   2.427 -0.2747  0.0818 -0.3031
 9768SOL    HW132324   7.581   8.470   2.434  1.4076 -0.0127  3.0638
 9768SOL    HW232325   7.688   8.572   2.400 -0.0796  0.7612  0.5480
 9769SOL     OW32326   8.788   1.888   2.106  0.2514  0.1807 -0.5250
 9769SOL    HW132327   8.766   1.795   2.112  1.3238  0.0342  1.4117
 9769SOL    HW232328   8.827   1.910   2.190 -1.0392  2.6855 -0.5131
 9770SOL     OW32329   1.719   4.033   1.003  0.4037 -0.1857  0.2873
 9770SOL    HW132330   1.756   4.117   1.032 -1.4763  0.5268  0.7434
 9770SOL    HW232331   1.627   4.053   0.985  0.2962 -1.8144 -1.1365
 9771SOL     OW32332   6.659   0.852   2.140  0.5857  0.1331  0.6275
 9771SOL    HW132333   6.656   0.947   2.146 -1.7145  0.3843 -3.1737
 9771SOL    HW232334   6.634   0.822   2.228 -2.8577  3.0618  0.7731
 9772SOL     OW32335   2.750   0.398   8.777  0.0696  0.4909  0.7602
 9772SOL    HW132336   2.763   0.450   8.856  1.4923  1.2232  0.0545
 9772SOL    HW232337   2.765   0.308   8.805  1.3435  0.8160  1.1678
 9773SOL     OW32338   5.991   6.946   3.818 -0.6273  0.2573 -0.0379
 9773SOL    HW132339   6.016   6.894   3.895 -1.3296  0.8663  0.6089
 9773SOL    HW232340   5.913   6.994   3.846 -1.7810 -0.6630 -1.6336
 9774SOL     OW32341   7.636   0.369   0.663  0.0158  0.0363  0.1012
 9774SOL    HW132342   7.642   0.423   0.742 -1.8873 -1.0385  1.0125
 9774SOL    HW232343   7.648   0.431   0.591 -0.0855  1.3368  1.1827
 9775SOL     OW32344   3.092   2.924   5.515 -0.3297 -0.1663  0.8040
 9775SOL    HW132345   3.092   2.895   5.424 -1.7687 -1.3581  1.1689
 9775SOL    HW232346   3.077   3.018   5.510 -0.1870 -0.1864 -0.1874
 9776SOL     OW32347   6.434   6.227   5.486  0.0992 -0.1064  0.3628
 9776SOL    HW132348   6.491   6.270   5.549 -0.5649 -2.5133  2.6508
 9776SOL    HW232349   6.489   6.161   5.444  0.2165  0.6928 -0.7735
 9777SOL     OW32350   2.071   7.258   6.874 -0.0830  0.2922  0.2521
 9777SOL    HW132351   2.152   7.212   6.854 -1.0451 -2.0615  1.5045
 9777SOL    HW232352   2.063   7.252   6.969 -1.2767  1.2937  0.2325
 9778SOL     OW32353   8.001   5.557   7.178  0.1311 -0.7037  0.0391
 9778SOL    HW132354   8.040   5.558   7.266 -1.0692  0.3135  0.5683
 9778SOL    HW232355   8.018   5.468   7.146  1.0351 -0.9284  1.0838
 9779SOL     OW32356   3.510   6.258   6.092  0.5638 -0.4005 -0.2565
 9779SOL    HW132357   3.486   6.279   6.182  0.4712 -1.1329 -0.1141
 9779SOL    HW232358   3.484   6.167   6.080 -1.3806  0.3038 -1.6697
 9780SOL     OW32359   1.051   2.076   6.529 -0.0078  0.2085 -0.1992
 9780SOL    HW132360   0.992   2.071   6.605  1.1617  0.6522  0.7551
 9780SOL    HW232361   0.995   2.056   6.454 -0.9235 -1.5150  0.9071
 9781SOL     OW32362   1.453   5.591   4.256 -0.0271  0.0192  0.0377
 9781SOL    HW132363   1.418   5.681   4.254 -0.9464 -0.2837  1.5571
 9781SOL    HW232364   1.398   5.546   4.320  0.5972 -1.5724 -0.5374
 9782SOL     OW32365   2.600   5.277   9.050  0.6956 -0.4282 -0.2846
 9782SOL    HW132366   2.577   5.185   9.033 -0.5038 -0.1872  0.0182
 9782SOL    HW232367   2.689   5.273   9.085  0.6960 -1.4741 -0.3880
 9783SOL     OW32368   2.219   6.245   8.137 -0.3023 -0.3675  0.3540
 9783SOL    HW132369   2.164   6.213   8.066 -1.5359  1.1473  0.6270
 9783SOL    HW232370   2.180   6.207   8.216 -0.1088 -0.4518  0.4093
 9784SOL     OW32371   0.077   5.310   2.362 -0.1678 -0.3092 -0.5166
 9784SOL    HW132372   0.021   5.378   2.398  2.0093  1.3415 -0.1451
 9784SOL    HW232373   0.026   5.273   2.289 -1.4537  1.6043 -0.6217
 9785SOL     OW32374   8.862   9.150   3.065  0.0877  0.2107  0.1145
 9785SOL    HW132375   8.792   9.115   3.010  1.0640 -1.0011 -0.3926
 9785SOL    HW232376   8.846   9.244   3.068 -0.9235  0.0843 -0.8996
 9786SOL     OW32377   4.038   5.931   1.746 -0.2109  0.6265  0.0493
 9786SOL    HW132378   4.127   5.915   1.712  0.2094  0.2695  1.2795
 9786SOL    HW232379   4.000   5.995   1.686  0.9505  0.9182 -0.3863
 9787SOL     OW32380   3.688   8.673   6.733  0.3024 -0.3370 -0.2868
 9787SOL    HW132381   3.633   8.617   6.788 -0.3536 -1.2074 -1.8008
 9787SOL    HW232382   3.733   8.612   6.675  0.8539  0.5946 -0.8506
 9788SOL     OW32383   1.611   0.227   3.491 -0.4257 -0.1503  0.3074
 9788SOL    HW132384   1.648   0.273   3.415  1.5329 -1.4794  0.4322
 9788SOL    HW232385   1.525   0.268   3.504  0.2648  1.8085 -1.0725
 9789SOL     OW32386   7.490   4.801   0.961 -0.3758  0.1743 -0.4726
 9789SOL    HW132387   7.401   4.837   0.955 -0.4226  0.4320  1.3633
 9789SOL    HW232388   7.481   4.709   0.935 -1.0772  0.3493 -0.8466
 9790SOL     OW32389   4.418   0.911   9.023  0.6827  0.4013  0.4720
 9790SOL    HW132390   4.405   0.843   9.090  0.0002  0.0759  0.0110
 9790SOL    HW232391   4.389   0.870   8.941  0.4317  1.1929  0.1640
 9791SOL     OW32392   7.846   3.781   1.947  0.2360  0.3880 -0.0291
 9791SOL    HW132393   7.792   3.791   2.025 -0.2046 -0.8230 -0.1534
 9791SOL    HW232394   7.783   3.765   1.877  0.7119 -0.3686 -0.2957
 9792SOL     OW32395   3.183   6.451   4.875  0.2678  0.1317 -0.2661
 9792SOL    HW132396   3.276   6.456   4.898 -0.1128 -1.4508  1.6928
 9792SOL    HW232397   3.141   6.514   4.933  0.1015  0.8823 -1.1862
 9793SOL     OW32398   7.349   9.417   4.194  0.2662 -0.6957  0.1426
 9793SOL    HW132399   7.346   9.502   4.239  2.3332 -0.8267  0.5645
 9793SOL    HW232400   7.277   9.422   4.130  0.8352  1.6998 -0.3843
 9794SOL     OW32401   1.513   8.311   7.833 -0.3005  0.3043  0.6987
 9794SOL    HW132402   1.581   8.371   7.864  0.0096  0.7873 -0.9023
 9794SOL    HW232403   1.546   8.224   7.857  0.0805  0.6358  1.4266
 9795SOL     OW32404   7.622   8.685   5.148 -0.6042 -0.5346  0.3884
 9795SOL    HW132405   7.662   8.726   5.071 -2.6604 -0.9899 -0.9717
 9795SOL    HW232406   7.580   8.757   5.194  0.0391 -0.3667  0.7144
 9796SOL     OW32407   8.102   6.046   3.731 -0.4716 -0.2876  0.0128
 9796SOL    HW132408   8.190   6.084   3.732 -0.1147 -1.0807 -0.3195
 9796SOL    HW232409   8.099   5.990   3.809 -0.8748  0.1567  0.3200
 9797SOL     OW32410   3.747   3.364   7.756  0.1844  0.5055 -0.0819
 9797SOL    HW132411   3.764   3.386   7.848  1.7540  0.6818 -0.4012
 9797SOL    HW232412   3.652   3.360   7.750  0.0519  0.8782  1.4666
 9798SOL     OW32413   3.356   7.702   6.903  0.6217  0.3971 -0.2843
 9798SOL    HW132414   3.372   7.768   6.836  0.9338  1.4658  0.8256
 9798SOL    HW232415   3.287   7.739   6.958  0.6692 -0.2861  0.2473
 9799SOL     OW32416   0.225   0.849   3.191  0.7135 -0.1666  0.1981
 9799SOL    HW132417   0.257   0.764   3.220  1.3383  0.0482  0.1466
 9799SOL    HW232418   0.275   0.913   3.242  0.7374  0.1843 -0.2593
 9800SOL     OW32419   5.810   0.826   0.520  0.6326  0.5594  0.8384
 9800SOL    HW132420   5.714   0.825   0.517  0.6842  0.5202 -2.1481
 9800SOL    HW232421   5.835   0.734   0.523  0.5783  0.3901 -2.0006
 9801SOL     OW32422   4.015   8.515   2.927  0.5656  0.5249  0.3101
 9801SOL    HW132423   4.027   8.473   3.012 -1.1047 -2.4031 -0.8068
 9801SOL    HW232424   4.088   8.483   2.874  0.6936  1.0195  0.1918
 9802SOL     OW32425   1.900   8.564   1.033 -0.9094  0.3722 -0.3126
 9802SOL    HW132426   1.851   8.552   1.114 -2.2046  0.4566 -1.0561
 9802SOL    HW232427   1.926   8.476   1.007  3.8709  0.7314  2.7527
 9803SOL     OW32428   3.882   1.818   0.352 -0.0310 -0.2397  0.5667
 9803SOL    HW132429   3.896   1.785   0.441  0.1640 -1.4429  0.0930
 9803SOL    HW232430   3.954   1.879   0.338 -1.2356  1.5709  1.9999
 9804SOL     OW32431   5.353   3.623   8.909  0.7422 -0.7772 -0.5457
 9804SOL    HW132432   5.308   3.569   8.975  1.1058  0.2220  0.5164
 9804SOL    HW232433   5.282   3.653   8.852  0.3302 -1.0412 -0.1830
 9805SOL     OW32434   1.381   8.029   2.451  0.4258 -0.0399  0.1429
 9805SOL    HW132435   1.436   7.953   2.465 -0.6823 -1.1430 -1.3538
 9805SOL    HW232436   1.441   8.099   2.425  1.3752 -0.5618  0.9479
 9806SOL     OW32437   8.585   5.440   0.177 -0.2251  0.2308 -0.2197
 9806SOL    HW132438   8.601   5.394   0.095  0.0028 -0.8360  0.4142
 9806SOL    HW232439   8.505   5.401   0.212  0.3129 -0.1344  0.6291
 9807SOL     OW32440   2.938   7.393   5.724  0.1663  0.1825  0.0543
 9807SOL    HW132441   2.950   7.361   5.813  1.5938  0.2697 -0.0986
 9807SOL    HW232442   3.023   7.383   5.683 -0.2947  0.8220 -1.0912
 9808SOL     OW32443   6.455   0.080   1.218 -0.1436  0.0687 -0.2664
 9808SOL    HW132444   6.448   0.078   1.122  1.9458 -0.6573 -0.4345
 9808SOL    HW232445   6.441   0.172   1.241 -2.4444 -0.0358 -1.0866
 9809SOL     OW32446   4.039   3.870   3.131  0.0182  0.3587  0.8866
 9809SOL    HW132447   3.968   3.808   3.145 -0.6953  0.9696  0.0912
 9809SOL    HW232448   4.012   3.948   3.180 -0.0373  0.7210  0.2793
 9810SOL     OW32449   8.357   7.341   9.248 -0.7442 -0.1882  0.0262
 9810SOL    HW132450   8.435   7.389   9.277 -0.8268  0.0007 -0.0602
 9810SOL    HW232451   8.316   7.399   9.184  0.1423 -1.1839 -1.4755
 9811SOL     OW32452   2.235   2.850   7.292  0.4085  0.3991 -0.3807
 9811SOL    HW132453   2.300   2.873   7.225  1.9227  1.6686  1.4569
 9811SOL    HW232454   2.243   2.756   7.302 -1.0219 -0.0780 -3.1362
 9812SOL     OW32455   1.779   9.434   2.737  0.2644 -1.0312  0.1067
 9812SOL    HW132456   1.782   9.437   2.832 -2.8863 -0.1980  0.2523
 9812SOL    HW232457   1.810   9.346   2.714  3.7679 -0.2814  1.6649
 9813SOL     OW32458   8.849   3.044   1.601  0.2017 -0.1836  0.2560
 9813SOL    HW132459   8.778   3.020   1.659 -0.5561  2.0340  0.3148
 9813SOL    HW232460   8.928   3.016   1.647 -0.4978 -0.3637  1.3697
 9814SOL     OW32461   9.037   4.505   8.194 -0.2482  0.3945 -0.3296
 9814SOL    HW132462   9.024   4.494   8.100 -1.9617  1.3922 -0.2231
 9814SOL    HW232463   9.121   4.551   8.201 -0.3505  0.7589 -1.3937
 9815SOL     OW32464   7.699   3.448   2.534 -0.3391  0.2806 -0.0092
 9815SOL    HW132465   7.725   3.449   2.442  0.0328 -0.1780  0.0927
 9815SOL    HW232466   7.682   3.540   2.555  1.2453  0.5906 -0.0568
 9816SOL     OW32467   1.815   6.663   1.921 -0.0283  0.6107 -0.1664
 9816SOL    HW132468   1.755   6.636   1.990  1.7760  1.9027  1.9715
 9816SOL    HW232469   1.884   6.596   1.921  0.8077  1.4564  0.3934
 9817SOL     OW32470   8.941   2.168   6.285  0.2371  0.1239  0.2486
 9817SOL    HW132471   8.898   2.089   6.318 -1.0775  1.0406  0.7434
 9817SOL    HW232472   8.929   2.164   6.190 -0.8420  0.3156  0.3762
 9818SOL     OW32473   7.297   9.225   3.871  0.2855  0.0323  0.0348
 9818SOL    HW132474   7.220   9.260   3.915  0.1233 -0.9397  0.5451
 9818SOL    HW232475   7.277   9.132   3.858  1.2922 -0.1868  0.0075
 9819SOL     OW32476   4.974   2.701   2.670 -0.5924 -0.9497 -0.1053
 9819SOL    HW132477   5.027   2.621   2.666 -0.0665 -0.5752 -0.7807
 9819SOL    HW232478   5.016   2.760   2.608 -1.6618 -0.5519 -0.4594
 9820SOL     OW32479   8.141   8.855   1.761  0.3378  0.0615 -0.2020
 9820SOL    HW132480   8.145   8.776   1.707 -0.6518  0.0238 -0.2245
 9820SOL    HW232481   8.139   8.927   1.698  0.0091  0.0526 -0.1997
 9821SOL     OW32482   4.676   7.861   7.315 -0.3266 -0.1736 -0.1400
 9821SOL    HW132483   4.671   7.771   7.348  1.0013  0.1629  1.0419
 9821SOL    HW232484   4.707   7.911   7.390 -2.2888  1.5063 -0.3995
 9822SOL     OW32485   4.518   1.114   0.241 -0.3165  0.2815 -0.1805
 9822SOL    HW132486   4.478   1.109   0.327 -0.0204 -1.2178 -0.1089
 9822SOL    HW232487   4.448   1.144   0.183 -1.0615 -0.6109  0.2469
 9823SOL     OW32488   6.714   7.495   4.075 -0.3136  0.1138  0.7129
 9823SOL    HW132489   6.621   7.476   4.081 -0.3188  0.3136  1.3484
 9823SOL    HW232490   6.724   7.546   3.995 -0.2897 -2.5961 -1.0474
 9824SOL     OW32491   7.921   7.441   1.493 -0.8073 -0.1754  0.6668
 9824SOL    HW132492   7.841   7.441   1.440  0.9090 -0.8617 -2.0329
 9824SOL    HW232493   7.974   7.370   1.457  1.5353  1.0359  1.6174
 9825SOL     OW32494   4.047   0.844   3.328  0.3718  0.4135  0.9772
 9825SOL    HW132495   4.076   0.766   3.280  1.5209  0.6838  1.2282
 9825SOL    HW232496   3.999   0.809   3.403  1.2142 -0.0502  1.3007
 9826SOL     OW32497   6.103   5.035   8.198  0.2517  0.1362  0.3072
 9826SOL    HW132498   6.025   5.065   8.245  0.1543 -0.3422  0.4636
 9826SOL    HW232499   6.176   5.062   8.254  0.3136  2.3530 -0.8348
 9827SOL     OW32500   3.408   0.929   0.594 -0.1268  0.0597 -0.1590
 9827SOL    HW132501   3.440   0.920   0.684 -0.4091 -0.5995 -0.1224
 9827SOL    HW232502   3.470   0.879   0.541  0.2380  0.7361 -0.3765
 9828SOL     OW32503   3.683   2.547   3.241  0.2470 -0.0319  0.3027
 9828SOL    HW132504   3.606   2.493   3.227  1.9248 -2.8679  1.4629
 9828SOL    HW232505   3.711   2.572   3.153 -0.6282 -0.9999 -0.2609
 9829SOL     OW32506   2.860   5.934   3.698 -0.6235  0.1552 -0.1364
 9829SOL    HW132507   2.769   5.964   3.698 -0.5507  0.4009  1.0179
 9829SOL    HW232508   2.863   5.866   3.630 -1.6116  0.3141 -0.3463
 9830SOL     OW32509   6.492   2.573   4.387  0.0066 -0.1805  0.5084
 9830SOL    HW132510   6.470   2.483   4.364  0.6297 -0.1472 -0.2326
 9830SOL    HW232511   6.432   2.626   4.335  0.4540 -0.1382  0.0377
 9831SOL     OW32512   2.317   7.993   1.455 -0.3075 -0.4127 -0.1809
 9831SOL    HW132513   2.367   7.913   1.442 -1.1664 -1.0081  0.1174
 9831SOL    HW232514   2.233   7.976   1.413 -1.2428 -0.4469  1.6525
 9832SOL     OW32515   9.134   3.936   1.643  0.3712  0.1712 -0.1045
 9832SOL    HW132516   9.139   3.923   1.548  1.5848 -0.0920 -0.0162
 9832SOL    HW232517   9.115   3.850   1.679 -1.3431  0.4971 -0.1791
 9833SOL     OW32518   2.938   7.554   1.468 -0.3680 -0.3406  0.2153
 9833SOL    HW132519   2.971   7.607   1.541  1.2904 -0.8695 -0.1206
 9833SOL    HW232520   2.963   7.603   1.390  1.3220 -1.6612 -0.1033
 9834SOL     OW32521   0.394   0.910   0.109 -0.4167 -0.2512 -0.0465
 9834SOL    HW132522   0.459   0.877   0.047 -0.6639 -0.0101 -0.4364
 9834SOL    HW232523   0.349   0.980   0.062 -0.5789 -0.0370  0.4204
 9835SOL     OW32524   3.533   1.237   8.832  0.3489  0.3117 -0.2355
 9835SOL    HW132525   3.612   1.291   8.832 -0.3690  1.3861 -0.9285
 9835SOL    HW232526   3.465   1.293   8.794 -0.4092 -1.0819 -0.9924
 9836SOL     OW32527   7.240   4.327   6.364  0.0348 -0.0931  0.4954
 9836SOL    HW132528   7.203   4.241   6.346  1.7392 -0.6943 -0.2207
 9836SOL    HW232529   7.192   4.387   6.307  0.0230 -0.8220 -0.2620
 9837SOL     OW32530   4.904   8.359   8.664  0.2433 -0.1122 -0.2971
 9837SOL    HW132531   4.879   8.331   8.752  3.2043  0.6624  0.8588
 9837SOL    HW232532   4.914   8.454   8.672  1.2793 -0.1408 -1.2749
 9838SOL     OW32533   7.613   6.506   5.717 -0.2798  0.4833  0.5156
 9838SOL    HW132534   7.529   6.495   5.762 -1.6585  0.5468 -1.9041
 9838SOL    HW232535   7.643   6.417   5.699 -1.7502  0.4254 -1.9187
 9839SOL     OW32536   0.557   0.429   3.838 -0.1613  0.2941  0.1346
 9839SOL    HW132537   0.565   0.506   3.781  1.8242  0.8346  1.0944
 9839SOL    HW232538   0.478   0.384   3.807 -0.5969  1.9940 -1.3098
 9840SOL     OW32539   8.267   7.053   8.459 -0.3448  0.0558 -0.8711
 9840SOL    HW132540   8.309   7.139   8.449 -0.7263  0.0523 -2.7936
 9840SOL    HW232541   8.205   7.065   8.531  1.8512  0.4759  0.9926
 9841SOL     OW32542   3.410   5.276   2.835  0.3911 -0.9546  0.3919
 9841SOL    HW132543   3.346   5.347   2.828  0.3299 -1.1828 -1.7732
 9841SOL    HW232544   3.387   5.216   2.764  2.8237 -1.1770 -0.2737
 9842SOL     OW32545   7.440   6.321   6.135  0.2065  0.3562 -0.2556
 9842SOL    HW132546   7.430   6.228   6.157  0.9807  0.2926 -0.1800
 9842SOL    HW232547   7.417   6.367   6.216  2.5302  0.1374  0.5663
 9843SOL     OW32548   7.884   1.608   1.244 -0.2891 -0.4207  0.2035
 9843SOL    HW132549   7.937   1.609   1.165  0.6963 -2.8396  0.7861
 9843SOL    HW232550   7.875   1.515   1.266  0.5042  0.2347  3.6081
 9844SOL     OW32551   2.406   5.250   5.517  0.0569 -0.0660  0.3744
 9844SOL    HW132552   2.376   5.314   5.453 -0.5930 -2.4140 -1.7761
 9844SOL    HW232553   2.329   5.194   5.533  0.5030 -0.1291  2.4425
 9845SOL     OW32554   7.167   3.505   3.122 -0.4157  0.4020 -0.4324
 9845SOL    HW132555   7.223   3.451   3.066 -0.2103 -0.2186  0.3594
 9845SOL    HW232556   7.103   3.543   3.062  0.6374  0.8359 -1.2950
 9846SOL     OW32557   1.657   7.979   6.779 -0.1204 -1.1095 -0.6634
 9846SOL    HW132558   1.656   8.028   6.861 -1.8718 -1.3209 -0.5369
 9846SOL    HW232559   1.589   7.912   6.790  0.3872 -1.8474 -1.8664
 9847SOL     OW32560   6.429   7.228   2.426 -0.2238 -0.0916 -0.1510
 9847SOL    HW132561   6.343   7.233   2.468  0.3745 -1.4642  1.2378
 9847SOL    HW232562   6.492   7.242   2.497  0.7482 -0.5424 -0.9083
 9848SOL     OW32563   3.566   4.128   6.114  0.2367 -0.3285 -0.5003
 9848SOL    HW132564   3.516   4.085   6.183  1.3220 -1.5640 -0.4677
 9848SOL    HW232565   3.607   4.056   6.065  1.5083  0.6281 -0.8836
 9849SOL     OW32566   6.941   3.389   8.279  0.2651  0.4317 -0.3402
 9849SOL    HW132567   6.879   3.336   8.228  0.9832 -0.7027 -0.0693
 9849SOL    HW232568   7.025   3.375   8.236  1.0040 -1.0545  1.4951
 9850SOL     OW32569   6.819   2.348   0.920 -0.5781 -0.3752 -0.1002
 9850SOL    HW132570   6.734   2.389   0.935 -1.5554 -1.8766 -1.3435
 9850SOL    HW232571   6.807   2.257   0.947  0.7348 -0.5136  0.0585
 9851SOL     OW32572   7.824   0.186   2.206 -0.0686 -0.1546 -0.9836
 9851SOL    HW132573   7.911   0.145   2.205  0.3030  0.6305 -0.8708
 9851SOL    HW232574   7.813   0.221   2.117  0.5271  1.4116 -0.4526
 9852SOL     OW32575   1.515   4.327   3.141 -0.7462 -0.3608 -0.3222
 9852SOL    HW132576   1.538   4.243   3.180 -3.0042 -0.1870  1.4576
 9852SOL    HW232577   1.433   4.310   3.094 -1.6013  0.9803  0.6518
 9853SOL     OW32578   6.583   2.739   4.895  0.3198 -0.2014  0.1042
 9853SOL    HW132579   6.574   2.733   4.800 -1.1823 -0.5373  0.2528
 9853SOL    HW232580   6.672   2.772   4.909 -0.1722  1.8236 -1.4518
 9854SOL     OW32581   7.404   8.350   3.183 -0.2977  0.4097 -0.6805
 9854SOL    HW132582   7.468   8.281   3.197  0.2798  1.2328  0.8529
 9854SOL    HW232583   7.425   8.386   3.096 -0.3716 -1.0544 -1.3208
 9855SOL     OW32584   5.916   5.108   2.091 -0.0011 -0.1200  0.2385
 9855SOL    HW132585   6.006   5.121   2.058 -0.3526  0.6919 -0.4025
 9855SOL    HW232586   5.867   5.082   2.013 -0.1971 -1.2018  0.7125
 9856SOL     OW32587   6.383   7.898   7.582 -0.0718 -0.2139  0.6740
 9856SOL    HW132588   6.314   7.873   7.643 -0.2579  0.4971  0.7623
 9856SOL    HW232589   6.464   7.888   7.631 -0.1334 -0.7177  0.6799
 9857SOL     OW32590   1.596   7.983   5.704  0.7937  0.0224 -0.9525
 9857SOL    HW132591   1.590   8.071   5.668 -3.6154  0.3558  0.3511
 9857SOL    HW232592   1.605   7.996   5.798  0.6978 -0.9211 -0.8086
 9858SOL     OW32593   4.899   7.373   3.615 -0.4539  0.1552  0.3428
 9858SOL    HW132594   4.853   7.443   3.569 -1.5042 -0.5980  0.2216
 9858SOL    HW232595   4.965   7.342   3.552 -0.5731  0.4482  0.0738
 9859SOL     OW32596   3.889   9.420   4.827 -0.3008  0.0869  0.2472
 9859SOL    HW132597   3.878   9.489   4.892 -0.6987  1.1015 -0.8848
 9859SOL    HW232598   3.900   9.466   4.744 -0.5200 -1.2011 -0.5176
 9860SOL     OW32599   3.278   9.373   6.211 -0.8961  0.1960 -0.8097
 9860SOL    HW132600   3.316   9.314   6.146 -0.2573 -0.9392  0.5634
 9860SOL    HW232601   3.184   9.358   6.206 -0.7542 -0.7905 -0.6307
 9861SOL     OW32602   6.230   3.415   4.393 -0.3110  0.1547 -0.3410
 9861SOL    HW132603   6.150   3.390   4.345 -0.3141  0.0229 -0.2678
 9861SOL    HW232604   6.247   3.341   4.450  0.7917 -0.5383 -1.5358
 9862SOL     OW32605   5.039   4.837   2.195 -0.1555  0.3620 -0.0021
 9862SOL    HW132606   4.962   4.819   2.249  1.3708 -1.2976  1.6993
 9862SOL    HW232607   5.070   4.922   2.225 -0.2500  0.1758  0.6328
 9863SOL     OW32608   0.405   7.145   7.873 -0.0446 -0.1786 -0.2637
 9863SOL    HW132609   0.480   7.131   7.816 -1.1123 -1.2839 -1.4250
 9863SOL    HW232610   0.387   7.059   7.911 -2.2554 -0.4952 -1.9488
 9864SOL     OW32611   5.020   1.961   6.933 -0.0085 -0.1554 -0.2984
 9864SOL    HW132612   5.114   1.958   6.950  0.1574  0.1725 -1.1248
 9864SOL    HW232613   4.981   1.916   7.008  0.8138 -0.4321 -0.0252
 9865SOL     OW32614   6.175   8.039   4.160  0.3518  0.3435  0.1172
 9865SOL    HW132615   6.109   7.977   4.127  1.2142  0.4357 -1.8497
 9865SOL    HW232616   6.133   8.124   4.156  0.5110  0.3797 -0.9737
 9866SOL     OW32617   5.054   2.379   4.015  0.3611  0.1753 -0.5049
 9866SOL    HW132618   5.093   2.315   3.955 -2.8412 -0.1847 -2.3377
 9866SOL    HW232619   5.106   2.458   4.002  2.6886 -1.2563 -0.2073
 9867SOL     OW32620   1.868   9.233   1.146 -0.2009  0.3101 -0.3374
 9867SOL    HW132621   1.824   9.161   1.099 -0.0276  0.9706 -1.5218
 9867SOL    HW232622   1.826   9.312   1.113  0.3579  0.8199  0.1693
 9868SOL     OW32623   5.119   1.217   5.660 -0.4014  0.3396 -0.2876
 9868SOL    HW132624   5.132   1.124   5.679  2.2935  0.1459 -2.7125
 9868SOL    HW232625   5.029   1.223   5.629  0.5425 -2.1865 -3.8146
 9869SOL     OW32626   8.503   7.681   3.917  0.5057  0.5377 -0.1410
 9869SOL    HW132627   8.549   7.666   3.999 -0.5574  1.1586  0.5811
 9869SOL    HW232628   8.453   7.601   3.902  1.0464  0.2502 -0.4183
 9870SOL     OW32629   8.889   8.122   1.939  0.5492 -0.0121  0.0341
 9870SOL    HW132630   8.962   8.101   1.881  0.1864 -0.3024 -0.3189
 9870SOL    HW232631   8.854   8.037   1.967  0.7953  0.1235  0.7721
 9871SOL     OW32632   8.190   3.636   0.543  0.2588 -0.5794 -0.5111
 9871SOL    HW132633   8.173   3.730   0.533 -1.0215 -0.7613 -0.1115
 9871SOL    HW232634   8.124   3.594   0.488 -0.2985 -1.2939  0.6937
 9872SOL     OW32635   7.166   2.920   3.845  0.2024  0.3048 -0.1509
 9872SOL    HW132636   7.099   2.987   3.842 -1.2293 -1.0200  1.5016
 9872SOL    HW232637   7.218   2.940   3.923 -1.6604 -1.8101  1.6740
 9873SOL     OW32638   8.172   8.739   7.551 -0.5722  0.3548  0.1989
 9873SOL    HW132639   8.254   8.770   7.590 -0.7247  1.4122 -0.2945
 9873SOL    HW232640   8.139   8.674   7.613  0.2361  0.5084  0.8011
 9874SOL     OW32641   8.650   9.160   7.250  0.1848 -0.4966  0.5293
 9874SOL    HW132642   8.595   9.138   7.324 -0.2047 -1.4638 -0.0422
 9874SOL    HW232643   8.624   9.099   7.181 -0.2994  1.1581 -0.7873
 9875SOL     OW32644   6.716   8.836   3.070 -0.1209 -0.3071 -0.0528
 9875SOL    HW132645   6.798   8.862   3.112  0.8267 -1.2361 -1.3124
 9875SOL    HW232646   6.675   8.777   3.133  1.2158 -1.5647 -0.3351
 9876SOL     OW32647   8.218   0.760   9.190 -0.1330 -0.2431 -1.0868
 9876SOL    HW132648   8.271   0.724   9.261  1.8014  2.5176 -1.0473
 9876SOL    HW232649   8.258   0.725   9.110 -1.4799 -2.2786 -0.8967
 9877SOL     OW32650   3.716   1.306   9.351  0.2319 -0.7043 -0.1643
 9877SOL    HW132651   3.690   1.286   9.261  1.0986  1.6002 -0.9855
 9877SOL    HW232652   3.792   1.363   9.341 -0.4521  0.6476  1.9997
 9878SOL     OW32653   4.914   8.807   2.538 -0.3484  0.4622  0.2196
 9878SOL    HW132654   5.002   8.775   2.520 -0.0899 -1.1401  3.7022
 9878SOL    HW232655   4.921   8.902   2.536  1.8943  0.3891  1.9573
 9879SOL     OW32656   8.641   2.156   5.382 -0.6209 -0.3672  0.3188
 9879SOL    HW132657   8.611   2.211   5.309  1.5372  2.7680  1.6764
 9879SOL    HW232658   8.708   2.099   5.343  2.1937  2.8642  0.1524
 9880SOL     OW32659   1.136   1.925   0.513  0.8723  0.4317 -0.1975
 9880SOL    HW132660   1.158   1.973   0.433  0.9293  0.4774 -0.1546
 9880SOL    HW232661   1.050   1.959   0.538 -0.6407 -1.9071 -2.0399
 9881SOL     OW32662   9.110   8.991   6.465 -0.4253  0.2447 -0.1058
 9881SOL    HW132663   9.015   9.000   6.460 -0.2592  1.5487 -1.3974
 9881SOL    HW232664   9.138   9.066   6.518 -0.2034 -0.8303  1.3311
 9882SOL     OW32665   7.719   8.026   8.112 -0.0339 -0.3063 -0.2435
 9882SOL    HW132666   7.696   8.068   8.029 -3.0463 -1.5681 -0.1095
 9882SOL    HW232667   7.700   8.092   8.178 -0.4048 -0.2952 -0.3600
 9883SOL     OW32668   0.243   0.653   5.527 -0.1816 -0.1962  0.0207
 9883SOL    HW132669   0.329   0.691   5.542 -0.7071  0.3598  1.7955
 9883SOL    HW232670   0.207   0.703   5.453  0.4744  0.4821  0.1596
 9884SOL     OW32671   5.558   1.586   2.866 -0.3061  0.4721  0.2668
 9884SOL    HW132672   5.594   1.670   2.838  0.2582 -0.0946 -0.7169
 9884SOL    HW232673   5.478   1.609   2.914 -0.4083  1.5397 -0.4059
 9885SOL     OW32674   3.180   3.978   5.210 -0.6566 -0.6395 -0.7545
 9885SOL    HW132675   3.157   4.026   5.130 -0.9631  0.0023 -0.2899
 9885SOL    HW232676   3.096   3.961   5.252 -0.3675  1.0021  0.5457
 9886SOL     OW32677   2.822   4.882   5.787  0.3388  0.5078  0.2437
 9886SOL    HW132678   2.856   4.812   5.732  0.9453  1.4496 -0.5816
 9886SOL    HW232679   2.768   4.935   5.729 -0.2413  0.6554  0.9002
 9887SOL     OW32680   0.072   3.147   4.358  0.2207  0.4653  0.2903
 9887SOL    HW132681   0.031   3.081   4.302 -0.5358  1.0519  0.1347
 9887SOL    HW232682   0.150   3.104   4.393 -0.2780 -0.5157  0.2159
 9888SOL     OW32683   2.722   9.035   6.389  0.1156  0.1330  0.0874
 9888SOL    HW132684   2.703   9.055   6.481  1.0142 -1.1150  0.5642
 9888SOL    HW232685   2.774   8.955   6.392  1.3318  0.8269 -1.4314
 9889SOL     OW32686   2.438   5.336   8.560 -0.5271 -0.3249 -0.1253
 9889SOL    HW132687   2.465   5.416   8.514  0.7118 -0.5302  0.2364
 9889SOL    HW232688   2.429   5.363   8.651 -0.6267 -0.4799 -0.0885
 9890SOL     OW32689   8.384   6.881   7.966 -0.4541 -0.3295  0.2682
 9890SOL    HW132690   8.313   6.818   7.953 -0.1718 -0.8937  1.4064
 9890SOL    HW232691   8.441   6.839   8.030 -0.2212  1.0574  0.9729
 9891SOL     OW32692   0.514   4.465   6.848  0.2835 -0.4071 -0.0664
 9891SOL    HW132693   0.427   4.505   6.839  0.3476 -0.0920  0.6822
 9891SOL    HW232694   0.523   4.448   6.942  1.7117  1.1164  0.1031
 9892SOL     OW32695   2.112   5.992   2.283 -0.7399  0.4445  0.2156
 9892SOL    HW132696   2.113   6.053   2.357 -1.9072  0.5610  0.1405
 9892SOL    HW232697   2.204   5.985   2.257 -0.6330  2.4975 -0.0273
 9893SOL     OW32698   4.969   6.453   3.435 -0.5079  0.0299 -0.5307
 9893SOL    HW132699   4.998   6.364   3.418 -0.3442  0.1304 -0.7966
 9893SOL    HW232700   4.899   6.468   3.371 -0.9201 -0.1019 -0.1067
 9894SOL     OW32701   3.235   8.008   6.305  0.2928 -0.0562 -0.1441
 9894SOL    HW132702   3.167   8.041   6.364  1.9021  0.5095  1.4064
 9894SOL    HW232703   3.186   7.969   6.233 -1.7001 -0.2019  1.2460
 9895SOL     OW32704   8.497   5.346   3.362  0.2256 -0.3761 -0.3807
 9895SOL    HW132705   8.539   5.310   3.440  0.7608 -0.8869 -0.9094
 9895SOL    HW232706   8.411   5.376   3.394 -0.5322 -2.7555 -0.0611
 9896SOL     OW32707   8.370   6.667   7.016  0.2725  0.6510 -0.7957
 9896SOL    HW132708   8.448   6.629   6.974 -0.3908 -1.4076 -0.2522
 9896SOL    HW232709   8.400   6.691   7.103  0.6526  1.1958 -1.0726
 9897SOL     OW32710   5.788   3.524   3.756  0.5085  0.6210  0.4771
 9897SOL    HW132711   5.760   3.533   3.665  0.0123 -0.8242  0.4687
 9897SOL    HW232712   5.883   3.536   3.753  0.3951  1.4252 -0.0977
 9898SOL     OW32713   2.851   0.226   7.180 -0.1795 -0.1402 -0.2839
 9898SOL    HW132714   2.786   0.293   7.162 -2.1487 -1.4870  1.5939
 9898SOL    HW232715   2.922   0.272   7.226 -0.4884  1.0331 -0.9612
 9899SOL     OW32716   3.024   4.143   6.478 -0.0131 -0.3117 -0.5624
 9899SOL    HW132717   2.946   4.087   6.478  1.4577 -2.4097  0.8325
 9899SOL    HW232718   2.999   4.217   6.535 -0.9821 -0.9641 -0.1198
 9900SOL     OW32719   4.865   6.014   3.624  0.3840  0.1188 -0.1021
 9900SOL    HW132720   4.846   5.995   3.532  3.9488 -1.1752 -0.6410
 9900SOL    HW232721   4.802   5.960   3.673 -1.3443  0.5920 -1.7137
 9901SOL     OW32722   1.836   0.239   0.299  0.1079  0.4492 -0.3313
 9901SOL    HW132723   1.763   0.290   0.335  0.2008 -0.0733  0.6044
 9901SOL    HW232724   1.803   0.149   0.296  0.8934  0.1223  0.6130
 9902SOL     OW32725   6.082   6.398   3.610 -0.2065  0.1535 -0.1621
 9902SOL    HW132726   5.996   6.403   3.569 -0.0897 -0.7618 -0.5502
 9902SOL    HW232727   6.101   6.304   3.613  0.6174  0.3285  0.2502
 9903SOL     OW32728   1.964   7.139   1.968 -0.4770  0.7571  0.3719
 9903SOL    HW132729   2.012   7.072   1.919 -4.0400 -1.5527 -0.1711
 9903SOL    HW232730   1.959   7.103   2.057  0.8121  2.1254  1.0201
 9904SOL     OW32731   8.939   5.241   5.330  0.0176  0.0775  0.2577
 9904SOL    HW132732   8.871   5.279   5.386  0.6228  1.7651 -0.0967
 9904SOL    HW232733   9.013   5.227   5.388  0.0139  0.0630  0.2569
 9905SOL     OW32734   4.603   5.619   1.901  0.2184  0.0267  0.4155
 9905SOL    HW132735   4.674   5.683   1.899  0.3250 -0.0107  1.9339
 9905SOL    HW232736   4.564   5.630   1.988 -0.9366 -0.7055 -0.0006
 9906SOL     OW32737   3.519   1.195   9.126  0.0509  0.1320 -0.1098
 9906SOL    HW132738   3.534   1.174   9.034  1.7252  0.6494  0.0304
 9906SOL    HW232739   3.546   1.116   9.173 -0.1289  0.1280 -0.0132
 9907SOL     OW32740   7.514   0.933   1.987  0.4259 -0.3564 -0.5984
 9907SOL    HW132741   7.594   0.885   1.965  0.6412  0.5900 -1.9603
 9907SOL    HW232742   7.539   1.025   1.981 -1.0010 -0.0344 -2.0596
 9908SOL     OW32743   5.038   5.475   5.482 -0.1404  0.0592  0.1451
 9908SOL    HW132744   5.105   5.449   5.418  0.2757 -0.8712  0.9558
 9908SOL    HW232745   5.081   5.541   5.536 -0.6745  1.2752 -0.8726
 9909SOL     OW32746   0.726   3.868   6.626 -0.4171 -0.6625  0.3223
 9909SOL    HW132747   0.705   3.801   6.561 -2.2830  0.1374  0.0615
 9909SOL    HW232748   0.780   3.931   6.579 -1.6759 -0.1377 -0.4501
 9910SOL     OW32749   1.929   0.926   2.376  0.5806 -0.0187 -0.5059
 9910SOL    HW132750   1.934   0.841   2.420 -0.0424 -0.4792 -1.2985
 9910SOL    HW232751   2.016   0.964   2.389 -0.0153  0.4829  2.2841
 9911SOL     OW32752   5.298   4.629   1.684  0.4495  0.0369 -0.5645
 9911SOL    HW132753   5.341   4.713   1.698 -2.2976  1.3945  0.0301
 9911SOL    HW232754   5.272   4.600   1.772  2.9505 -2.3687 -0.5378
 9912SOL     OW32755   2.695   2.227   6.168 -0.1666 -0.4172 -0.3592
 9912SOL    HW132756   2.705   2.145   6.216 -1.5386  0.9532  2.3118
 9912SOL    HW232757   2.776   2.275   6.185  0.0846 -0.6436 -0.8779
 9913SOL     OW32758   0.879   5.022   8.452  0.3188  0.0531 -0.3189
 9913SOL    HW132759   0.792   5.018   8.413 -0.3689 -1.2453  1.2886
 9913SOL    HW232760   0.873   5.092   8.516  0.4200 -0.1125 -0.1283
 9914SOL     OW32761   4.694   7.348   6.103  0.5790  0.9144 -0.2566
 9914SOL    HW132762   4.669   7.440   6.105 -0.8232  0.7325 -3.9500
 9914SOL    HW232763   4.764   7.344   6.037  2.7859 -0.2616  2.0704
 9915SOL     OW32764   2.474   4.638   0.154  0.6793 -0.5849  0.4649
 9915SOL    HW132765   2.510   4.700   0.217  3.0630  0.8792 -2.1877
 9915SOL    HW232766   2.407   4.689   0.107 -0.2330 -1.2912  0.9876
 9916SOL     OW32767   9.175   8.424   8.953  0.4858 -0.2730  0.1463
 9916SOL    HW132768   9.240   8.355   8.966 -0.3722 -1.0765  0.2326
 9916SOL    HW232769   9.146   8.448   9.041  0.3934 -0.1866  0.0933
 9917SOL     OW32770   1.035   0.735   4.529 -0.5503  0.1585 -0.0917
 9917SOL    HW132771   1.118   0.727   4.576 -1.1606 -0.9337  0.8090
 9917SOL    HW232772   0.972   0.684   4.580 -1.5795  0.2129 -1.2614
 9918SOL     OW32773   3.284   0.851   4.387 -0.2201  0.0136 -0.1880
 9918SOL    HW132774   3.299   0.891   4.472 -1.1315  1.0729 -0.5198
 9918SOL    HW232775   3.361   0.874   4.335 -0.6104  1.1058 -0.2899
 9919SOL     OW32776   4.545   4.242   7.609  0.4176  0.2932 -0.5504
 9919SOL    HW132777   4.548   4.217   7.517  0.9715 -0.5086 -0.3258
 9919SOL    HW232778   4.632   4.221   7.643 -0.0032 -0.1004  0.3204
 9920SOL     OW32779   3.528   1.759   8.170  0.6660 -0.0173  0.5047
 9920SOL    HW132780   3.529   1.758   8.074 -0.7137 -2.1653  0.4848
 9920SOL    HW232781   3.436   1.771   8.193  1.2633  3.0385  1.6171
 9921SOL     OW32782   7.500   5.012   6.404  0.1904 -0.1487  0.1734
 9921SOL    HW132783   7.495   4.918   6.423  0.8017 -0.2440 -0.1346
 9921SOL    HW232784   7.498   5.018   6.309 -1.6182  0.2638  0.2200
 9922SOL     OW32785   8.775   0.660   9.368  0.5473  0.0811  0.4925
 9922SOL    HW132786   8.837   0.646   9.440 -0.3192 -0.2817  1.1764
 9922SOL    HW232787   8.708   0.717   9.405  0.4716  0.4707 -0.2478
 9923SOL     OW32788   8.423   9.144   9.024 -0.1703  0.1100 -0.0803
 9923SOL    HW132789   8.351   9.103   9.072  0.0149  0.7099  0.7059
 9923SOL    HW232790   8.489   9.075   9.015  0.2101  0.2794  1.3868
 9924SOL     OW32791   0.488   7.673   2.002 -0.4768 -0.6206 -0.2368
 9924SOL    HW132792   0.431   7.674   2.078 -0.7959 -0.3842 -0.4816
 9924SOL    HW232793   0.458   7.598   1.950 -1.5571  0.4051 -1.1233
 9925SOL     OW32794   6.356   2.843   3.735  0.3906  0.0561  0.2173
 9925SOL    HW132795   6.348   2.899   3.657 -2.9340 -1.1091 -0.3512
 9925SOL    HW232796   6.437   2.794   3.721  1.6038  2.2862 -0.8617
 9926SOL     OW32797   0.152   4.009   4.329 -0.3955  0.2154 -0.0679
 9926SOL    HW132798   0.139   3.989   4.422 -2.6127 -1.0545 -0.5951
 9926SOL    HW232799   0.119   4.098   4.318 -0.7451  0.1305  0.2701
 9927SOL     OW32800   4.570   3.212   0.228 -0.1838 -0.5010  0.2908
 9927SOL    HW132801   4.625   3.154   0.176 -1.6279 -1.9403  0.3156
 9927SOL    HW232802   4.627   3.244   0.298  0.8613 -1.1818 -0.2420
 9928SOL     OW32803   5.573   2.327   7.082  0.0219 -0.0057  0.5682
 9928SOL    HW132804   5.613   2.262   7.025 -0.8700  1.0166 -1.2499
 9928SOL    HW232805   5.518   2.275   7.142  0.2162 -1.0059 -0.1063
 9929SOL     OW32806   2.642   1.916   2.795 -0.4401  0.3403  0.1661
 9929SOL    HW132807   2.556   1.931   2.756 -1.4330  2.6860  3.0085
 9929SOL    HW232808   2.629   1.841   2.853 -0.1589 -0.2956 -0.5952
 9930SOL     OW32809   5.722   2.784   0.494 -0.4786 -0.1208 -0.1818
 9930SOL    HW132810   5.756   2.863   0.453  1.3557 -1.1357 -0.6708
 9930SOL    HW232811   5.673   2.739   0.425 -1.8339  0.7273  0.1931
 9931SOL     OW32812   1.373   6.987   8.971  0.5984 -0.1117 -0.3004
 9931SOL    HW132813   1.281   6.963   8.981  0.2007  1.4356 -0.1068
 9931SOL    HW232814   1.396   7.029   9.054  1.0465  0.8363 -0.8849
 9932SOL     OW32815   6.838   6.433   3.424 -0.6421 -0.0955 -0.0231
 9932SOL    HW132816   6.768   6.457   3.485 -0.2489  1.4955 -0.1540
 9932SOL    HW232817   6.836   6.338   3.420 -3.3729 -0.0393 -0.7207
 9933SOL     OW32818   1.390   4.247   9.362 -0.2635 -0.1153  0.0482
 9933SOL    HW132819   1.320   4.282   9.418  0.1322  0.7722  0.0021
 9933SOL    HW232820   1.410   4.319   9.302  2.9753  0.8651  2.1918
 9934SOL     OW32821   7.458   2.935   1.477 -0.6082  0.3423 -0.4670
 9934SOL    HW132822   7.426   2.970   1.393 -2.3845 -2.2829 -0.9340
 9934SOL    HW232823   7.401   2.974   1.543 -1.5524 -0.4376 -0.8246
 9935SOL     OW32824   8.840   7.664   5.587  0.4260 -0.3243 -0.0412
 9935SOL    HW132825   8.753   7.691   5.558  1.0290  1.3471 -0.2997
 9935SOL    HW232826   8.834   7.663   5.683 -0.3207 -1.7461 -0.0867
 9936SOL     OW32827   0.852   6.203   9.179 -0.2583  0.2437  0.9859
 9936SOL    HW132828   0.872   6.135   9.244 -1.5121 -2.2700 -1.1628
 9936SOL    HW232829   0.759   6.190   9.158  0.0411  1.2000 -1.0706
 9937SOL     OW32830   1.711   1.460   0.158 -0.0440 -0.5293  0.1250
 9937SOL    HW132831   1.793   1.484   0.200 -0.7513  0.0025  1.2183
 9937SOL    HW232832   1.692   1.534   0.100  0.3880 -0.7813 -0.3418
 9938SOL     OW32833   3.366   7.512   1.852 -0.3656 -0.1940 -0.2694
 9938SOL    HW132834   3.327   7.425   1.842 -1.9194  0.0759  2.9486
 9938SOL    HW232835   3.453   7.494   1.889 -0.3594 -0.4169 -0.3871
 9939SOL     OW32836   6.154   7.694   4.755  0.3273 -0.2001  0.0702
 9939SOL    HW132837   6.081   7.657   4.706  0.6740 -1.5239  0.5355
 9939SOL    HW232838   6.113   7.732   4.833  0.2938 -2.6297  1.2994
 9940SOL     OW32839   6.485   4.257   5.831 -0.5168  0.0037 -0.5986
 9940SOL    HW132840   6.410   4.232   5.886 -0.7172  0.1758 -0.7915
 9940SOL    HW232841   6.506   4.178   5.782 -0.1371 -0.2393 -0.0420
 9941SOL     OW32842   8.403   7.770   9.077 -0.1083  0.4404 -0.2193
 9941SOL    HW132843   8.459   7.714   9.131 -1.3032  0.5906  1.2003
 9941SOL    HW232844   8.418   7.740   8.988  1.4103 -0.2465  0.2548
 9942SOL     OW32845   9.252   6.020   0.036  0.1173  0.2572  0.4257
 9942SOL    HW132846   9.207   6.101   0.013  0.9487  1.0606  1.5211
 9942SOL    HW232847   9.340   6.029  -0.002  0.0365 -0.3528  0.1010
 9943SOL     OW32848   5.648   9.260   8.750 -0.0931  0.3480 -0.1538
 9943SOL    HW132849   5.703   9.272   8.673  0.0332  0.1615 -0.0914
 9943SOL    HW232850   5.569   9.218   8.717  0.0248  0.1304 -0.1550
 9944SOL     OW32851   4.321   0.280   8.663 -0.4707 -0.0941  0.0754
 9944SOL    HW132852   4.258   0.334   8.615  1.0216  0.2578 -1.5141
 9944SOL    HW232853   4.272   0.201   8.684 -1.5400  0.2766 -0.9371
 9945SOL     OW32854   8.865   6.294   9.335 -0.3957 -0.1883  0.0475
 9945SOL    HW132855   8.868   6.309   9.430 -1.1713  0.9520 -0.0928
 9945SOL    HW232856   8.879   6.381   9.297 -0.3541 -0.6016 -0.8768
 9946SOL     OW32857   5.327   8.501   4.754  0.0555  0.0821  0.0630
 9946SOL    HW132858   5.338   8.470   4.664  1.4088  1.3542 -0.2270
 9946SOL    HW232859   5.343   8.595   4.749 -2.0705  0.5364  1.2636
 9947SOL     OW32860   2.070   2.175   0.499 -0.1681  0.0934  0.7321
 9947SOL    HW132861   2.106   2.120   0.569 -0.9816 -0.4630  0.7327
 9947SOL    HW232862   1.982   2.197   0.529  0.4574  2.1525  1.1244
 9948SOL     OW32863   6.034   2.050   4.592  0.3303 -0.3378 -0.1779
 9948SOL    HW132864   6.037   2.145   4.575 -0.6852 -0.2085  0.3156
 9948SOL    HW232865   6.039   2.010   4.506  2.1266  0.1264 -0.3091
 9949SOL     OW32866   2.953   8.103   2.877 -0.0934  0.0334  0.1011
 9949SOL    HW132867   3.043   8.102   2.843  0.2480  0.1800  0.9737
 9949SOL    HW232868   2.898   8.114   2.800  0.4148 -3.9783 -0.9325
 9950SOL     OW32869   6.202   1.049   7.626  0.0848  0.0542 -0.2105
 9950SOL    HW132870   6.131   1.066   7.565 -0.6943  0.2265  0.7282
 9950SOL    HW232871   6.181   1.101   7.703  1.5942  0.6542 -0.1777
 9951SOL     OW32872   1.192   5.457   4.130  0.2435  0.1825 -0.1540
 9951SOL    HW132873   1.205   5.552   4.139 -0.0735  0.2273 -0.1753
 9951SOL    HW232874   1.169   5.428   4.218 -1.8204  0.4630 -0.5765
 9952SOL     OW32875   5.237   2.896   0.653 -0.1622 -0.1716  0.1014
 9952SOL    HW132876   5.318   2.922   0.695 -0.4446  0.7783  0.0724
 9952SOL    HW232877   5.261   2.878   0.562  0.1340 -0.5534  0.2550
 9953SOL     OW32878   6.325   1.179   3.485  0.5416  0.5897 -0.1129
 9953SOL    HW132879   6.265   1.125   3.434  0.4956  0.8485 -0.3386
 9953SOL    HW232880   6.376   1.117   3.537 -0.2753  0.3974  0.4697
 9954SOL     OW32881   2.957   0.582   1.056 -0.1577 -0.0205  0.0907
 9954SOL    HW132882   3.013   0.604   1.130  1.0522 -0.6276 -0.6326
 9954SOL    HW232883   2.879   0.636   1.067 -0.2223 -0.5013  2.1050
 9955SOL     OW32884   3.600   2.787   5.913 -0.1913 -0.1837 -0.1995
 9955SOL    HW132885   3.569   2.857   5.856 -0.3916  0.0454  0.1900
 9955SOL    HW232886   3.636   2.832   5.990 -0.4599 -0.5064  0.1218
 9956SOL     OW32887   9.065   7.662   2.799  0.2705  1.0685  0.0477
 9956SOL    HW132888   9.071   7.756   2.819  0.6199  0.7888  1.3224
 9956SOL    HW232889   8.989   7.655   2.743  1.5737  2.4113 -1.9540
 9957SOL     OW32890   0.791   9.353   7.789 -0.3853  0.5261  0.3042
 9957SOL    HW132891   0.827   9.264   7.782 -0.9826  0.2421  0.7535
 9957SOL    HW232892   0.715   9.352   7.730  1.0483  1.4975 -1.5926
 9958SOL     OW32893   9.205   3.105   0.834  0.2240 -0.7299  0.1191
 9958SOL    HW132894   9.155   3.187   0.827  0.7354 -0.4232 -0.0061
 9958SOL    HW232895   9.162   3.045   0.773 -0.7627 -0.8710  0.9507
 9959SOL     OW32896   5.138   3.442   1.200 -0.1681 -0.2770  0.5944
 9959SOL    HW132897   5.044   3.453   1.189 -0.1045 -0.9952 -0.8286
 9959SOL    HW232898   5.159   3.492   1.279 -1.0851  3.1047 -1.2090
 9960SOL     OW32899   3.705   9.251   1.023 -0.2612 -0.2297  0.5312
 9960SOL    HW132900   3.718   9.157   1.027 -0.1434 -0.2499 -0.2663
 9960SOL    HW232901   3.612   9.263   1.040 -0.4760 -0.5669 -0.3929
 9961SOL     OW32902   8.985   8.643   7.006 -0.1900  0.3944  0.2554
 9961SOL    HW132903   9.064   8.609   7.049  0.2677  0.0122 -0.8532
 9961SOL    HW232904   8.912   8.604   7.055  0.3129 -2.9433 -1.5103
 9962SOL     OW32905   9.393   0.480   7.360  0.0368 -0.0713  0.4479
 9962SOL    HW132906   9.445   0.554   7.330 -0.0948 -0.4939 -0.8394
 9962SOL    HW232907   9.409   0.411   7.296 -2.1019 -0.2027  0.0036
 9963SOL     OW32908   3.307   3.503   0.194 -0.7280  0.4824 -0.5230
 9963SOL    HW132909   3.233   3.564   0.192  0.4014  1.8429 -1.9047
 9963SOL    HW232910   3.383   3.559   0.212  0.3544 -0.4717 -2.0181
 9964SOL     OW32911   0.355   2.802   5.040 -0.5076 -0.5645  0.0477
 9964SOL    HW132912   0.299   2.880   5.046  0.0275 -0.1548 -0.2673
 9964SOL    HW232913   0.419   2.814   5.110 -0.4749 -0.7615  0.0506
 9965SOL     OW32914   1.978   8.416   4.422 -0.3494 -0.1551 -0.4406
 9965SOL    HW132915   2.025   8.368   4.353  2.2215 -0.4262  1.4246
 9965SOL    HW232916   2.023   8.500   4.427  1.9372 -1.4751  3.3352
 9966SOL     OW32917   3.031   1.135   7.772 -0.1655  0.5375 -0.5157
 9966SOL    HW132918   3.096   1.072   7.741  0.6748  0.1844  1.8817
 9966SOL    HW232919   3.079   1.194   7.830 -1.9370  0.2913  1.2640
 9967SOL     OW32920   4.625   2.350   2.434 -0.3645 -0.4165  0.9756
 9967SOL    HW132921   4.708   2.366   2.479  0.5203 -1.0309 -0.3938
 9967SOL    HW232922   4.568   2.311   2.501  0.7479 -0.8131  1.6966
 9968SOL     OW32923   0.969   6.998   0.294  0.2958  0.0849 -0.2348
 9968SOL    HW132924   0.942   7.001   0.202 -0.9730  2.6477  0.1829
 9968SOL    HW232925   0.944   7.083   0.329  0.7928 -0.8453  2.4906
 9969SOL     OW32926   4.494   8.144   5.592 -0.0602 -0.8846  0.9695
 9969SOL    HW132927   4.454   8.142   5.505  1.2826 -0.1682  0.3325
 9969SOL    HW232928   4.447   8.076   5.641  0.4110 -2.5655 -0.8460
 9970SOL     OW32929   1.285   0.814   3.725 -0.6009  0.2854  0.0538
 9970SOL    HW132930   1.271   0.813   3.820 -2.0634  0.9273 -0.1441
 9970SOL    HW232931   1.199   0.793   3.688  0.2635 -1.3118 -1.1117
 9971SOL     OW32932   3.921   0.950   4.532 -0.1083  0.1698  0.0756
 9971SOL    HW132933   3.886   1.035   4.559 -0.5761 -0.0385  0.1345
 9971SOL    HW232934   3.896   0.942   4.440 -0.2942 -0.0156  0.1402
 9972SOL     OW32935   0.608   0.284   1.460 -0.0440  0.4036  0.5870
 9972SOL    HW132936   0.645   0.208   1.505 -1.0011 -1.2223 -1.2915
 9972SOL    HW232937   0.676   0.309   1.397 -1.0849 -1.1434 -1.2417
 9973SOL     OW32938   6.676   5.239   5.700  0.0569  0.0725 -0.3873
 9973SOL    HW132939   6.634   5.323   5.718 -0.1811 -0.5002  1.8624
 9973SOL    HW232940   6.765   5.263   5.672  0.1492  1.0727  0.7112
 9974SOL     OW32941   7.541   1.549   3.241  0.4625  0.5293  0.1426
 9974SOL    HW132942   7.535   1.524   3.149 -1.3995  2.7374 -0.3941
 9974SOL    HW232943   7.631   1.531   3.265  1.7863  2.6386 -2.9390
 9975SOL     OW32944   0.058   0.842   0.654  0.1844  0.2059  0.1342
 9975SOL    HW132945   0.034   0.887   0.735  1.3902  0.1055  0.5560
 9975SOL    HW232946   0.125   0.897   0.615  0.9804 -0.7202  0.1668
 9976SOL     OW32947   1.100   7.866   0.300  0.0445  0.2082 -0.0023
 9976SOL    HW132948   1.062   7.806   0.364 -2.1814  0.1525 -1.3303
 9976SOL    HW232949   1.058   7.950   0.318  2.2448  1.1397  1.0496
 9977SOL     OW32950   4.771   6.896   6.440  0.8262 -0.3159 -0.2893
 9977SOL    HW132951   4.718   6.825   6.477  1.1889  0.0990  1.0838
 9977SOL    HW232952   4.728   6.976   6.470  1.1436  0.0285 -0.7590
 9978SOL     OW32953   4.567   6.817   4.405  0.6011 -0.2120 -0.2381
 9978SOL    HW132954   4.531   6.764   4.476 -0.9806  1.7853  0.5140
 9978SOL    HW232955   4.515   6.793   4.329  1.5903 -1.5821 -0.4943
 9979SOL     OW32956   1.036   4.786   5.911  0.2447 -0.1998 -0.2327
 9979SOL    HW132957   0.954   4.807   5.955  0.6750 -0.6600  0.8342
 9979SOL    HW232958   1.102   4.838   5.956  0.4282  0.7978 -1.6339
 9980SOL     OW32959   1.903   3.990   4.321  0.4843 -0.1143  0.6855
 9980SOL    HW132960   1.961   4.023   4.389  0.7959 -2.4061  1.6019
 9980SOL    HW232961   1.817   3.983   4.363  0.5708 -1.0708  0.7218
 9981SOL     OW32962   2.229   3.568   5.530  0.9900  0.0969 -0.9303
 9981SOL    HW132963   2.194   3.488   5.489 -0.1246 -0.0562  0.2751
 9981SOL    HW232964   2.316   3.543   5.559  0.9958 -0.4208 -1.3731
 9982SOL     OW32965   4.606   4.137   2.996  0.6006  0.1741  0.1732
 9982SOL    HW132966   4.636   4.054   2.959 -0.4514 -0.0769 -0.1209
 9982SOL    HW232967   4.573   4.115   3.083 -2.7103 -0.2674 -1.1628
 9983SOL     OW32968   8.552   8.573   0.445 -0.1794 -0.5291 -0.4551
 9983SOL    HW132969   8.559   8.477   0.447  1.6579 -0.4043  0.5650
 9983SOL    HW232970   8.619   8.601   0.384  0.4211  0.1867  0.5147
 9984SOL     OW32971   5.491   0.553   0.332  0.2103 -0.2323  0.8587
 9984SOL    HW132972   5.481   0.648   0.331 -0.9195 -0.3394 -0.3143
 9984SOL    HW232973   5.523   0.531   0.244  1.1574 -0.8715  1.3598
 9985SOL     OW32974   5.417   4.751   7.238  0.0064 -0.7712 -0.2914
 9985SOL    HW132975   5.337   4.702   7.218  0.6339 -1.2903 -1.5683
 9985SOL    HW232976   5.485   4.684   7.247  0.1629 -0.3822  1.4997
 9986SOL     OW32977   3.500   0.709   4.610 -0.0299 -0.0475 -0.6464
 9986SOL    HW132978   3.510   0.681   4.519  0.0726  0.0515 -0.6656
 9986SOL    HW232979   3.423   0.661   4.642  0.6704 -1.0303 -0.4062
 9987SOL     OW32980   4.971   2.228   2.479  0.5445 -0.2023 -0.1978
 9987SOL    HW132981   5.065   2.237   2.464  0.9096 -1.1289  1.4496
 9987SOL    HW232982   4.954   2.280   2.558 -0.4582  0.5307 -0.8802
 9988SOL     OW32983   4.799   6.648   4.648 -0.2221 -0.0263 -0.0629
 9988SOL    HW132984   4.825   6.733   4.613  0.6473 -0.3503 -0.2100
 9988SOL    HW232985   4.713   6.632   4.609  0.0672  0.3162 -0.8644
 9989SOL     OW32986   5.796   3.215   2.546  0.2025  0.1900 -0.9149
 9989SOL    HW132987   5.703   3.233   2.560  0.1239 -0.3184 -0.7738
 9989SOL    HW232988   5.797   3.136   2.491  0.5539  0.0192 -0.6631
 9990SOL     OW32989   7.790   5.914   6.672  0.1385 -0.0524  0.2858
 9990SOL    HW132990   7.759   5.997   6.637  1.1679  0.0584 -0.3684
 9990SOL    HW232991   7.720   5.885   6.731 -0.5992  0.8480 -0.1484
 9991SOL     OW32992   0.858   5.578   6.698 -0.4254  0.6713  0.3601
 9991SOL    HW132993   0.867   5.637   6.773  0.4662  1.2590 -0.1994
 9991SOL    HW232994   0.819   5.633   6.629 -0.9692  0.2122  0.2980
 9992SOL     OW32995   5.782   0.939   5.766  0.9608 -0.1046  0.4737
 9992SOL    HW132996   5.804   0.940   5.859 -0.6423 -0.4872  0.8693
 9992SOL    HW232997   5.854   0.985   5.723  2.0021 -0.4660  1.8372
 9993SOL     OW32998   4.914   1.152   4.967  0.1899 -0.1736 -0.1622
 9993SOL    HW132999   4.879   1.110   5.045 -0.1830  0.5428  0.0613
 9993SOL    HW233000   4.861   1.117   4.895 -0.9771  0.8778  0.1712
 9994SOL     OW33001   8.497   0.339   8.518  0.2433 -0.3927  0.0443
 9994SOL    HW133002   8.423   0.336   8.457 -0.1773  0.9194  0.4635
 9994SOL    HW233003   8.463   0.383   8.595  2.0150  2.2707 -0.5892
 9995SOL     OW33004   1.859   8.505   0.028 -0.1598 -0.0066  0.6370
 9995SOL    HW133005   1.854   8.568   0.100 -1.1919 -1.0392  1.4841
 9995SOL    HW233006   1.859   8.420   0.071  0.5450 -0.6085 -0.5345
 9996SOL     OW33007   7.300   6.960   5.898 -0.0239  0.3008  0.3213
 9996SOL    HW133008   7.380   7.010   5.913 -0.5483  0.8915  1.1715
 9996SOL    HW233009   7.308   6.884   5.955  0.9902 -0.8511 -1.3209
 9997SOL     OW33010   2.129   1.155   0.832  0.8343 -0.1469  0.1911
 9997SOL    HW133011   2.137   1.250   0.832 -1.6382  0.1117  1.2869
 9997SOL    HW233012   2.062   1.137   0.765  0.8019 -1.0530  0.4672
 9998SOL     OW33013   6.586   0.062   2.185  1.0978 -0.0112 -0.7673
 9998SOL    HW133014   6.551   0.151   2.194  0.2182 -0.3544 -0.8007
 9998SOL    HW233015   6.626   0.044   2.270 -0.8664 -0.5049  0.0803
 9999SOL     OW33016   4.823   6.632   5.731 -1.0178 -0.5369  0.2442
 9999SOL    HW133017   4.840   6.699   5.665 -2.0666 -2.8472 -2.4592
 9999SOL    HW233018   4.857   6.669   5.812  1.8299  1.7017 -1.8776
10000SOL     OW33019   8.841   4.618   7.729 -0.0236 -0.0506 -0.2926
10000SOL    HW133020   8.854   4.550   7.662 -0.3680  0.4371 -0.8667
10000SOL    HW233021   8.928   4.656   7.743  0.1607 -0.5787 -0.0058
10001SOL     OW33022   4.652   1.771   1.934 -0.4032 -0.3201  0.4614
10001SOL    HW133023   4.628   1.699   1.992 -1.1017 -0.7243 -0.3182
10001SOL    HW233024   4.623   1.850   1.980  0.7725 -0.4915  1.5228
10002SOL     OW33025   1.254   7.952   7.941  0.0483  0.8236  0.0022
10002SOL    HW133026   1.217   7.881   7.992 -1.2181  0.2780 -1.6213
10002SOL    HW233027   1.306   7.909   7.873 -0.2340  1.4600 -0.6220
10003SOL     OW33028   2.309   4.379   0.154  0.1139 -0.1944  0.0950
10003SOL    HW133029   2.379   4.444   0.160  0.3587 -0.1524 -2.5613
10003SOL    HW233030   2.276   4.388   0.065 -2.9247 -0.6054  1.1401
10004SOL     OW33031   9.083   0.335   2.535 -0.5927 -0.1448 -0.7141
10004SOL    HW133032   9.064   0.242   2.522  0.7714 -0.9828  2.7620
10004SOL    HW233033   9.005   0.369   2.579  0.0387 -0.3039  0.5454
10005SOL     OW33034   3.862   8.965   9.317  0.1383 -0.1358 -0.0835
10005SOL    HW133035   3.844   8.890   9.260  1.6787 -1.5342  1.2153
10005SOL    HW233036   3.780   8.977   9.366 -0.2966 -0.6179 -0.6736
10006SOL     OW33037   8.991   2.990   8.587 -0.7796 -0.0432 -0.0114
10006SOL    HW133038   9.005   2.933   8.512 -1.1876  0.8719 -0.7908
10006SOL    HW233039   8.945   2.934   8.651 -3.1648 -0.0032 -1.6194
10007SOL     OW33040   7.071   0.391   2.709 -0.2487 -0.0351 -0.1170
10007SOL    HW133041   7.098   0.302   2.685 -0.9883 -0.6953  1.4488
10007SOL    HW233042   6.996   0.409   2.652  0.1321 -0.2596 -0.6969
10008SOL     OW33043   0.602   6.849   5.892 -0.0984  0.4657  0.7362
10008SOL    HW133044   0.628   6.781   5.954  1.9985 -1.3120 -1.9709
10008SOL    HW233045   0.618   6.931   5.938  0.2581 -0.8194  2.9751
10009SOL     OW33046   2.874   1.595   2.998 -0.2001 -1.0152  0.3755
10009SOL    HW133047   2.875   1.687   2.972  3.2488 -1.0175  0.2004
10009SOL    HW233048   2.869   1.596   3.093  0.7899 -0.6106  0.4235
10010SOL     OW33049   0.037   9.306   1.527 -0.3276  0.0204 -0.2725
10010SOL    HW133050  -0.010   9.341   1.452  0.4851  0.3767 -0.6204
10010SOL    HW233051   0.085   9.381   1.562  2.5682 -1.0035 -1.8889
10011SOL     OW33052   4.595   3.410   7.578  0.0080  0.2799 -0.6178
10011SOL    HW133053   4.566   3.433   7.490  1.2173 -0.5425 -1.2369
10011SOL    HW233054   4.656   3.338   7.566  0.8198  0.6955  0.8327
10012SOL     OW33055   5.671   8.559   3.070 -0.5538  0.5850 -0.0586
10012SOL    HW133056   5.591   8.605   3.096 -0.4776  0.4196  0.4749
10012SOL    HW233057   5.726   8.560   3.149 -1.1831 -1.7887  0.4530
10013SOL     OW33058   2.035   6.872   0.153  0.0408 -0.0987  0.0601
10013SOL    HW133059   2.009   6.953   0.197  4.3081  2.1993 -1.2947
10013SOL    HW233060   2.083   6.822   0.219 -0.8464 -0.6103  0.3272
10014SOL     OW33061   3.177   3.643   7.901  0.3305 -0.2601 -0.1410
10014SOL    HW133062   3.219   3.653   7.986  1.6269  1.2594 -0.9480
10014SOL    HW233063   3.092   3.686   7.911 -0.1949 -1.4889  0.8510
10015SOL     OW33064   9.436   2.670   4.937  0.3033 -0.0509 -0.2095
10015SOL    HW133065   9.509   2.686   4.997 -0.7944  1.2064  0.8314
10015SOL    HW233066   9.442   2.740   4.872 -0.2045  0.3185  0.1293
10016SOL     OW33067   8.356   9.331   7.730  0.2199 -0.0571  0.7528
10016SOL    HW133068   8.442   9.328   7.772  0.8391  1.3121 -0.3740
10016SOL    HW233069   8.363   9.273   7.655 -0.4592 -1.4328  1.7288
10017SOL     OW33070   7.608   3.516   5.756 -0.1474  0.4625  0.0548
10017SOL    HW133071   7.701   3.527   5.737 -0.3190 -0.4902 -1.4419
10017SOL    HW233072   7.606   3.462   5.836  0.5902 -1.0021 -0.8966
10018SOL     OW33073   4.025   6.725   5.428  0.6056 -0.3351  0.3266
10018SOL    HW133074   4.029   6.662   5.357 -1.2689 -0.2728  0.1367
10018SOL    HW233075   3.933   6.727   5.454  1.3047 -0.6604  3.0344
10019SOL     OW33076   0.848   2.412   7.293 -0.0199 -0.1718 -0.0860
10019SOL    HW133077   0.762   2.441   7.322  0.5463  1.1539  0.3213
10019SOL    HW233078   0.858   2.325   7.331 -1.2328 -0.4037 -0.2652
10020SOL     OW33079   2.154   7.379   4.734 -0.3849  0.0528  0.2580
10020SOL    HW133080   2.075   7.324   4.739 -1.4767  1.6232  0.9357
10020SOL    HW233081   2.185   7.368   4.645 -3.3235  1.9614 -1.0966
10021SOL     OW33082   7.133   0.813   9.115  0.4956 -0.4710 -0.3932
10021SOL    HW133083   7.114   0.818   9.021  0.5329  1.1050 -0.3238
10021SOL    HW233084   7.212   0.759   9.120  0.0045 -1.2836 -1.1971
10022SOL     OW33085   0.736   2.695   7.735 -0.9988 -0.1841 -0.5044
10022SOL    HW133086   0.721   2.690   7.640 -2.2281 -0.1729 -0.3109
10022SOL    HW233087   0.661   2.649   7.773 -0.2357 -0.6464  0.4494
10023SOL     OW33088   3.765   3.872   2.083  0.0114  0.5365  0.6718
10023SOL    HW133089   3.709   3.919   2.021 -0.8584  0.4888  1.4149
10023SOL    HW233090   3.706   3.811   2.127  1.2115 -1.6102 -0.5833
10024SOL     OW33091   7.096   8.519   6.907  0.0059  0.1100 -0.2003
10024SOL    HW133092   7.158   8.455   6.872 -0.2911 -1.4144  1.9789
10024SOL    HW233093   7.146   8.601   6.911  1.1537 -0.5558 -0.6494
10025SOL     OW33094   8.435   0.218   2.563 -0.1493  0.0888 -0.4137
10025SOL    HW133095   8.526   0.210   2.537 -0.1124 -1.5947  0.1920
10025SOL    HW233096   8.385   0.184   2.489 -0.1885 -1.1609  0.1812
10026SOL     OW33097   7.971   5.293   8.004  0.1770  0.1399  0.0268
10026SOL    HW133098   7.895   5.305   7.947 -0.3455  1.6369  1.0083
10026SOL    HW233099   7.954   5.210   8.049 -0.6082  0.1863 -0.1736
10027SOL     OW33100   6.939   9.100   0.924  0.8064 -0.5303  0.0138
10027SOL    HW133101   6.986   9.102   0.841 -0.3020  3.1848 -0.5830
10027SOL    HW233102   7.005   9.074   0.988  1.6854 -3.4406 -1.9308
10028SOL     OW33103   3.059   1.155   2.947 -0.1118 -0.6994 -0.2758
10028SOL    HW133104   2.996   1.217   2.911 -0.6064  0.0866  1.8837
10028SOL    HW233105   3.005   1.087   2.989  0.4439 -0.0609  1.5160
10029SOL     OW33106   2.038   9.200   1.519  0.2602  0.0241  0.4915
10029SOL    HW133107   1.970   9.257   1.554  1.5068  0.7513  1.7581
10029SOL    HW233108   2.082   9.252   1.451 -0.1567 -0.2959 -0.0317
10030SOL     OW33109   8.877   1.688   5.438 -0.7673 -0.2734  0.0022
10030SOL    HW133110   8.798   1.645   5.407 -1.0075  0.3976 -0.3330
10030SOL    HW233111   8.877   1.673   5.532 -1.5350  0.1117  0.0701
10031SOL     OW33112   6.267   7.573   1.492  0.0558 -0.1951  0.0744
10031SOL    HW133113   6.274   7.517   1.569  1.3212 -0.6145 -0.3462
10031SOL    HW233114   6.278   7.662   1.526 -2.2919 -0.1411  0.7936
10032SOL     OW33115   4.211   5.107   8.536  0.3328 -0.0748 -0.0983
10032SOL    HW133116   4.145   5.173   8.557  1.8961  1.0349  1.4171
10032SOL    HW233117   4.283   5.156   8.497  1.9188 -0.7144  1.9646
10033SOL     OW33118   3.668   2.394   2.902 -0.2669  0.6299 -0.1964
10033SOL    HW133119   3.695   2.304   2.886  0.3554  0.6737  0.6089
10033SOL    HW233120   3.578   2.398   2.870  0.3864  0.2702 -2.1242
10034SOL     OW33121   3.094   6.902   5.757  0.1726  0.3576  0.0351
10034SOL    HW133122   3.153   6.845   5.709 -1.8266  1.0657 -3.3929
10034SOL    HW233123   3.111   6.989   5.722 -0.0850  1.2022  1.9288
10035SOL     OW33124   9.363   1.818   1.934 -0.1463 -0.2057 -0.2146
10035SOL    HW133125   9.426   1.787   1.868  0.2134  0.7674 -0.3360
10035SOL    HW233126   9.418   1.851   2.005 -0.5308  0.5935 -0.2936
10036SOL     OW33127   1.372   3.746   7.696 -0.1692 -0.3894  0.0786
10036SOL    HW133128   1.326   3.828   7.711  1.0967  0.1741  1.0696
10036SOL    HW233129   1.437   3.767   7.629 -1.0412 -1.0635 -0.9924
10037SOL     OW33130   0.816   4.985   5.416 -0.7156  0.0922 -0.4362
10037SOL    HW133131   0.903   4.986   5.456  0.7379 -0.2149 -3.4687
10037SOL    HW233132   0.788   4.894   5.421 -0.2769 -0.0561 -0.6209
10038SOL     OW33133   0.663   0.478   8.617  0.2398  0.2483 -0.6978
10038SOL    HW133134   0.578   0.521   8.603  1.1666  2.5000  0.2833
10038SOL    HW233135   0.653   0.391   8.579 -2.7711  0.1957  0.1206
10039SOL     OW33136   0.542   2.259   5.395  0.1075 -0.1358  0.5355
10039SOL    HW133137   0.543   2.177   5.445  0.9326 -0.2017  0.4177
10039SOL    HW233138   0.527   2.327   5.461 -3.0777 -0.5741  0.3337
10040SOL     OW33139   6.516   7.380   3.438 -0.8320 -0.2195  0.1540
10040SOL    HW133140   6.557   7.374   3.351  2.6377  2.8793  1.4667
10040SOL    HW233141   6.474   7.466   3.439 -1.8347 -0.7087  1.1598
10041SOL     OW33142   8.827   3.175   9.378  0.2550 -0.4074 -0.0282
10041SOL    HW133143   8.914   3.203   9.407  1.2506 -1.2513 -2.1304
10041SOL    HW233144   8.819   3.085   9.411 -0.0125 -0.1989  0.4985
10042SOL     OW33145   2.664   6.116   0.696 -0.3289 -0.2242 -0.7444
10042SOL    HW133146   2.608   6.088   0.624  0.4113 -0.8426 -1.0821
10042SOL    HW233147   2.619   6.086   0.775 -0.0463 -1.4741 -1.0584
10043SOL     OW33148   5.764   6.864   2.728  0.5879  0.3498 -0.2837
10043SOL    HW133149   5.723   6.792   2.775  0.8771  0.9392  0.9070
10043SOL    HW233150   5.765   6.936   2.792 -0.2727  1.6037 -1.6488
10044SOL     OW33151   6.329   1.426   0.161  0.4910 -0.4312 -0.6215
10044SOL    HW133152   6.260   1.482   0.197 -1.1177 -1.9665 -1.2257
10044SOL    HW233153   6.352   1.368   0.233  0.6779 -0.3491 -0.6164
10045SOL     OW33154   4.597   0.182   0.128  0.2122 -0.1924  0.1761
10045SOL    HW133155   4.514   0.227   0.139  0.8985  1.7598 -2.2309
10045SOL    HW233156   4.577   0.108   0.070  0.2423  0.6311 -0.9019
10046SOL     OW33157   9.344   4.429   0.849 -0.0003  0.1617  0.3529
10046SOL    HW133158   9.287   4.432   0.773  0.7735 -0.7497 -0.2754
10046SOL    HW233159   9.322   4.346   0.892  1.7109 -0.8144 -0.5939
10047SOL     OW33160   8.634   7.685   3.685 -0.3649  0.0356  0.0042
10047SOL    HW133161   8.590   7.701   3.769 -1.3755  1.7691 -0.8363
10047SOL    HW233162   8.723   7.718   3.699 -0.4547  0.0968  0.4628
10048SOL     OW33163   8.954   0.335   6.120 -0.1348  0.6253  0.1735
10048SOL    HW133164   8.912   0.402   6.067 -0.2761 -0.5135 -1.1907
10048SOL    HW233165   8.918   0.252   6.087  2.3974 -0.3083 -0.3666
10049SOL     OW33166   6.327   0.606   1.254  0.1085  0.2266 -0.3114
10049SOL    HW133167   6.278   0.648   1.324  1.3202 -0.0172  0.6978
10049SOL    HW233168   6.405   0.660   1.243  0.5219 -0.4228 -0.6151
10050SOL     OW33169   7.251   8.971   3.704  0.4031 -0.0644 -0.8090
10050SOL    HW133170   7.223   8.977   3.613 -0.4410  1.4157 -0.4757
10050SOL    HW233171   7.172   8.988   3.755  0.3548 -3.1914  0.2506
10051SOL     OW33172   1.529   5.445   4.946 -0.4102 -0.7243  0.2616
10051SOL    HW133173   1.521   5.541   4.953  0.6899 -0.5557 -0.5883
10051SOL    HW233174   1.565   5.418   5.030  1.5436 -0.1034 -0.3514
10052SOL     OW33175   7.891   8.306   3.729  0.3770  0.1362 -0.3085
10052SOL    HW133176   7.878   8.330   3.821  0.0009 -1.1471 -0.0200
10052SOL    HW233177   7.828   8.361   3.681  0.8762  1.1257  0.1438
10053SOL     OW33178   4.161   9.350   1.016  0.0766 -0.5312  0.0164
10053SOL    HW133179   4.145   9.331   0.923  0.0073  1.1703 -0.3491
10053SOL    HW233180   4.078   9.388   1.046  0.4689 -0.0261  0.4659
10054SOL     OW33181   2.961   3.303   0.508 -0.8638  0.3605 -0.2335
10054SOL    HW133182   2.886   3.354   0.477 -0.3041  1.0876 -0.4075
10054SOL    HW233183   2.943   3.288   0.600  0.0838  2.9449  0.4290
10055SOL     OW33184   8.603   6.867   2.683  0.0518  0.0936 -0.3183
10055SOL    HW133185   8.688   6.877   2.725  0.3699  0.1337 -0.9733
10055SOL    HW233186   8.540   6.901   2.747  0.2297 -2.6410  1.4269
10056SOL     OW33187   4.781   3.455   2.909 -0.0188 -0.0345  0.0442
10056SOL    HW133188   4.739   3.503   2.838  1.6623  1.5030  0.0355
10056SOL    HW233189   4.814   3.524   2.968  0.4386 -1.2402  1.2144
10057SOL     OW33190   4.572   9.080   7.738  0.4518 -0.4528  0.5792
10057SOL    HW133191   4.625   9.078   7.817 -2.6377  1.9409  2.8166
10057SOL    HW233192   4.563   9.173   7.717 -1.0468 -0.9317 -1.0146
10058SOL     OW33193   2.509   8.116   5.764 -0.0276 -0.4222 -0.2962
10058SOL    HW133194   2.423   8.141   5.796 -0.2001 -0.3080 -0.8380
10058SOL    HW233195   2.492   8.080   5.676  0.4654 -0.4579 -0.3773
10059SOL     OW33196   9.048   5.228   9.180  0.8096 -0.9220  0.0449
10059SOL    HW133197   9.030   5.299   9.117 -0.3412 -0.6972  0.6051
10059SOL    HW233198   8.996   5.154   9.148 -1.4174 -0.1979  1.8136
10060SOL     OW33199   1.795   7.549   7.414 -0.2895  0.2708  0.0729
10060SOL    HW133200   1.729   7.618   7.409  0.8080  1.3892  0.7448
10060SOL    HW233201   1.867   7.580   7.358  0.5875  0.1016  1.0809
10061SOL     OW33202   6.683   1.688   0.780 -0.0408  0.1532  0.5608
10061SOL    HW133203   6.735   1.625   0.730 -0.0742  0.8859 -0.4215
10061SOL    HW233204   6.747   1.745   0.822  0.0291 -1.4727  2.7272
10062SOL     OW33205   8.617   8.312   0.403  0.3560 -0.3435  0.3642
10062SOL    HW133206   8.531   8.271   0.397  0.6593 -0.9182 -0.1306
10062SOL    HW233207   8.679   8.238   0.404  0.8399  0.0611  0.7502
10063SOL     OW33208   3.945   8.939   7.669 -0.5099  0.2182 -0.3288
10063SOL    HW133209   4.013   8.995   7.632 -0.9330 -0.2475 -1.8619
10063SOL    HW233210   3.870   8.998   7.683  0.0710  0.6555  1.0162
10064SOL     OW33211   1.980   4.952   3.473  0.3078  0.2515 -0.4759
10064SOL    HW133212   1.942   5.016   3.533  0.9465  0.7031 -0.5457
10064SOL    HW233213   1.997   4.875   3.527  1.7575  0.9883  0.1425
10065SOL     OW33214   1.348   6.643   2.392 -0.1452  0.0898  0.1808
10065SOL    HW133215   1.280   6.709   2.407 -1.3973 -1.6416  2.4341
10065SOL    HW233216   1.299   6.564   2.368  1.0911 -0.9561  1.0237
10066SOL     OW33217   3.694   5.144   5.302  0.2547 -0.4118 -0.1231
10066SOL    HW133218   3.781   5.110   5.326 -1.3588 -3.3025  2.0122
10066SOL    HW233219   3.683   5.118   5.211  1.8849  0.5963 -0.6342
10067SOL     OW33220   5.721   6.760   4.253 -0.3782 -0.2388 -0.3479
10067SOL    HW133221   5.770   6.842   4.267  0.7822 -1.0427  0.3668
10067SOL    HW233222   5.706   6.726   4.341 -0.1115 -1.2204 -0.6775
10068SOL     OW33223   5.525   0.269   3.134 -0.2775  0.0628 -0.1318
10068SOL    HW133224   5.563   0.280   3.047  3.4475 -3.3833  0.9299
10068SOL    HW233225   5.577   0.327   3.190 -1.4462  0.8663  0.1465
10069SOL     OW33226   8.844   0.103   3.345 -0.4496  0.2735 -0.1696
10069SOL    HW133227   8.896   0.024   3.333  0.3957  0.8412 -0.2840
10069SOL    HW233228   8.759   0.082   3.305 -0.2008 -0.5376 -0.2736
10070SOL     OW33229   7.443   6.092   5.882  0.1866  0.7140  0.1281
10070SOL    HW133230   7.419   6.000   5.879  0.2037  0.7163 -0.0730
10070SOL    HW233231   7.520   6.099   5.827  0.4407  0.7711  0.4858
10071SOL     OW33232   8.197   1.851   1.236 -0.3442  0.0901 -0.6673
10071SOL    HW133233   8.280   1.890   1.208 -0.3812  1.5216  1.1428
10071SOL    HW233234   8.188   1.875   1.328 -0.8929 -3.3660  0.2416
10072SOL     OW33235   8.794   5.704   9.317 -0.5194 -0.2713 -0.0058
10072SOL    HW133236   8.809   5.623   9.268 -0.7920 -0.5048  0.2934
10072SOL    HW233237   8.880   5.727   9.352 -0.5352 -0.7133  0.3337
10073SOL     OW33238   3.763   2.950   3.270 -0.1257  0.3755  0.3327
10073SOL    HW133239   3.733   2.922   3.184  0.6433  1.5843 -0.3448
10073SOL    HW233240   3.705   3.022   3.295  0.3981  0.8272  0.2770
10074SOL     OW33241   9.076   6.710   5.182 -0.0961 -0.2773  0.4070
10074SOL    HW133242   9.109   6.620   5.178 -0.1319 -0.2705 -0.0816
10074SOL    HW233243   9.006   6.707   5.247 -0.2490 -0.6516  0.2282
10075SOL     OW33244   2.225   2.535   3.206  0.5638  0.6992 -0.9016
10075SOL    HW133245   2.194   2.496   3.288 -0.9399  1.4919 -1.0678
10075SOL    HW233246   2.310   2.493   3.190 -0.5315 -1.7717 -0.5644
10076SOL     OW33247   1.203   7.384   7.387  0.3228  0.0232  0.3764
10076SOL    HW133248   1.198   7.472   7.423  0.1049  0.5441 -0.8980
10076SOL    HW233249   1.234   7.330   7.460 -0.0592  1.0526  1.3153
10077SOL     OW33250   5.590   4.421   4.393  0.4945 -0.7036  0.5673
10077SOL    HW133251   5.585   4.516   4.376  0.4692 -0.9085 -0.6116
10077SOL    HW233252   5.671   4.393   4.350  0.1335 -1.3394  0.2943
10078SOL     OW33253   0.295   3.623   5.729 -0.3535 -0.5804 -0.4134
10078SOL    HW133254   0.248   3.617   5.812  0.7108 -0.6528  0.1954
10078SOL    HW233255   0.280   3.713   5.700  0.1638 -0.2205  0.4043
10079SOL     OW33256   2.257   4.784   8.925  0.0155  0.0809 -0.1313
10079SOL    HW133257   2.268   4.777   8.831 -0.5894  2.3113 -0.4135
10079SOL    HW233258   2.321   4.851   8.951  0.2882 -0.6285  1.0676
10080SOL     OW33259   0.159   5.376   4.230  0.4199  0.5172 -0.4788
10080SOL    HW133260   0.156   5.470   4.248 -0.6787  0.1314  1.5441
10080SOL    HW233261   0.070   5.354   4.203  0.8668  0.1964 -1.6840
10081SOL     OW33262   6.975   1.348   0.570 -0.0364 -0.2224 -0.2804
10081SOL    HW133263   6.904   1.352   0.506  0.1890  0.1501 -0.5113
10081SOL    HW233264   6.985   1.255   0.588 -1.3959 -0.2008  0.6718
10082SOL     OW33265   3.265   6.043   6.398  0.0713  0.0735  0.1493
10082SOL    HW133266   3.344   6.036   6.344 -0.8067  0.2074 -1.1880
10082SOL    HW233267   3.210   5.970   6.371 -0.7825  0.6885  0.1783
10083SOL     OW33268   9.443   4.685   0.744  0.2245  0.1267  0.3852
10083SOL    HW133269   9.443   4.593   0.770  2.1631  0.0056  0.0460
10083SOL    HW233270   9.419   4.732   0.824  0.5787 -0.5995  0.9303
10084SOL     OW33271   5.404   9.397   4.790 -0.2816  0.1830  0.0175
10084SOL    HW133272   5.394   9.434   4.878 -1.7240  0.2604 -0.1636
10084SOL    HW233273   5.354   9.316   4.792 -1.6677  0.9756 -1.1786
10085SOL     OW33274   8.521   1.855   6.478 -0.1924 -0.2239 -0.0530
10085SOL    HW133275   8.593   1.827   6.534  0.0670 -0.1379 -0.3471
10085SOL    HW233276   8.522   1.950   6.483  0.6061 -0.1678 -1.1866
10086SOL     OW33277   8.470   4.069   6.218  0.6738  0.2157  0.0339
10086SOL    HW133278   8.408   4.102   6.283  0.8010  0.7687 -0.1206
10086SOL    HW233279   8.510   3.993   6.259  0.4630  0.3247  0.4424
10087SOL     OW33280   9.007   6.182   1.839 -0.2538  0.0877 -0.0532
10087SOL    HW133281   9.012   6.095   1.878 -0.6776 -0.4249 -1.1339
10087SOL    HW233282   8.940   6.174   1.771  0.4805  0.9626 -0.8890
10088SOL     OW33283   9.394   4.908   7.726  0.4644 -0.5687  0.7809
10088SOL    HW133284   9.390   4.889   7.820  0.1141 -1.1984  0.6406
10088SOL    HW233285   9.382   4.823   7.684 -2.6034  0.1286  0.1155
10089SOL     OW33286   4.753   6.528   3.270 -0.3240 -0.2120 -0.3076
10089SOL    HW133287   4.753   6.596   3.203 -1.8278  0.1936  0.0677
10089SOL    HW233288   4.660   6.507   3.282 -0.1472  0.2941  2.2042
10090SOL     OW33289   1.933   0.504   2.709  0.0425  0.3609  0.0702
10090SOL    HW133290   1.903   0.426   2.662  0.7873  0.3562 -0.4149
10090SOL    HW233291   1.984   0.469   2.783  2.7456  0.3681 -1.7144
10091SOL     OW33292   1.260   0.422   6.876  0.2340  0.3829  0.0539
10091SOL    HW133293   1.219   0.498   6.917  1.8576  1.4479 -0.2405
10091SOL    HW233294   1.256   0.354   6.943 -1.4841  0.6224  0.2203
10092SOL     OW33295   4.701   6.276   2.621  0.6576  0.0825 -0.1789
10092SOL    HW133296   4.713   6.256   2.714 -1.8000  0.5243  0.2791
10092SOL    HW233297   4.671   6.193   2.583 -0.7527  0.5217 -0.0620
10093SOL     OW33298   5.714   3.428   2.759  0.3412 -0.4775  0.0491
10093SOL    HW133299   5.687   3.398   2.672  1.3812 -0.7759 -0.1764
10093SOL    HW233300   5.700   3.522   2.757 -0.9681 -0.6641  0.0429
10094SOL     OW33301   8.189   8.613   7.812  0.3611  0.0046  0.5323
10094SOL    HW133302   8.285   8.611   7.803  0.3697  2.0792 -0.1208
10094SOL    HW233303   8.167   8.706   7.810 -1.6584 -0.4461  0.9654
10095SOL     OW33304   4.555   3.760   5.514  0.1776 -0.3404 -0.5077
10095SOL    HW133305   4.528   3.683   5.564 -0.8733  0.3931  0.0769
10095SOL    HW233306   4.646   3.743   5.490  0.1315 -1.4946  0.1196
10096SOL     OW33307   4.658   0.270   7.581  0.0590 -0.3626  0.3331
10096SOL    HW133308   4.680   0.267   7.488  1.8866  2.6387  0.6020
10096SOL    HW233309   4.699   0.191   7.618  0.1419 -1.0607 -1.2279
10097SOL     OW33310   3.741   2.884   5.521  0.1449  0.2637 -0.8324
10097SOL    HW133311   3.674   2.927   5.574 -0.9995 -1.7160 -0.6159
10097SOL    HW233312   3.820   2.935   5.537 -0.0172 -0.5252  3.2755
10098SOL     OW33313   7.967   6.724   0.276 -0.2361  0.7253  0.3874
10098SOL    HW133314   7.917   6.799   0.244 -1.7196 -0.4925 -0.1785
10098SOL    HW233315   7.907   6.650   0.270  1.4986 -0.6997  0.0464
10099SOL     OW33316   4.511   4.121   6.441 -0.2317  0.1810  0.3846
10099SOL    HW133317   4.424   4.130   6.402 -0.0616  1.1493  0.2015
10099SOL    HW233318   4.562   4.074   6.375 -0.8122 -1.0350  0.8012
10100SOL     OW33319   1.800   4.273   3.383  0.0544 -0.6164  0.0654
10100SOL    HW133320   1.747   4.283   3.462  0.7979 -1.5913  0.7105
10100SOL    HW233321   1.890   4.265   3.415  0.3127 -1.5252 -0.8442
10101SOL     OW33322   7.878   0.094   3.924  0.1013  0.6116  0.3336
10101SOL    HW133323   7.867   0.001   3.904 -0.8066  0.7797  0.0421
10101SOL    HW233324   7.948   0.096   3.990  1.2494 -0.1515 -0.8155
10102SOL     OW33325   6.995   6.142   4.770  0.3893 -0.1702 -0.0323
10102SOL    HW133326   7.021   6.064   4.817  0.6360 -0.9322 -1.4022
10102SOL    HW233327   7.066   6.204   4.784 -0.0797  0.0272  1.5456
10103SOL     OW33328   8.484   6.406   0.925  0.3760 -0.0870  0.2128
10103SOL    HW133329   8.513   6.493   0.897  1.3944 -0.6722 -0.6089
10103SOL    HW233330   8.399   6.421   0.967  0.3802  1.2489 -0.2251
10104SOL     OW33331   1.593   0.356   9.315 -0.5111 -0.0141 -0.1340
10104SOL    HW133332   1.558   0.276   9.275 -0.6821  0.8282 -1.6995
10104SOL    HW233333   1.553   0.359   9.402  1.0319 -2.6891  0.7539
10105SOL     OW33334   7.449   6.561   8.163  0.2998  0.2237  0.4054
10105SOL    HW133335   7.515   6.495   8.186  0.9117  0.4618 -0.6766
10105SOL    HW233336   7.475   6.593   8.077 -2.1884 -0.9203 -0.8386
10106SOL     OW33337   5.815   5.828   4.530  0.3497  0.7772  0.2854
10106SOL    HW133338   5.727   5.804   4.558 -0.4201  5.3812  2.2047
10106SOL    HW233339   5.871   5.807   4.605  0.7852 -1.0364 -0.5021
10107SOL     OW33340   3.849   4.300   8.828  0.2882 -0.5990 -0.6058
10107SOL    HW133341   3.921   4.257   8.781  0.1141 -0.4697 -0.9965
10107SOL    HW233342   3.804   4.229   8.873  0.3822 -0.7416 -0.7377
10108SOL     OW33343   8.604   3.562   8.886  0.0972  0.6703 -0.2072
10108SOL    HW133344   8.610   3.518   8.970 -0.3420 -2.1765 -1.5939
10108SOL    HW233345   8.509   3.570   8.870  0.1733 -0.3937 -1.2154
10109SOL     OW33346   5.723   1.833   6.572  0.1925 -0.5535 -0.0103
10109SOL    HW133347   5.689   1.766   6.631  0.5995 -0.7058  0.0551
10109SOL    HW233348   5.701   1.916   6.614  1.5722 -0.6813  0.9743
10110SOL     OW33349   0.734   6.977   7.175 -0.4724  0.3037 -0.0571
10110SOL    HW133350   0.706   6.936   7.257  0.4545  0.8675  0.5571
10110SOL    HW233351   0.653   6.989   7.125 -1.2063  1.0990  1.3031
10111SOL     OW33352   4.048   0.478   2.028  0.3525 -0.9561 -0.9933
10111SOL    HW133353   4.104   0.456   2.103 -1.2036 -2.7311 -0.3123
10111SOL    HW233354   4.037   0.573   2.034  1.2026 -0.9289  0.3664
10112SOL     OW33355   4.174   4.900   6.318 -0.0705  0.0304  0.4056
10112SOL    HW133356   4.098   4.937   6.272  0.5103  0.5888 -0.1233
10112SOL    HW233357   4.142   4.819   6.358 -1.0640  0.5047  0.5796
10113SOL     OW33358   9.235   4.537   7.497 -0.2973 -0.5054  0.2048
10113SOL    HW133359   9.282   4.573   7.571 -0.6770 -0.7617  0.5781
10113SOL    HW233360   9.281   4.456   7.476  1.6996  1.1159 -1.8371
10114SOL     OW33361   4.414   0.269   1.743 -0.2159  0.0046  0.0910
10114SOL    HW133362   4.444   0.269   1.834 -2.3706 -0.0916  0.8473
10114SOL    HW233363   4.426   0.179   1.713  2.3557  0.4712 -0.4043
10115SOL     OW33364   7.805   1.931   0.978  0.2037 -0.2402 -0.4424
10115SOL    HW133365   7.761   1.993   0.920  1.0149 -0.2636 -1.0938
10115SOL    HW233366   7.869   1.983   1.026  0.1571 -0.3821 -0.2231
10116SOL     OW33367   7.151   2.081   7.353  0.1272  0.0264 -0.2608
10116SOL    HW133368   7.227   2.082   7.411 -0.6666  2.4809  0.7913
10116SOL    HW233369   7.164   2.156   7.295 -1.4851  0.4664 -0.0741
10117SOL     OW33370   5.482   8.249   5.811  0.7130 -0.1322 -0.5131
10117SOL    HW133371   5.428   8.213   5.741 -0.5166  1.9959 -0.7189
10117SOL    HW233372   5.419   8.284   5.874  1.8228  1.4263 -0.2362
10118SOL     OW33373   7.274   6.164   4.917  0.3870 -0.2995 -0.0710
10118SOL    HW133374   7.257   6.085   4.867  1.5956  0.3035 -1.4671
10118SOL    HW233375   7.250   6.141   5.007  1.0468 -2.3555 -0.4003
10119SOL     OW33376   8.385   8.761   3.098 -0.3718 -0.1141 -0.0591
10119SOL    HW133377   8.442   8.724   3.030 -0.0124 -0.6764  0.5440
10119SOL    HW233378   8.441   8.771   3.174 -1.3977 -2.0377  1.0023
10120SOL     OW33379   6.109   3.579   1.656  0.7055 -0.4843  0.2088
10120SOL    HW133380   6.195   3.616   1.634  0.8073 -1.0652 -0.3842
10120SOL    HW233381   6.105   3.583   1.752  1.0097  0.3994  0.1954
10121SOL     OW33382   0.677   1.742   7.820 -0.4472 -0.3499  0.1558
10121SOL    HW133383   0.681   1.648   7.840  0.2346 -0.3196  0.1880
10121SOL    HW233384   0.645   1.746   7.730 -1.1407 -0.5862  0.3933
10122SOL     OW33385   1.965   5.770   9.329  0.3539 -0.5189 -0.0831
10122SOL    HW133386   2.054   5.797   9.305 -0.1274 -0.1278 -1.4661
10122SOL    HW233387   1.909   5.816   9.267 -0.6222 -3.1013 -1.1851
10123SOL     OW33388   4.945   8.176   7.489  0.1948 -0.9609 -0.1781
10123SOL    HW133389   4.936   8.244   7.556 -0.4442 -0.8654 -0.3552
10123SOL    HW233390   5.026   8.197   7.444  0.0475 -0.3636 -0.1702
10124SOL     OW33391   4.223   7.180   2.850  0.2320 -0.8740  0.3685
10124SOL    HW133392   4.196   7.180   2.941  1.5845  2.6397  0.8213
10124SOL    HW233393   4.142   7.187   2.800 -0.4126 -1.6056  1.3062
10125SOL     OW33394   5.882   2.901   3.888 -0.0663 -0.0637  0.0364
10125SOL    HW133395   5.885   2.904   3.793  2.2083  1.0269  0.1257
10125SOL    HW233396   5.791   2.922   3.910 -0.2400  1.1804 -1.8302
10126SOL     OW33397   2.829   3.886   0.472 -0.2453 -0.1280  0.4478
10126SOL    HW133398   2.909   3.872   0.522  0.0221  1.7471  0.5521
10126SOL    HW233399   2.762   3.837   0.520  0.5938 -0.7803  0.9741
10127SOL     OW33400   2.081   1.448   7.132 -0.1637 -0.3360 -0.6529
10127SOL    HW133401   2.067   1.477   7.042  0.2291 -0.0189 -0.6117
10127SOL    HW233402   1.997   1.410   7.159 -0.3316 -0.2701 -1.0920
10128SOL     OW33403   2.714   8.187   7.490  0.6212  0.4845 -0.0703
10128SOL    HW133404   2.799   8.166   7.529  0.1843 -1.4981 -0.1542
10128SOL    HW233405   2.661   8.108   7.504 -1.3683  1.8760  0.4281
10129SOL     OW33406   6.686   1.177   3.481  0.2995  0.3449 -0.1712
10129SOL    HW133407   6.750   1.147   3.546 -0.1563  1.3511  0.7590
10129SOL    HW233408   6.719   1.261   3.452  0.2885  0.0808 -0.9601
10130SOL     OW33409   7.176   8.543   5.945  0.2038 -0.0925 -0.1132
10130SOL    HW133410   7.110   8.515   6.009 -1.1069 -1.3549 -1.9672
10130SOL    HW233411   7.236   8.469   5.939 -0.3291 -0.4417 -1.1839
10131SOL     OW33412   8.142   0.896   7.067 -0.3563 -0.9308  0.1640
10131SOL    HW133413   8.106   0.907   6.979 -0.0306 -1.6886 -0.0663
10131SOL    HW233414   8.132   0.982   7.108 -0.7779 -0.6548 -0.5121
10132SOL     OW33415   8.831   7.843   3.492  0.3055  0.1147 -0.5737
10132SOL    HW133416   8.854   7.864   3.402 -1.4858 -1.6766 -1.4970
10132SOL    HW233417   8.761   7.905   3.514  1.9252  1.6895  0.1985
10133SOL     OW33418   8.499   0.891   4.975  0.1823  0.1016  0.5008
10133SOL    HW133419   8.573   0.904   4.916 -0.9621  0.3039 -0.9348
10133SOL    HW233420   8.464   0.979   4.988  1.0202  0.1793  2.2907
10134SOL     OW33421   1.483   9.390   3.745 -0.3609 -0.1253 -0.5812
10134SOL    HW133422   1.466   9.439   3.826 -0.6602  0.3455 -0.9256
10134SOL    HW233423   1.422   9.428   3.681  1.0824  0.6954 -1.4956
10135SOL     OW33424   5.936   3.421   1.461  0.2594  0.1719 -0.1188
10135SOL    HW133425   5.986   3.391   1.536  2.1537 -3.3824 -2.6340
10135SOL    HW233426   5.984   3.498   1.429  1.8808 -0.8152 -0.1311
10136SOL     OW33427   7.678   6.659   0.043  0.0841 -0.2457 -0.1665
10136SOL    HW133428   7.716   6.612   0.117 -1.1883  0.6188  1.0451
10136SOL    HW233429   7.705   6.608  -0.034  1.5211 -1.0719  0.8636
10137SOL     OW33430   1.269   3.716   5.665  0.7395  0.1896 -0.1143
10137SOL    HW133431   1.272   3.636   5.717 -0.7048  0.6289  0.6648
10137SOL    HW233432   1.245   3.686   5.577  0.7783 -0.2908  0.0364
10138SOL     OW33433   8.186   3.697   3.991  0.5861  0.2723 -0.1129
10138SOL    HW133434   8.178   3.657   4.078  0.4186  1.3303  0.3608
10138SOL    HW233435   8.260   3.652   3.951  1.0492  0.2055  0.8105
10139SOL     OW33436   1.380   7.565   3.659  0.0250 -0.3179 -0.1259
10139SOL    HW133437   1.428   7.562   3.576  0.5824  2.8103  0.0350
10139SOL    HW233438   1.294   7.602   3.635 -0.9029 -2.1998  0.2257
10140SOL     OW33439   1.133   1.252   0.190 -0.2651  0.3774  0.0674
10140SOL    HW133440   1.199   1.275   0.255 -0.7051  1.1979  0.2359
10140SOL    HW233441   1.066   1.204   0.238 -0.1073  0.1193  0.0273
10141SOL     OW33442   0.108   8.558   7.054 -0.1910  0.3649 -0.5591
10141SOL    HW133443   0.168   8.558   6.980 -0.8919  1.4171 -1.1342
10141SOL    HW233444   0.080   8.467   7.062 -1.1128  0.4693 -2.4167
10142SOL     OW33445   1.791   6.973   1.794  0.0978 -0.3881  0.3055
10142SOL    HW133446   1.826   7.050   1.750  0.7889 -1.6119 -1.3378
10142SOL    HW233447   1.868   6.928   1.830 -0.1882 -0.8977  0.2890
10143SOL     OW33448   4.604   2.924   5.727 -0.5722 -0.2097  0.6356
10143SOL    HW133449   4.592   2.853   5.663  0.7298  0.7831 -0.7661
10143SOL    HW233450   4.620   3.002   5.673  0.5675  0.6574  2.1839
10144SOL     OW33451   3.767   2.579   4.822  0.5069 -0.3388  0.2768
10144SOL    HW133452   3.732   2.639   4.756  0.1158  0.0687  0.8459
10144SOL    HW233453   3.691   2.556   4.876  0.6623 -1.3054  0.0990
10145SOL     OW33454   3.298   0.431   6.654 -0.5491  0.1641 -0.3621
10145SOL    HW133455   3.237   0.411   6.582 -2.0709  2.2395  0.2918
10145SOL    HW233456   3.356   0.498   6.618 -0.0233 -0.2420 -0.2816
10146SOL     OW33457   8.060   0.224   5.964 -0.0943 -0.3230 -0.2893
10146SOL    HW133458   8.039   0.271   6.045  1.5486 -0.5754  0.3049
10146SOL    HW233459   8.029   0.282   5.894 -1.3679 -0.0197  0.5130
10147SOL     OW33460   9.357   8.115   3.299 -0.2411 -0.0410 -0.2477
10147SOL    HW133461   9.379   8.208   3.297  0.4044 -0.2084 -1.8983
10147SOL    HW233462   9.424   8.073   3.245  0.4518 -1.7010  1.8179
10148SOL     OW33463   3.028   1.925   2.309 -0.4728 -1.0329 -0.3332
10148SOL    HW133464   2.999   1.834   2.304 -1.1957 -0.8003 -0.3548
10148SOL    HW233465   2.951   1.977   2.287 -0.0564 -0.4103 -0.3567
10149SOL     OW33466   7.193   8.294   3.005  0.3713  0.4480 -0.3118
10149SOL    HW133467   7.246   8.274   3.082 -0.3914  0.7006  0.2896
10149SOL    HW233468   7.173   8.209   2.967 -1.8185  0.0706  1.5341
10150SOL     OW33469   1.209   6.868   5.401 -0.3120  0.3726 -0.2237
10150SOL    HW133470   1.122   6.844   5.371 -0.5359  0.1684  0.5720
10150SOL    HW233471   1.243   6.789   5.443  0.3282  0.3968 -0.6756
10151SOL     OW33472   4.843   8.412   4.567  0.1577  0.3920 -0.4147
10151SOL    HW133473   4.813   8.483   4.624  0.8726 -0.1279  0.6241
10151SOL    HW233474   4.795   8.335   4.598 -0.6492  0.4225 -1.5634
10152SOL     OW33475   6.373   8.236   2.746  0.1629 -0.1028  0.1025
10152SOL    HW133476   6.284   8.249   2.712  0.2168  1.5607  0.5461
10152SOL    HW233477   6.421   8.196   2.674 -0.1129  1.9819 -1.2856
10153SOL     OW33478   3.996   2.178   3.699  0.2844 -0.4924  0.1539
10153SOL    HW133479   3.925   2.115   3.707 -0.5250  0.4840  0.7488
10153SOL    HW233480   4.015   2.204   3.790  0.2000  0.5733 -0.1316
10154SOL     OW33481   0.557   4.179   1.833  0.4680 -0.1299  0.3890
10154SOL    HW133482   0.635   4.224   1.864 -0.2111  1.8541 -0.6758
10154SOL    HW233483   0.498   4.177   1.908  0.7563  0.1854  0.6206
10155SOL     OW33484   4.303   7.669   3.544 -0.5327 -0.6056 -0.2939
10155SOL    HW133485   4.346   7.714   3.471  2.5008 -3.2378 -0.2347
10155SOL    HW233486   4.252   7.737   3.587  2.3420  2.3380 -1.3273
10156SOL     OW33487   1.329   5.218   7.549 -0.4120  0.6788  0.0048
10156SOL    HW133488   1.397   5.152   7.533 -0.6181  1.0698 -2.6392
10156SOL    HW233489   1.376   5.291   7.588  0.1906 -0.1320  0.8371
10157SOL     OW33490   5.067   3.591   5.101 -0.1108 -0.3013 -0.4950
10157SOL    HW133491   5.088   3.677   5.065  0.4422 -0.1273  0.2494
10157SOL    HW233492   5.134   3.532   5.065 -0.3171 -0.3733 -0.7690
10158SOL     OW33493   8.086   3.624   5.891 -0.0684  0.3063  0.3321
10158SOL    HW133494   8.169   3.578   5.901  0.8274  1.2240 -2.5275
10158SOL    HW233495   8.025   3.558   5.857 -0.3122 -0.1548  1.6354
10159SOL     OW33496   4.597   8.574   1.758  0.0540 -0.0662 -0.3189
10159SOL    HW133497   4.525   8.514   1.774 -1.0127  0.7700 -1.8329
10159SOL    HW233498   4.671   8.537   1.807 -1.8909  0.1538  2.9890
10160SOL     OW33499   4.877   5.864   2.168  0.0295 -0.5525 -0.3773
10160SOL    HW133500   4.867   5.947   2.214  1.6135  0.1964 -1.3244
10160SOL    HW233501   4.827   5.801   2.220  0.2003  0.6508  1.2804
10161SOL     OW33502   0.501   3.453   2.943  0.3696  0.5066  0.1785
10161SOL    HW133503   0.418   3.500   2.943  0.1426  0.1014 -0.5280
10161SOL    HW233504   0.505   3.411   2.857 -0.5428 -2.7417  1.6577
10162SOL     OW33505   7.638   0.444   8.282 -0.6113 -0.3377  0.1691
10162SOL    HW133506   7.662   0.443   8.189 -1.5309 -1.8088 -0.0639
10162SOL    HW233507   7.718   0.418   8.327 -0.3313 -0.2103 -0.2438
10163SOL     OW33508   9.329   4.474   3.418  0.0986 -0.5633  0.0179
10163SOL    HW133509   9.390   4.436   3.355  0.3201  1.4469 -0.9993
10163SOL    HW233510   9.353   4.566   3.423 -1.0442 -0.3388  1.7421
10164SOL     OW33511   4.413   2.803   4.999 -0.1620  0.0098 -0.2364
10164SOL    HW133512   4.452   2.841   4.921 -0.2257 -0.3706 -0.4576
10164SOL    HW233513   4.319   2.801   4.981 -0.0938 -0.9654 -0.5573
10165SOL     OW33514   2.257   9.113   6.471  0.6973  0.0630  0.0007
10165SOL    HW133515   2.189   9.141   6.409  0.1427  1.2158  1.1135
10165SOL    HW233516   2.331   9.087   6.415  0.1290  0.8944 -1.1637
10166SOL     OW33517   3.056   9.368   5.862  0.1678  0.0465  0.5204
10166SOL    HW133518   3.061   9.368   5.958  0.2793  0.1940  0.5147
10166SOL    HW233519   3.034   9.277   5.840 -0.6474  0.1917  0.7184
10167SOL     OW33520   5.578   0.764   9.156 -0.7055  0.2907  0.4353
10167SOL    HW133521   5.533   0.680   9.166  0.0614 -0.0108  1.4110
10167SOL    HW233522   5.572   0.805   9.242  1.2357  0.0599  0.6989
10168SOL     OW33523   0.622   9.229   7.332 -0.1512  0.0166  0.4181
10168SOL    HW133524   0.658   9.268   7.252 -0.7798  0.7175  0.4695
10168SOL    HW233525   0.534   9.200   7.307 -0.1268 -0.3020  0.6979
10169SOL     OW33526   4.692   0.467   1.338 -0.1173 -0.5150 -0.0224
10169SOL    HW133527   4.666   0.486   1.248  0.2630  0.9323  0.1657
10169SOL    HW233528   4.758   0.533   1.359  0.2071 -1.1855  1.1367
10170SOL     OW33529   0.027   8.342   0.838  0.6604 -0.0603 -0.8538
10170SOL    HW133530  -0.005   8.260   0.801 -0.6186  0.2694 -0.4969
10170SOL    HW233531   0.009   8.408   0.771 -0.5203  0.3244 -0.1788
10171SOL     OW33532   8.369   7.627   3.557  0.0823  0.0137  0.6362
10171SOL    HW133533   8.351   7.696   3.493  1.3896 -2.5801 -2.6129
10171SOL    HW233534   8.463   7.636   3.576  0.1573 -0.6134  0.5555
10172SOL     OW33535   6.683   8.476   1.368  0.0825 -0.0150 -0.2504
10172SOL    HW133536   6.654   8.495   1.458 -0.9278 -1.7255 -0.1743
10172SOL    HW233537   6.605   8.492   1.314  0.8084  1.4039 -0.8734
10173SOL     OW33538   0.286   4.123   3.026  0.3466  0.2442  0.4596
10173SOL    HW133539   0.220   4.105   3.094  0.0415 -0.5907 -0.0463
10173SOL    HW233540   0.330   4.039   3.013  1.7308  0.8824  1.0143
10174SOL     OW33541   0.777   5.667   5.254 -0.2535  0.0252  0.7092
10174SOL    HW133542   0.846   5.658   5.188 -1.0264  0.2927 -0.1392
10174SOL    HW233543   0.733   5.583   5.255  1.2023 -0.7529  2.5343
10175SOL     OW33544   9.161   5.878   2.631 -0.3061 -0.5028 -0.1427
10175SOL    HW133545   9.067   5.898   2.630 -0.4399 -0.7079  2.7864
10175SOL    HW233546   9.167   5.791   2.671  1.0770 -0.8849 -1.1455
10176SOL     OW33547   1.185   4.892   6.324 -0.1091 -0.0406  0.4602
10176SOL    HW133548   1.153   4.944   6.251  0.1450  0.3502  0.6271
10176SOL    HW233549   1.224   4.956   6.384 -0.4293 -0.3467  0.9968
10177SOL     OW33550   3.862   5.446   5.339  0.0194 -0.0653  0.1406
10177SOL    HW133551   3.891   5.402   5.259  0.9658  0.0305  0.4358
10177SOL    HW233552   3.883   5.384   5.409  0.4136  0.4289  0.4556
10178SOL     OW33553   5.443   6.208   9.037  0.4729 -0.3922  0.5011
10178SOL    HW133554   5.454   6.134   9.097  0.3143  0.8225  2.0636
10178SOL    HW233555   5.485   6.179   8.956 -1.6485 -3.1059  0.2815
10179SOL     OW33556   3.883   2.760   3.874  0.0319 -0.0691 -0.1416
10179SOL    HW133557   3.866   2.666   3.882  1.0905 -0.4080 -1.7093
10179SOL    HW233558   3.828   2.789   3.802  1.9219 -0.0990 -1.6324
10180SOL     OW33559   8.736   9.186   0.644 -0.0556  0.4748  0.1436
10180SOL    HW133560   8.763   9.226   0.562 -1.0831 -2.2154 -1.5874
10180SOL    HW233561   8.642   9.204   0.650  0.2648  1.7972  1.4146
10181SOL     OW33562   5.772   3.789   4.493 -0.4772  0.4035  0.1699
10181SOL    HW133563   5.771   3.693   4.492 -0.7018  0.4007  0.5553
10181SOL    HW233564   5.773   3.812   4.586 -2.3801  0.7959  0.1055
10182SOL     OW33565   0.746   3.427   1.241  0.6938 -0.0794  0.0055
10182SOL    HW133566   0.678   3.486   1.209 -1.7515 -2.6508  0.2419
10182SOL    HW233567   0.703   3.374   1.308  3.1451 -1.2816  0.7141
10183SOL     OW33568   9.204   2.820   5.298 -0.1117 -0.0149 -0.0183
10183SOL    HW133569   9.120   2.833   5.341 -1.2099  0.3522 -2.1929
10183SOL    HW233570   9.198   2.731   5.262  0.7544 -0.2843  0.4868
10184SOL     OW33571   5.850   0.241   1.830 -0.1084  0.2622  0.3653
10184SOL    HW133572   5.824   0.183   1.902  1.6009 -1.0664 -0.0602
10184SOL    HW233573   5.799   0.210   1.755 -0.6745  0.6104  0.5956
10185SOL     OW33574   4.454   7.142   6.826  0.2645  0.7037  0.0769
10185SOL    HW133575   4.366   7.178   6.821  0.5008  1.4508  1.0709
10185SOL    HW233576   4.504   7.207   6.876  1.2132 -0.0124  0.0822
10186SOL     OW33577   5.788   0.842   8.609  0.7351  0.3243 -0.0102
10186SOL    HW133578   5.822   0.815   8.524  0.3137 -0.1452 -0.0365
10186SOL    HW233579   5.696   0.814   8.607  0.7781  0.1278  0.6744
10187SOL     OW33580   9.154   6.022   8.017 -0.2341  0.2483 -0.6131
10187SOL    HW133581   9.060   6.033   8.000 -0.3764 -1.4296 -0.9565
10187SOL    HW233582   9.187   5.974   7.942  0.8378  0.5357 -0.3272
10188SOL     OW33583   6.613   6.013   5.387 -0.2828 -0.7341 -0.0561
10188SOL    HW133584   6.699   6.054   5.403 -0.1939 -1.0410  0.2717
10188SOL    HW233585   6.619   5.978   5.298 -0.3398 -0.0815 -0.3170
10189SOL     OW33586   2.178   9.394   2.495  0.3288  0.2035  0.3394
10189SOL    HW133587   2.250   9.419   2.436 -0.6342 -1.5769 -1.6660
10189SOL    HW233588   2.119   9.469   2.492  0.1304  0.0052 -1.2560
10190SOL     OW33589   7.582   8.946   3.373 -0.0465  0.0616 -0.2539
10190SOL    HW133590   7.515   8.994   3.324 -2.6256 -2.0946  1.0367
10190SOL    HW233591   7.594   8.997   3.454 -0.4384  0.2325 -0.3027
10191SOL     OW33592   4.244   4.781   0.606  0.3561  0.0433 -0.2401
10191SOL    HW133593   4.299   4.707   0.630  2.6846  1.5207 -0.8481
10191SOL    HW233594   4.226   4.769   0.513  1.3698  0.6240 -0.5170
10192SOL     OW33595   8.124   6.205   6.164 -0.1163  1.1316 -0.1739
10192SOL    HW133596   8.206   6.168   6.197  0.5666  1.3154 -1.5943
10192SOL    HW233597   8.099   6.270   6.230 -0.2546 -0.4255  1.3285
10193SOL     OW33598   3.647   6.725   4.918  0.0466 -0.3248 -0.4188
10193SOL    HW133599   3.657   6.646   4.864 -1.6506 -0.3536 -0.7043
10193SOL    HW233600   3.734   6.764   4.919  1.0009 -2.3728 -0.0069
10194SOL     OW33601   6.850   4.467   3.901  0.0181  0.5642 -0.2214
10194SOL    HW133602   6.818   4.557   3.900  0.2764  0.7029  1.5714
10194SOL    HW233603   6.945   4.475   3.911  0.0179  0.1130  0.2388
10195SOL     OW33604   6.998   6.915   1.940  0.1106  0.1306  0.2999
10195SOL    HW133605   7.029   6.956   1.859  0.1979  1.0957  0.8125
10195SOL    HW233606   6.913   6.955   1.956 -0.6197 -1.2131 -0.1516
10196SOL     OW33607   8.491   0.895   3.239 -0.1500  0.1962  0.0432
10196SOL    HW133608   8.482   0.800   3.233 -0.1640  0.1726  0.4364
10196SOL    HW233609   8.541   0.909   3.319  0.5444  0.4800 -0.4345
10197SOL     OW33610   1.233   1.059   6.639  0.2389 -0.1284 -0.0256
10197SOL    HW133611   1.276   1.139   6.669  0.1107  0.5150 -1.5057
10197SOL    HW233612   1.163   1.090   6.581 -1.2167 -1.2269  1.1143
10198SOL     OW33613   4.844   7.233   4.109  0.4235 -0.1290 -0.2329
10198SOL    HW133614   4.873   7.160   4.055  1.4862  1.3945 -1.7699
10198SOL    HW233615   4.762   7.203   4.148  1.0883 -2.3192 -0.4195
10199SOL     OW33616   9.331   6.750   6.185  0.3314 -0.4525  0.3258
10199SOL    HW133617   9.313   6.724   6.275  0.6733 -1.0271  0.2341
10199SOL    HW233618   9.421   6.783   6.186 -0.3108  1.3352  0.5609
10200SOL     OW33619   5.933   7.745   2.653 -0.3959  0.7169 -0.5129
10200SOL    HW133620   5.927   7.832   2.692 -0.0710  0.4943  0.0368
10200SOL    HW233621   6.013   7.748   2.599  0.8749  0.0645  1.2809
10201SOL     OW33622   0.470   6.849   1.484  0.2377  0.0704 -0.3201
10201SOL    HW133623   0.458   6.936   1.522  1.6757  0.3997 -0.5995
10201SOL    HW233624   0.505   6.865   1.396  1.2441 -0.7985 -0.0958
10202SOL     OW33625   7.884   7.688   3.592  0.3785 -0.0902  0.4059
10202SOL    HW133626   7.958   7.652   3.642 -0.0080  0.3043  1.2785
10202SOL    HW233627   7.817   7.705   3.658  0.2162  1.3605 -0.1184
10203SOL     OW33628   4.918   2.831   3.164  0.3449  0.2913 -0.0103
10203SOL    HW133629   4.903   2.791   3.078  0.3382 -0.2964  0.2561
10203SOL    HW233630   4.830   2.847   3.198  0.3522  0.9639 -0.3143
10204SOL     OW33631   0.877   5.108   2.319  0.2956  0.2794 -0.1191
10204SOL    HW133632   0.912   5.048   2.385  1.1945  0.1561 -0.6890
10204SOL    HW233633   0.824   5.170   2.368  0.1625 -0.3935  0.6016
10205SOL     OW33634   3.676   0.070   3.208  0.5672  0.5306  0.4670
10205SOL    HW133635   3.742   0.008   3.239  0.0327  0.0699  0.6936
10205SOL    HW233636   3.705   0.094   3.120  0.0070 -1.1803 -0.2106
10206SOL     OW33637   0.460   8.718   7.060  0.2243 -0.0956 -0.1125
10206SOL    HW133638   0.423   8.800   7.029 -1.2432 -0.3479  0.8962
10206SOL    HW233639   0.464   8.729   7.156 -2.1225 -2.0372  0.2421
10207SOL     OW33640   3.258   8.788   1.405 -0.1043  0.3477 -0.0320
10207SOL    HW133641   3.333   8.731   1.420  0.1718  1.0949  1.5929
10207SOL    HW233642   3.197   8.766   1.475  0.3735  2.5954  1.1436
10208SOL     OW33643   8.724   3.460   9.428  0.2998 -0.6401 -1.0783
10208SOL    HW133644   8.779   3.535   9.405 -0.5881 -0.0360 -1.2838
10208SOL    HW233645   8.776   3.383   9.404  0.8369 -0.0763 -1.7481
10209SOL     OW33646   6.283   5.774   3.429  0.3097 -0.3091  0.0333
10209SOL    HW133647   6.219   5.812   3.369  0.2337 -1.8146 -0.8709
10209SOL    HW233648   6.367   5.809   3.399  0.2065 -0.5761 -0.5698
10210SOL     OW33649   4.502   2.794   7.392 -0.2669  0.0473 -0.4576
10210SOL    HW133650   4.500   2.708   7.350 -1.1366 -0.6060  0.8749
10210SOL    HW233651   4.596   2.812   7.404 -0.0462 -0.2547 -1.6524
10211SOL     OW33652   9.319   5.566   7.497 -0.3893  0.1737  0.6922
10211SOL    HW133653   9.314   5.545   7.590  0.7837 -0.5157  0.6138
10211SOL    HW233654   9.339   5.483   7.454  0.3568  0.7120 -0.0366
10212SOL     OW33655   5.509   6.122   7.530  0.5503 -0.2843  0.0303
10212SOL    HW133656   5.511   6.101   7.437  2.3542  1.4538 -0.3535
10212SOL    HW233657   5.595   6.097   7.563  0.3750  0.3088  0.9568
10213SOL     OW33658   7.498   4.103   4.800 -0.3508 -0.1801 -0.6268
10213SOL    HW133659   7.512   4.115   4.707  0.9371 -2.2671 -0.7237
10213SOL    HW233660   7.586   4.096   4.837 -0.8205  1.4290  0.8765
10214SOL     OW33661   6.532   7.010   2.858  0.4100 -0.4859  0.3327
10214SOL    HW133662   6.534   6.989   2.764  0.1687  1.3162 -0.1004
10214SOL    HW233663   6.558   6.929   2.901  1.5698 -1.0547 -1.3506
10215SOL     OW33664   9.349   0.162   2.577 -0.3936 -0.7185  0.9430
10215SOL    HW133665   9.301   0.219   2.518  1.2092 -0.9848 -0.6436
10215SOL    HW233666   9.298   0.163   2.658 -1.9315  0.6438 -0.0211
10216SOL     OW33667   7.445   6.425   3.310 -0.2172 -0.1956  0.0271
10216SOL    HW133668   7.527   6.464   3.281  0.0976 -1.3064 -0.5647
10216SOL    HW233669   7.384   6.499   3.312  0.7127  0.5849  0.2060
10217SOL     OW33670   4.836   8.160   9.055  0.1617 -0.0717  0.3712
10217SOL    HW133671   4.761   8.106   9.079 -0.0172 -0.0158 -0.0715
10217SOL    HW233672   4.897   8.100   9.013  0.1478 -0.0163  0.2712
10218SOL     OW33673   9.252   7.504   2.938  0.1886  0.1157  0.1059
10218SOL    HW133674   9.191   7.534   2.870 -3.0780  0.5307  3.0638
10218SOL    HW233675   9.229   7.413   2.952  1.0111 -0.0303  0.4821
10219SOL     OW33676   6.116   1.534   0.270  0.2147  0.4876 -0.6166
10219SOL    HW133677   6.078   1.466   0.215 -1.2002  0.5792  0.2298
10219SOL    HW233678   6.073   1.523   0.355  0.0357  2.3868 -0.4517
10220SOL     OW33679   6.927   7.298   1.691 -0.5017  0.6190  0.1099
10220SOL    HW133680   6.918   7.309   1.596  0.7843  0.9354  0.0158
10220SOL    HW233681   7.012   7.255   1.702 -0.0197  1.8249  1.1970
10221SOL     OW33682   8.555   3.066   7.448  0.6480 -0.0181  0.0796
10221SOL    HW133683   8.515   3.006   7.511 -0.8095  0.7232 -0.1397
10221SOL    HW233684   8.643   3.029   7.434  0.2838 -1.3058  1.0170
10222SOL     OW33685   4.295   7.429   5.003 -1.0571  0.2032  0.0213
10222SOL    HW133686   4.318   7.354   4.947 -0.0598  0.2485  0.3660
10222SOL    HW233687   4.337   7.504   4.961  0.2949  0.1253  1.2158
10223SOL     OW33688   6.579   1.395   4.252  0.2242 -0.1217  0.6417
10223SOL    HW133689   6.534   1.478   4.265 -0.3844 -0.2777 -0.4699
10223SOL    HW233690   6.519   1.343   4.198  1.1125 -0.8514  0.3490
10224SOL     OW33691   0.000   7.584   8.217 -0.0713  0.3447 -0.3321
10224SOL    HW133692  -0.049   7.658   8.252  0.1177  0.6270 -0.6622
10224SOL    HW233693   0.081   7.622   8.184  0.3113 -0.0974  0.0784
10225SOL     OW33694   1.317   5.571   9.031 -0.3040  0.3786  0.4319
10225SOL    HW133695   1.402   5.570   9.074  0.7014 -0.6003 -1.4824
10225SOL    HW233696   1.266   5.503   9.074 -0.2483  1.1912  1.8026
10226SOL     OW33697   1.604   3.598   0.653  0.0157 -0.2821  0.0730
10226SOL    HW133698   1.658   3.672   0.681 -0.7191  0.9783 -1.7342
10226SOL    HW233699   1.520   3.638   0.630  0.3587 -1.3567 -3.1357
10227SOL     OW33700   1.323   2.591   1.222  0.4483  0.0484  0.0003
10227SOL    HW133701   1.418   2.588   1.215  0.4039 -1.5338 -0.2158
10227SOL    HW233702   1.302   2.528   1.291 -0.4383  0.3991  0.0592
10228SOL     OW33703   7.971   6.629   7.391 -0.1947  0.0377 -0.2176
10228SOL    HW133704   7.891   6.606   7.439 -0.7454  2.7206  0.2187
10228SOL    HW233705   7.944   6.697   7.330  1.6334  0.4548 -0.5902
10229SOL     OW33706   1.644   5.867   7.601  0.1830 -0.1139  0.3737
10229SOL    HW133707   1.619   5.945   7.552 -0.0668  0.5920  1.6002
10229SOL    HW233708   1.734   5.850   7.575  0.8633  1.6565  1.4209
10230SOL     OW33709   1.983   1.716   8.243 -0.0886 -0.8408 -0.7141
10230SOL    HW133710   1.932   1.791   8.213  0.8435 -0.7350 -2.1011
10230SOL    HW233711   1.919   1.655   8.279 -0.8300  0.7257  0.6544
10231SOL     OW33712   4.394   1.833   4.434 -0.0719  0.2909 -0.0165
10231SOL    HW133713   4.360   1.913   4.395 -0.0640  0.1881 -0.2318
10231SOL    HW233714   4.325   1.803   4.494 -0.5912 -0.2253 -0.8719
10232SOL     OW33715   4.891   9.187   5.827  0.4294 -0.7565 -0.3571
10232SOL    HW133716   4.962   9.250   5.838  0.3169 -0.4704 -1.2305
10232SOL    HW233717   4.866   9.195   5.735 -1.2985 -0.2631  0.1391
10233SOL     OW33718   2.241   8.520   2.686 -0.4950  0.5573 -0.0127
10233SOL    HW133719   2.213   8.607   2.717 -0.4919  0.5383  0.0447
10233SOL    HW233720   2.183   8.500   2.614 -0.9372  0.3083  0.4111
10234SOL     OW33721   7.699   6.783   2.654  0.4638  0.5936 -0.1988
10234SOL    HW133722   7.791   6.758   2.645  0.0325 -0.8080 -0.8766
10234SOL    HW233723   7.661   6.767   2.568 -1.1413 -1.9397  0.9344
10235SOL     OW33724   2.495   3.503   3.729 -0.0805  0.0508  0.1434
10235SOL    HW133725   2.467   3.416   3.758 -1.1589  0.2421 -0.2992
10235SOL    HW233726   2.543   3.539   3.804 -1.7770  0.0565  1.2712
10236SOL     OW33727   4.675   8.339   5.726  0.2701 -0.0067 -0.0229
10236SOL    HW133728   4.601   8.400   5.732  0.2324  0.0292 -0.7473
10236SOL    HW233729   4.634   8.255   5.705  0.5233  0.2750 -1.7204
10237SOL     OW33730   1.825   4.280   3.113  0.0851 -0.3095  0.5979
10237SOL    HW133731   1.873   4.198   3.103 -0.5881 -0.7601  0.9655
10237SOL    HW233732   1.783   4.273   3.200 -2.1100 -0.7381 -0.4533
10238SOL     OW33733   8.913   6.408   7.065  0.6557  0.1278  0.6078
10238SOL    HW133734   8.899   6.396   6.971 -1.5490 -0.5292  0.9883
10238SOL    HW233735   8.988   6.352   7.086 -0.8075 -2.1782 -0.2104
10239SOL     OW33736   0.884   9.395   3.572  0.5640 -0.1445  0.1721
10239SOL    HW133737   0.827   9.393   3.495  0.2593 -0.3438  0.4023
10239SOL    HW233738   0.960   9.344   3.547  0.0534 -0.9852  0.3311
10240SOL     OW33739   6.013   4.740   1.354  1.0658 -0.0607  0.8449
10240SOL    HW133740   6.029   4.646   1.356  1.6925  0.0274  0.3252
10240SOL    HW233741   5.969   4.759   1.437  1.1141 -0.7808  1.0377
10241SOL     OW33742   0.452   8.029   1.477 -0.1904  0.4161  0.2714
10241SOL    HW133743   0.374   8.000   1.428  0.2037  1.5053 -1.0171
10241SOL    HW233744   0.419   8.047   1.565 -1.3941  0.8114 -0.2411
10242SOL     OW33745   4.825   2.707   2.917 -0.3917 -0.3127 -0.2977
10242SOL    HW133746   4.753   2.766   2.895  0.2419  0.4441 -0.3728
10242SOL    HW233747   4.886   2.717   2.844 -0.2379 -0.9992 -0.2667
10243SOL     OW33748   8.420   0.156   3.307 -0.2182 -0.1732  0.5685
10243SOL    HW133749   8.405   0.223   3.374 -0.3008  0.4713 -0.0852
10243SOL    HW233750   8.401   0.201   3.224 -0.6299 -1.1100  0.1518
10244SOL     OW33751   8.140   8.388   3.572  0.0423  0.2280 -0.2107
10244SOL    HW133752   8.131   8.303   3.616 -0.3625  0.3462 -0.0564
10244SOL    HW233753   8.156   8.450   3.643 -0.9738  0.4741 -0.1949
10245SOL     OW33754   0.552   5.147   9.361 -0.1543  0.0853  0.1878
10245SOL    HW133755   0.609   5.076   9.389  0.5887  0.6376  0.0835
10245SOL    HW233756   0.463   5.115   9.379  0.2305 -0.3075  1.4514
10246SOL     OW33757   6.679   8.665   8.949  0.0287  0.0698 -0.4331
10246SOL    HW133758   6.594   8.689   8.912  0.4633  0.1657 -1.3820
10246SOL    HW233759   6.737   8.659   8.873  1.0909  0.9245  0.3048
10247SOL     OW33760   8.008   8.129   7.829  0.9944  0.0727 -0.3274
10247SOL    HW133761   8.099   8.157   7.838  1.1090 -0.5140  0.4291
10247SOL    HW233762   7.958   8.211   7.830  1.4327  0.3368  0.4001
10248SOL     OW33763   5.469   8.551   2.320 -0.1449 -0.3997 -0.1669
10248SOL    HW133764   5.535   8.528   2.255  1.3557  0.4760  1.0209
10248SOL    HW233765   5.434   8.635   2.291 -0.3042 -0.5648 -0.4576
10249SOL     OW33766   8.252   6.316   7.257 -0.5049 -0.1862 -0.1312
10249SOL    HW133767   8.263   6.222   7.273  1.2056 -0.0853 -0.6426
10249SOL    HW233768   8.340   6.348   7.241 -1.1576  1.4037 -0.6186
10250SOL     OW33769   7.057   2.277   4.034  0.3732 -0.6814 -0.1535
10250SOL    HW133770   7.080   2.199   3.982  2.4809  0.2389 -0.6521
10250SOL    HW233771   7.036   2.343   3.968  2.2949  0.2611  0.1431
10251SOL     OW33772   6.160   5.764   4.080  0.0274  0.3895  0.3980
10251SOL    HW133773   6.183   5.797   4.167  1.3790  0.8691 -0.1233
10251SOL    HW233774   6.156   5.842   4.025  0.6478 -0.0524 -0.2778
10252SOL     OW33775   0.331   8.220   1.749 -0.1235  0.1434 -0.1985
10252SOL    HW133776   0.249   8.214   1.797  0.3691  0.7549  0.7406
10252SOL    HW233777   0.391   8.264   1.810  0.6068  0.6059 -1.2414
10253SOL     OW33778   1.005   8.834   8.597 -0.0856 -0.1906 -0.1218
10253SOL    HW133779   1.023   8.791   8.513 -1.5853 -0.8492 -0.1153
10253SOL    HW233780   0.946   8.775   8.642  1.6956 -0.4359  1.9525
10254SOL     OW33781   1.583   7.001   3.830 -0.2713 -0.8025  0.3278
10254SOL    HW133782   1.526   6.926   3.848  0.6516 -1.3765  0.9067
10254SOL    HW233783   1.526   7.077   3.839 -1.4142 -1.4593 -1.0123
10255SOL     OW33784   3.123   7.857   7.298  0.2781  0.4605  0.1470
10255SOL    HW133785   3.141   7.782   7.240  0.0297  0.5796 -0.0876
10255SOL    HW233786   3.027   7.860   7.303  0.3159 -0.6576  2.0130
10256SOL     OW33787   3.782   1.017   3.720  1.0278  0.2934  0.4834
10256SOL    HW133788   3.835   0.941   3.744  0.7860  0.3062  1.0565
10256SOL    HW233789   3.845   1.088   3.710  1.2038  0.1237  0.3871
10257SOL     OW33790   8.791   4.929   5.304  0.1889  0.1467 -0.5950
10257SOL    HW133791   8.833   4.879   5.374 -0.1139  0.2143 -0.3648
10257SOL    HW233792   8.775   5.015   5.342  0.7745  0.4425 -1.0166
10258SOL     OW33793   4.305   4.975   1.958  0.1204 -0.1530  0.5217
10258SOL    HW133794   4.242   4.903   1.969  0.3402 -0.2640  1.0699
10258SOL    HW233795   4.333   4.995   2.047 -2.1497  2.6002  0.6755
10259SOL     OW33796   5.226   8.384   2.738  0.1688 -0.1894  1.0865
10259SOL    HW133797   5.207   8.427   2.655 -1.3823 -0.6665  1.1901
10259SOL    HW233798   5.264   8.300   2.713 -0.6378 -0.4882  0.8469
10260SOL     OW33799   7.687   1.184   2.256 -0.1599  0.4720  0.0435
10260SOL    HW133800   7.711   1.260   2.309  0.3731 -0.5109  1.2506
10260SOL    HW233801   7.703   1.211   2.166  1.2488  1.3665  0.5416
10261SOL     OW33802   2.393   9.258   4.558  0.3385  0.0537  0.5809
10261SOL    HW133803   2.383   9.345   4.520 -1.9257  0.2480  1.5605
10261SOL    HW233804   2.420   9.203   4.485  3.4825  1.8500  0.2657
10262SOL     OW33805   1.533   7.087   2.661  0.2709 -0.2595 -0.0338
10262SOL    HW133806   1.479   7.165   2.653 -0.7931 -0.9513  0.3266
10262SOL    HW233807   1.470   7.015   2.666  1.2414 -1.1299 -0.3142
10263SOL     OW33808   2.423   6.223   8.638 -0.1776 -0.3299 -0.3724
10263SOL    HW133809   2.349   6.270   8.676  1.1716  0.4660  1.3599
10263SOL    HW233810   2.389   6.135   8.620 -0.8899 -0.7618  2.7723
10264SOL     OW33811   8.654   6.679   8.416  0.2829  0.3989 -0.0875
10264SOL    HW133812   8.670   6.774   8.413  1.4313  0.2063 -0.1804
10264SOL    HW233813   8.564   6.669   8.385  0.3442  1.4161 -0.6128
10265SOL     OW33814   2.905   8.107   2.296  0.4470  0.0280 -0.2948
10265SOL    HW133815   2.869   8.176   2.240  1.2094  0.4153 -0.3104
10265SOL    HW233816   2.845   8.104   2.371  2.0790  2.8255  1.2051
10266SOL     OW33817   0.968   0.323   7.963  0.0387 -0.2521  0.3869
10266SOL    HW133818   0.933   0.320   7.874  0.3638  0.1319  0.2442
10266SOL    HW233819   1.052   0.277   7.956  0.2137  0.0614  0.4250
10267SOL     OW33820   6.018   4.197   0.031  0.0662  0.3526  0.7082
10267SOL    HW133821   5.982   4.233   0.112 -0.0517  0.6156  0.5411
10267SOL    HW233822   6.067   4.269  -0.008 -1.6492  0.8886 -0.5153
10268SOL     OW33823   4.983   2.247   0.763  0.0008  0.3266  0.0109
10268SOL    HW133824   4.921   2.209   0.824 -0.3228  0.2244 -0.3828
10268SOL    HW233825   4.929   2.288   0.696  0.3589 -1.3281 -1.3048
10269SOL     OW33826   0.146   2.534   6.439  0.1184 -0.4934 -0.5004
10269SOL    HW133827   0.074   2.569   6.491  0.5953 -1.2699  0.7015
10269SOL    HW233828   0.103   2.487   6.367 -0.5305  1.2173 -1.2569
10270SOL     OW33829   2.062   6.442   2.566 -0.1012  0.3002 -0.4283
10270SOL    HW133830   1.977   6.469   2.530 -0.6162 -1.2492 -0.3740
10270SOL    HW233831   2.105   6.525   2.588 -1.3269  1.1272 -1.0575
10271SOL     OW33832   9.065   1.009   3.153  0.2494  0.1764 -0.0676
10271SOL    HW133833   9.107   1.037   3.234 -0.4331  2.6277 -0.5108
10271SOL    HW233834   9.071   1.085   3.095 -1.5137 -0.6636 -1.4163
10272SOL     OW33835   1.291   1.631   3.519  0.6976  0.2807 -0.0958
10272SOL    HW133836   1.365   1.667   3.470  0.6216 -0.0933 -0.4886
10272SOL    HW233837   1.294   1.537   3.501  0.8728  0.0828  0.8955
10273SOL     OW33838   7.442   4.748   8.523 -0.0435 -0.5746  0.4037
10273SOL    HW133839   7.509   4.817   8.521 -1.9297  1.3299  0.2207
10273SOL    HW233840   7.489   4.668   8.501  2.4169  0.4784  1.6255
10274SOL     OW33841   3.747   3.329   4.270  0.0484 -0.0583  0.3996
10274SOL    HW133842   3.663   3.340   4.225 -0.4307 -1.0775  1.0260
10274SOL    HW233843   3.782   3.248   4.234  0.4396  0.0025  0.6498
10275SOL     OW33844   5.858   2.488   2.340 -0.2035 -0.1861 -0.5612
10275SOL    HW133845   5.792   2.552   2.365  1.6031  1.9847 -1.1475
10275SOL    HW233846   5.873   2.437   2.419 -3.2737 -1.3772 -0.7147
10276SOL     OW33847   0.710   3.846   7.123 -0.2413 -0.1219  0.0968
10276SOL    HW133848   0.787   3.803   7.160 -1.3827 -0.9972  1.4864
10276SOL    HW233849   0.744   3.927   7.085  1.0872  0.5443  2.5675
10277SOL     OW33850   7.306   8.740   6.603  0.6661 -0.3415  0.0093
10277SOL    HW133851   7.329   8.741   6.696 -1.1168  2.0230  0.4841
10277SOL    HW233852   7.223   8.789   6.599  1.6535  1.1984 -3.0525
10278SOL     OW33853   2.175   7.289   7.644  0.0192  0.2550 -0.7297
10278SOL    HW133854   2.252   7.267   7.592  0.4661  1.0849 -0.4337
10278SOL    HW233855   2.190   7.379   7.672 -0.7418  0.1942 -0.1013
10279SOL     OW33856   8.469   2.091   5.958 -0.2497  0.1122  0.1694
10279SOL    HW133857   8.444   2.000   5.941  1.2341 -0.2382 -0.1819
10279SOL    HW233858   8.401   2.124   6.017 -0.0799 -1.6197  1.3480
10280SOL     OW33859   9.224   0.050   6.543  0.5408  0.0435  0.2766
10280SOL    HW133860   9.217   0.060   6.638  0.0105  0.8531  0.1577
10280SOL    HW233861   9.235   0.139   6.510 -0.3381 -0.1334 -0.5072
10281SOL     OW33862   0.498   1.115   8.040 -0.3007  0.2908 -0.3757
10281SOL    HW133863   0.503   1.188   8.101  1.2060  0.1568 -0.3329
10281SOL    HW233864   0.571   1.058   8.065  0.6730  0.5076 -2.6433
10282SOL     OW33865   7.568   1.377   6.467  0.1202  0.8407 -0.0634
10282SOL    HW133866   7.519   1.317   6.411 -0.1980 -0.0231  1.1060
10282SOL    HW233867   7.507   1.448   6.487  0.1666  1.0413 -0.6340
10283SOL     OW33868   7.478   8.817   2.443 -0.6926 -0.2976  0.2519
10283SOL    HW133869   7.474   8.722   2.430  0.4202 -0.1802 -1.1493
10283SOL    HW233870   7.570   8.839   2.430 -0.9412  0.9823  0.5644
10284SOL     OW33871   3.443   5.516   7.464 -0.0802 -0.3153  0.4018
10284SOL    HW133872   3.431   5.423   7.445 -0.6671 -0.6846  2.4898
10284SOL    HW233873   3.356   5.554   7.452 -0.1260 -0.2772  0.8635
10285SOL     OW33874   6.977   2.838   8.397  0.2496 -0.4862  0.5676
10285SOL    HW133875   7.040   2.906   8.374  1.3958 -0.6682  3.0671
10285SOL    HW233876   6.892   2.876   8.377  0.9696  1.0363  0.3752
10286SOL     OW33877   3.666   0.761   1.015 -0.6820 -0.1425 -0.0363
10286SOL    HW133878   3.638   0.711   0.938 -1.2593 -1.2575  0.8813
10286SOL    HW233879   3.619   0.844   1.009 -0.2093  0.0509 -1.2356
10287SOL     OW33880   7.296   0.191   1.062  0.0116  0.3047  0.1888
10287SOL    HW133881   7.322   0.242   0.985 -0.1414 -0.0537 -0.1019
10287SOL    HW233882   7.257   0.256   1.121  3.8017  1.3388  1.7295
10288SOL     OW33883   5.368   4.389   4.681  0.3506  0.0152  0.2964
10288SOL    HW133884   5.420   4.326   4.731  1.2446  0.4135 -0.1140
10288SOL    HW233885   5.433   4.447   4.641 -0.5021  1.6614  1.2861
10289SOL     OW33886   4.945   0.554   3.463 -0.3026  0.1812  0.0725
10289SOL    HW133887   4.978   0.533   3.376  0.8519  0.8727  0.3277
10289SOL    HW233888   5.023   0.555   3.519 -1.0705 -0.5770  1.1772
10290SOL     OW33889   9.071   0.608   2.433 -0.2306 -0.1016  0.1975
10290SOL    HW133890   9.012   0.644   2.500  0.4738  0.8918  0.2970
10290SOL    HW233891   9.159   0.635   2.462  0.0449  0.6199 -1.2949
10291SOL     OW33892   4.487   4.492   4.503 -0.4340 -0.1085 -0.2328
10291SOL    HW133893   4.432   4.537   4.439 -0.8192 -0.6325 -0.2677
10291SOL    HW233894   4.518   4.414   4.458 -0.0841 -0.0838 -0.0361
10292SOL     OW33895   2.327   7.216   6.802 -0.3411 -0.2230  0.5061
10292SOL    HW133896   2.394   7.149   6.814 -0.0914 -0.0992 -0.1472
10292SOL    HW233897   2.369   7.297   6.830 -0.3386 -0.2019  0.4413
10293SOL     OW33898   7.892   3.597   4.842  0.1760  0.7489  0.3431
10293SOL    HW133899   7.877   3.589   4.936 -0.4060  1.3385  0.3051
10293SOL    HW233900   7.810   3.569   4.802  0.5372  0.1767 -0.0014
10294SOL     OW33901   1.830   1.699   8.914 -0.1632 -0.0906  0.2885
10294SOL    HW133902   1.886   1.687   8.990  0.8113 -1.6632 -0.6302
10294SOL    HW233903   1.740   1.692   8.947  0.2732 -1.7085  1.1446
10295SOL     OW33904   3.191   4.602   0.509 -0.4605  0.1261 -0.3045
10295SOL    HW133905   3.119   4.540   0.493 -0.1614 -0.3689  0.2594
10295SOL    HW233906   3.148   4.687   0.515 -0.8443  0.0201 -1.3992
10296SOL     OW33907   7.469   6.774   9.316  0.4435  0.1132 -0.0163
10296SOL    HW133908   7.511   6.736   9.393 -1.8227 -2.3904  0.0460
10296SOL    HW233909   7.426   6.853   9.348 -0.3939 -0.8566  1.2708
10297SOL     OW33910   0.264   5.438   0.520 -0.2746  0.2260  0.2067
10297SOL    HW133911   0.322   5.367   0.494  1.1924  1.1428  0.9202
10297SOL    HW233912   0.248   5.487   0.439 -0.9700 -0.6875 -0.2085
10298SOL     OW33913   8.212   1.265   2.439 -0.4215 -0.4932 -0.4829
10298SOL    HW133914   8.213   1.300   2.528 -0.4632  1.3836 -1.2135
10298SOL    HW233915   8.131   1.213   2.435 -0.8701  0.1305  0.2944
10299SOL     OW33916   8.071   0.710   5.359 -0.0302 -0.3093 -0.2922
10299SOL    HW133917   8.065   0.616   5.379  2.8604 -0.8206 -1.4901
10299SOL    HW233918   8.149   0.717   5.304  0.2205  2.9270  0.3891
10300SOL     OW33919   8.939   0.527   7.393 -0.0823  0.0632 -0.1384
10300SOL    HW133920   9.023   0.496   7.427 -0.9887 -2.3296  0.0506
10300SOL    HW233921   8.881   0.528   7.470 -0.7899 -0.4271 -0.6599
10301SOL     OW33922   0.619   8.191   8.475 -0.1357 -0.5594 -0.1340
10301SOL    HW133923   0.564   8.243   8.416  0.1631 -0.2950 -0.1833
10301SOL    HW233924   0.708   8.221   8.456 -0.1162  0.2187  1.1278
10302SOL     OW33925   0.021   4.907   7.274 -0.4472 -0.3198  0.2482
10302SOL    HW133926  -0.014   4.977   7.220 -1.4144  0.6932  2.1282
10302SOL    HW233927  -0.056   4.862   7.308  0.0770  0.2056  2.2250
10303SOL     OW33928   3.952   4.596   2.706  0.3574 -0.6160  0.0457
10303SOL    HW133929   3.946   4.501   2.696  0.2945 -0.4385 -1.6971
10303SOL    HW233930   4.038   4.618   2.669  0.5693 -0.0487  0.8726
10304SOL     OW33931   5.954   8.611   6.997  0.1551  0.6555  0.1949
10304SOL    HW133932   5.993   8.654   7.073 -0.7865  0.6066  0.7203
10304SOL    HW233933   5.895   8.677   6.960 -0.4261  0.2169  0.3245
10305SOL     OW33934   2.742   3.512   0.476  0.5480  0.1940  0.5929
10305SOL    HW133935   2.737   3.536   0.383  1.4396  0.4651  0.6160
10305SOL    HW233936   2.725   3.593   0.523 -0.1288  0.0110  0.6750
10306SOL     OW33937   0.046   7.574   7.012  0.2672 -0.3242  0.4746
10306SOL    HW133938  -0.036   7.531   6.992 -0.5774  1.5374 -0.1911
10306SOL    HW233939   0.077   7.532   7.093 -1.4292 -0.8934  0.8401
10307SOL     OW33940   2.748   7.867   3.965  0.2553  0.2138 -0.0708
10307SOL    HW133941   2.687   7.801   3.933 -1.0501  0.8867  0.9934
10307SOL    HW233942   2.825   7.817   3.991 -0.2213 -0.7514 -0.4619
10308SOL     OW33943   5.798   5.764   3.934 -0.0494  0.1083 -0.0557
10308SOL    HW133944   5.841   5.848   3.923 -1.1439  0.5603 -1.0117
10308SOL    HW233945   5.731   5.781   4.000  0.3267 -0.2424  0.4168
10309SOL     OW33946   1.105   0.867   1.991  0.2075 -0.1777  0.8351
10309SOL    HW133947   1.063   0.924   1.926 -1.1697 -0.6896  1.2523
10309SOL    HW233948   1.164   0.812   1.940  0.1426  0.3466  0.1877
10310SOL     OW33949   7.243   6.524   4.092 -0.0353  0.2740 -0.3394
10310SOL    HW133950   7.228   6.492   4.181 -0.1314  0.2358 -0.3696
10310SOL    HW233951   7.188   6.602   4.084  0.8646  0.9604  0.0327
10311SOL     OW33952   5.407   3.692   7.555  0.1849 -0.5657 -0.3505
10311SOL    HW133953   5.382   3.771   7.507 -0.8050 -0.8173 -0.2529
10311SOL    HW233954   5.503   3.689   7.548  0.3374  1.3319  0.7565
10312SOL     OW33955   2.265   4.459   4.595  0.1084 -0.7408 -0.1204
10312SOL    HW133956   2.340   4.434   4.541  1.6795  0.4971  1.4327
10312SOL    HW233957   2.281   4.551   4.616 -3.0180  0.2041 -1.6239
10313SOL     OW33958   4.518   8.468   6.486 -0.4762  0.8834 -0.1139
10313SOL    HW133959   4.600   8.490   6.442 -1.2045  1.7791 -1.0502
10313SOL    HW233960   4.450   8.505   6.430 -1.5850 -0.7773  0.1017
10314SOL     OW33961   6.935   4.292   0.913 -0.7266 -0.2598 -0.1847
10314SOL    HW133962   6.870   4.294   0.843 -1.8936 -2.6378  0.7532
10314SOL    HW233963   6.991   4.217   0.891  1.5088  1.5106 -0.7704
10315SOL     OW33964   0.917   8.940   3.718 -0.3207  0.5746 -0.2558
10315SOL    HW133965   0.857   8.888   3.664 -0.8891 -1.6688  2.4216
10315SOL    HW233966   0.908   8.904   3.806  3.8026  1.2144  0.5420
10316SOL     OW33967   3.724   3.585   0.968  0.0127  0.1366 -0.0071
10316SOL    HW133968   3.689   3.572   0.880  0.0734 -0.3795  0.0465
10316SOL    HW233969   3.727   3.680   0.979 -0.2763  0.1941 -0.4490
10317SOL     OW33970   6.692   8.151   2.689  0.4118  0.2143 -0.3286
10317SOL    HW133971   6.651   8.079   2.736  2.1994 -1.0470 -0.6453
10317SOL    HW233972   6.734   8.204   2.757 -0.7008  0.8374 -0.1182
10318SOL     OW33973   1.780   1.100   7.883  0.0054 -0.6772  0.0435
10318SOL    HW133974   1.806   1.021   7.930  1.6099  0.0790  0.4667
10318SOL    HW233975   1.844   1.107   7.812 -0.6189 -0.1943 -0.4787
10319SOL     OW33976   2.185   8.832   6.337 -0.1394  0.0405 -0.1057
10319SOL    HW133977   2.243   8.757   6.349 -0.1634 -0.2333 -1.5685
10319SOL    HW233978   2.237   8.893   6.284 -0.6969  0.3757 -0.2692
10320SOL     OW33979   5.749   1.362   0.196  0.0943  0.1584  0.1168
10320SOL    HW133980   5.741   1.449   0.157  0.3146 -0.3346 -1.0531
10320SOL    HW233981   5.735   1.376   0.289 -0.2321  1.3976 -0.1098
10321SOL     OW33982   8.390   6.506   0.674  0.1296 -0.6872  0.2768
10321SOL    HW133983   8.335   6.527   0.750  1.8772  1.2207  1.0536
10321SOL    HW233984   8.479   6.529   0.701  0.7792  0.0972 -2.3645
10322SOL     OW33985   0.795   5.207   4.548 -0.1850  0.0769 -0.0113
10322SOL    HW133986   0.851   5.285   4.542 -1.3715  0.9672  0.4094
10322SOL    HW233987   0.812   5.173   4.636 -0.0620  0.1623 -0.0015
10323SOL     OW33988   1.910   1.052   8.401 -0.2854 -0.2984 -0.7741
10323SOL    HW133989   1.940   1.026   8.488  0.7669 -0.5368 -1.2061
10323SOL    HW233990   1.835   0.995   8.383 -0.3278 -0.4434 -0.1521
10324SOL     OW33991   6.953   0.902   7.149  0.5093  0.0095 -0.5606
10324SOL    HW133992   6.895   0.969   7.113  0.4862  0.4803  0.3395
10324SOL    HW233993   6.895   0.844   7.199  0.4589 -0.9690 -1.7365
10325SOL     OW33994   1.844   7.630   8.466 -0.3762  0.0118 -1.0390
10325SOL    HW133995   1.750   7.640   8.486 -0.5464 -2.2278 -0.5543
10325SOL    HW233996   1.870   7.551   8.515  1.4518 -0.1396 -2.2296
10326SOL     OW33997   4.867   0.027   4.231 -0.0689  0.2438 -0.2074
10326SOL    HW133998   4.848   0.119   4.248 -0.9493 -0.0630  0.4506
10326SOL    HW233999   4.960   0.026   4.207  0.5909  0.9756  2.2761
10327SOL     OW34000   6.072   5.614   1.546 -0.8686 -0.3275 -0.3087
10327SOL    HW134001   6.072   5.644   1.637  0.5177  1.0535 -0.7498
10327SOL    HW234002   6.145   5.553   1.540  0.7242  1.6027 -1.1144
10328SOL     OW34003   8.436   2.262   2.028 -0.4698  0.5764 -0.2145
10328SOL    HW134004   8.454   2.354   2.046  0.2719  1.0313 -2.9792
10328SOL    HW234005   8.519   2.217   2.044 -0.1711  0.7831 -1.1154
10329SOL     OW34006   3.399   2.918   4.121 -0.2514  0.0859 -0.8747
10329SOL    HW134007   3.354   2.891   4.041  0.2485 -2.2259 -0.4185
10329SOL    HW234008   3.390   2.843   4.180 -0.0465  1.5014  0.9979
10330SOL     OW34009   2.680   6.295   4.042 -0.3615  0.0236 -0.1159
10330SOL    HW134010   2.698   6.360   3.974  0.9127 -0.1275  0.0688
10330SOL    HW234011   2.748   6.229   4.032 -0.8525 -0.6014  0.5630
10331SOL     OW34012   4.080   8.403   3.226 -0.3528  0.1957 -0.4734
10331SOL    HW134013   4.092   8.497   3.239  0.1384  0.0382  0.2031
10331SOL    HW234014   4.112   8.363   3.306  0.2659 -0.6170 -1.1222
10332SOL     OW34015   4.361   5.000   8.080  0.4724  0.1692  0.2386
10332SOL    HW134016   4.413   4.958   8.012  1.0542 -0.3835  1.0193
10332SOL    HW234017   4.387   5.092   8.077  0.1043  0.2488 -0.6396
10333SOL     OW34018   6.409   8.187   7.503  0.3695 -0.3395  0.2602
10333SOL    HW134019   6.486   8.135   7.479  0.8042 -0.2301  1.3590
10333SOL    HW234020   6.334   8.130   7.486  0.7839 -0.9757  0.5405
10334SOL     OW34021   1.000   7.817   6.232  0.2052 -0.4381  0.1536
10334SOL    HW134022   0.999   7.799   6.326 -1.0189 -2.2820 -0.1967
10334SOL    HW234023   1.067   7.758   6.197  0.2796 -0.1399 -0.2121
10335SOL     OW34024   8.137   2.727   2.335 -0.2070  0.2429 -1.1291
10335SOL    HW134025   8.220   2.721   2.382 -0.7092 -0.5895 -0.3353
10335SOL    HW234026   8.138   2.653   2.275  0.3172  1.1520 -2.2522
10336SOL     OW34027   8.022   3.962   3.536 -0.0319  0.2514 -0.6705
10336SOL    HW134028   8.004   3.886   3.591 -2.0042 -0.5301 -2.3304
10336SOL    HW234029   7.950   3.963   3.472  1.1699  2.2227 -2.0467
10337SOL     OW34030   8.811   3.321   2.277 -0.2031 -0.4848  0.1264
10337SOL    HW134031   8.842   3.243   2.324 -0.9074 -1.4319 -0.9542
10337SOL    HW234032   8.859   3.393   2.318 -0.8882 -1.2515  2.4040
10338SOL     OW34033   8.411   7.838   5.828 -0.3455 -0.0288  0.9745
10338SOL    HW134034   8.436   7.929   5.816 -2.3899  0.3145 -1.0374
10338SOL    HW234035   8.355   7.837   5.906 -0.7303  0.5139  0.7039
10339SOL     OW34036   9.182   0.552   2.076 -0.0747 -0.7245 -0.2062
10339SOL    HW134037   9.174   0.527   1.984  0.4475  1.1742 -0.7898
10339SOL    HW234038   9.276   0.544   2.094 -0.1612 -0.9827  0.1373
10340SOL     OW34039   8.777   8.174   5.266  0.0308 -0.2140 -0.3652
10340SOL    HW134040   8.853   8.213   5.309  0.1356 -0.2917 -0.4817
10340SOL    HW234041   8.784   8.080   5.283  0.9198 -0.4357 -1.8729
10341SOL     OW34042   1.601   4.954   4.364 -0.3674  0.2907 -0.3281
10341SOL    HW134043   1.681   4.934   4.316  0.0084 -0.6061  0.6451
10341SOL    HW234044   1.583   5.046   4.345 -0.5466 -0.1966 -2.6091
10342SOL     OW34045   5.456   1.785   4.203 -0.1528  0.1764  0.3333
10342SOL    HW134046   5.523   1.766   4.268 -1.2276  0.5935  1.5746
10342SOL    HW234047   5.439   1.878   4.213 -0.8609  0.0885 -0.0315
10343SOL     OW34048   9.416   3.675   6.420  0.6596 -0.0741 -0.2198
10343SOL    HW134049   9.379   3.644   6.503  0.0663  1.6127  0.1678
10343SOL    HW234050   9.506   3.700   6.442  0.5039  0.3683 -0.0728
10344SOL     OW34051   2.498   0.443   2.532  0.0230  0.2301 -0.2029
10344SOL    HW134052   2.557   0.414   2.463  1.1932 -0.3898  1.0340
10344SOL    HW234053   2.429   0.377   2.534 -0.2436  0.4814 -1.0626
10345SOL     OW34054   4.316   0.182   3.884  0.2748 -0.8063  0.4158
10345SOL    HW134055   4.354   0.235   3.955 -0.1657 -2.0157  1.5792
10345SOL    HW234056   4.223   0.180   3.904 -0.0278 -0.1469 -0.8979
10346SOL     OW34057   3.282   8.096   1.414  0.4143  0.0297  0.4741
10346SOL    HW134058   3.336   8.087   1.493 -0.6297 -1.5534  1.0402
10346SOL    HW234059   3.251   8.008   1.396 -1.3406  0.7795 -0.2942
10347SOL     OW34060   7.279   1.660   4.008 -0.5345 -0.1670  0.3705
10347SOL    HW134061   7.304   1.730   3.948 -0.2499 -0.8457 -0.3154
10347SOL    HW234062   7.230   1.598   3.954 -0.7443 -0.5185  0.9600
10348SOL     OW34063   8.928   1.638   1.461  0.8926  0.6991  0.1947
10348SOL    HW134064   8.888   1.694   1.396 -1.8497 -1.3775 -0.0110
10348SOL    HW234065   8.878   1.653   1.541  0.2842 -1.1963  0.2089
10349SOL     OW34066   4.284   9.079   7.171  0.0401 -0.4316  0.1164
10349SOL    HW134067   4.209   9.037   7.128  0.3695 -1.9908  1.0291
10349SOL    HW234068   4.338   9.006   7.201  0.9056  0.6698  1.2634
10350SOL     OW34069   3.795   9.095   6.692 -0.3184 -0.0476  0.2392
10350SOL    HW134070   3.718   9.111   6.747 -0.0298 -0.1019  0.6612
10350SOL    HW234071   3.766   9.026   6.631 -0.0817 -1.3065  1.5181
10351SOL     OW34072   9.416   1.075   7.058  0.2249  0.6728 -0.0250
10351SOL    HW134073   9.373   1.004   7.106  2.1937  0.1743  1.0589
10351SOL    HW234074   9.402   1.152   7.112  0.1227  0.6347  0.0034
10352SOL     OW34075   2.910   7.496   6.024  0.0413  0.0179  0.4243
10352SOL    HW134076   2.822   7.465   6.005 -0.2935  0.6392  0.9430
10352SOL    HW234077   2.940   7.440   6.095  0.3361 -0.6569 -0.2296
10353SOL     OW34078   2.308   8.101   7.773 -0.4268  0.7034 -0.0430
10353SOL    HW134079   2.349   8.104   7.686  2.0888 -0.4140  1.0459
10353SOL    HW234080   2.291   8.193   7.794 -3.0635  0.8677 -2.5737
10354SOL     OW34081   5.915   2.420   6.744  0.3595 -0.1004  0.1197
10354SOL    HW134082   5.917   2.419   6.648  0.0334 -0.2063  0.1144
10354SOL    HW234083   5.991   2.472   6.769  2.3772 -2.8164 -0.1336
10355SOL     OW34084   3.725   5.167   5.758 -0.0975 -0.0615  0.1912
10355SOL    HW134085   3.787   5.201   5.823 -1.4468 -0.1483  1.5387
10355SOL    HW234086   3.781   5.137   5.686  1.3631  0.8651  0.9093
10356SOL     OW34087   1.543   8.653   5.936  0.0012  0.9978 -0.1041
10356SOL    HW134088   1.605   8.676   5.867  1.1741 -1.9747 -0.0903
10356SOL    HW234089   1.586   8.683   6.017  0.5694  0.6197 -0.2630
10357SOL     OW34090   0.479   0.348   5.149 -0.1940  0.5312 -0.2900
10357SOL    HW134091   0.428   0.309   5.078  1.0584 -1.3266 -0.2037
10357SOL    HW234092   0.548   0.398   5.105 -0.6299  1.0451 -0.3904
10358SOL     OW34093   6.606   1.182   5.636  0.1241  0.2258  0.7849
10358SOL    HW134094   6.628   1.256   5.579  1.0653 -0.6270  0.0244
10358SOL    HW234095   6.602   1.220   5.724  0.9780  1.1235  0.4447
10359SOL     OW34096   6.873   8.242   7.874 -0.2888  0.3798  0.0323
10359SOL    HW134097   6.931   8.170   7.850  0.6927  1.1907 -0.0407
10359SOL    HW234098   6.800   8.236   7.813 -0.5843 -1.0115  0.5163
10360SOL     OW34099   3.113   1.780   3.523  0.6065  0.5879 -0.0203
10360SOL    HW134100   3.187   1.761   3.581  0.7485  0.7072 -0.1623
10360SOL    HW234101   3.036   1.753   3.572  0.7645  0.2313  0.0293
10361SOL     OW34102   2.634   2.877   2.017 -0.5846 -0.6017 -1.3037
10361SOL    HW134103   2.690   2.835   2.083  1.3124  3.1350 -0.4225
10361SOL    HW234104   2.643   2.822   1.939  1.6284 -1.9592 -0.1394
10362SOL     OW34105   1.767   6.065   5.258  0.4938  0.0934 -0.2553
10362SOL    HW134106   1.834   6.026   5.315 -0.5583 -1.0514  0.2202
10362SOL    HW234107   1.699   5.998   5.253 -0.7923  1.4034 -0.4246
10363SOL     OW34108   6.986   4.181   8.777  0.1238  0.3220 -0.4238
10363SOL    HW134109   6.914   4.119   8.784 -0.5774  1.0518 -1.0592
10363SOL    HW234110   6.946   4.267   8.792  0.9206  0.7026 -0.4226
10364SOL     OW34111   4.819   0.182   9.261 -0.4076 -0.4162 -0.1837
10364SOL    HW134112   4.746   0.199   9.201 -0.8303 -1.1258  0.1084
10364SOL    HW234113   4.896   0.214   9.215 -0.9810  0.9244 -0.2379
10365SOL     OW34114   5.945   7.524   8.873 -0.2835 -0.3282  0.7460
10365SOL    HW134115   5.959   7.552   8.964  1.2716  1.0549  0.0937
10365SOL    HW234116   5.917   7.604   8.828  0.7482 -0.6111 -0.3963
10366SOL     OW34117   3.281   2.371   9.182  0.2368 -0.0841  0.1917
10366SOL    HW134118   3.316   2.442   9.129  0.8743 -0.6177 -0.1085
10366SOL    HW234119   3.249   2.307   9.118 -0.4829  0.0016  0.4594
10367SOL     OW34120   2.938   8.381   8.526 -0.6433 -0.0408 -0.0890
10367SOL    HW134121   2.869   8.416   8.469 -1.5420  0.9743  1.5667
10367SOL    HW234122   2.895   8.370   8.611  0.5404 -1.9899  0.2818
10368SOL     OW34123   9.128   4.757   6.860  0.5310 -0.0357 -0.1549
10368SOL    HW134124   9.136   4.744   6.765  0.9732  0.9177 -0.2546
10368SOL    HW234125   9.211   4.726   6.896  0.5174 -0.0357 -0.1232
10369SOL     OW34126   2.084   3.668   2.040  0.0745  0.0947  0.2885
10369SOL    HW134127   2.089   3.742   2.101  1.0291  0.9893 -0.8659
10369SOL    HW234128   2.163   3.617   2.058  1.0204  1.0496 -1.0578
10370SOL     OW34129   1.835   7.890   8.584  0.1762  0.7549  0.0915
10370SOL    HW134130   1.860   7.821   8.523 -0.5422  1.4723 -1.0065
10370SOL    HW234131   1.918   7.914   8.627  0.6411  0.1118 -0.4348
10371SOL     OW34132   6.709   2.508   0.565 -0.4255  0.0348  0.0916
10371SOL    HW134133   6.727   2.593   0.605  0.3410  0.2039 -0.6120
10371SOL    HW234134   6.643   2.469   0.622 -1.0497  1.2489  0.2278
10372SOL     OW34135   6.067   6.199   5.630  0.0534  0.5420  0.0227
10372SOL    HW134136   6.048   6.131   5.567  0.9819  1.2075 -0.9898
10372SOL    HW234137   6.101   6.153   5.707  0.5106 -0.1511 -0.5922
10373SOL     OW34138   1.537   1.246   2.550 -0.2925  0.0445 -0.0839
10373SOL    HW134139   1.547   1.166   2.499  0.1338  0.0024  0.0697
10373SOL    HW234140   1.583   1.313   2.499  0.8151 -0.1575  0.6307
10374SOL     OW34141   1.206   0.579   7.912 -0.3183 -0.1405  0.0495
10374SOL    HW134142   1.215   0.543   8.000  1.1562 -0.1852 -0.1210
10374SOL    HW234143   1.225   0.506   7.854 -0.0659  0.2097 -0.3086
10375SOL     OW34144   5.374   1.059   3.845 -0.1854 -0.0172 -0.5014
10375SOL    HW134145   5.284   1.067   3.875  0.2349  0.3884  0.6755
10375SOL    HW234146   5.402   0.973   3.876  0.0984  0.2062 -0.1316
10376SOL     OW34147   8.393   0.019   2.376  0.0064  0.4430 -0.2856
10376SOL    HW134148   8.485  -0.003   2.365 -0.1737 -0.2638 -0.4575
10376SOL    HW234149   8.353   0.001   2.290 -0.1227  1.6369 -0.4852
10377SOL     OW34150   5.655   8.446   1.523 -0.2926 -0.2042  0.3708
10377SOL    HW134151   5.594   8.372   1.524 -0.1713 -0.3053  2.6240
10377SOL    HW234152   5.623   8.503   1.454 -0.2068 -2.5094 -1.6284
10378SOL     OW34153   3.296   0.825   4.927 -0.0508 -0.1439 -0.2622
10378SOL    HW134154   3.370   0.845   4.984  0.0423  0.5583 -0.6227
10378SOL    HW234155   3.251   0.908   4.916  1.4949  0.3526 -3.4197
10379SOL     OW34156   4.224   8.807   9.149 -0.3770  0.5319 -0.0735
10379SOL    HW134157   4.270   8.739   9.101 -0.2974  1.5579 -1.5020
10379SOL    HW234158   4.236   8.785   9.241  0.9564 -0.5144 -0.4859
10380SOL     OW34159   5.869   7.561   3.598 -0.1570 -0.1209  0.7016
10380SOL    HW134160   5.937   7.602   3.545  1.1869  0.0232  2.5019
10380SOL    HW234161   5.795   7.622   3.595  0.5405  0.7032  0.4146
10381SOL     OW34162   0.152   6.325   5.212  0.2537  0.2383  0.1627
10381SOL    HW134163   0.215   6.397   5.217 -0.2978  0.7049  0.4965
10381SOL    HW234164   0.200   6.249   5.246  0.4586  0.7138  0.9550
10382SOL     OW34165   7.260   9.361   2.814 -0.1493  0.3354  0.1162
10382SOL    HW134166   7.293   9.325   2.732 -1.4334  0.6772 -0.5712
10382SOL    HW234167   7.182   9.309   2.833 -1.5624  2.1892 -0.4683
10383SOL     OW34168   2.798   6.645   0.936 -0.2023 -0.4596 -0.7500
10383SOL    HW134169   2.886   6.648   0.900 -0.0176 -1.1294 -0.3697
10383SOL    HW234170   2.783   6.732   0.973  0.9540 -0.8619  0.7271
10384SOL     OW34171   3.632   5.605   2.920 -0.6608 -0.0815  0.5099
10384SOL    HW134172   3.539   5.609   2.900 -0.6600  0.6639  0.6390
10384SOL    HW234173   3.652   5.512   2.923 -1.0337 -0.2392 -1.2406
10385SOL     OW34174   1.888   6.509   1.398 -0.2114 -0.3677 -0.0835
10385SOL    HW134175   1.864   6.577   1.336 -2.7125 -1.3512 -0.2594
10385SOL    HW234176   1.878   6.551   1.484 -1.0961 -0.2979 -0.2130
10386SOL     OW34177   8.902   7.679   0.118 -0.3026  0.2042  0.6017
10386SOL    HW134178   8.925   7.656   0.208 -1.6055 -0.9474  0.6554
10386SOL    HW234179   8.919   7.600   0.068  0.2488  0.7898 -0.1480
10387SOL     OW34180   5.357   4.817   0.844 -0.3471 -0.5660 -0.0276
10387SOL    HW134181   5.287   4.760   0.875 -0.5438 -0.7041 -0.7324
10387SOL    HW234182   5.357   4.807   0.749 -1.7401  2.1827 -0.3551
10388SOL     OW34183   9.420   8.680   5.091  0.2197 -0.4853 -0.0834
10388SOL    HW134184   9.465   8.637   5.164 -1.2027 -1.8918 -0.0200
10388SOL    HW234185   9.386   8.761   5.129  2.9979  0.8219 -0.2323
10389SOL     OW34186   6.351   5.559   0.285  0.4693  0.4150 -0.1133
10389SOL    HW134187   6.412   5.495   0.249  0.6160  0.1838  0.5379
10389SOL    HW234188   6.272   5.549   0.232  0.1495 -0.9943  0.6195
10390SOL     OW34189   9.183   6.112   4.558 -0.3930 -0.4601  0.1620
10390SOL    HW134190   9.114   6.162   4.515  0.6306 -0.3935 -1.4305
10390SOL    HW234191   9.162   6.021   4.540 -1.3084 -0.5474  1.6070
10391SOL     OW34192   4.146   3.145   0.025  0.1039  0.2097  0.6178
10391SOL    HW134193   4.192   3.228   0.037  1.3547 -0.4993  0.8266
10391SOL    HW234194   4.064   3.169  -0.019  1.2931  1.3489 -1.0653
10392SOL     OW34195   4.317   3.194   0.372  0.7645 -0.0026  0.2884
10392SOL    HW134196   4.342   3.120   0.427 -0.1404 -1.3801 -1.1274
10392SOL    HW234197   4.386   3.200   0.306  1.2190  0.9070  0.8189
10393SOL     OW34198   1.841   2.204   2.356 -0.1164 -0.1363 -0.7954
10393SOL    HW134199   1.799   2.275   2.307  0.3611  0.5435 -0.2291
10393SOL    HW234200   1.933   2.207   2.330  0.2810  0.6681  0.6251
10394SOL     OW34201   5.019   1.522   7.745 -0.2378  0.2782  0.3345
10394SOL    HW134202   4.938   1.521   7.694 -0.0691  0.2630  0.0664
10394SOL    HW234203   5.070   1.450   7.709  0.9982  1.9198 -1.2566
10395SOL     OW34204   7.599   4.137   7.299  0.4718 -0.3187  0.0273
10395SOL    HW134205   7.628   4.049   7.325 -1.1132 -0.9793 -0.3625
10395SOL    HW234206   7.679   4.190   7.299  1.0916 -1.1629  2.6490
10396SOL     OW34207   8.525   0.372   6.381 -0.4336  0.2987  0.2155
10396SOL    HW134208   8.594   0.435   6.401 -0.0208  0.4735 -1.6588
10396SOL    HW234209   8.451   0.399   6.435 -0.1628  2.1960 -0.3373
10397SOL     OW34210   1.231   6.392   1.866  0.6563  0.6613  0.5556
10397SOL    HW134211   1.209   6.415   1.956  1.3156  1.0021  0.6297
10397SOL    HW234212   1.276   6.469   1.831 -2.0877  1.6392 -0.9756
10398SOL     OW34213   6.857   9.333   9.391  0.4003  0.1222  0.3321
10398SOL    HW134214   6.795   9.323   9.463  0.6614  0.8999  0.6799
10398SOL    HW234215   6.865   9.428   9.380 -0.2152  0.0097 -1.2256
10399SOL     OW34216   6.754   0.314   9.213 -0.4468 -0.5022  0.3455
10399SOL    HW134217   6.664   0.292   9.237 -0.0322 -0.1680  2.3376
10399SOL    HW234218   6.757   0.410   9.220 -0.2615 -0.4184 -0.8929
10400SOL     OW34219   1.227   5.438   7.810 -0.6247 -0.1996  0.5414
10400SOL    HW134220   1.155   5.388   7.848  0.2687 -0.2102  2.2874
10400SOL    HW234221   1.232   5.517   7.864  1.5374 -0.8346  1.3339
10401SOL     OW34222   6.978   4.373   3.093 -0.7070 -0.1074  0.5860
10401SOL    HW134223   6.885   4.366   3.071 -1.1520 -0.1893  2.4014
10401SOL    HW234224   7.007   4.282   3.103 -1.0268 -0.0429  2.3057
10402SOL     OW34225   6.757   8.067   4.812  0.1928 -0.2798 -0.3249
10402SOL    HW134226   6.707   7.987   4.796 -0.4095 -0.1495  0.8888
10402SOL    HW234227   6.771   8.068   4.907 -1.3267  1.9584 -0.1066
10403SOL     OW34228   4.061   0.254   5.272 -0.6184 -0.2830  0.9887
10403SOL    HW134229   4.029   0.319   5.209 -0.8946 -0.7638  0.6325
10403SOL    HW234230   4.056   0.299   5.357 -0.8262  0.1536  0.7481
10404SOL     OW34231   7.381   3.730   8.488  0.2243 -0.1292 -0.4623
10404SOL    HW134232   7.310   3.716   8.551  0.7274  1.5146  0.4915
10404SOL    HW234233   7.348   3.799   8.431  1.3183  1.1312  0.4124
10405SOL     OW34234   2.452   8.632   5.024  0.4578  0.1598  0.8972
10405SOL    HW134235   2.544   8.607   5.030  0.9900  0.6992 -3.1139
10405SOL    HW234236   2.454   8.724   4.996 -1.2504 -0.0639 -0.0421
10406SOL     OW34237   8.856   0.378   7.829 -0.3075 -0.0061  0.1253
10406SOL    HW134238   8.878   0.319   7.756  2.0249  0.0905  0.6998
10406SOL    HW234239   8.839   0.462   7.788  0.8557  0.0110 -0.3630
10407SOL     OW34240   5.390   3.291   1.269  0.0187  0.2423  0.1923
10407SOL    HW134241   5.334   3.366   1.251  1.5171  1.2330 -0.4936
10407SOL    HW234242   5.426   3.267   1.183  0.6045 -0.3950  0.6125
10408SOL     OW34243   3.286   1.002   6.474  0.5199 -0.7791 -0.1664
10408SOL    HW134244   3.267   0.923   6.423 -2.2673  1.3484 -2.6080
10408SOL    HW234245   3.246   1.073   6.423 -1.5171  1.6106  4.5091
10409SOL     OW34246   3.845   5.256   8.397 -0.1747 -0.0012  0.5184
10409SOL    HW134247   3.894   5.291   8.322 -0.6809 -3.0545 -1.3462
10409SOL    HW234248   3.772   5.317   8.408  0.1249  0.7211 -1.2540
10410SOL     OW34249   4.050   6.356   0.331 -0.2228  0.4105 -0.4256
10410SOL    HW134250   4.130   6.338   0.281  1.0781 -0.5243  1.8960
10410SOL    HW234251   4.082   6.386   0.416 -2.3754 -0.1131  0.5814
10411SOL     OW34252   1.727   0.125   5.192  0.5562 -0.3043 -0.2357
10411SOL    HW134253   1.650   0.173   5.162  0.4892 -0.1482  0.1857
10411SOL    HW234254   1.801   0.174   5.155  0.5509  1.0122  1.4375
10412SOL     OW34255   3.438   3.770   0.226  0.2224 -0.2394  0.3058
10412SOL    HW134256   3.529   3.797   0.213 -0.6262  1.5015 -2.4513
10412SOL    HW234257   3.412   3.813   0.307  0.5867  2.9186 -1.1694
10413SOL     OW34258   7.764   0.370   1.807  0.2056 -0.0694  0.1408
10413SOL    HW134259   7.670   0.357   1.790 -0.0519  1.1746  0.4909
10413SOL    HW234260   7.766   0.413   1.893  1.1311 -0.6306  0.3991
10414SOL     OW34261   0.265   3.203   8.882 -0.0272  0.0353  0.1062
10414SOL    HW134262   0.271   3.276   8.820 -0.1242 -0.4249 -0.4511
10414SOL    HW234263   0.178   3.166   8.866  0.5930 -1.1109 -0.6456
10415SOL     OW34264   5.270   2.274   0.668 -0.2753  0.6394 -0.4832
10415SOL    HW134265   5.190   2.253   0.716  0.5132  1.0207  1.0392
10415SOL    HW234266   5.318   2.333   0.726  0.2392  1.9627 -2.1878
10416SOL     OW34267   7.333   7.377   6.098 -0.6859  0.1224  0.5184
10416SOL    HW134268   7.395   7.425   6.154  0.8537 -1.6020  0.3378
10416SOL    HW234269   7.307   7.301   6.151 -0.3205 -0.7631 -0.5603
10417SOL     OW34270   6.600   7.307   5.623 -0.3689  0.2006  0.8762
10417SOL    HW134271   6.544   7.262   5.560  0.3569  0.2601  0.1771
10417SOL    HW234272   6.542   7.331   5.695 -1.0721 -0.4418  0.5211
10418SOL     OW34273   2.852   3.070   8.752  0.0537 -0.0274 -0.5267
10418SOL    HW134274   2.908   3.146   8.742  1.5903 -1.3810 -2.6815
10418SOL    HW234275   2.786   3.097   8.816  1.8560  2.3280  0.4146
10419SOL     OW34276   3.500   4.214   0.012  0.3172 -0.1607 -0.1011
10419SOL    HW134277   3.567   4.233  -0.053  0.9755 -1.1288  0.2811
10419SOL    HW234278   3.471   4.300   0.043  0.4868  0.2845 -1.1692
10420SOL     OW34279   9.016   4.549   6.099  0.1934  0.1213 -0.1412
10420SOL    HW134280   8.931   4.594   6.107 -0.0315 -0.2820 -0.2538
10420SOL    HW234281   8.993   4.457   6.087  0.5686  0.3118 -2.5845
10421SOL     OW34282   4.300   1.662   3.807 -0.2968 -0.0762 -0.3962
10421SOL    HW134283   4.354   1.712   3.746 -0.0056 -1.5560 -1.3848
10421SOL    HW234284   4.362   1.611   3.859 -0.6347 -0.0615  0.0360
10422SOL     OW34285   5.097   2.132   1.630 -0.2638  0.6273 -0.3770
10422SOL    HW134286   5.094   2.170   1.542  0.9642  0.9865 -0.2715
10422SOL    HW234287   5.190   2.122   1.648 -0.5444 -3.0586 -0.6452
10423SOL     OW34288   9.026   5.851   6.785 -0.0279  0.7781 -0.0788
10423SOL    HW134289   8.969   5.790   6.738 -0.3018  0.9141  0.0722
10423SOL    HW234290   9.010   5.832   6.877 -0.0576  1.0302 -0.0334
10424SOL     OW34291   5.859   4.349   6.050  0.2573  0.0390 -0.0304
10424SOL    HW134292   5.840   4.396   6.131  1.9011  0.6195  0.0365
10424SOL    HW234293   5.921   4.406   6.003  0.4849 -0.9838 -0.9993
10425SOL     OW34294   1.310   6.515   4.273  0.5710 -0.5578 -0.1647
10425SOL    HW134295   1.382   6.575   4.293  1.5018 -1.6805 -0.0815
10425SOL    HW234296   1.293   6.470   4.355  1.3516 -1.9584 -0.7635
10426SOL     OW34297   4.029   6.679   5.956 -0.0306 -0.2751  0.2251
10426SOL    HW134298   4.101   6.699   5.895  0.1161  1.7007  1.0188
10426SOL    HW234299   4.056   6.598   5.999  1.3793  0.0388 -0.0302
10427SOL     OW34300   7.331   4.201   7.365  0.2768  0.2562  0.2370
10427SOL    HW134301   7.338   4.191   7.460  1.0493 -0.6380  0.0915
10427SOL    HW234302   7.420   4.184   7.333  0.3418  1.9463 -0.5324
10428SOL     OW34303   1.047   1.597   5.417  0.1717 -0.2029  0.0478
10428SOL    HW134304   1.053   1.501   5.416  0.0279 -0.2258  0.8950
10428SOL    HW234305   1.020   1.618   5.506  1.6584  0.7187  0.2917
10429SOL     OW34306   8.488   3.953   3.124 -0.2370 -0.1183  0.4114
10429SOL    HW134307   8.532   4.002   3.055  0.0948 -1.0535 -0.0546
10429SOL    HW234308   8.401   3.992   3.129 -0.3329 -0.1569 -0.6739
10430SOL     OW34309   7.372   5.580   0.964  0.3992  0.1169  0.3162
10430SOL    HW134310   7.381   5.492   0.927  0.8021 -0.2482  1.2729
10430SOL    HW234311   7.285   5.608   0.936  1.1445  0.3259 -1.8996
10431SOL     OW34312   9.272   2.842   5.676 -0.0979  0.0144 -0.3838
10431SOL    HW134313   9.218   2.918   5.651 -0.5583 -0.6914 -1.5768
10431SOL    HW234314   9.256   2.778   5.607 -0.3886 -1.5117  1.0579
10432SOL     OW34315   7.004   2.421   3.551 -0.0363  0.8098  0.3421
10432SOL    HW134316   7.038   2.398   3.637 -0.6369 -0.2151  0.3173
10432SOL    HW234317   6.990   2.515   3.555  1.5806  1.0539  0.7779
10433SOL     OW34318   6.161   1.635   3.846 -0.5678  0.3736 -0.2479
10433SOL    HW134319   6.158   1.597   3.758 -1.4141 -1.5180  0.5806
10433SOL    HW234320   6.251   1.620   3.875 -0.4402  0.5000 -0.5779
10434SOL     OW34321   2.552   8.166   3.023 -0.0069 -0.6181  0.2286
10434SOL    HW134322   2.632   8.119   3.047  1.5700  1.4323 -0.8510
10434SOL    HW234323   2.540   8.145   2.930 -0.9505 -1.2111  0.4757
10435SOL     OW34324   7.610   9.053   8.045  0.4639  0.1651 -0.3502
10435SOL    HW134325   7.703   9.050   8.068  0.6503 -0.9459 -1.1947
10435SOL    HW234326   7.603   9.126   7.983  0.2887  1.9440  1.6908
10436SOL     OW34327   8.081   7.503   4.490  0.1921  0.3534 -0.0279
10436SOL    HW134328   8.085   7.564   4.416  0.2635  0.6432  0.2144
10436SOL    HW234329   7.990   7.508   4.520  0.2134  0.3781  0.0298
10437SOL     OW34330   0.106   3.756   2.656  0.0132 -0.0080 -0.4344
10437SOL    HW134331   0.123   3.804   2.737  1.6332 -0.6122 -0.3970
10437SOL    HW234332   0.168   3.683   2.658 -0.1355 -0.1932 -2.0894
10438SOL     OW34333   2.888   8.071   1.896 -0.0423  0.1858  0.1284
10438SOL    HW134334   2.830   8.143   1.921  0.0638 -0.3576  2.0186
10438SOL    HW234335   2.832   7.994   1.896 -0.3738  0.3846 -2.8700
10439SOL     OW34336   7.343   7.828   4.143 -0.0850  0.2091 -0.8024
10439SOL    HW134337   7.260   7.864   4.176  0.3971  1.1283 -0.5721
10439SOL    HW234338   7.388   7.796   4.221 -0.3021 -0.4432 -0.9486
10440SOL     OW34339   7.341   1.201   7.787 -0.3088  0.0138  0.2635
10440SOL    HW134340   7.377   1.232   7.870  0.0468  1.8487 -0.5400
10440SOL    HW234341   7.316   1.282   7.741  1.0700 -0.8889 -2.1119
10441SOL     OW34342   5.829   4.286   1.809  0.3796 -0.3704  0.1093
10441SOL    HW134343   5.845   4.242   1.725  0.1758  0.8339 -0.5808
10441SOL    HW234344   5.881   4.366   1.804 -0.0732 -0.0198  0.9139
10442SOL     OW34345   7.741   7.687   7.140  0.3377  0.0588 -0.7387
10442SOL    HW134346   7.689   7.746   7.085  0.3385 -0.7020 -1.5884
10442SOL    HW234347   7.818   7.737   7.163 -1.4184  1.7132  1.7476
10443SOL     OW34348   6.793   1.175   6.115 -0.6508  0.1801 -0.3219
10443SOL    HW134349   6.717   1.166   6.057 -0.7166  0.1336 -0.2284
10443SOL    HW234350   6.823   1.085   6.128 -0.8530  0.1582  0.0036
10444SOL     OW34351   7.189   3.503   9.434  0.1724  0.1072  0.5163
10444SOL    HW134352   7.177   3.587   9.479  3.2010  1.1575 -0.4854
10444SOL    HW234353   7.282   3.484   9.445 -0.0549 -2.0886 -1.0934
10445SOL     OW34354   8.869   3.457   6.004  0.3477 -0.1975 -0.0221
10445SOL    HW134355   8.815   3.535   6.003  1.5352  0.6432  0.4784
10445SOL    HW234356   8.958   3.489   6.019  0.9940 -1.5503 -0.8410
10446SOL     OW34357   8.387   3.891   7.180 -0.0155  0.3349  0.0701
10446SOL    HW134358   8.302   3.868   7.143 -0.1626  0.0792  0.5717
10446SOL    HW234359   8.377   3.982   7.209 -0.0839  0.3408  0.0286
10447SOL     OW34360   6.764   4.019   8.791 -0.4237  0.1559  0.0155
10447SOL    HW134361   6.730   3.938   8.753 -1.0634 -0.3643  1.6638
10447SOL    HW234362   6.707   4.037   8.866  1.6507  0.3875  1.5900
10448SOL     OW34363   7.254   3.393   7.867 -0.5095 -0.4007  0.4350
10448SOL    HW134364   7.287   3.410   7.956 -1.9918 -1.0242  1.1192
10448SOL    HW234365   7.161   3.415   7.871 -0.5647 -0.3091 -1.0175
10449SOL     OW34366   0.346   6.709   2.072 -0.4469 -0.7124 -0.5296
10449SOL    HW134367   0.366   6.616   2.060 -0.2608 -0.8294  0.6183
10449SOL    HW234368   0.270   6.709   2.130 -0.5005 -0.1516 -0.6040
10450SOL     OW34369   1.531   0.114   9.229 -0.4542 -0.2030 -0.4860
10450SOL    HW134370   1.555   0.072   9.312 -3.2356 -1.1288 -0.1184
10450SOL    HW234371   1.604   0.094   9.170  0.3781 -1.6881  1.0103
10451SOL     OW34372   3.803   1.436   2.793 -0.6323  0.4170 -0.3795
10451SOL    HW134373   3.862   1.497   2.748  2.2513 -0.9077  1.4108
10451SOL    HW234374   3.846   1.351   2.783 -2.4799 -0.6527  0.6798
10452SOL     OW34375   5.259   1.308   0.315 -0.1178  0.2439  0.4472
10452SOL    HW134376   5.336   1.261   0.347 -1.2209 -1.1251  1.1668
10452SOL    HW234377   5.241   1.374   0.382  0.9194  1.1244 -0.1344
10453SOL     OW34378   5.921   5.604   3.756 -0.7190  0.1913  0.1621
10453SOL    HW134379   5.981   5.549   3.806  0.2728  0.1421 -1.0749
10453SOL    HW234380   5.877   5.658   3.822  0.3771 -0.0568  1.1006
10454SOL     OW34381   9.233   3.493   8.385  0.2363 -0.2406  0.1303
10454SOL    HW134382   9.162   3.436   8.357 -0.6068  0.5610  0.6134
10454SOL    HW234383   9.198   3.540   8.461  1.1301  0.4712  0.1141
10455SOL     OW34384   6.935   1.961   8.298 -0.1334  0.0763 -0.2388
10455SOL    HW134385   6.964   1.871   8.286  0.3124  0.2301 -0.3059
10455SOL    HW234386   7.004   2.002   8.350  0.5833  0.8899 -1.8000
10456SOL     OW34387   2.749   3.961   4.162  0.4421  0.3589 -0.2559
10456SOL    HW134388   2.707   3.937   4.244  1.4982  1.1934  0.5482
10456SOL    HW234389   2.843   3.959   4.182  0.6839  1.1700 -1.2690
10457SOL     OW34390   6.104   2.838   6.222  0.0169  0.7200  0.3858
10457SOL    HW134391   6.156   2.768   6.261 -0.7151 -0.7199 -1.1672
10457SOL    HW234392   6.138   2.918   6.261  1.0515 -0.4778  1.9825
10458SOL     OW34393   4.070   1.406   8.086 -0.0979 -0.3725  0.5401
10458SOL    HW134394   4.163   1.428   8.088 -0.9056  3.2890  1.7098
10458SOL    HW234395   4.046   1.396   8.178 -0.6799 -2.4773  0.2020
10459SOL     OW34396   4.739   4.980   3.333 -0.6480  0.4398 -0.1938
10459SOL    HW134397   4.662   4.924   3.338  1.2476 -2.2405  0.0807
10459SOL    HW234398   4.789   4.960   3.413 -0.3105  3.1453  0.3185
10460SOL     OW34399   5.245   2.519   3.167  0.1665  0.1313 -0.3356
10460SOL    HW134400   5.171   2.512   3.227  0.4274  2.3336  0.2800
10460SOL    HW234401   5.307   2.578   3.211  0.3131  1.8992 -2.7882
10461SOL     OW34402   3.220   1.379   6.080 -0.1642 -0.1316 -0.7422
10461SOL    HW134403   3.263   1.297   6.057  1.5168  1.3762 -3.2548
10461SOL    HW234404   3.258   1.403   6.165  1.1256 -0.7767 -1.1183
10462SOL     OW34405   1.669   3.237   1.467  0.1253  0.3281  0.3852
10462SOL    HW134406   1.726   3.165   1.494 -1.3808 -1.0073  0.0614
10462SOL    HW234407   1.674   3.237   1.372  0.7942  1.2370  0.4073
10463SOL     OW34408   7.793   8.040   7.381 -0.6599  0.3479  0.5253
10463SOL    HW134409   7.750   8.056   7.297 -0.7644  2.6613  0.9921
10463SOL    HW234410   7.729   7.989   7.431 -1.3229  0.5016 -0.1506
10464SOL     OW34411   8.175   6.053   4.112  0.4108 -0.1878  0.8235
10464SOL    HW134412   8.101   5.993   4.099  0.3241 -0.3551  2.0229
10464SOL    HW234413   8.247   5.996   4.142  1.1077 -0.0644 -0.5619
10465SOL     OW34414   3.313   1.787   3.070 -0.5882  0.4266 -0.4027
10465SOL    HW134415   3.247   1.856   3.066 -0.7606  0.4028  1.6397
10465SOL    HW234416   3.316   1.762   3.162  1.7112 -0.1377 -0.6092
10466SOL     OW34417   2.762   5.844   2.864 -0.5218 -0.4172 -0.1747
10466SOL    HW134418   2.764   5.749   2.877 -3.0888 -0.3269  1.0677
10466SOL    HW234419   2.721   5.855   2.778 -1.2905 -0.4026  0.1918
10467SOL     OW34420   4.592   5.341   6.439  0.5585  0.4363 -0.1688
10467SOL    HW134421   4.569   5.433   6.423  1.0460  0.6604  0.3890
10467SOL    HW234422   4.608   5.337   6.533  1.9335  0.0906 -0.4140
10468SOL     OW34423   2.657   2.329   0.353 -0.0064  0.5072 -0.2832
10468SOL    HW134424   2.682   2.289   0.436  3.4217  2.3438 -0.3508
10468SOL    HW234425   2.568   2.360   0.367 -0.4817 -1.6995  1.7620
10469SOL     OW34426   4.583   6.701   2.390  0.2776  0.0695  0.8091
10469SOL    HW134427   4.584   6.729   2.299  2.6924 -1.0290  0.4690
10469SOL    HW234428   4.524   6.625   2.392  2.7216 -1.9093 -0.4812
10470SOL     OW34429   5.488   5.470   1.411  0.1783  0.5871  0.0629
10470SOL    HW134430   5.501   5.376   1.427  2.1182  0.7419 -0.4893
10470SOL    HW234431   5.534   5.513   1.483 -0.7976  1.1415  0.3784
10471SOL     OW34432   0.012   3.788   1.639 -0.8092  1.0543  0.4754
10471SOL    HW134433   0.020   3.869   1.689 -0.8666  0.8410  0.8342
10471SOL    HW234434  -0.063   3.743   1.677  0.4897 -0.1476  1.7043
10472SOL     OW34435   0.556   1.127   3.548 -0.6047  0.0195 -0.0895
10472SOL    HW134436   0.639   1.166   3.519 -0.4375 -0.5896 -0.4261
10472SOL    HW234437   0.498   1.135   3.472 -1.4064  2.0051  0.6907
10473SOL     OW34438   1.102   7.683   9.016 -0.5392 -0.3001 -0.4284
10473SOL    HW134439   1.060   7.599   9.032 -0.6764 -0.2424 -0.4824
10473SOL    HW234440   1.030   7.744   8.998 -0.5195  0.1302  0.9307
10474SOL     OW34441   7.427   0.906   8.293 -0.2736  0.1515  0.3330
10474SOL    HW134442   7.406   0.814   8.312  0.5837  0.0138  0.6475
10474SOL    HW234443   7.515   0.918   8.328  0.5126  0.4953 -1.6874
10475SOL     OW34444   2.370   6.673   4.903  0.0069 -0.3805  0.1187
10475SOL    HW134445   2.461   6.680   4.932 -0.3521 -1.2407  1.4750
10475SOL    HW234446   2.318   6.683   4.983 -1.0689 -0.7868 -0.5197
10476SOL     OW34447   8.697   5.983   7.655 -0.0458  0.0349  0.1820
10476SOL    HW134448   8.647   6.061   7.681 -1.4744 -1.0711  0.7686
10476SOL    HW234449   8.640   5.936   7.594  1.6051  0.4342 -1.7534
10477SOL     OW34450   0.227   5.328   0.113  0.7521  0.4825  0.3053
10477SOL    HW134451   0.265   5.410   0.143 -1.8347  1.9343 -0.2252
10477SOL    HW234452   0.181   5.292   0.189  0.0482  0.6463 -0.0330
10478SOL     OW34453   3.459   7.760   0.336 -0.1963 -0.1903  0.2802
10478SOL    HW134454   3.493   7.848   0.345 -0.9362  0.0400  0.9279
10478SOL    HW234455   3.364   7.770   0.344 -0.2167 -1.1697  1.4366
10479SOL     OW34456   0.901   0.970   1.216 -0.5772  0.7832  0.8161
10479SOL    HW134457   0.979   1.013   1.252  0.7563 -1.6550  0.9949
10479SOL    HW234458   0.855   0.936   1.292 -0.0428 -0.6222  0.5377
10480SOL     OW34459   3.808   3.466   8.298 -0.1825 -0.2105 -0.1892
10480SOL    HW134460   3.890   3.423   8.274  0.1501  0.1477  0.2949
10480SOL    HW234461   3.826   3.507   8.383 -0.1398  1.8141 -1.1500
10481SOL     OW34462   7.857   5.765   2.508 -0.0539  0.3394 -0.3739
10481SOL    HW134463   7.898   5.744   2.592  3.8114 -0.4693 -2.3110
10481SOL    HW234464   7.817   5.683   2.479  2.4499 -0.6342 -1.2609
10482SOL     OW34465   8.707   1.001   5.697  0.3488 -0.4149 -0.4265
10482SOL    HW134466   8.764   0.928   5.675  1.5595 -0.0620  1.4062
10482SOL    HW234467   8.740   1.075   5.646  1.0069 -0.4334 -0.0391
10483SOL     OW34468   0.930   1.274   9.015  0.0400  0.2416 -0.3777
10483SOL    HW134469   0.906   1.339   9.081 -1.6651 -1.3014  0.5737
10483SOL    HW234470   0.869   1.201   9.030  0.4088 -0.6306 -2.8884
10484SOL     OW34471   2.055   6.893   1.906  0.0050  0.4742 -0.3615
10484SOL    HW134472   2.078   6.816   1.853  0.6691  0.7635 -0.4983
10484SOL    HW234473   2.066   6.863   1.996  1.0845  0.6552 -0.4273
10485SOL     OW34474   0.366   8.871   7.465  0.0122  0.7600  0.0963
10485SOL    HW134475   0.342   8.945   7.409  0.4097 -0.1559 -1.3049
10485SOL    HW234476   0.445   8.835   7.424 -0.2719 -0.5441  0.6807
10486SOL     OW34477   6.549   4.252   4.094  0.1572  0.1932 -0.3188
10486SOL    HW134478   6.603   4.299   4.157 -1.4448  0.9441  0.5186
10486SOL    HW234479   6.534   4.316   4.024  1.1471 -0.3307 -1.0207
10487SOL     OW34480   6.806   2.539   7.487 -0.4201 -0.3288 -0.0715
10487SOL    HW134481   6.873   2.481   7.452 -0.0604 -0.0963  0.2230
10487SOL    HW234482   6.756   2.568   7.411 -0.6785 -1.1223 -0.2027
10488SOL     OW34483   7.270   2.637   7.971  0.7233 -0.4381  0.4044
10488SOL    HW134484   7.202   2.684   8.020  0.3152 -0.6374  0.0308
10488SOL    HW234485   7.306   2.703   7.911  0.7753 -0.3664  0.5134
10489SOL     OW34486   0.298   3.426   4.649 -0.0936  0.0324 -1.0547
10489SOL    HW134487   0.326   3.395   4.563 -0.5007  0.1622 -1.2373
10489SOL    HW234488   0.284   3.520   4.638  0.8284  0.2295 -0.5819
10490SOL     OW34489   0.698   5.455   5.585  0.0628  0.0343 -0.6470
10490SOL    HW134490   0.682   5.396   5.512  0.2921  0.8426 -1.3652
10490SOL    HW234491   0.685   5.542   5.548 -0.6649  0.4201  0.5008
10491SOL     OW34492   2.626   8.197   0.349  0.0815 -0.8701 -0.0066
10491SOL    HW134493   2.669   8.228   0.269  0.0260  1.2744  0.7844
10491SOL    HW234494   2.546   8.154   0.317  0.6568 -1.1154 -1.1770
10492SOL     OW34495   2.514   3.206   2.975  0.1474  0.6132  0.0856
10492SOL    HW134496   2.474   3.120   2.987  1.1834  0.2776  1.3732
10492SOL    HW234497   2.449   3.257   2.927 -0.5502 -0.8357 -0.5367
10493SOL     OW34498   3.793   5.377   0.848 -0.0061 -0.3940 -0.6949
10493SOL    HW134499   3.881   5.408   0.870  0.1360  0.0452 -1.8334
10493SOL    HW234500   3.735   5.430   0.902  0.2931  1.2719 -1.9514
10494SOL     OW34501   6.561   6.986   5.906  0.4702  0.1511 -0.0939
10494SOL    HW134502   6.575   6.894   5.926  0.8106  0.5225  1.4419
10494SOL    HW234503   6.641   7.013   5.861  0.4542 -0.2452 -0.3622
10495SOL     OW34504   6.814   4.888   6.203 -0.6449 -0.3261 -0.0528
10495SOL    HW134505   6.737   4.833   6.218 -1.7707  1.7045  2.0255
10495SOL    HW234506   6.828   4.932   6.287  1.2174  1.3060 -1.1829
10496SOL     OW34507   9.126   0.124   3.774 -0.0911  0.2191  0.1648
10496SOL    HW134508   9.148   0.216   3.791  0.3092  0.2052 -0.2695
10496SOL    HW234509   9.067   0.128   3.698 -1.9008  0.2847  1.5417
10497SOL     OW34510   5.520   5.727   6.789  0.1163 -0.4918 -0.4397
10497SOL    HW134511   5.530   5.719   6.883 -2.7525 -1.4700 -0.1892
10497SOL    HW234512   5.497   5.819   6.774 -2.7669 -1.0742  0.1743
10498SOL     OW34513   1.346   7.186   2.128 -0.5051  0.3782  0.4818
10498SOL    HW134514   1.279   7.130   2.167 -0.3771  0.3451  0.6565
10498SOL    HW234515   1.345   7.164   2.035  0.1070 -0.4977  0.6804
10499SOL     OW34516   8.836   9.357   1.812  0.4749 -0.1995 -0.7896
10499SOL    HW134517   8.813   9.347   1.720  0.5721 -1.1732 -0.7116
10499SOL    HW234518   8.918   9.308   1.822  1.8197  2.0149 -0.7456
10500SOL     OW34519   6.287   2.442   9.027  0.3046 -0.1243  0.4363
10500SOL    HW134520   6.274   2.516   9.086  1.2167 -0.0613  0.5679
10500SOL    HW234521   6.372   2.457   8.987  0.3876 -0.9736  0.2740
10501SOL     OW34522   2.117   1.112   6.098 -0.3974  0.5558  0.5860
10501SOL    HW134523   2.087   1.170   6.028 -1.7182 -1.0941 -0.2392
10501SOL    HW234524   2.037   1.076   6.136  0.4170 -0.9153  0.9396
10502SOL     OW34525   6.326   1.116   1.536  0.0213 -0.3136 -0.0991
10502SOL    HW134526   6.256   1.071   1.585  0.0406  0.3775  0.5753
10502SOL    HW234527   6.289   1.201   1.515 -0.8176 -1.4064 -3.2901
10503SOL     OW34528   0.751   4.776   7.337 -0.4741 -0.0479 -0.1299
10503SOL    HW134529   0.694   4.756   7.263 -0.1348  1.7692 -0.9260
10503SOL    HW234530   0.716   4.859   7.371 -0.0365 -0.3798  1.1355
10504SOL     OW34531   6.689   5.063   5.354  0.0417  0.2251  0.1567
10504SOL    HW134532   6.760   4.999   5.363  0.9219  1.0742 -0.5724
10504SOL    HW234533   6.734   5.148   5.347 -1.0203  0.7228 -0.8250
10505SOL     OW34534   6.393   5.973   7.817  0.0772 -0.9625  0.4402
10505SOL    HW134535   6.449   6.002   7.744  1.6098 -1.8653  1.2257
10505SOL    HW234536   6.319   6.034   7.816  0.1974 -0.8016 -1.7086
10506SOL     OW34537   7.248   4.132   9.159  0.1258  0.6462 -0.4733
10506SOL    HW134538   7.340   4.106   9.150  0.6463  1.6561  1.6374
10506SOL    HW234539   7.246   4.222   9.128 -0.1912  0.5727 -0.6716
10507SOL     OW34540   8.100   9.213   1.781 -0.3922  0.0007  0.2107
10507SOL    HW134541   8.132   9.147   1.719  0.3317  1.8118 -1.3928
10507SOL    HW234542   8.051   9.163   1.846  0.4600 -2.1556 -0.7631
10508SOL     OW34543   5.859   0.840   3.017 -0.2773  0.2542 -0.2024
10508SOL    HW134544   5.838   0.782   2.944 -0.8054  0.1770  0.0057
10508SOL    HW234545   5.795   0.911   3.010  0.2914  0.7506 -0.3889
10509SOL     OW34546   7.190   0.681   1.803 -0.1671  0.0756  0.3151
10509SOL    HW134547   7.222   0.679   1.893 -0.4783 -0.1748  0.4220
10509SOL    HW234548   7.198   0.591   1.773 -1.2853 -0.1093  0.5287
10510SOL     OW34549   2.311   3.130   2.337 -0.3191  0.3489  1.0409
10510SOL    HW134550   2.364   3.111   2.260 -0.2919  0.5984  0.9986
10510SOL    HW234551   2.272   3.215   2.319  0.4545  0.8544  1.7136
10511SOL     OW34552   2.052   3.414   2.319 -0.2059  0.0995  0.1921
10511SOL    HW134553   2.014   3.499   2.343 -0.7781 -0.2828  0.6591
10511SOL    HW234554   2.145   3.433   2.304 -0.3454  0.8250  0.1982
10512SOL     OW34555   8.047   2.928   0.890 -0.0779  0.0411  0.6476
10512SOL    HW134556   7.981   2.997   0.894  0.0172  0.1680  0.1322
10512SOL    HW234557   8.130   2.974   0.903 -0.2007 -0.3401  2.9236
10513SOL     OW34558   5.349   8.595   7.191 -0.1889  0.2760  0.0060
10513SOL    HW134559   5.303   8.512   7.187 -0.3043  0.3124  0.4630
10513SOL    HW234560   5.428   8.577   7.243  0.7634  0.0156 -1.4838
10514SOL     OW34561   6.511   4.550   3.720  0.7686  0.1396 -0.0992
10514SOL    HW134562   6.511   4.644   3.701 -0.6915  0.3265  0.7962
10514SOL    HW234563   6.508   4.544   3.815  0.8710 -0.8219 -0.1456
10515SOL     OW34564   8.834   0.343   6.883 -0.3724  0.4382  0.1860
10515SOL    HW134565   8.821   0.266   6.827 -0.2269  0.7723 -0.3018
10515SOL    HW234566   8.819   0.310   6.972  0.3129 -0.3033  0.0326
10516SOL     OW34567   8.940   9.169   9.353 -0.4287 -0.1122  0.5462
10516SOL    HW134568   8.848   9.142   9.348 -0.1140 -1.2402  0.6097
10516SOL    HW234569   8.978   9.114   9.422  1.2165 -2.4971 -2.1273
10517SOL     OW34570   0.693   9.376   0.432 -0.1278  0.1971 -0.0443
10517SOL    HW134571   0.744   9.454   0.411 -1.2927  0.6396 -1.3981
10517SOL    HW234572   0.751   9.321   0.483  1.0387  1.5319  0.0831
10518SOL     OW34573   3.460   3.243   0.747  0.4736  0.1212 -0.0402
10518SOL    HW134574   3.407   3.242   0.668  2.0433 -2.1412 -1.1031
10518SOL    HW234575   3.550   3.252   0.716  1.1157 -0.7949  1.4684
10519SOL     OW34576   7.163   1.474   3.855  0.0879  0.0138  0.1517
10519SOL    HW134577   7.085   1.428   3.824  0.5358  0.0331 -1.0217
10519SOL    HW234578   7.230   1.406   3.861  0.4461  0.3042 -0.5090
10520SOL     OW34579   1.855   8.071   2.580 -0.7641 -0.7321  0.4153
10520SOL    HW134580   1.793   8.124   2.629  0.2060  0.9907 -0.1534
10520SOL    HW234581   1.937   8.121   2.582 -0.4182 -1.1002 -2.0288
10521SOL     OW34582   1.145   3.344   4.724  0.6319 -0.7224 -0.0097
10521SOL    HW134583   1.138   3.251   4.747  0.4235 -0.4950  0.8870
10521SOL    HW234584   1.055   3.370   4.704  0.9204 -1.1126 -1.9164
10522SOL     OW34585   4.875   5.964   2.770  0.4411 -0.2470  0.0680
10522SOL    HW134586   4.901   5.904   2.840  2.9294 -0.2315 -0.7852
10522SOL    HW234587   4.841   5.908   2.701  0.1553 -0.4595  0.3850
10523SOL     OW34588   5.252   0.695   0.029  0.0916  0.0015 -0.0463
10523SOL    HW134589   5.200   0.684  -0.051 -0.9997 -0.9474  0.7808
10523SOL    HW234590   5.191   0.676   0.100  1.8763 -2.4717  0.9040
10524SOL     OW34591   3.803   5.370   8.906  0.2942 -0.0507 -0.4676
10524SOL    HW134592   3.778   5.308   8.837  1.1611 -1.7299  0.7266
10524SOL    HW234593   3.730   5.367   8.968 -0.0894  0.8322 -0.8612
10525SOL     OW34594   9.397   3.682   1.103 -0.0529 -0.5700 -0.2870
10525SOL    HW134595   9.323   3.653   1.156 -1.7355  1.3703 -1.4776
10525SOL    HW234596   9.473   3.672   1.160 -1.5349 -0.4547  1.7819
10526SOL     OW34597   7.007   9.117   0.425  0.5324 -0.1164 -0.1213
10526SOL    HW134598   7.091   9.155   0.400  0.3129  0.2348 -0.3393
10526SOL    HW234599   6.996   9.042   0.366  0.5082  0.0785 -0.3686
10527SOL     OW34600   5.668   7.851   5.179  0.0405  0.1606 -0.2948
10527SOL    HW134601   5.589   7.799   5.196  0.8545 -1.0759 -0.2167
10527SOL    HW234602   5.700   7.875   5.266 -0.8879  1.6385 -0.3623
10528SOL     OW34603   3.828   8.533   1.749  0.1735 -0.0684  0.0945
10528SOL    HW134604   3.758   8.490   1.800 -0.4581  0.7716 -0.0607
10528SOL    HW234605   3.820   8.625   1.771 -2.0671  0.7754 -3.7744
10529SOL     OW34606   9.092   4.973   0.571 -0.0456  0.4848 -0.2175
10529SOL    HW134607   9.111   5.005   0.660 -1.3320 -0.1237  0.2999
10529SOL    HW234608   9.028   5.036   0.537  2.3405  2.1590 -1.6865
10530SOL     OW34609   0.242   0.771   5.261 -0.2205  0.2025 -0.2421
10530SOL    HW134610   0.221   0.847   5.316  0.8473 -0.1795  0.7134
10530SOL    HW234611   0.338   0.764   5.265 -0.3821 -1.8887  0.6289
10531SOL     OW34612   6.558   5.616   3.039 -0.1168  0.0278 -0.2296
10531SOL    HW134613   6.623   5.661   2.985 -1.6576  1.0549 -1.2724
10531SOL    HW234614   6.549   5.530   2.999  1.3568 -0.5132  0.5555
10532SOL     OW34615   7.934   0.780   8.388 -0.1739 -0.4554 -0.4190
10532SOL    HW134616   8.005   0.735   8.433 -1.9220 -1.1272  1.7839
10532SOL    HW234617   7.958   0.777   8.295  2.5222 -0.8535  0.2575
10533SOL     OW34618   4.572   8.112   7.650  0.0533 -0.1733  0.7896
10533SOL    HW134619   4.608   8.195   7.618 -1.4588  0.1543 -0.1117
10533SOL    HW234620   4.526   8.136   7.731  0.0871 -0.2354  0.8272
10534SOL     OW34621   6.694   3.985   3.139  0.2658 -0.5730  0.3308
10534SOL    HW134622   6.672   3.893   3.120  0.2093 -0.5239  0.1564
10534SOL    HW234623   6.617   4.018   3.185  0.2832 -0.6114  0.3874
10535SOL     OW34624   2.799   2.573   1.939  0.2321  0.2841 -0.1373
10535SOL    HW134625   2.865   2.640   1.957  0.5138  0.5395 -2.0921
10535SOL    HW234626   2.838   2.492   1.974  0.5633  0.8301  0.7985
10536SOL     OW34627   2.374   0.942   4.886  0.2736  0.3560 -0.3316
10536SOL    HW134628   2.447   0.943   4.948 -0.8487 -1.0795  1.0501
10536SOL    HW234629   2.416   0.946   4.800  1.9661 -0.3333  0.4367
10537SOL     OW34630   4.765   9.354   9.372  0.7359  0.3197  0.7600
10537SOL    HW134631   4.798   9.277   9.325  0.9087  0.6793  0.2892
10537SOL    HW234632   4.809   9.428   9.331  1.2076  0.6117  1.7797
10538SOL     OW34633   4.470   6.124   4.632  0.1569 -0.0327  0.7410
10538SOL    HW134634   4.462   6.210   4.673  0.5834 -0.2005  1.1833
10538SOL    HW234635   4.401   6.071   4.673 -2.1886  0.9492 -1.7818
10539SOL     OW34636   1.480   1.239   0.654 -0.1502 -0.4043  0.0788
10539SOL    HW134637   1.421   1.168   0.678  0.8953 -0.9492  1.0623
10539SOL    HW234638   1.440   1.318   0.690 -0.6054 -0.6837  0.1821
10540SOL     OW34639   4.006   3.182   4.519  0.4142  0.3071  0.1868
10540SOL    HW134640   3.980   3.273   4.508  1.7369  0.8887  1.6783
10540SOL    HW234641   3.943   3.147   4.583 -0.3529  0.0438 -0.7023
10541SOL     OW34642   4.939   3.709   9.163 -0.2720 -0.1017 -0.0105
10541SOL    HW134643   5.027   3.721   9.200 -0.7304  3.6161  0.0272
10541SOL    HW234644   4.888   3.670   9.234  0.7660 -0.1697  0.7104
10542SOL     OW34645   3.112   0.341   6.448  0.2883  0.3381  0.0384
10542SOL    HW134646   3.033   0.323   6.499  1.8416 -2.3452  1.6067
10542SOL    HW234647   3.088   0.416   6.393 -1.8159  2.5316  3.7776
10543SOL     OW34648   5.338   9.209   5.730 -0.1960 -0.2595 -0.0820
10543SOL    HW134649   5.312   9.203   5.639  0.1853 -1.7929 -0.1071
10543SOL    HW234650   5.353   9.302   5.745 -2.5224  0.2782 -0.9287
10544SOL     OW34651   8.123   8.216   1.198  0.2677  0.5368 -0.5313
10544SOL    HW134652   8.149   8.194   1.288 -0.5847 -0.5315 -0.5316
10544SOL    HW234653   8.065   8.292   1.208 -0.1256  0.1880 -0.1360
10545SOL     OW34654   5.098   7.720   1.270  0.2292 -0.5247  0.3731
10545SOL    HW134655   5.146   7.777   1.330  1.3858 -1.0505 -0.0314
10545SOL    HW234656   5.153   7.716   1.192 -0.2697 -1.4754  0.0609
10546SOL     OW34657   8.244   3.218   4.773  0.1401 -0.0454  0.1531
10546SOL    HW134658   8.277   3.151   4.714 -1.8855 -0.7999 -0.1709
10546SOL    HW234659   8.301   3.213   4.849  1.8221 -0.1238 -1.0848
10547SOL     OW34660   6.295   8.927   7.420  0.1787  0.2969 -0.2216
10547SOL    HW134661   6.240   8.899   7.493 -0.4316  0.4371 -0.6206
10547SOL    HW234662   6.237   8.980   7.365  0.9211  1.1202 -0.2379
10548SOL     OW34663   1.981   7.287   3.057 -0.1314 -0.2024  0.0714
10548SOL    HW134664   1.899   7.237   3.054  0.9090 -1.9086 -0.5502
10548SOL    HW234665   2.023   7.270   2.973  0.1041  2.0083 -0.2946
10549SOL     OW34666   3.797   5.686   0.577  0.0364  0.3551 -0.3483
10549SOL    HW134667   3.712   5.659   0.542 -0.0731 -0.8555  0.8234
10549SOL    HW234668   3.776   5.734   0.657  0.5660 -2.4713  1.5332
10550SOL     OW34669   2.997   5.947   1.844  0.7252 -0.4852  0.0857
10550SOL    HW134670   3.025   5.869   1.796 -2.1412 -0.1315 -2.3595
10550SOL    HW234671   2.920   5.919   1.893 -0.4678  0.8288 -0.9915
10551SOL     OW34672   0.154   4.416   8.756 -0.1980 -0.5349 -0.0029
10551SOL    HW134673   0.242   4.433   8.789 -0.0006 -1.0588 -0.2632
10551SOL    HW234674   0.161   4.423   8.661 -0.5035 -0.2713 -0.0080
10552SOL     OW34675   1.265   2.799   0.394  0.0953  0.1865  0.3238
10552SOL    HW134676   1.344   2.782   0.445  0.5173  1.7458  0.2228
10552SOL    HW234677   1.238   2.886   0.422 -2.0107 -0.6270  0.8789
10553SOL     OW34678   3.648   9.256   2.173  0.4178  0.2828  0.7491
10553SOL    HW134679   3.588   9.330   2.167 -1.9269 -1.5714  0.3961
10553SOL    HW234680   3.711   9.281   2.240 -1.5972  1.7169  2.1591
10554SOL     OW34681   7.384   5.435   7.352 -0.0814  0.2121  0.5050
10554SOL    HW134682   7.366   5.344   7.326 -1.2842  0.6454 -0.1985
10554SOL    HW234683   7.299   5.479   7.347  0.5702  1.4825  0.4329
10555SOL     OW34684   6.542   5.169   1.995 -0.2632  0.2793 -0.1576
10555SOL    HW134685   6.610   5.103   1.987  1.6852  2.1786  0.3401
10555SOL    HW234686   6.467   5.121   2.032  1.5680 -1.3507  1.5647
10556SOL     OW34687   2.798   0.141   0.098 -0.4895  0.1103 -0.1074
10556SOL    HW134688   2.768   0.137   0.007  1.0597 -0.6039 -0.5896
10556SOL    HW234689   2.891   0.163   0.092 -0.6055  1.0634  1.3513
10557SOL     OW34690   0.838   5.090   9.136 -0.7314  0.1100 -0.0742
10557SOL    HW134691   0.784   5.032   9.082 -0.6645 -0.5794  0.5956
10557SOL    HW234692   0.927   5.071   9.108 -0.8674  1.8543 -1.7769
10558SOL     OW34693   1.466   2.178   0.559 -0.0230 -0.1026 -0.5694
10558SOL    HW134694   1.462   2.224   0.642 -0.9996 -1.1850 -0.0078
10558SOL    HW234695   1.560   2.177   0.537  0.2078  0.4283  0.3727
10559SOL     OW34696   7.217   6.689   6.466  0.0246  0.1183  0.2120
10559SOL    HW134697   7.258   6.611   6.504  1.5152  0.5686 -0.4056
10559SOL    HW234698   7.224   6.676   6.372  0.1701  0.9404  0.1050
10560SOL     OW34699   6.220   3.617   0.452  0.0951 -0.0183 -0.3835
10560SOL    HW134700   6.167   3.572   0.385 -4.1192  3.1092  0.6514
10560SOL    HW234701   6.180   3.592   0.535  0.7688  1.7547  0.4981
10561SOL     OW34702   6.903   9.224   7.610 -0.1192 -0.1498  0.0770
10561SOL    HW134703   6.981   9.221   7.554  0.6576  2.1274  0.9850
10561SOL    HW234704   6.914   9.150   7.670  0.7717 -0.5372 -0.5565
10562SOL     OW34705   5.866   5.337   0.998 -0.1753  0.9404  0.1383
10562SOL    HW134706   5.816   5.261   0.967 -0.3216  1.2465 -0.3663
10562SOL    HW234707   5.807   5.380   1.060 -0.5411  1.2999 -0.4547
10563SOL     OW34708   1.897   8.917   3.813  0.5281  0.3043 -0.1723
10563SOL    HW134709   1.847   8.961   3.882  1.1289 -1.9623  1.7824
10563SOL    HW234710   1.834   8.857   3.773  0.1880  1.5985 -1.5896
10564SOL     OW34711   6.402   8.175   1.406 -0.0388 -0.3308  0.2798
10564SOL    HW134712   6.410   8.080   1.404 -0.6194 -0.3766 -0.1981
10564SOL    HW234713   6.442   8.204   1.324  0.8179 -0.1022  0.7703
10565SOL     OW34714   3.066   7.677   5.045 -0.6514 -0.5897  0.3883
10565SOL    HW134715   3.127   7.604   5.060 -2.5947 -2.3822 -0.1581
10565SOL    HW234716   3.068   7.690   4.950  0.2498  0.5941  0.5579
10566SOL     OW34717   4.270   6.194   2.899  0.3692 -0.2860 -0.5210
10566SOL    HW134718   4.283   6.100   2.891  1.7545 -0.0825 -0.7924
10566SOL    HW234719   4.276   6.227   2.809 -2.2844 -0.1816 -0.6998
10567SOL     OW34720   1.577   8.355   8.274 -0.0795 -0.1537 -0.0275
10567SOL    HW134721   1.550   8.423   8.336 -0.2083  0.7020 -1.0089
10567SOL    HW234722   1.658   8.389   8.235 -0.8319  0.0238 -1.4552
10568SOL     OW34723   3.108   4.456   9.266  0.6126 -0.2919 -0.7258
10568SOL    HW134724   3.027   4.494   9.234  0.2400 -1.6233 -1.4020
10568SOL    HW234725   3.084   4.412   9.347  0.8108 -0.0543 -0.5380
10569SOL     OW34726   4.688   0.346   1.575  0.8274 -0.2744  0.0015
10569SOL    HW134727   4.622   0.403   1.615 -0.2649 -1.7692  0.3840
10569SOL    HW234728   4.698   0.380   1.486  1.4077  1.5124  0.7432
10570SOL     OW34729   3.747   4.210   6.665 -0.6353  0.4240 -0.4791
10570SOL    HW134730   3.744   4.244   6.754  1.6874  0.4764 -0.3929
10570SOL    HW234731   3.839   4.189   6.650 -1.0803 -0.1341 -2.6659
10571SOL     OW34732   6.786   9.350   6.064  0.4851 -0.3846  0.4884
10571SOL    HW134733   6.699   9.315   6.080  0.4560 -0.7093 -0.3533
10571SOL    HW234734   6.773   9.444   6.052  0.2070 -0.4803  0.0338
10572SOL     OW34735   2.375   4.435   5.617 -0.2865  0.1297 -0.1036
10572SOL    HW134736   2.337   4.349   5.597 -1.8558  0.1395  2.5980
10572SOL    HW234737   2.468   4.424   5.602 -0.5255 -1.9151 -0.2571
10573SOL     OW34738   1.607   3.765   5.448  0.2666 -0.0740  0.5547
10573SOL    HW134739   1.687   3.741   5.401 -0.6739  0.6862 -1.4958
10573SOL    HW234740   1.541   3.774   5.379 -1.3588  0.2073  2.1333
10574SOL     OW34741   7.345   2.013   4.119  0.1376 -0.3632 -0.0924
10574SOL    HW134742   7.316   2.068   4.191 -1.1291 -1.1721  0.0263
10574SOL    HW234743   7.265   1.972   4.086  0.9830 -1.7170 -0.5127
10575SOL     OW34744   7.237   6.243   7.871  0.8682  0.6269  0.1734
10575SOL    HW134745   7.151   6.253   7.830  0.4968  0.9974  1.0329
10575SOL    HW234746   7.287   6.318   7.839  0.4054  1.2157  0.8163
10576SOL     OW34747   4.696   1.810   8.620  0.2120  0.4421 -0.4070
10576SOL    HW134748   4.691   1.802   8.715  2.1739  0.3766 -0.2934
10576SOL    HW234749   4.606   1.795   8.590 -0.3806  0.2471  1.4096
10577SOL     OW34750   2.482   2.087   7.981  0.7195  0.4261  0.5308
10577SOL    HW134751   2.471   2.044   7.896 -0.7145  1.0221  0.3917
10577SOL    HW234752   2.543   2.031   8.028 -0.6563 -1.4701  0.1326
10578SOL     OW34753   1.596   6.266   5.518 -0.1986  0.1021  0.0600
10578SOL    HW134754   1.658   6.256   5.591  0.2878 -0.9270 -0.4723
10578SOL    HW234755   1.607   6.356   5.488  0.0474  0.3391  0.8598
10579SOL     OW34756   5.835   8.077   4.546  0.1803  0.6543 -0.1326
10579SOL    HW134757   5.846   8.111   4.457  0.3403 -2.0890 -1.2077
10579SOL    HW234758   5.756   8.023   4.541 -0.9952  2.1086  1.9363
10580SOL     OW34759   0.589   4.578   0.461 -0.2722 -0.0415  0.6718
10580SOL    HW134760   0.626   4.631   0.531  0.7458 -0.5738  0.5502
10580SOL    HW234761   0.526   4.635   0.418  0.6902  1.0055  0.6397
10581SOL     OW34762   6.992   0.346   3.710 -0.1234 -0.7929 -0.1693
10581SOL    HW134763   6.996   0.367   3.617  0.6204 -0.8559 -0.1491
10581SOL    HW234764   6.914   0.290   3.718  0.0163 -1.0854 -0.8141
10582SOL     OW34765   8.213   5.593   4.352  0.0222  0.1322  0.3048
10582SOL    HW134766   8.124   5.627   4.342 -0.6594 -1.7027 -0.0569
10582SOL    HW234767   8.220   5.524   4.286  2.1771  1.1464 -0.5726
10583SOL     OW34768   1.277   6.460   6.694  0.0051 -0.4610 -0.1404
10583SOL    HW134769   1.337   6.534   6.685 -1.7126  0.7154 -2.1646
10583SOL    HW234770   1.189   6.499   6.690 -0.9653 -2.0565  3.4985
10584SOL     OW34771   7.931   1.534   9.184 -0.5377 -0.1721  0.2872
10584SOL    HW134772   7.883   1.488   9.252 -1.4136  0.1843 -0.0821
10584SOL    HW234773   7.975   1.606   9.230 -0.8167 -0.1603  0.5357
10585SOL     OW34774   8.685   1.441   7.984  0.0665  0.4278  0.2870
10585SOL    HW134775   8.701   1.383   8.059  3.1173  0.5876 -0.1993
10585SOL    HW234776   8.625   1.391   7.928  1.5493 -1.6832  0.5449
10586SOL     OW34777   0.661   0.730   5.023  0.4106  0.1471 -0.2671
10586SOL    HW134778   0.725   0.757   4.958  0.9999 -1.1104 -0.2231
10586SOL    HW234779   0.660   0.635   5.019  1.7986 -0.0619  2.7970
10587SOL     OW34780   0.736   6.850   1.919  0.2335 -0.1982 -0.1496
10587SOL    HW134781   0.731   6.910   1.994 -1.7205 -1.6061  0.9203
10587SOL    HW234782   0.821   6.867   1.879  1.1339  0.8975  2.1447
10588SOL     OW34783   6.083   4.229   2.383 -0.2590  0.5602  0.1100
10588SOL    HW134784   6.086   4.203   2.291 -1.3765  0.9216 -0.0401
10588SOL    HW234785   6.015   4.174   2.421  0.7998 -0.2060  0.9327
10589SOL     OW34786   7.107   6.747   9.261  0.2825 -0.1123 -0.3413
10589SOL    HW134787   7.131   6.685   9.329  0.2953  1.0072  0.6887
10589SOL    HW234788   7.162   6.824   9.277 -0.9505  0.8306 -0.5393
10590SOL     OW34789   3.885   4.596   7.265 -0.9417  0.5276  0.0840
10590SOL    HW134790   3.939   4.531   7.220 -0.6006  0.6221  0.3527
10590SOL    HW234791   3.929   4.679   7.249 -2.0097  0.8645 -1.2432
10591SOL     OW34792   6.980   5.969   1.765 -0.3010  0.1343  0.3195
10591SOL    HW134793   6.940   6.056   1.769 -0.1817  0.3064 -1.6946
10591SOL    HW234794   7.045   5.976   1.695  0.2327 -1.3663  0.6612
10592SOL     OW34795   4.035   0.042   5.867 -0.9138 -0.4559 -0.0784
10592SOL    HW134796   3.999  -0.016   5.933  3.2405 -1.7481  1.1867
10592SOL    HW234797   4.052  -0.014   5.791  0.1335 -0.2966  0.0181
10593SOL     OW34798   6.671   0.967   6.982 -0.5723  0.2888 -0.0173
10593SOL    HW134799   6.715   1.038   7.029 -0.3447  0.7341 -0.8916
10593SOL    HW234800   6.612   1.011   6.921 -0.2945 -0.2568 -0.6963
10594SOL     OW34801   2.936   0.496   4.351 -0.8002 -0.4913 -0.3122
10594SOL    HW134802   2.909   0.405   4.362 -0.3180 -0.3538  2.2829
10594SOL    HW234803   2.854   0.544   4.339 -1.2120 -0.9753  0.5385
10595SOL     OW34804   2.891   1.533   8.191  0.0380  0.0256  0.3081
10595SOL    HW134805   2.829   1.600   8.162 -1.0988 -1.2287 -0.1895
10595SOL    HW234806   2.887   1.537   8.287  0.9901  1.5828  0.2975
10596SOL     OW34807   3.081   0.340   0.632  0.5404  0.0002  0.0976
10596SOL    HW134808   2.999   0.292   0.640  0.1420  0.9528  2.2677
10596SOL    HW234809   3.098   0.373   0.721  2.3657  1.2755 -0.6840
10597SOL     OW34810   5.796   3.568   1.677 -0.2205  0.6509 -0.5253
10597SOL    HW134811   5.802   3.490   1.622 -0.1505  1.1282 -1.2095
10597SOL    HW234812   5.819   3.538   1.765  0.6235  0.0676 -0.9384
10598SOL     OW34813   3.196   3.466   2.131  0.0414 -0.0401 -0.1490
10598SOL    HW134814   3.254   3.398   2.096  0.7354  0.6520 -0.3639
10598SOL    HW234815   3.185   3.528   2.059  2.1268  1.8020  1.0377
10599SOL     OW34816   8.791   4.016   4.706  0.4857 -0.6829 -0.3360
10599SOL    HW134817   8.715   3.999   4.649 -0.4603  0.5722  0.5425
10599SOL    HW234818   8.767   3.975   4.789  1.3208 -1.3775 -0.4309
10600SOL     OW34819   2.835   2.085   1.469 -0.3638 -0.5400  0.3916
10600SOL    HW134820   2.771   2.113   1.404  0.0325  1.0271  0.6519
10600SOL    HW234821   2.913   2.138   1.451 -0.3995  0.2246  2.4032
10601SOL     OW34822   6.097   1.622   6.665 -0.1529 -0.3961 -0.6957
10601SOL    HW134823   6.189   1.603   6.652  0.4518  2.0767 -0.3451
10601SOL    HW234824   6.072   1.570   6.741  1.4484  0.3595  0.3648
10602SOL     OW34825   3.829   0.467   0.656  0.4079 -0.1294 -0.2378
10602SOL    HW134826   3.922   0.444   0.660  0.3395 -0.2793  0.5606
10602SOL    HW234827   3.783   0.384   0.660  0.1892  0.0637  1.5147
10603SOL     OW34828   2.355   2.710   5.701 -0.1461  0.4052  0.2927
10603SOL    HW134829   2.350   2.701   5.796  0.1304 -0.2243  0.2472
10603SOL    HW234830   2.300   2.640   5.667  1.1189 -0.4552 -0.0346
10604SOL     OW34831   7.369   8.656   4.343  0.6519  0.0238 -0.0468
10604SOL    HW134832   7.325   8.709   4.410 -1.1617  0.1714 -1.3081
10604SOL    HW234833   7.391   8.719   4.274  0.9422 -0.4061 -0.3449
10605SOL     OW34834   8.310   1.736   7.504 -0.2725 -0.2298  0.4693
10605SOL    HW134835   8.297   1.792   7.427 -0.7712 -0.7671  0.1585
10605SOL    HW234836   8.223   1.727   7.542 -0.1715 -0.6690  0.6009
10606SOL     OW34837   0.563   2.406   7.713 -0.8393 -0.3114  0.6644
10606SOL    HW134838   0.631   2.355   7.756 -1.1953 -2.1104 -0.8634
10606SOL    HW234839   0.500   2.342   7.682 -0.9298  0.9659 -1.9457
10607SOL     OW34840   8.445   7.253   8.360 -0.0219  0.5042 -0.0730
10607SOL    HW134841   8.472   7.174   8.313  0.4386  0.8084 -0.3335
10607SOL    HW234842   8.527   7.301   8.375 -0.1316  0.2841  1.2731
10608SOL     OW34843   2.882   3.525   4.215  0.0914 -0.2330 -0.5155
10608SOL    HW134844   2.977   3.537   4.204  0.1194 -0.7231 -0.8224
10608SOL    HW234845   2.844   3.567   4.137  0.0046  0.7081  0.0248
10609SOL     OW34846   8.467   3.481   4.567 -0.5380 -0.0917 -0.0152
10609SOL    HW134847   8.552   3.443   4.543 -0.8553 -0.7333 -0.1246
10609SOL    HW234848   8.405   3.408   4.560 -0.7464 -0.1526  2.0774
10610SOL     OW34849   6.515   1.845   5.532  0.4627 -0.3243 -0.3694
10610SOL    HW134850   6.513   1.901   5.454 -0.1266 -0.6531 -0.5963
10610SOL    HW234851   6.423   1.820   5.545  0.3401  0.9266  1.2952
10611SOL     OW34852   0.809   3.538   8.654 -0.4058 -0.0635  0.3789
10611SOL    HW134853   0.882   3.599   8.669 -0.5888  0.3730 -0.4633
10611SOL    HW234854   0.734   3.594   8.634 -0.7186 -0.5449  0.1849
10612SOL     OW34855   7.783   8.553   4.734  0.0959  0.9618 -0.9961
10612SOL    HW134856   7.799   8.599   4.816 -1.1605 -0.3052 -0.0165
10612SOL    HW234857   7.861   8.570   4.681  0.8023  2.0043  0.3555
10613SOL     OW34858   2.829   3.104   4.593  0.4329 -0.2748  0.2643
10613SOL    HW134859   2.806   3.072   4.681  0.6984 -0.2194  0.3549
10613SOL    HW234860   2.901   3.165   4.608  1.5703 -1.4941 -0.1589
10614SOL     OW34861   4.954   0.594   1.396 -0.6114 -0.2443  0.1783
10614SOL    HW134862   4.913   0.671   1.435 -0.9162 -0.9323  1.2359
10614SOL    HW234863   5.031   0.628   1.351 -1.8937  0.9559 -1.1517
10615SOL     OW34864   2.289   5.334   3.920 -0.2591 -0.0272 -0.1618
10615SOL    HW134865   2.363   5.368   3.869  0.7915 -0.5942  0.9660
10615SOL    HW234866   2.276   5.245   3.888  2.0545 -1.3045  2.2619
10616SOL     OW34867   2.740   1.371   0.385 -0.4200 -0.4087 -0.0291
10616SOL    HW134868   2.785   1.411   0.460 -2.1425  2.9292 -0.6562
10616SOL    HW234869   2.741   1.277   0.403  0.9602  0.1645  3.1729
10617SOL     OW34870   9.109   8.681   8.584 -0.8542 -0.6447 -0.2251
10617SOL    HW134871   9.163   8.603   8.572  1.2676  0.7694 -0.2615
10617SOL    HW234872   9.161   8.738   8.641 -1.8603  1.1692 -1.0497
10618SOL     OW34873   2.400   0.390   7.050 -0.0736 -0.0322 -0.3752
10618SOL    HW134874   2.315   0.434   7.057  0.9913  1.9135  0.6833
10618SOL    HW234875   2.417   0.386   6.956 -1.4631 -0.6804 -0.6055
10619SOL     OW34876   0.991   0.798   6.611  0.0873  0.0053 -0.2971
10619SOL    HW134877   1.084   0.779   6.620  0.0720  0.0497 -0.0349
10619SOL    HW234878   0.958   0.800   6.701 -0.7119 -2.6604 -0.4792
10620SOL     OW34879   8.720   0.003   5.371  0.1442 -0.0494 -0.8042
10620SOL    HW134880   8.774  -0.023   5.446 -0.9654 -1.4158 -0.4468
10620SOL    HW234881   8.778   0.054   5.315  1.3792 -0.2335  0.2954
10621SOL     OW34882   1.951   7.123   3.293  0.5817  0.0083 -0.0877
10621SOL    HW134883   2.007   7.179   3.239 -0.5010  0.3464 -0.8774
10621SOL    HW234884   1.993   7.037   3.289 -0.1969 -0.2943 -2.5791
10622SOL     OW34885   1.733   3.585   7.753 -0.1841 -0.1572 -0.0997
10622SOL    HW134886   1.725   3.520   7.823 -0.1706 -0.2046 -0.1425
10622SOL    HW234887   1.643   3.602   7.726 -0.3640  1.5221  1.4583
10623SOL     OW34888   7.371   9.358   0.584 -0.4025  0.3454  0.3175
10623SOL    HW134889   7.340   9.348   0.674 -0.6616 -0.9366  0.0977
10623SOL    HW234890   7.321   9.292   0.534  2.2017 -1.3557 -0.1494
10624SOL     OW34891   0.256   4.624   5.244 -0.2137 -0.4402  1.0665
10624SOL    HW134892   0.341   4.597   5.209  0.1966 -0.8897  2.3650
10624SOL    HW234893   0.274   4.704   5.293 -1.0701  1.1069 -1.0578
10625SOL     OW34894   6.907   6.322   1.220 -0.2640 -0.3406  0.2033
10625SOL    HW134895   6.831   6.378   1.231 -0.5810 -0.8818  0.7959
10625SOL    HW234896   6.874   6.233   1.231  0.4241 -0.5925  0.3182
10626SOL     OW34897   5.932   1.071   0.385 -0.3979 -0.3435  0.0388
10626SOL    HW134898   5.859   1.073   0.324 -1.6961 -0.6596  1.5506
10626SOL    HW234899   5.920   0.991   0.435  1.4924 -0.8528 -0.2884
10627SOL     OW34900   6.625   5.496   3.815  0.6441 -0.1529 -0.1082
10627SOL    HW134901   6.578   5.536   3.888  0.0084 -1.3268  0.1402
10627SOL    HW234902   6.604   5.551   3.740 -0.1034  0.0654  0.2531
10628SOL     OW34903   2.261   1.128   5.584  0.4619 -0.1872 -0.2055
10628SOL    HW134904   2.173   1.144   5.618  0.3129 -2.5932  0.6153
10628SOL    HW234905   2.247   1.071   5.508  1.3563 -1.4593  0.5646
10629SOL     OW34906   3.409   7.048   7.098  0.1371 -0.0640  0.2758
10629SOL    HW134907   3.422   7.023   7.007  0.4520 -1.2869  0.6440
10629SOL    HW234908   3.352   6.979   7.133 -0.1497  0.5102  0.9495
10630SOL     OW34909   6.879   5.491   6.267 -0.1377  0.1965  0.1088
10630SOL    HW134910   6.881   5.449   6.181 -0.4518  0.6727 -0.1302
10630SOL    HW234911   6.823   5.567   6.256  0.7882  0.9394  0.4270
10631SOL     OW34912   8.532   1.875   2.678 -0.1403  0.1609  0.0340
10631SOL    HW134913   8.478   1.805   2.714 -0.6879 -0.5367 -2.0446
10631SOL    HW234914   8.484   1.906   2.601  2.3407 -0.4462 -1.8567
10632SOL     OW34915   3.352   9.341   7.942  0.1319 -0.2918 -0.2554
10632SOL    HW134916   3.316   9.278   8.005 -0.0801  0.2378  0.1650
10632SOL    HW234917   3.442   9.313   7.928 -0.6265 -2.0253 -1.8262
10633SOL     OW34918   8.234   5.952   0.546  0.1455  0.3179  0.2837
10633SOL    HW134919   8.309   5.902   0.512  1.0256  0.8309  1.4416
10633SOL    HW234920   8.247   5.953   0.641 -2.1230 -0.8530  0.6402
10634SOL     OW34921   3.227   4.512   1.858 -0.6457  0.2496  0.1361
10634SOL    HW134922   3.178   4.456   1.798  0.7716 -0.1862 -0.6432
10634SOL    HW234923   3.233   4.460   1.939 -1.7051  0.4321  0.3414
10635SOL     OW34924   0.403   7.666   7.038  0.0015  0.3238  1.0470
10635SOL    HW134925   0.356   7.744   7.068  0.3815  0.3861  1.4949
10635SOL    HW234926   0.415   7.680   6.944 -1.6096 -0.0908  0.7673
10636SOL     OW34927   3.771   3.426   2.426  0.1480 -0.3063 -0.5088
10636SOL    HW134928   3.791   3.333   2.418  0.3593 -0.4670  1.6176
10636SOL    HW234929   3.850   3.471   2.396  0.4842 -0.8208 -0.3859
10637SOL     OW34930   8.210   3.162   0.042 -0.0127 -0.1225  0.0028
10637SOL    HW134931   8.301   3.141   0.020  0.4707  0.2431  1.6179
10637SOL    HW234932   8.175   3.079   0.075 -0.8155 -0.7394 -2.3066
10638SOL     OW34933   4.111   8.940   2.323  0.6230  0.0286  0.6776
10638SOL    HW134934   4.036   8.899   2.366  0.4115 -1.3545 -0.9635
10638SOL    HW234935   4.152   8.870   2.273  1.4905  1.3604 -0.5220
10639SOL     OW34936   0.016   5.849   0.797  0.3801 -0.0263 -0.2863
10639SOL    HW134937   0.049   5.788   0.732 -0.1081  1.5439 -2.0471
10639SOL    HW234938   0.017   5.800   0.879  2.4225 -1.5434 -1.1963
10640SOL     OW34939   0.815   0.937   8.472  0.2659  0.2398  0.3602
10640SOL    HW134940   0.795   0.985   8.552  1.4684 -0.2169  0.9489
10640SOL    HW234941   0.840   0.850   8.502 -1.3288 -0.5886 -0.6697
10641SOL     OW34942   2.158   4.434   8.924 -0.4385  0.4047  0.4340
10641SOL    HW134943   2.173   4.343   8.898 -2.2938 -0.3105  1.7153
10641SOL    HW234944   2.067   4.451   8.899  0.0308  2.0706 -0.1904
10642SOL     OW34945   2.642   6.234   3.399 -0.1790  0.4277  0.2938
10642SOL    HW134946   2.561   6.203   3.359  0.5144 -0.8425 -0.1453
10642SOL    HW234947   2.700   6.158   3.400 -0.0578  0.4823  3.4556
10643SOL     OW34948   4.420   7.155   4.011 -0.4843  0.1881 -0.7973
10643SOL    HW134949   4.349   7.148   3.947 -1.6942  0.5417  0.4751
10643SOL    HW234950   4.474   7.077   3.996 -0.7619  0.2559 -2.2214
10644SOL     OW34951   1.645   1.568   6.496 -0.2423  0.1955 -0.2009
10644SOL    HW134952   1.636   1.546   6.403 -0.5264  0.6957 -0.2940
10644SOL    HW234953   1.653   1.483   6.540 -1.0971 -0.0852 -0.5751
10645SOL     OW34954   1.321   8.824   7.108  0.5702 -0.2010 -0.1082
10645SOL    HW134955   1.364   8.793   7.028 -0.0939 -0.8294 -0.2299
10645SOL    HW234956   1.288   8.744   7.149 -0.1174  0.2318  0.1888
10646SOL     OW34957   0.676   8.570   7.036  0.2553  0.1458  0.5422
10646SOL    HW134958   0.746   8.633   7.048 -0.2939  0.3771  2.7945
10646SOL    HW234959   0.596   8.622   7.035 -0.1003 -0.3796  1.0290
10647SOL     OW34960   0.926   6.833   3.560 -0.0407  0.0731 -0.4242
10647SOL    HW134961   0.860   6.792   3.617 -0.2684  2.3877  1.0251
10647SOL    HW234962   0.901   6.806   3.472 -3.0953  1.0819  0.0693
10648SOL     OW34963   3.791   8.567   2.816 -0.1828 -0.1342  0.6125
10648SOL    HW134964   3.880   8.537   2.831  0.0414  0.9965  1.6166
10648SOL    HW234965   3.747   8.493   2.774  1.1524 -0.7861  0.3552
10649SOL     OW34966   0.677   2.989   9.421 -0.3447 -0.4165 -0.3839
10649SOL    HW134967   0.728   2.908   9.421 -0.3035 -0.3923 -0.6589
10649SOL    HW234968   0.661   3.007   9.328 -2.5315 -1.4808 -0.2501
10650SOL     OW34969   8.763   2.679   3.444 -0.0565 -1.0823  0.3922
10650SOL    HW134970   8.777   2.756   3.389 -1.7502 -0.8994  0.1874
10650SOL    HW234971   8.842   2.672   3.497  1.1140 -0.5823 -1.2411
10651SOL     OW34972   7.545   4.052   4.150 -0.1476 -0.5219  0.1663
10651SOL    HW134973   7.560   4.002   4.231  0.4691 -2.3728 -1.0673
10651SOL    HW234974   7.457   4.027   4.122  0.0613 -0.7086 -0.3199
10652SOL     OW34975   4.352   9.158   1.541  0.0532  0.1214 -0.2798
10652SOL    HW134976   4.419   9.092   1.554 -0.7008 -0.4363  0.7870
10652SOL    HW234977   4.286   9.115   1.486 -1.2990 -0.6173  1.8818
10653SOL     OW34978   1.588   3.928   4.199  0.6277  0.3630  0.8151
10653SOL    HW134979   1.644   3.895   4.270 -0.4547 -1.9812  0.6542
10653SOL    HW234980   1.540   4.001   4.238  2.0616  0.8718  1.6612
10654SOL     OW34981   8.602   5.458   6.032 -0.3087 -0.1202 -0.3487
10654SOL    HW134982   8.610   5.499   5.946  0.7542  1.5923  0.5237
10654SOL    HW234983   8.689   5.420   6.049 -1.4625 -3.3875 -1.4186
10655SOL     OW34984   8.003   4.637   2.994  0.2487 -0.9292  0.4618
10655SOL    HW134985   7.952   4.634   2.913  0.8714 -1.5950  0.0806
10655SOL    HW234986   8.030   4.728   3.002  0.9779 -1.0369 -0.5937
10656SOL     OW34987   0.524   9.417   6.275  0.6266 -0.0795 -0.0896
10656SOL    HW134988   0.542   9.466   6.195 -0.8509  0.0673 -0.3446
10656SOL    HW234989   0.469   9.344   6.247  1.7349 -1.1571  0.4914
10657SOL     OW34990   6.271   1.455   2.490  0.6624  0.4648  0.2722
10657SOL    HW134991   6.353   1.440   2.443  0.8370 -1.2302  1.0991
10657SOL    HW234992   6.223   1.373   2.481 -1.8862  2.1207 -2.0162
10658SOL     OW34993   6.646   5.998   6.756 -0.1648 -0.3192  1.0489
10658SOL    HW134994   6.598   5.955   6.686 -0.3501  2.3556 -0.5359
10658SOL    HW234995   6.581   6.015   6.823 -0.2564 -1.6773  1.3283
10659SOL     OW34996   6.507   0.857   2.762  0.1945  0.2276 -0.0342
10659SOL    HW134997   6.593   0.819   2.778 -0.6166 -2.2200 -1.1261
10659SOL    HW234998   6.501   0.931   2.822  1.6295 -1.8125  2.7085
10660SOL     OW34999   3.916   3.626   6.460  0.1851 -0.0927  0.3006
10660SOL    HW135000   3.853   3.632   6.531  1.6587  0.1494  1.6240
10660SOL    HW235001   3.940   3.533   6.457  1.6751  0.2218  1.5469
10661SOL     OW35002   4.830   1.959   7.393 -0.1843 -0.3564  0.3997
10661SOL    HW135003   4.736   1.952   7.406 -0.1979 -0.4003  0.2705
10661SOL    HW235004   4.840   2.024   7.324 -0.2275 -2.3923 -1.5447
10662SOL     OW35005   4.528   9.271   1.337 -0.2728 -0.4264 -0.3642
10662SOL    HW135006   4.571   9.249   1.420  2.1994 -0.0907 -1.5058
10662SOL    HW235007   4.445   9.223   1.340 -0.7820  0.4898  2.7950
10663SOL     OW35008   2.406   8.894   4.210  0.2796 -0.3253  0.3459
10663SOL    HW135009   2.464   8.828   4.248  0.4385  0.3489  1.2934
10663SOL    HW235010   2.416   8.883   4.116  1.1875 -0.8728  0.4954
10664SOL     OW35011   4.667   8.681   1.535 -0.2049  0.3450 -0.0918
10664SOL    HW135012   4.761   8.664   1.528 -0.5853 -1.6815 -0.4792
10664SOL    HW235013   4.645   8.657   1.625  0.0328  2.9199  0.6980
10665SOL     OW35014   7.405   0.649   9.172  0.2079  0.0453 -0.2481
10665SOL    HW135015   7.348   0.575   9.152 -0.5538  0.1574  1.4170
10665SOL    HW235016   7.360   0.696   9.242  1.6637  0.9285  0.1180
10666SOL     OW35017   9.126   5.391   5.982 -0.2310  0.4149 -0.0581
10666SOL    HW135018   9.099   5.347   6.063 -2.2875  0.8969 -0.4516
10666SOL    HW235019   9.139   5.482   6.008 -1.6735  0.7363 -0.3982
10667SOL     OW35020   6.092   3.498   2.407  0.3679  0.0636  0.0528
10667SOL    HW135021   6.078   3.417   2.457 -0.3446 -0.1906 -0.5542
10667SOL    HW235022   6.004   3.529   2.387  0.6420  0.9210  0.1580
10668SOL     OW35023   6.154   7.823   2.484  0.2518  0.8550  0.1215
10668SOL    HW135024   6.187   7.790   2.400  0.5912  0.4381  0.4147
10668SOL    HW235025   6.172   7.916   2.483  1.6021  0.5984  0.3544
10669SOL     OW35026   7.022   8.152   1.014 -0.0234 -0.4301 -0.0607
10669SOL    HW135027   6.939   8.148   0.967 -0.2192 -0.5859  0.2945
10669SOL    HW235028   6.997   8.155   1.107  0.2464  3.0703 -0.0281
10670SOL     OW35029   0.319   0.223   8.511  0.1157 -0.6321  0.0487
10670SOL    HW135030   0.413   0.228   8.531  0.1618  1.0590 -0.5280
10670SOL    HW235031   0.307   0.282   8.436 -1.6243  0.1419  0.9065
10671SOL     OW35032   1.987   3.048   5.757  0.1068 -0.2117  0.2644
10671SOL    HW135033   1.937   2.970   5.732 -0.1946  0.6394 -1.9031
10671SOL    HW235034   1.950   3.073   5.842 -1.1618 -1.2851  0.0544
10672SOL     OW35035   3.872   8.179   5.377 -0.2419  0.4231  0.1377
10672SOL    HW135036   3.924   8.238   5.431 -1.0523 -0.8216  2.3285
10672SOL    HW235037   3.806   8.236   5.336 -0.7750  1.1135  1.9198
10673SOL     OW35038   9.019   6.161   8.903  0.5439  0.1512  0.1545
10673SOL    HW135039   9.020   6.120   8.989  0.5686  0.9628  0.5465
10673SOL    HW235040   8.944   6.222   8.906 -0.8342 -1.4157 -1.1555
10674SOL     OW35041   6.657   4.678   7.980 -0.4630 -0.3432 -0.2343
10674SOL    HW135042   6.637   4.608   8.042 -2.8531  0.1087 -0.4412
10674SOL    HW235043   6.688   4.750   8.035 -1.4702 -0.3315  0.3201
10675SOL     OW35044   0.250   7.834   5.392 -0.2537  0.0400 -0.8154
10675SOL    HW135045   0.246   7.759   5.452  1.4317  0.1298 -0.5496
10675SOL    HW235046   0.223   7.909   5.445  1.9699  0.2427  0.0884
10676SOL     OW35047   8.090   1.290   2.165  0.6817 -0.2727  0.4961
10676SOL    HW135048   8.094   1.372   2.118  0.2255 -0.1566  0.6480
10676SOL    HW235049   8.110   1.313   2.256 -1.2652 -0.0007  0.8937
10677SOL     OW35050   1.848   3.960   0.253  0.5879 -0.0955  0.4709
10677SOL    HW135051   1.923   3.991   0.203  0.9743 -3.3961 -1.1084
10677SOL    HW235052   1.886   3.927   0.335  0.6947 -0.6528  0.1926
10678SOL     OW35053   3.915   8.369   5.663  0.1385  0.0056 -0.0992
10678SOL    HW135054   3.987   8.407   5.613 -0.5890 -0.1200 -1.2600
10678SOL    HW235055   3.956   8.331   5.740  1.3856 -0.5898 -1.0452
10679SOL     OW35056   2.543   9.418   8.501  0.6710  0.1362  0.3093
10679SOL    HW135057   2.602   9.343   8.511 -0.1173 -0.8488 -2.0438
10679SOL    HW235058   2.568   9.456   8.417 -2.1113 -0.3706 -0.7995
10680SOL     OW35059   2.624   4.967   6.272 -0.3929  0.0286 -0.3039
10680SOL    HW135060   2.545   4.962   6.219 -1.0621  1.5335  0.5140
10680SOL    HW235061   2.693   4.931   6.217 -1.7712 -2.0638 -0.7388
10681SOL     OW35062   9.025   8.262   5.333 -0.3502 -0.0574  0.1941
10681SOL    HW135063   9.008   8.346   5.291  0.8046 -0.1546 -0.4768
10681SOL    HW235064   9.020   8.280   5.427  0.8852  0.9692  0.0622
10682SOL     OW35065   6.165   7.036   5.775  0.0461  1.2686  0.1547
10682SOL    HW135066   6.138   6.997   5.858  2.0760 -0.5819 -0.0146
10682SOL    HW235067   6.142   6.971   5.709  2.0287  0.9887 -0.2960
10683SOL     OW35068   6.890   2.767   3.074  0.1627  0.4282  0.4954
10683SOL    HW135069   6.934   2.687   3.045  1.2782  1.0641  0.4170
10683SOL    HW235070   6.853   2.804   2.994  1.1884  0.9229  0.2366
10684SOL     OW35071   3.410   3.818   4.212 -0.0651 -0.0826  0.0468
10684SOL    HW135072   3.344   3.800   4.280  0.6730 -0.9805  0.5340
10684SOL    HW235073   3.408   3.913   4.201 -1.9282 -0.1465 -0.4359
10685SOL     OW35074   4.556   5.321   6.741 -0.4479  0.0159  0.4614
10685SOL    HW135075   4.590   5.232   6.738  1.4334  0.7143  0.9037
10685SOL    HW235076   4.572   5.351   6.830 -3.6200 -0.1558  1.1494
10686SOL     OW35077   2.408   6.421   0.461 -0.2745  0.4631 -0.0371
10686SOL    HW135078   2.360   6.500   0.485 -0.4404  0.1735  0.6274
10686SOL    HW235079   2.361   6.350   0.506 -0.0506  0.0066 -0.5133
10687SOL     OW35080   1.270   5.824   4.978 -0.1163 -0.0407 -0.0599
10687SOL    HW135081   1.351   5.777   4.960  0.6569  0.6734  1.4373
10687SOL    HW235082   1.295   5.892   5.040 -1.3638  1.8034 -1.4996
10688SOL     OW35083   6.979   7.926   5.601  0.2856  0.0616  0.3851
10688SOL    HW135084   7.048   7.941   5.536  0.2241 -1.8806 -0.1561
10688SOL    HW235085   7.026   7.896   5.679  0.4671  3.4722  1.6732
10689SOL     OW35086   1.050   4.264   3.721  0.3509  0.4216 -0.1751
10689SOL    HW135087   1.127   4.209   3.707  0.1893 -0.2375  1.4511
10689SOL    HW235088   0.984   4.205   3.759 -0.0921  1.5510  0.8452
10690SOL     OW35089   3.960   5.707   8.532 -0.2827  0.2010  0.6999
10690SOL    HW135090   3.940   5.628   8.582 -2.2419  0.1433 -0.1572
10690SOL    HW235091   3.935   5.779   8.590 -3.4011  0.1267 -0.5019
10691SOL     OW35092   4.750   2.359   7.347 -0.3419 -0.5298 -0.1420
10691SOL    HW135093   4.677   2.375   7.407 -0.0048  0.1220  0.1063
10691SOL    HW235094   4.827   2.392   7.394 -0.4994  3.1467 -2.2465
10692SOL     OW35095   3.961   9.172   4.051  0.6851 -0.0585  0.1937
10692SOL    HW135096   3.989   9.183   4.142 -1.3444 -0.8650  0.9389
10692SOL    HW235097   4.027   9.219   4.000  3.0710 -1.4430  1.9114
10693SOL     OW35098   7.522   7.899   6.632  0.2458  0.2033 -0.2870
10693SOL    HW135099   7.444   7.956   6.630 -0.1673 -0.2861  1.2697
10693SOL    HW235100   7.595   7.958   6.613 -0.4076  0.8178 -0.9637
10694SOL     OW35101   1.654   7.204   3.069  0.0820 -0.1100  0.4876
10694SOL    HW135102   1.661   7.193   3.163 -0.2156 -1.3834  0.3732
10694SOL    HW235103   1.625   7.118   3.037  2.7464 -0.4855 -1.0354
10695SOL     OW35104   2.884   4.834   7.492  0.2007  0.1192 -0.2159
10695SOL    HW135105   2.961   4.793   7.453  0.8438  0.2121  0.9527
10695SOL    HW235106   2.879   4.920   7.451  0.4568 -0.0476 -0.6032
10696SOL     OW35107   2.444   7.215   2.623 -0.5137 -0.3667 -0.3261
10696SOL    HW135108   2.506   7.285   2.601 -1.0400 -0.3726 -1.8667
10696SOL    HW235109   2.390   7.252   2.693  1.4604 -0.4973  1.3151
10697SOL     OW35110   2.002   7.880   2.319 -0.0539  0.2337 -0.1240
10697SOL    HW135111   2.008   7.974   2.336  0.6310  0.0304  0.8382
10697SOL    HW235112   2.082   7.858   2.273 -0.7586  0.3285 -1.4020
10698SOL     OW35113   6.572   0.538   6.561 -0.1646  0.3500 -0.2231
10698SOL    HW135114   6.511   0.591   6.509  0.0254  0.0672 -0.7389
10698SOL    HW235115   6.517   0.467   6.596 -0.0205 -0.2291 -1.1584
10699SOL     OW35116   5.509   1.081   5.112 -0.5026 -0.5412 -0.1888
10699SOL    HW135117   5.462   1.137   5.051  0.2268 -0.6890 -0.9051
10699SOL    HW235118   5.514   0.996   5.068 -1.0410 -0.9950  0.6100
10700SOL     OW35119   3.262   0.650   9.270 -0.2865  0.1841  0.4273
10700SOL    HW135120   3.208   0.585   9.224 -0.5723  0.1197  0.8456
10700SOL    HW235121   3.352   0.624   9.251 -0.4005  0.0093  0.1102
10701SOL     OW35122   8.639   6.814   5.382 -0.2302 -0.0934 -0.0313
10701SOL    HW135123   8.557   6.767   5.370  0.1701 -0.8120  0.0165
10701SOL    HW235124   8.622   6.874   5.455 -0.8747  0.1462 -0.3736
10702SOL     OW35125   0.056   8.631   9.070  0.1168 -0.2248 -0.2958
10702SOL    HW135126   0.082   8.550   9.114  0.1189 -1.0668 -1.8074
10702SOL    HW235127   0.000   8.602   8.998 -2.8196  1.3524  1.2350
10703SOL     OW35128   1.507   0.741   3.534  0.7146 -0.1585 -0.0154
10703SOL    HW135129   1.477   0.778   3.451  1.5999 -0.8248 -0.6523
10703SOL    HW235130   1.439   0.764   3.597 -1.4903 -2.2301 -1.5477
10704SOL     OW35131   8.504   1.372   3.287 -0.3214 -0.0421  0.2232
10704SOL    HW135132   8.472   1.435   3.352  1.5838  1.2049 -0.0296
10704SOL    HW235133   8.568   1.319   3.334 -1.5002 -1.4893  0.2820
10705SOL     OW35134   0.840   9.259   7.179  0.6748 -0.0966 -0.1012
10705SOL    HW135135   0.923   9.247   7.132  0.2810  0.2125 -0.8796
10705SOL    HW235136   0.867   9.279   7.269  1.5427  2.7091 -0.9150
10706SOL     OW35137   0.714   8.589   1.715 -0.0531 -0.3582  0.2417
10706SOL    HW135138   0.726   8.494   1.706 -0.1284 -0.3536  0.1094
10706SOL    HW235139   0.623   8.599   1.742  0.0338 -0.3397  0.5406
10707SOL     OW35140   1.606   9.217   2.483  0.4095  1.1133  0.0459
10707SOL    HW135141   1.701   9.222   2.485  0.3464  1.6712  2.9827
10707SOL    HW235142   1.578   9.309   2.480 -0.0702  0.9843  0.7046
10708SOL     OW35143   3.832   2.644   1.242  0.1829  0.6372  0.1644
10708SOL    HW135144   3.856   2.555   1.267  0.1761  0.0823 -1.7247
10708SOL    HW235145   3.837   2.694   1.323 -1.6308 -1.4748  1.6487
10709SOL     OW35146   1.835   4.340   3.901 -0.3756 -0.4170 -0.1275
10709SOL    HW135147   1.778   4.299   3.836  0.7852 -0.5590 -1.0650
10709SOL    HW235148   1.825   4.285   3.979 -1.5279 -0.4351 -0.2876
10710SOL     OW35149   1.497   3.194   7.434 -0.4834 -0.3516 -0.1723
10710SOL    HW135150   1.494   3.098   7.435 -0.6054 -0.3704 -1.2701
10710SOL    HW235151   1.512   3.216   7.342 -0.4540  0.6852  0.0760
10711SOL     OW35152   8.834   1.692   8.378 -0.4732 -0.0493 -0.1452
10711SOL    HW135153   8.836   1.719   8.286 -0.3424 -0.7760 -0.3593
10711SOL    HW235154   8.785   1.762   8.422 -1.9656 -0.4856 -1.0450
10712SOL     OW35155   3.321   0.959   1.994 -0.1402  0.2804 -0.1230
10712SOL    HW135156   3.260   0.922   2.058 -0.9967 -1.0347 -1.6495
10712SOL    HW235157   3.365   0.882   1.957 -0.6751  0.8900 -2.0990
10713SOL     OW35158   7.124   6.881   1.256  0.0814  0.2638 -0.0350
10713SOL    HW135159   7.203   6.912   1.302 -1.0590 -0.5242  2.5504
10713SOL    HW235160   7.053   6.930   1.297 -1.2276 -2.1767  0.6972
10714SOL     OW35161   3.736   2.865   7.579  0.2870 -0.4697  0.0011
10714SOL    HW135162   3.641   2.869   7.590  0.0730 -0.2119 -1.6870
10714SOL    HW235163   3.766   2.954   7.595  0.2114 -0.5049  0.3293
10715SOL     OW35164   4.828   2.413   2.614  0.7604  0.0500 -0.2736
10715SOL    HW135165   4.900   2.441   2.670  1.2938 -0.0087 -0.9205
10715SOL    HW235166   4.757   2.392   2.675  0.7065  1.7707  0.2662
10716SOL     OW35167   1.701   7.713   5.674 -0.0560 -0.2044  0.0551
10716SOL    HW135168   1.658   7.799   5.680 -0.5015 -0.2493 -2.2303
10716SOL    HW235169   1.793   7.731   5.692  0.3287  1.2308 -3.1273
10717SOL     OW35170   5.368   6.439   3.838 -0.4962 -0.2447 -0.3161
10717SOL    HW135171   5.298   6.494   3.804 -0.6756  1.2751  2.3696
10717SOL    HW235172   5.445   6.495   3.837  0.5421 -1.6348 -2.4388
10718SOL     OW35173   1.092   7.141   4.468  0.3759  0.2003 -0.0026
10718SOL    HW135174   1.089   7.215   4.529  0.9987  2.0070 -2.1094
10718SOL    HW235175   1.163   7.163   4.407 -0.1489 -1.6170 -1.3085
10719SOL     OW35176   6.983   1.260   6.316  0.1988 -0.8354 -0.0329
10719SOL    HW135177   6.893   1.249   6.286 -0.3956  4.4033 -0.6437
10719SOL    HW235178   7.036   1.245   6.238 -0.1145 -3.4135  0.2095
10720SOL     OW35179   7.727   9.131   3.788 -0.6737 -0.1509  0.2062
10720SOL    HW135180   7.654   9.182   3.752  2.0959  2.5977 -1.7161
10720SOL    HW235181   7.777   9.194   3.840  0.5691 -1.9246  1.2322
10721SOL     OW35182   6.988   2.160   8.119 -0.2726 -0.5514  0.2639
10721SOL    HW135183   6.947   2.246   8.128 -0.0672 -0.4806  0.5425
10721SOL    HW235184   6.944   2.105   8.184 -1.6154 -1.1192 -1.1128
10722SOL     OW35185   0.585   1.440   7.429 -0.0110 -0.2286  0.3432
10722SOL    HW135186   0.553   1.515   7.378 -0.2315 -0.4731  0.1234
10722SOL    HW235187   0.680   1.445   7.421 -0.0834 -0.9472 -1.0701
10723SOL     OW35188   8.684   2.309   1.437  0.4984 -0.2282  0.2041
10723SOL    HW135189   8.720   2.380   1.491 -0.3509  0.9137 -0.6979
10723SOL    HW235190   8.662   2.240   1.500  0.7955  0.5361  1.1712
10724SOL     OW35191   2.773   9.117   2.894 -0.0734 -0.4781 -0.1263
10724SOL    HW135192   2.755   9.042   2.837  0.1430  0.6111 -1.6411
10724SOL    HW235193   2.830   9.082   2.962 -0.8225 -1.9338 -0.2196
10725SOL     OW35194   6.550   6.584   4.689 -0.4281 -0.1096  0.5003
10725SOL    HW135195   6.642   6.611   4.691 -0.2297 -0.5256 -1.4137
10725SOL    HW235196   6.517   6.618   4.606 -1.6620 -1.0439  0.5895
10726SOL     OW35197   5.510   2.537   4.996  0.0721  0.4268 -0.0031
10726SOL    HW135198   5.561   2.496   4.926  0.2076  0.7364 -0.0861
10726SOL    HW235199   5.426   2.559   4.954 -0.9591 -2.0431  0.6889
10727SOL     OW35200   3.981   2.363   1.762  0.0865  0.2999  0.3441
10727SOL    HW135201   3.948   2.453   1.756 -2.4717 -0.5581  0.7575
10727SOL    HW235202   4.024   2.348   1.678 -0.6425  1.4797 -0.2650
10728SOL     OW35203   0.484   8.573   8.997  0.0986  0.6084 -0.6091
10728SOL    HW135204   0.446   8.651   8.957 -1.5814  0.6458  0.9761
10728SOL    HW235205   0.413   8.508   8.993  0.7246 -0.1267  0.1287
10729SOL     OW35206   0.947   2.846   1.462 -0.0727 -0.0065  0.4185
10729SOL    HW135207   0.925   2.769   1.409  0.5173 -0.3628  0.6849
10729SOL    HW235208   1.001   2.900   1.403  1.1512 -0.7211  0.8659
10730SOL     OW35209   2.839   5.341   2.198 -0.1483 -0.4610 -0.6323
10730SOL    HW135210   2.838   5.414   2.260  1.6734 -0.7759 -0.2322
10730SOL    HW235211   2.872   5.267   2.248  0.9580 -0.8155 -1.8669
10731SOL     OW35212   8.948   6.039   7.540 -0.4095 -1.0746  0.5943
10731SOL    HW135213   8.871   6.032   7.596 -2.9738 -0.8737 -2.7510
10731SOL    HW235214   8.969   6.133   7.541  0.0422 -1.1783  1.7912
10732SOL     OW35215   0.658   7.266   3.797 -0.0117  0.2489  0.9498
10732SOL    HW135216   0.673   7.233   3.886  0.8643 -0.0486  0.7005
10732SOL    HW235217   0.709   7.208   3.741  0.4130  1.1608  0.3681
10733SOL     OW35218   3.510   0.947   1.243 -0.0168 -0.4191 -0.1680
10733SOL    HW135219   3.464   0.999   1.177 -3.0375 -0.4866  1.8253
10733SOL    HW235220   3.580   1.004   1.273  1.0669 -0.1703 -2.9746
10734SOL     OW35221   0.566   2.117   3.968 -1.1976  0.1204 -0.1567
10734SOL    HW135222   0.478   2.154   3.961 -1.4258 -0.7133 -2.1165
10734SOL    HW235223   0.561   2.035   3.918  0.3891 -0.4774  0.6472
10735SOL     OW35224   5.108   7.326   4.071 -0.4509 -0.2105 -0.2452
10735SOL    HW135225   5.084   7.377   3.993  1.3998  0.3278 -0.4957
10735SOL    HW235226   5.027   7.282   4.097 -1.2531  0.1127 -2.0974
10736SOL     OW35227   9.140   4.358   2.400 -0.6435  0.0433 -0.4260
10736SOL    HW135228   9.068   4.313   2.358 -2.6505  1.4337  1.4202
10736SOL    HW235229   9.181   4.291   2.455 -1.4707 -0.3776 -0.3188
10737SOL     OW35230   7.597   0.137   8.061  0.2371  0.1173  0.1852
10737SOL    HW135231   7.636   0.219   8.033  0.8928 -0.1908  0.1872
10737SOL    HW235232   7.659   0.101   8.124 -1.0163  0.5985  1.7351
10738SOL     OW35233   0.714   7.931   0.854  0.1266 -0.0445  0.0369
10738SOL    HW135234   0.648   7.870   0.886  0.3339  0.4183  1.3929
10738SOL    HW235235   0.739   7.897   0.768 -1.5781 -0.4456 -0.3256
10739SOL     OW35236   5.352   4.433   1.500 -0.1169 -0.7192 -0.3404
10739SOL    HW135237   5.308   4.355   1.535  0.1565 -0.7690 -0.1072
10739SOL    HW235238   5.321   4.505   1.554  2.6691 -1.2161  2.0712
10740SOL     OW35239   4.769   1.943   8.226  0.2218 -0.5314 -0.0613
10740SOL    HW135240   4.678   1.953   8.254 -0.0657  0.7131 -1.3856
10740SOL    HW235241   4.812   1.897   8.299 -1.5247 -1.4081  0.4406
10741SOL     OW35242   8.416   2.185   5.695  0.5329 -0.1530  0.4113
10741SOL    HW135243   8.439   2.164   5.786  1.7662 -3.6125 -0.6262
10741SOL    HW235244   8.354   2.116   5.669  0.5016  0.5584 -1.5069
10742SOL     OW35245   0.203   3.515   4.242 -0.0958  0.2967  0.2690
10742SOL    HW135246   0.148   3.558   4.176 -0.0247  0.5798  0.3916
10742SOL    HW235247   0.141   3.472   4.301 -0.1121 -1.0430 -0.7203
10743SOL     OW35248   7.706   2.253   6.725 -0.0243 -0.0620 -0.4258
10743SOL    HW135249   7.677   2.327   6.779  1.0243 -0.2934  0.4612
10743SOL    HW235250   7.638   2.187   6.736 -0.3965  0.3341 -0.3228
10744SOL     OW35251   3.174   1.342   0.946 -0.3773  0.0463 -0.2762
10744SOL    HW135252   3.177   1.419   0.890 -0.6781  0.8860  0.8436
10744SOL    HW235253   3.162   1.377   1.035 -0.6773 -1.2904  0.2248
10745SOL     OW35254   3.081   7.724   4.787 -0.6355  0.1287 -0.2377
10745SOL    HW135255   3.006   7.778   4.762 -1.0572 -0.4197 -0.1703
10745SOL    HW235256   3.120   7.698   4.703 -1.6098 -1.0946 -0.3305
10746SOL     OW35257   5.439   5.024   6.177 -0.3428  0.2046  0.8677
10746SOL    HW135258   5.371   5.084   6.148  0.6100  1.3235  0.9118
10746SOL    HW235259   5.521   5.072   6.163  0.3445 -0.5495  2.1796
10747SOL     OW35260   9.110   4.937   2.189  0.4986 -0.1697  0.2799
10747SOL    HW135261   9.127   4.946   2.095  1.1096 -2.2791  0.1691
10747SOL    HW235262   9.196   4.943   2.230  0.7077 -3.0812  0.3612
10748SOL     OW35263   4.421   4.043   7.731 -0.0416  0.0091  0.1025
10748SOL    HW135264   4.482   4.033   7.804  0.0550  0.0977  0.0347
10748SOL    HW235265   4.467   4.099   7.669 -0.0984 -0.1156 -0.0534
10749SOL     OW35266   7.355   1.478   1.377 -0.0267  0.5040 -0.2808
10749SOL    HW135267   7.273   1.429   1.374  0.4816 -0.3645 -0.3126
10749SOL    HW235268   7.340   1.547   1.441 -0.1551 -0.8519  1.1878
10750SOL     OW35269   8.159   0.695   8.507  0.2357  0.3294 -0.5202
10750SOL    HW135270   8.249   0.727   8.502  0.5273 -0.4424 -0.2797
10750SOL    HW235271   8.151   0.661   8.596  0.0686 -0.6772 -0.9201
10751SOL     OW35272   7.984   0.406   7.380  0.1730 -0.5828 -0.0212
10751SOL    HW135273   7.939   0.479   7.420  0.1684 -0.5176 -0.1473
10751SOL    HW235274   7.988   0.339   7.449  4.3416  1.2358  1.7112
10752SOL     OW35275   0.700   5.953   9.152 -0.1915  0.5853 -0.5789
10752SOL    HW135276   0.721   5.872   9.106  0.2130  0.4673 -0.2023
10752SOL    HW235277   0.608   5.970   9.132  0.1044  0.7818 -1.7880
10753SOL     OW35278   1.851   9.329   5.423  0.8066  0.1565  0.9708
10753SOL    HW135279   1.861   9.244   5.381 -0.1921  0.7801 -0.5444
10753SOL    HW235280   1.922   9.382   5.386  0.6069  0.3826  0.9159
10754SOL     OW35281   2.788   2.002   3.503 -0.6850 -0.1127  0.0158
10754SOL    HW135282   2.880   1.987   3.481 -0.0148  2.1032  1.1599
10754SOL    HW235283   2.740   1.945   3.444  1.4296 -1.3197 -0.5911
10755SOL     OW35284   2.564   5.604   6.707  0.1172  0.3647 -0.0711
10755SOL    HW135285   2.470   5.625   6.706  0.2652  1.0708  0.2974
10755SOL    HW235286   2.568   5.509   6.722 -0.5099  0.5858  1.6334
10756SOL     OW35287   3.310   0.782   8.206 -0.2393  0.3049 -0.5594
10756SOL    HW135288   3.220   0.815   8.201 -0.3085  0.1288 -0.4683
10756SOL    HW235289   3.307   0.712   8.271 -0.2916 -0.5153 -1.4268
10757SOL     OW35290   1.880   6.737   1.235 -0.3224  0.5262  0.0670
10757SOL    HW135291   1.878   6.833   1.235  0.9067  0.5546 -1.2173
10757SOL    HW235292   1.973   6.714   1.243 -0.1459 -0.5242 -3.9866
10758SOL     OW35293   6.548   5.487   4.484 -0.3703  0.5499 -0.6286
10758SOL    HW135294   6.579   5.524   4.402  1.7153  1.0283  0.3422
10758SOL    HW235295   6.575   5.395   4.480 -1.7739  0.1487 -1.1938
10759SOL     OW35296   1.580   3.926   8.580  0.5655  0.0123 -0.2407
10759SOL    HW135297   1.637   3.882   8.643  1.6014 -0.3657 -1.4360
10759SOL    HW235298   1.502   3.870   8.575  0.6476 -0.1656  0.4002
10760SOL     OW35299   0.939   3.694   5.030 -0.4381 -0.2957 -0.0701
10760SOL    HW135300   0.987   3.619   5.065 -0.9516 -0.7693 -0.3642
10760SOL    HW235301   0.869   3.710   5.093  0.5896  0.9100  0.7742
10761SOL     OW35302   3.566   5.161   1.448  0.3911  0.2663  0.4831
10761SOL    HW135303   3.622   5.106   1.393 -0.8433  0.2127 -0.7406
10761SOL    HW235304   3.553   5.110   1.528  0.5768 -0.5070  0.0169
10762SOL     OW35305   0.559   2.090   7.541  0.1725  1.2026  0.5083
10762SOL    HW135306   0.627   2.062   7.480  0.3982  0.5386  1.0486
10762SOL    HW235307   0.479   2.090   7.490  0.4994  1.5045 -0.0096
10763SOL     OW35308   2.576   1.698   1.795  0.8107  0.8048 -0.1618
10763SOL    HW135309   2.606   1.645   1.721 -0.5047  1.6697 -1.3359
10763SOL    HW235310   2.655   1.712   1.847  1.2723 -1.9182 -0.0456
10764SOL     OW35311   3.465   6.484   4.708 -0.7067  0.0596  0.2994
10764SOL    HW135312   3.520   6.460   4.782 -1.4977 -0.3573  0.7504
10764SOL    HW235313   3.418   6.562   4.737  0.1431  0.8263 -0.3334
10765SOL     OW35314   0.658   5.111   3.114  0.7853 -0.3734  0.2448
10765SOL    HW135315   0.729   5.175   3.120  0.2111  0.3316 -0.4494
10765SOL    HW235316   0.597   5.147   3.050  0.8655 -2.0296 -0.7968
10766SOL     OW35317   3.053   0.548   5.276 -0.6771 -0.0354 -0.1134
10766SOL    HW135318   3.028   0.629   5.232 -1.2834  0.4109  1.0272
10766SOL    HW235319   3.106   0.577   5.351  1.7739 -0.8635 -1.4763
10767SOL     OW35320   2.923   8.757   2.630 -0.0967 -0.4803 -0.4865
10767SOL    HW135321   2.894   8.667   2.649  0.2585 -0.4811  0.0659
10767SOL    HW235322   2.855   8.813   2.666  0.3627 -0.4944  0.4089
10768SOL     OW35323   1.946   8.135   3.542 -0.0988  0.2039  0.1600
10768SOL    HW135324   1.911   8.186   3.614  0.5307  0.3564  0.3642
10768SOL    HW235325   1.897   8.165   3.465 -2.2249 -1.4454  0.8319
10769SOL     OW35326   6.808   3.069   6.516  0.3306 -0.2576 -0.0503
10769SOL    HW135327   6.780   3.020   6.438 -0.9030 -3.0248  2.0674
10769SOL    HW235328   6.893   3.032   6.538 -0.4523 -1.2425  1.3600
10770SOL     OW35329   0.694   7.641   0.684 -0.2645 -0.2437 -0.1710
10770SOL    HW135330   0.659   7.624   0.597 -2.5177  0.2980  0.5876
10770SOL    HW235331   0.619   7.630   0.743  1.0328  0.1640  1.6085
10771SOL     OW35332   1.315   7.140   1.661  0.4375 -0.0731 -0.1398
10771SOL    HW135333   1.312   7.074   1.730  0.0350  0.7671  0.6665
10771SOL    HW235334   1.239   7.196   1.678  0.2390  0.0499 -1.3654
10772SOL     OW35335   2.547   7.331   3.438  0.1156  0.1514  0.3135
10772SOL    HW135336   2.465   7.340   3.388  0.4492  2.4975  0.1348
10772SOL    HW235337   2.552   7.238   3.459 -2.7537  0.0128  0.5709
10773SOL     OW35338   4.464   3.581   9.325 -0.2158  0.2750 -0.2662
10773SOL    HW135339   4.485   3.614   9.238 -2.2267  1.7997 -0.2270
10773SOL    HW235340   4.444   3.660   9.376 -1.6094 -0.7661  0.8363
10774SOL     OW35341   1.570   1.808   2.001  0.0767 -0.1363  0.6496
10774SOL    HW135342   1.575   1.724   2.047 -0.7260 -0.0713  0.8610
10774SOL    HW235343   1.565   1.784   1.908 -1.2803 -0.3575  0.7770
10775SOL     OW35344   6.346   4.397   7.309  0.2974 -0.2199  0.2032
10775SOL    HW135345   6.309   4.475   7.267  0.2205 -0.2257  0.2613
10775SOL    HW235346   6.438   4.421   7.325 -0.0425  0.3430  1.3920
10776SOL     OW35347   1.009   2.118   1.329  0.1799 -0.6687  0.4072
10776SOL    HW135348   1.064   2.045   1.357  1.2230  0.0075  0.1421
10776SOL    HW235349   0.924   2.078   1.308  0.5880 -1.7220  0.7545
10777SOL     OW35350   2.453   2.009   2.996  0.0001  0.0827 -0.2033
10777SOL    HW135351   2.419   1.983   3.081 -0.1328  0.7462 -0.0448
10777SOL    HW235352   2.546   1.988   2.999  0.1286  0.7260  0.3574
10778SOL     OW35353   0.678   0.999   2.843  0.3365  0.0125 -0.3647
10778SOL    HW135354   0.770   0.999   2.869 -0.0477  2.5231  1.2053
10778SOL    HW235355   0.679   0.976   2.751  2.4468 -1.1689 -0.0645
10779SOL     OW35356   1.708   7.889   8.890  0.2996 -0.1100 -0.1491
10779SOL    HW135357   1.773   7.823   8.867 -0.6969 -1.5358  1.0074
10779SOL    HW235358   1.680   7.865   8.979 -1.1468  0.9956 -0.2854
10780SOL     OW35359   3.345   3.075   6.108  0.4472 -0.5418  0.2888
10780SOL    HW135360   3.321   3.136   6.038 -0.1955 -0.4058  0.6253
10780SOL    HW235361   3.399   3.126   6.168 -0.9885  0.0049  1.1357
10781SOL     OW35362   8.432   5.862   1.529 -0.1206 -0.1451  0.3307
10781SOL    HW135363   8.507   5.892   1.579  0.0780  1.4892 -0.9000
10781SOL    HW235364   8.469   5.808   1.459 -0.2720 -1.0758  0.9571
10782SOL     OW35365   0.577   2.386   7.393  0.1502 -0.9719 -0.0299
10782SOL    HW135366   0.486   2.381   7.365  0.0050  3.1581 -0.6549
10782SOL    HW235367   0.572   2.400   7.488 -0.0241  1.6385 -0.3863
10783SOL     OW35368   0.606   4.377   1.593  0.4876  0.2743  0.0453
10783SOL    HW135369   0.658   4.341   1.521 -0.4681 -0.7341 -0.1692
10783SOL    HW235370   0.660   4.365   1.671  0.6070 -0.7292 -0.1795
10784SOL     OW35371   3.913   1.917   3.035  0.4585 -0.0028 -0.4977
10784SOL    HW135372   3.882   1.992   3.085  0.1433  0.5563 -1.5361
10784SOL    HW235373   3.963   1.866   3.099 -0.4018  0.4122  0.5378
10785SOL     OW35374   2.567   3.017   8.160  0.8391 -0.2727 -0.2827
10785SOL    HW135375   2.661   3.012   8.178  0.8680 -1.4440 -0.7394
10785SOL    HW235376   2.545   2.933   8.121 -0.1226  0.5338 -1.5177
10786SOL     OW35377   6.003   0.094   8.408  0.5067 -0.5082  0.3200
10786SOL    HW135378   6.065   0.167   8.411  2.8241 -2.4659  1.0816
10786SOL    HW235379   6.054   0.020   8.377 -1.7050 -1.9419 -0.0031
10787SOL     OW35380   5.740   2.355   2.115 -0.1227 -0.2481  0.8762
10787SOL    HW135381   5.813   2.395   2.162  0.4713  1.0808 -1.1188
10787SOL    HW235382   5.775   2.272   2.083 -0.1637 -0.6018  1.7278
10788SOL     OW35383   6.613   4.489   2.847  0.3868 -0.8592 -0.7233
10788SOL    HW135384   6.521   4.461   2.842 -0.2536  1.4678 -2.6530
10788SOL    HW235385   6.626   4.509   2.940 -1.9017  1.4150 -0.8212
10789SOL     OW35386   5.789   0.467   4.123 -0.4684  0.2699  0.0223
10789SOL    HW135387   5.849   0.392   4.115 -0.3989  0.4619 -1.3755
10789SOL    HW235388   5.837   0.540   4.083 -0.8468  0.8791  0.6826
10790SOL     OW35389   4.395   8.612   0.323  0.1940 -0.3136 -0.2118
10790SOL    HW135390   4.427   8.593   0.411  0.5715 -0.3209 -0.3499
10790SOL    HW235391   4.447   8.687   0.294 -2.4261  2.0566  0.9768
10791SOL     OW35392   2.798   1.729   0.036 -0.0899 -0.0192  0.1458
10791SOL    HW135393   2.779   1.635   0.043  0.6045 -0.2279 -0.6306
10791SOL    HW235394   2.774   1.752  -0.053  1.0305  0.2327 -0.1004
10792SOL     OW35395   6.786   6.680   4.767 -0.4687  0.4239 -0.2070
10792SOL    HW135396   6.811   6.690   4.859  2.3090  0.3786 -0.8920
10792SOL    HW235397   6.803   6.766   4.728  1.1383 -0.3416 -1.2557
10793SOL     OW35398   1.706   3.680   4.525  0.2802 -0.1358 -0.0849
10793SOL    HW135399   1.719   3.769   4.492  1.8261 -0.4494 -0.3619
10793SOL    HW235400   1.614   3.661   4.505  1.1134 -0.3110 -4.3458
10794SOL     OW35401   8.214   3.721   8.176 -0.0192  0.2850 -1.3251
10794SOL    HW135402   8.259   3.774   8.110 -2.3976  0.2592 -3.0602
10794SOL    HW235403   8.122   3.720   8.147 -0.6060 -2.1315  0.4319
10795SOL     OW35404   1.024   7.435   2.390  1.0699 -0.1084  0.0292
10795SOL    HW135405   0.965   7.502   2.354  0.0067 -0.4785  1.0301
10795SOL    HW235406   1.030   7.456   2.483  0.6003 -1.4908  0.3869
10796SOL     OW35407   2.133   3.141   7.723  0.2318 -0.5429 -0.9710
10796SOL    HW135408   2.221   3.121   7.690  0.5758 -0.8156  0.0749
10796SOL    HW235409   2.075   3.084   7.673  0.9256 -2.2380  0.0986
10797SOL     OW35410   4.646   1.560   2.741  0.5904  0.0416  0.4138
10797SOL    HW135411   4.591   1.600   2.808 -0.1361  1.1220 -0.8052
10797SOL    HW235412   4.675   1.478   2.780 -0.4083  0.3130  1.7696
10798SOL     OW35413   9.174   8.036   6.466 -0.4513 -0.5620  0.2461
10798SOL    HW135414   9.211   8.007   6.549  1.7816  1.8582  0.1340
10798SOL    HW235415   9.082   8.053   6.486 -0.2758 -1.3925  1.8415
10799SOL     OW35416   4.016   1.922   5.543  0.0857  0.2549 -0.1392
10799SOL    HW135417   4.060   2.006   5.545 -0.7900  0.7058  0.7400
10799SOL    HW235418   3.992   1.905   5.634  0.4321 -1.0435 -0.2715
10800SOL     OW35419   8.027   8.087   3.442 -0.5294 -0.5863  0.6384
10800SOL    HW135420   8.091   8.023   3.474 -1.1891 -2.0139 -0.8071
10800SOL    HW235421   7.946   8.063   3.487 -0.8842 -1.0850 -0.2484
10801SOL     OW35422   3.949   1.362   1.530 -0.1013 -0.2935 -0.1255
10801SOL    HW135423   3.921   1.453   1.532  1.0765  0.0521  2.4768
10801SOL    HW235424   4.028   1.360   1.584  0.8008 -2.5725 -1.4362
10802SOL     OW35425   3.268   3.080   8.379  0.3007  0.2017 -0.2030
10802SOL    HW135426   3.300   3.136   8.308  0.5816 -0.3010 -0.4781
10802SOL    HW235427   3.289   2.991   8.350 -0.8142 -0.0961 -0.1105
10803SOL     OW35428   2.197   7.754   7.089 -0.0833  0.1561 -0.2707
10803SOL    HW135429   2.285   7.726   7.114 -0.2539 -1.2417 -1.1786
10803SOL    HW235430   2.201   7.850   7.090  1.0862  0.1061  0.9107
10804SOL     OW35431   0.530   5.837   1.221  0.1918  0.1775 -0.7704
10804SOL    HW135432   0.528   5.774   1.294 -0.1433  1.0340 -0.0378
10804SOL    HW235433   0.594   5.800   1.160 -0.1404 -0.9805 -0.4417
10805SOL     OW35434   3.397   9.088   0.693  0.2179  0.0264  0.1165
10805SOL    HW135435   3.438   9.139   0.624  0.4070 -0.1160  0.1216
10805SOL    HW235436   3.468   9.072   0.756 -0.7032  3.0582  2.0595
10806SOL     OW35437   9.387   4.696   7.030 -0.9388 -0.2079  0.2182
10806SOL    HW135438   9.444   4.773   7.027  1.4070 -1.8540  1.0510
10806SOL    HW235439   9.329   4.711   7.105 -1.5439  1.4164 -0.5518
10807SOL     OW35440   7.368   8.987   1.396  0.1675 -0.3629 -0.1012
10807SOL    HW135441   7.395   9.030   1.314 -1.5429 -0.4149 -0.7154
10807SOL    HW235442   7.392   8.895   1.384  0.4281 -0.2674 -0.3185
10808SOL     OW35443   5.613   4.896   2.767  0.0079  0.1222  0.5015
10808SOL    HW135444   5.561   4.842   2.827  0.6665  1.4979  2.3579
10808SOL    HW235445   5.564   4.977   2.759  0.6931  0.5298  0.4017
10809SOL     OW35446   2.841   0.778   8.791  0.2778  0.4424  0.0911
10809SOL    HW135447   2.915   0.758   8.849  0.7757 -1.8483 -1.2532
10809SOL    HW235448   2.882   0.794   8.706 -0.6088  1.7507 -0.1045
10810SOL     OW35449   3.676   2.743   7.874 -0.0887  0.0155  0.1394
10810SOL    HW135450   3.742   2.693   7.825 -0.4245  0.5896 -0.9229
10810SOL    HW235451   3.705   2.738   7.965 -0.5431 -2.7941  0.1931
10811SOL     OW35452   5.652   2.237   8.823  0.1588  0.3577  0.4877
10811SOL    HW135453   5.573   2.239   8.878  2.3072  0.5368  3.7573
10811SOL    HW235454   5.648   2.153   8.779 -1.3572 -0.0825  1.4018
10812SOL     OW35455   8.899   7.359   0.508 -0.2952  0.1031 -0.6354
10812SOL    HW135456   8.861   7.319   0.587  1.0071 -1.2740 -0.6905
10812SOL    HW235457   8.991   7.336   0.511 -0.2295  0.0203 -2.5734
10813SOL     OW35458   5.729   5.793   6.231  0.3761  0.2989 -0.5567
10813SOL    HW135459   5.643   5.789   6.190 -0.0882  0.3794  0.3821
10813SOL    HW235460   5.716   5.754   6.318  1.5266 -0.7016 -0.8083
10814SOL     OW35461   5.600   3.800   5.091  0.2218  0.0363  0.2620
10814SOL    HW135462   5.596   3.864   5.020  1.0938  1.1034  1.1600
10814SOL    HW235463   5.512   3.764   5.095 -0.2740  1.1551 -0.2856
10815SOL     OW35464   0.976   3.572   9.038 -0.3482  0.0927  0.4796
10815SOL    HW135465   1.053   3.623   9.012 -0.0996 -0.1372  0.7768
10815SOL    HW235466   1.003   3.523   9.115 -0.6080 -0.4531  0.2276
10816SOL     OW35467   0.426   3.224   8.201  0.3275 -0.5357  0.8542
10816SOL    HW135468   0.382   3.141   8.220  0.2097 -0.3349  1.4716
10816SOL    HW235469   0.508   3.219   8.250  1.1418 -1.0369 -0.5342
10817SOL     OW35470   8.154   8.885   7.851  0.7538 -0.0026 -0.2151
10817SOL    HW135471   8.168   8.956   7.913 -3.2505  0.6686  0.0389
10817SOL    HW235472   8.103   8.925   7.780 -0.9271 -2.4013 -0.4263
10818SOL     OW35473   0.390   4.219   7.222 -0.1364 -0.1728 -0.9244
10818SOL    HW135474   0.418   4.228   7.131  1.2991 -0.6101 -0.5334
10818SOL    HW235475   0.471   4.205   7.271 -0.7823  1.1382  0.5625
10819SOL     OW35476   1.671   6.610   0.229  0.4198  0.2176 -0.1084
10819SOL    HW135477   1.596   6.570   0.272  0.8240 -0.7581 -0.3077
10819SOL    HW235478   1.739   6.615   0.297  1.0404 -1.2780 -0.6034
10820SOL     OW35479   3.980   4.493   4.090  0.4853 -0.0907  0.2715
10820SOL    HW135480   4.001   4.563   4.152 -1.1937  0.5333  0.1736
10820SOL    HW235481   3.964   4.538   4.007  0.6942 -0.7288 -0.1215
10821SOL     OW35482   1.362   7.833   5.592 -0.1334  0.1047  0.1073
10821SOL    HW135483   1.293   7.862   5.653 -0.1487  1.2201 -0.4270
10821SOL    HW235484   1.334   7.746   5.564 -1.8596  0.9459 -0.8780
10822SOL     OW35485   5.412   4.299   6.731 -0.4554  0.4175 -0.0241
10822SOL    HW135486   5.485   4.305   6.793  0.3085  0.4213 -0.9091
10822SOL    HW235487   5.353   4.234   6.770  0.6805 -0.5942  0.0465
10823SOL     OW35488   8.455   9.431   7.320  0.4178  0.4029  0.0776
10823SOL    HW135489   8.436   9.503   7.379  0.7940  1.6686 -1.3012
10823SOL    HW235490   8.401   9.448   7.243  0.0107 -1.1522 -0.0036
10824SOL     OW35491   8.233   1.214   7.651 -0.8895  0.1423 -0.0667
10824SOL    HW135492   8.274   1.129   7.634 -1.4751 -0.3081  0.7480
10824SOL    HW235493   8.197   1.206   7.739 -0.9241  1.2511  0.0269
10825SOL     OW35494   2.741   8.981   3.556 -0.3502  0.1971  0.6211
10825SOL    HW135495   2.767   8.916   3.490 -0.5883  1.6785 -0.9454
10825SOL    HW235496   2.646   8.986   3.548 -0.3889  0.2855  1.1661
10826SOL     OW35497   6.999   3.211   7.712 -0.1167 -0.5619  0.0538
10826SOL    HW135498   7.016   3.132   7.763  0.7521 -0.6685 -0.4024
10826SOL    HW235499   6.974   3.277   7.777  2.5668 -0.2361  0.7862
10827SOL     OW35500   6.943   8.727   4.520 -0.0436  0.4653 -0.6110
10827SOL    HW135501   6.951   8.643   4.565 -0.9862  0.8228  0.2472
10827SOL    HW235502   6.889   8.708   4.443  0.8359  0.0277 -1.1216
10828SOL     OW35503   8.098   1.049   0.804 -0.2340  0.4184 -0.0761
10828SOL    HW135504   8.036   1.119   0.785  0.0462  0.8112  0.4601
10828SOL    HW235505   8.175   1.070   0.752  0.4066  1.3102  1.2051
10829SOL     OW35506   5.033   5.755   2.442  0.3483 -0.4783  0.0499
10829SOL    HW135507   5.056   5.785   2.354 -1.4785  2.1334  0.3773
10829SOL    HW235508   5.095   5.800   2.499 -1.2273  1.2962  0.4041
10830SOL     OW35509   3.990   8.204   4.776 -0.4362  0.4889  0.2239
10830SOL    HW135510   3.928   8.138   4.808 -1.9076 -0.2081 -3.7228
10830SOL    HW235511   4.063   8.153   4.740  1.0653  1.2239  2.1540
10831SOL     OW35512   4.114   5.326   1.209  0.7942 -0.1708 -0.2531
10831SOL    HW135513   4.103   5.346   1.116 -1.4243  0.7620  0.1815
10831SOL    HW235514   4.025   5.328   1.244  1.5453 -1.2633  1.7467
10832SOL     OW35515   1.480   0.367   4.362 -0.2404  0.4642  0.6942
10832SOL    HW135516   1.489   0.293   4.422  0.9981 -0.1113 -0.1955
10832SOL    HW235517   1.569   0.391   4.338 -0.6792  1.3877 -0.0885
10833SOL     OW35518   3.034   8.274   7.643  0.1003  0.6077  0.1981
10833SOL    HW135519   2.984   8.213   7.698 -2.0051  3.4799  1.6056
10833SOL    HW235520   3.098   8.313   7.702  1.5294 -0.2894 -0.7252
10834SOL     OW35521   2.952   0.871   6.963 -0.0534 -0.2010  1.1214
10834SOL    HW135522   2.918   0.961   6.961  2.0782  0.6186  1.1741
10834SOL    HW235523   3.039   0.877   6.924 -0.4439 -2.5107 -0.2132
10835SOL     OW35524   2.644   0.780   4.667  0.2233 -0.4943  0.0884
10835SOL    HW135525   2.689   0.829   4.598 -0.9272  0.0409 -0.2869
10835SOL    HW235526   2.605   0.705   4.622 -2.0282  0.7929 -0.1930
10836SOL     OW35527   0.425   4.439   1.874 -0.3916  0.0763  0.7351
10836SOL    HW135528   0.462   4.464   1.959 -0.7504  1.7288  0.4202
10836SOL    HW235529   0.494   4.388   1.831 -0.0525 -0.3943  1.8345
10837SOL     OW35530   5.245   4.875   1.355 -0.0403 -0.2832 -0.0558
10837SOL    HW135531   5.194   4.802   1.322 -0.3855  0.4468 -1.1896
10837SOL    HW235532   5.280   4.917   1.276 -1.4705  1.9432  0.4372
10838SOL     OW35533   4.748   2.575   0.988 -0.2291  0.6073 -0.3056
10838SOL    HW135534   4.809   2.649   0.993  0.4439  0.0568 -0.3627
10838SOL    HW235535   4.799   2.499   1.017 -1.6173  0.5511  2.1105
10839SOL     OW35536   3.580   3.173   4.017 -0.1225  0.1838  0.3969
10839SOL    HW135537   3.532   3.090   4.021 -0.8429  0.5682 -0.2352
10839SOL    HW235538   3.512   3.240   4.012  0.4694  0.7678  0.1112
10840SOL     OW35539   9.152   3.081   2.445 -0.1225 -0.2262 -0.5593
10840SOL    HW135540   9.070   3.124   2.422  0.8417  0.4965 -2.7375
10840SOL    HW235541   9.220   3.135   2.404  1.3901 -1.2373  0.5825
10841SOL     OW35542   3.682   4.881   8.686  0.0561  0.5408 -0.2302
10841SOL    HW135543   3.704   4.854   8.597 -0.0583  1.1763 -0.4584
10841SOL    HW235544   3.592   4.852   8.699  0.6627 -1.1531  0.3362
10842SOL     OW35545   0.128   3.344   7.590  0.2230 -0.5838  0.5683
10842SOL    HW135546   0.134   3.280   7.519 -1.1299 -0.8233  0.6572
10842SOL    HW235547   0.217   3.377   7.600  0.4486 -0.6645 -1.1223
10843SOL     OW35548   2.587   5.028   6.917 -0.3464  0.4419 -0.4627
10843SOL    HW135549   2.549   5.092   6.978 -2.0119  0.2978 -1.3120
10843SOL    HW235550   2.570   4.943   6.958 -1.1560  0.3653 -0.9456
10844SOL     OW35551   1.809   7.457   0.528 -0.0052 -0.4367 -0.5458
10844SOL    HW135552   1.790   7.381   0.473 -1.2397 -0.0433 -0.6757
10844SOL    HW235553   1.725   7.480   0.567  1.1664 -1.9289  3.1081
10845SOL     OW35554   1.351   6.802   0.099 -0.0151 -0.3609  0.1583
10845SOL    HW135555   1.404   6.791   0.020  1.0660 -0.3677  0.8675
10845SOL    HW235556   1.263   6.776   0.073  0.2100  0.1871 -1.1964
10846SOL     OW35557   4.859   9.213   2.703  1.1990 -0.2325  0.0324
10846SOL    HW135558   4.787   9.161   2.740  0.7380  0.7234  0.4858
10846SOL    HW235559   4.936   9.157   2.714  0.5352 -1.2585 -0.4407
10847SOL     OW35560   8.562   7.106   2.483 -0.0404  0.0786  0.4172
10847SOL    HW135561   8.599   7.151   2.560  0.0515  0.8369 -0.0600
10847SOL    HW235562   8.586   7.015   2.495 -0.0594  0.1835  1.3151
10848SOL     OW35563   7.738   6.530   8.546 -0.0392 -0.4417 -0.1494
10848SOL    HW135564   7.830   6.527   8.571  0.3827 -1.8983 -1.8339
10848SOL    HW235565   7.724   6.621   8.518  0.2152  0.4444  2.4436
10849SOL     OW35566   2.464   2.414   5.357  0.0446 -0.0400 -0.0018
10849SOL    HW135567   2.543   2.359   5.353  0.2539  0.1849  0.9473
10849SOL    HW235568   2.403   2.371   5.297 -0.3470 -2.2084  1.8898
10850SOL     OW35569   2.018   9.299   2.080  0.5650  0.1419  0.6599
10850SOL    HW135570   2.023   9.395   2.082  2.2390  0.0834  0.0741
10850SOL    HW235571   1.935   9.279   2.123  0.1425  1.8611  0.7027
10851SOL     OW35572   6.754   3.384   7.520 -0.5723  0.4775 -0.1011
10851SOL    HW135573   6.826   3.334   7.483 -0.8512 -0.0639  0.0772
10851SOL    HW235574   6.675   3.344   7.483 -0.9109 -0.9372  2.0958
10852SOL     OW35575   7.704   4.723   1.600  0.1642 -1.1514 -0.0261
10852SOL    HW135576   7.783   4.670   1.605  0.2038 -1.0585  0.3344
10852SOL    HW235577   7.633   4.663   1.622  0.3524 -0.7046  1.9778
10853SOL     OW35578   2.526   4.072   9.223 -0.1960 -0.1763  0.4134
10853SOL    HW135579   2.520   4.137   9.154  1.1169 -0.6598 -0.1614
10853SOL    HW235580   2.441   4.027   9.221 -0.8292  0.9995  0.3290
10854SOL     OW35581   6.563   7.938   7.140  0.1250  0.1409  0.5957
10854SOL    HW135582   6.533   7.968   7.055 -1.2037  1.1369  1.3891
10854SOL    HW235583   6.496   7.874   7.167  1.9581 -2.1939 -0.2805
10855SOL     OW35584   6.568   7.253   3.659 -0.3206 -0.0373  0.4907
10855SOL    HW135585   6.597   7.173   3.615 -0.1107 -0.3524  1.1837
10855SOL    HW235586   6.550   7.315   3.588 -2.1850 -1.2612 -0.1497
10856SOL     OW35587   1.519   3.847   7.487  0.1313 -1.1588  0.7361
10856SOL    HW135588   1.587   3.792   7.448 -0.6796 -0.8818 -1.1167
10856SOL    HW235589   1.541   3.936   7.459  0.5851 -0.7044  2.4781
10857SOL     OW35590   6.971   8.288   4.144 -0.0258  0.3914 -0.0214
10857SOL    HW135591   6.937   8.332   4.222  0.9095 -0.5734  0.9496
10857SOL    HW235592   6.921   8.207   4.138 -0.8522  0.9715 -1.0638
10858SOL     OW35593   4.726   8.690   2.172 -0.5325 -0.1782 -0.3072
10858SOL    HW135594   4.671   8.692   2.251  0.6305 -1.0667  0.5375
10858SOL    HW235595   4.792   8.758   2.186 -0.4335 -0.2092 -0.6122
10859SOL     OW35596   6.815   8.057   4.133 -0.1011  0.2642  0.2880
10859SOL    HW135597   6.776   7.993   4.194 -0.1148  1.7535  1.8897
10859SOL    HW235598   6.836   8.006   4.055 -3.4892 -0.9861  0.0840
10860SOL     OW35599   6.046   1.100   8.477  0.0456 -0.1143  0.5391
10860SOL    HW135600   6.008   1.186   8.460  1.2124  0.6033  1.5012
10860SOL    HW235601   6.138   1.117   8.496  0.4153 -1.6353  0.2125
10861SOL     OW35602   1.122   8.513   6.247  0.0395  0.1317 -0.0326
10861SOL    HW135603   1.036   8.555   6.239 -1.1037 -1.9312  1.0403
10861SOL    HW235604   1.109   8.426   6.208  2.0354  0.2935 -1.1110
10862SOL     OW35605   2.836   0.826   0.406  0.2189 -0.1410  0.3608
10862SOL    HW135606   2.813   0.774   0.483  1.4257 -1.0189  0.1387
10862SOL    HW235607   2.922   0.793   0.379  1.3396  2.4079  0.6103
10863SOL     OW35608   5.887   2.185   7.977 -0.2517  0.1459 -0.0690
10863SOL    HW135609   5.834   2.118   7.935  1.9645 -1.3106 -0.6055
10863SOL    HW235610   5.917   2.241   7.905  0.7924 -0.3760 -0.0481
10864SOL     OW35611   8.311   3.024   3.399 -0.3156 -0.0939  0.1839
10864SOL    HW135612   8.220   3.024   3.369 -0.4927  1.2779  0.7079
10864SOL    HW235613   8.356   3.084   3.340  0.1978 -0.5992  0.0644
10865SOL     OW35614   7.406   8.768   0.673 -0.1808  0.2499 -0.6247
10865SOL    HW135615   7.467   8.694   0.670 -0.9953 -0.3847 -1.5309
10865SOL    HW235616   7.320   8.729   0.661 -0.7977  1.1381  0.7555
10866SOL     OW35617   0.807   0.948   1.969  0.2533 -0.2259  0.4170
10866SOL    HW135618   0.856   0.886   2.023  1.0637 -1.4791 -1.7181
10866SOL    HW235619   0.862   0.961   1.892 -1.4363  0.6399 -0.6499
10867SOL     OW35620   4.298   4.993   6.653 -0.2027 -0.2964 -0.6384
10867SOL    HW135621   4.281   4.905   6.619 -1.4566 -0.3730  0.1457
10867SOL    HW235622   4.387   4.988   6.688  0.3639 -0.7626 -2.1407
10868SOL     OW35623   7.279   5.674   8.221  0.2578 -0.1926 -0.2665
10868SOL    HW135624   7.262   5.603   8.282  0.6342  0.6407  0.8172
10868SOL    HW235625   7.263   5.754   8.271 -3.3477  0.5380 -2.3541
10869SOL     OW35626   6.333   4.757   7.950  0.3042 -0.2403  0.6585
10869SOL    HW135627   6.298   4.694   7.887 -0.7742  0.1183  0.8764
10869SOL    HW235628   6.395   4.810   7.900 -0.4444 -0.0384 -0.0725
10870SOL     OW35629   3.794   8.720   0.720 -0.1072 -0.3006 -0.5482
10870SOL    HW135630   3.848   8.649   0.756 -1.3459 -1.3497 -0.7252
10870SOL    HW235631   3.799   8.707   0.625  1.6784  1.3677 -0.7090
10871SOL     OW35632   0.077   7.082   5.105  0.0626  0.1154 -0.2131
10871SOL    HW135633   0.054   7.174   5.122  0.8938  0.7954 -2.5967
10871SOL    HW235634  -0.003   7.034   5.123 -0.8572  1.5161 -0.4731
10872SOL     OW35635   4.468   8.210   9.235  0.1973 -0.2026  0.5670
10872SOL    HW135636   4.428   8.294   9.257  1.9389  1.0138 -0.8056
10872SOL    HW235637   4.480   8.166   9.320 -3.6949 -0.5259  1.0813
10873SOL     OW35638   8.144   9.245   4.799 -0.7574 -0.0394 -0.7709
10873SOL    HW135639   8.212   9.200   4.849 -0.4648  0.8709 -0.3506
10873SOL    HW235640   8.111   9.178   4.739  0.6109 -0.4510 -1.0863
10874SOL     OW35641   6.590   5.545   7.796  0.4599 -0.3778 -0.1801
10874SOL    HW135642   6.500   5.566   7.819  0.9632  0.4030  1.1316
10874SOL    HW235643   6.587   5.453   7.770 -0.7174 -0.3507 -0.1596
10875SOL     OW35644   8.165   8.588   6.767  0.3052  0.2015  0.0053
10875SOL    HW135645   8.224   8.522   6.802  0.5817  0.1971 -0.4661
10875SOL    HW235646   8.077   8.553   6.784  0.4493 -0.3622 -0.3815
10876SOL     OW35647   0.759   6.770   6.556  0.2458 -0.2959 -0.2854
10876SOL    HW135648   0.695   6.805   6.494 -0.3012  1.0385  0.9827
10876SOL    HW235649   0.741   6.676   6.560 -1.0535 -0.0734 -0.6164
10877SOL     OW35650   1.026   5.873   6.853  0.4671 -0.2554  0.4204
10877SOL    HW135651   1.115   5.841   6.837  0.8436  0.8456  0.2971
10877SOL    HW235652   1.012   5.941   6.787 -0.1263  0.2294  1.0323
10878SOL     OW35653   4.176   4.976   0.055 -0.1196 -0.5973  0.5668
10878SOL    HW135654   4.183   4.888   0.093  1.2910 -1.4428 -1.5299
10878SOL    HW235655   4.083   4.987   0.036 -0.3931 -1.3773  1.4290
10879SOL     OW35656   0.636   2.233   5.910  0.1971  0.3391 -0.4598
10879SOL    HW135657   0.584   2.277   5.843  0.0243  0.9854  0.1030
10879SOL    HW235658   0.576   2.170   5.950  0.9890 -1.9502 -2.6828
10880SOL     OW35659   2.133   4.395   2.713  0.1087  0.6640  0.2577
10880SOL    HW135660   2.076   4.470   2.728  1.1836  1.4526  0.4744
10880SOL    HW235661   2.214   4.417   2.759  0.2565 -0.8490  0.7258
10881SOL     OW35662   3.687   1.526   0.336 -0.3964 -0.0955 -0.0129
10881SOL    HW135663   3.610   1.477   0.307  0.2186 -0.6627 -0.7005
10881SOL    HW235664   3.735   1.466   0.393  0.4087 -0.3322 -0.9329
10882SOL     OW35665   1.443   0.759   2.735  0.1859 -0.0379 -0.0706
10882SOL    HW135666   1.481   0.704   2.804  1.0973  0.7361  0.0582
10882SOL    HW235667   1.397   0.828   2.783  0.1802  0.0770 -0.2431
10883SOL     OW35668   8.045   6.747   0.860  0.0049 -0.0310  0.3097
10883SOL    HW135669   8.032   6.778   0.950  1.7861  0.1821  0.5066
10883SOL    HW235670   7.956   6.740   0.824 -0.6355  1.3783  1.5690
10884SOL     OW35671   4.731   8.954   4.268  0.0314 -0.1498  0.6595
10884SOL    HW135672   4.780   8.901   4.330 -1.1745 -0.5141  1.3074
10884SOL    HW235673   4.691   8.891   4.208  1.4257  0.2108 -0.6908
10885SOL     OW35674   0.346   2.350   8.931 -0.1192  0.0967  0.1097
10885SOL    HW135675   0.397   2.289   8.984  0.1542 -1.4778 -1.9170
10885SOL    HW235676   0.404   2.376   8.860 -1.4133 -0.1209 -1.0674
10886SOL     OW35677   7.595   5.947   1.133  0.0908 -0.3105  0.0280
10886SOL    HW135678   7.621   6.010   1.066  0.1983  0.0056  0.3651
10886SOL    HW235679   7.629   5.863   1.102 -1.0683 -0.4205 -1.0106
10887SOL     OW35680   9.386   5.987   2.013 -0.3675  0.2653  0.3557
10887SOL    HW135681   9.318   5.996   1.946 -0.2351  0.9539  0.3155
10887SOL    HW235682   9.467   5.975   1.963 -0.1796  1.3865  0.3812
10888SOL     OW35683   4.183   3.869   7.732 -0.2254 -0.1004  0.5976
10888SOL    HW135684   4.261   3.906   7.774 -1.0147  1.5270  0.6527
10888SOL    HW235685   4.110   3.911   7.777 -1.1156 -0.0927 -0.8307
10889SOL     OW35686   2.042   6.988   5.852 -0.2827  0.4670  0.1519
10889SOL    HW135687   2.009   6.915   5.799 -1.7634  1.6064 -0.5142
10889SOL    HW235688   2.091   7.042   5.791  0.1088  0.4758  0.4702
10890SOL     OW35689   8.581   5.029   0.380 -0.4188  0.6033 -0.4898
10890SOL    HW135690   8.500   5.064   0.416 -1.3394 -2.3559  0.3838
10890SOL    HW235691   8.637   5.012   0.456 -0.6119 -1.3244 -0.7555
10891SOL     OW35692   7.049   3.823   2.780 -0.1074  0.6676  0.2430
10891SOL    HW135693   7.000   3.766   2.721 -1.4896  1.3610  0.6796
10891SOL    HW235694   7.001   3.818   2.863  1.4546  0.1832  1.1374
10892SOL     OW35695   1.331   1.949   6.614  0.0366 -0.0949 -0.0089
10892SOL    HW135696   1.358   1.912   6.531 -3.0882  0.5238 -1.3725
10892SOL    HW235697   1.235   1.947   6.612 -0.1281  1.0874  3.0326
10893SOL     OW35698   6.060   2.122   8.204 -0.2445 -0.1899 -0.2071
10893SOL    HW135699   6.148   2.157   8.191 -0.1655  0.2600  1.4169
10893SOL    HW235700   6.002   2.187   8.166  0.0814 -0.0620 -0.4890
10894SOL     OW35701   2.492   8.128   3.292  0.0538  0.1720 -0.5856
10894SOL    HW135702   2.546   8.165   3.222  1.2391 -1.8149 -0.7334
10894SOL    HW235703   2.453   8.050   3.255 -1.5023  0.5937  0.1160
10895SOL     OW35704   7.148   7.084   0.842 -0.0868 -0.3706  0.1157
10895SOL    HW135705   7.083   7.015   0.855 -0.2451 -0.2243  0.1008
10895SOL    HW235706   7.231   7.044   0.868 -0.5803  0.3301  2.9185
10896SOL     OW35707   8.977   8.400   3.793 -0.6009 -1.1285  0.6120
10896SOL    HW135708   9.062   8.357   3.785 -0.8259 -1.7519  1.5770
10896SOL    HW235709   8.954   8.424   3.703  0.1369 -1.8447  0.2292
10897SOL     OW35710   9.042   6.333   4.070  0.0665  0.6764  0.1613
10897SOL    HW135711   9.064   6.407   4.012  2.0649 -0.9600 -1.2668
10897SOL    HW235712   9.001   6.269   4.011  3.8971 -1.8174  0.0644
10898SOL     OW35713   8.783   8.593   3.149  0.0350  0.3776 -0.5322
10898SOL    HW135714   8.732   8.517   3.120 -1.3704  0.8142  0.7189
10898SOL    HW235715   8.733   8.629   3.222  2.3859  0.5856  1.0356
10899SOL     OW35716   0.106   4.327   2.707  0.4441  0.5809  0.1941
10899SOL    HW135717   0.188   4.376   2.701  0.3912  0.6856  0.3196
10899SOL    HW235718   0.097   4.305   2.800 -0.6941  2.3515  0.5393
10900SOL     OW35719   1.357   6.791   3.603 -0.3432 -0.0066  0.3409
10900SOL    HW135720   1.357   6.745   3.687 -0.0753  0.9232  0.8497
10900SOL    HW235721   1.292   6.860   3.613 -0.1148  0.2840 -0.1266
10901SOL     OW35722   0.588   2.137   4.991 -0.1738  0.1021 -0.6280
10901SOL    HW135723   0.557   2.180   4.911  1.6755  1.1645 -0.8159
10901SOL    HW235724   0.613   2.209   5.049 -0.6614 -0.6739  0.5656
10902SOL     OW35725   4.728   5.293   1.092  0.5963  0.7082 -0.9203
10902SOL    HW135726   4.649   5.304   1.040 -0.4035 -1.1563  0.1286
10902SOL    HW235727   4.745   5.199   1.091  2.8924  1.0988 -1.2447
10903SOL     OW35728   6.025   5.060   7.648  0.0073  0.3948  0.3921
10903SOL    HW135729   6.075   4.992   7.693  0.5241 -0.0406 -0.8130
10903SOL    HW235730   5.982   5.014   7.575  0.7873  1.4306 -0.7538
10904SOL     OW35731   8.297   1.671   2.319 -0.4009 -0.4362  0.3758
10904SOL    HW135732   8.365   1.611   2.288 -0.8934 -0.6018 -0.4107
10904SOL    HW235733   8.295   1.741   2.254  0.1817  0.4376  1.3073
10905SOL     OW35734   2.503   7.360   4.128  0.4101  0.1225  0.4039
10905SOL    HW135735   2.411   7.355   4.153  0.5747 -0.2642  0.9433
10905SOL    HW235736   2.515   7.450   4.098  0.6847  1.2162  3.6195
10906SOL     OW35737   3.628   5.442   8.359  0.2845 -0.4463 -0.1832
10906SOL    HW135738   3.578   5.517   8.327  0.6494  0.8903  2.2721
10906SOL    HW235739   3.566   5.369   8.361 -0.6845  0.3766 -0.2949
10907SOL     OW35740   6.442   0.317   1.925  0.4500  0.0944 -0.3207
10907SOL    HW135741   6.366   0.271   1.890 -0.1037 -0.2813  1.3144
10907SOL    HW235742   6.471   0.373   1.853 -1.0179 -0.1827 -1.1638
10908SOL     OW35743   0.243   0.591   3.303 -0.1976 -0.2616  0.5207
10908SOL    HW135744   0.166   0.592   3.359 -0.4781 -1.2961  0.1674
10908SOL    HW235745   0.313   0.557   3.359 -0.3608 -0.8010  0.4074
10909SOL     OW35746   2.199   4.068   3.671  0.0916  0.0878 -0.1327
10909SOL    HW135747   2.234   4.144   3.717  0.2134 -0.0098 -0.0597
10909SOL    HW235748   2.241   3.993   3.715  2.2185  0.0881 -2.0806
10910SOL     OW35749   8.544   9.396   3.729  0.5282 -0.0835 -0.2212
10910SOL    HW135750   8.526   9.312   3.688 -0.3154 -0.0101 -0.0066
10910SOL    HW235751   8.461   9.443   3.725  0.0648 -0.5608  2.7568
10911SOL     OW35752   2.331   1.478   3.603  0.1254  0.2001  0.0124
10911SOL    HW135753   2.299   1.446   3.687 -0.9769 -2.5287 -1.3395
10911SOL    HW235754   2.313   1.405   3.543 -0.0018  2.4390 -2.7520
10912SOL     OW35755   0.819   6.723   3.341 -0.0821  0.2708 -0.5028
10912SOL    HW135756   0.770   6.707   3.261  0.4012 -0.5286 -0.6412
10912SOL    HW235757   0.900   6.672   3.331 -0.1774 -0.1164  0.6370
10913SOL     OW35758   1.339   4.314   2.161  0.4932  0.5194  0.1811
10913SOL    HW135759   1.305   4.235   2.119  2.0902 -0.1146  0.0469
10913SOL    HW235760   1.262   4.368   2.176 -0.4563 -0.4891 -0.9425
10914SOL     OW35761   3.108   0.297   7.328  0.0245  0.6355 -0.0220
10914SOL    HW135762   3.117   0.270   7.419  0.7476  0.5876 -0.1040
10914SOL    HW235763   3.113   0.392   7.330 -1.1515  0.6906  0.1192
10915SOL     OW35764   8.594   2.730   2.612 -0.7484  0.4437  0.0893
10915SOL    HW135765   8.638   2.764   2.690 -3.1127  1.0863  1.2010
10915SOL    HW235766   8.623   2.639   2.604 -0.4993  0.3816  1.7097
10916SOL     OW35767   6.775   5.346   6.634 -0.2053 -0.1699 -0.7191
10916SOL    HW135768   6.767   5.297   6.553 -0.5637  0.5729 -1.1384
10916SOL    HW235769   6.860   5.320   6.670  1.0089  1.2778 -2.4990
10917SOL     OW35770   6.795   0.474   1.262  0.3555 -0.0208  0.3632
10917SOL    HW135771   6.739   0.464   1.185 -0.2491 -0.6309  0.8731
10917SOL    HW235772   6.748   0.538   1.317  0.3326 -0.2622  0.6282
10918SOL     OW35773   3.346   3.740   9.382 -0.5845  0.5524  0.0498
10918SOL    HW135774   3.356   3.744   9.477 -1.8634  3.4234  0.1359
10918SOL    HW235775   3.434   3.757   9.348 -0.5007  1.6227  0.7558
10919SOL     OW35776   0.677   0.371   0.656 -0.6059  0.2807 -0.1067
10919SOL    HW135777   0.623   0.418   0.591 -0.0373 -1.8749 -2.1968
10919SOL    HW235778   0.762   0.359   0.612  0.1700 -0.1775  1.4979
10920SOL     OW35779   4.401   1.866   0.225  0.0862  0.4414 -0.1800
10920SOL    HW135780   4.431   1.833   0.310 -0.9665  1.6024  0.6497
10920SOL    HW235781   4.453   1.945   0.210  1.7785 -0.9056 -1.6267
10921SOL     OW35782   7.495   6.556   6.347  0.4354 -0.9012  0.1703
10921SOL    HW135783   7.584   6.588   6.335 -0.0580  0.9228  1.1943
10921SOL    HW235784   7.506   6.470   6.387  1.7695 -1.6158 -1.6741
10922SOL     OW35785   3.917   6.870   4.324  0.4923  0.0526 -0.7602
10922SOL    HW135786   3.990   6.857   4.385  1.7493 -1.5344 -2.5019
10922SOL    HW235787   3.914   6.788   4.274 -2.1893  0.3016 -1.0596
10923SOL     OW35788   4.917   2.522   1.568 -0.4283  0.4678  0.0935
10923SOL    HW135789   4.852   2.544   1.635  0.2064  1.6471  0.3436
10923SOL    HW235790   4.998   2.560   1.601  0.2886 -0.5947 -0.4444
10924SOL     OW35791   2.538   7.221   7.232 -0.3539 -0.0856 -0.3846
10924SOL    HW135792   2.512   7.129   7.222 -0.7640 -0.0480  0.3278
10924SOL    HW235793   2.455   7.269   7.238 -0.1535  0.0708  1.5237
10925SOL     OW35794   4.761   0.277   4.357 -0.2992  0.3139  0.1747
10925SOL    HW135795   4.744   0.327   4.277 -0.5493  0.6389  0.4301
10925SOL    HW235796   4.674   0.253   4.390 -0.2260  0.8412  0.7648
10926SOL     OW35797   6.485   3.337   7.647 -0.0099 -0.0358  0.0517
10926SOL    HW135798   6.404   3.313   7.694  0.0811 -0.0845  0.1850
10926SOL    HW235799   6.519   3.413   7.695 -0.8126  0.9792 -0.9466
10927SOL     OW35800   3.686   4.705   1.050  0.7070 -0.2026 -0.1135
10927SOL    HW135801   3.648   4.654   0.979  1.8399 -0.0927 -0.8070
10927SOL    HW235802   3.770   4.662   1.068  0.6718  0.0932  0.7898
10928SOL     OW35803   3.561   0.941   5.025  0.7750 -0.2657  0.1108
10928SOL    HW135804   3.511   0.945   5.107 -0.4714  0.3179 -0.6560
10928SOL    HW235805   3.652   0.954   5.052  0.2665  1.0317  1.3026
10929SOL     OW35806   4.569   9.032   3.106 -0.7759 -0.0019  0.3646
10929SOL    HW135807   4.622   9.031   3.186  1.2511  2.0647 -0.8925
10929SOL    HW235808   4.481   9.055   3.137 -0.1220  0.3263  2.0789
10930SOL     OW35809   8.594   7.380   4.196  0.0091  0.7349  0.4409
10930SOL    HW135810   8.533   7.307   4.196  0.0602  0.6939  1.1235
10930SOL    HW235811   8.679   7.341   4.218  0.2623  0.8120 -0.3637
10931SOL     OW35812   0.284   0.263   0.309  0.1693 -0.4412  0.6684
10931SOL    HW135813   0.362   0.274   0.255  0.3223 -1.0956  0.7462
10931SOL    HW235814   0.305   0.190   0.367 -0.9874 -1.4890 -0.2052
10932SOL     OW35815   4.896   5.779   0.570  0.7820 -0.3501  0.2786
10932SOL    HW135816   4.972   5.769   0.626  1.7342 -2.2308 -1.3050
10932SOL    HW235817   4.900   5.870   0.540  0.8301  0.3637  2.3851
10933SOL     OW35818   6.684   1.792   7.016 -0.8771 -0.1308 -0.6118
10933SOL    HW135819   6.722   1.880   7.016 -0.9043 -0.1056 -2.3479
10933SOL    HW235820   6.723   1.749   6.940 -0.5009 -1.7912  0.4894
10934SOL     OW35821   6.720   8.939   6.181 -0.0385  0.1892  0.6178
10934SOL    HW135822   6.764   8.856   6.200  2.5269  1.5470  0.9293
10934SOL    HW235823   6.780   9.006   6.215 -1.5633  2.2140 -0.5489
10935SOL     OW35824   0.849   3.881   7.995  0.3264 -0.2260  0.1266
10935SOL    HW135825   0.833   3.842   8.080 -0.6781 -3.3617 -1.4128
10935SOL    HW235826   0.942   3.867   7.979  0.8684  1.8199  1.3656
10936SOL     OW35827   4.561   2.562   0.525  0.4587  0.5935  0.0447
10936SOL    HW135828   4.472   2.579   0.555  0.6456  1.5995  0.0578
10936SOL    HW235829   4.603   2.519   0.599  0.2402  0.9513  0.3820
10937SOL     OW35830   8.028   1.716   2.374 -0.4798  0.5867 -0.7000
10937SOL    HW135831   8.018   1.668   2.456 -1.3331 -0.3363 -1.3376
10937SOL    HW235832   8.121   1.707   2.352 -0.5226 -0.2701 -0.5163
10938SOL     OW35833   4.512   7.978   3.630 -0.2558  0.5532 -0.1185
10938SOL    HW135834   4.499   8.047   3.565 -2.1259  0.1462 -0.1918
10938SOL    HW235835   4.516   7.898   3.578 -2.4227  0.1564  0.3144
10939SOL     OW35836   0.639   5.327   0.770  0.1808  0.1254 -0.4208
10939SOL    HW135837   0.734   5.328   0.759  0.3056  1.4241  0.5580
10939SOL    HW235838   0.612   5.414   0.740 -0.5722  0.1116  0.2141
10940SOL     OW35839   7.762   6.365   6.810  0.4541 -0.0445 -0.4502
10940SOL    HW135840   7.818   6.348   6.886  0.3935  0.1705 -0.3581
10940SOL    HW235841   7.789   6.451   6.778 -0.6165  0.5850  0.3000
10941SOL     OW35842   4.527   4.891   8.756  0.1710  0.1622 -0.2514
10941SOL    HW135843   4.486   4.854   8.678 -0.1181 -0.3217  0.1282
10941SOL    HW235844   4.546   4.816   8.812  0.2156  0.5210  0.2258
10942SOL     OW35845   2.497   4.509   3.319  0.1502  0.6127  0.4137
10942SOL    HW135846   2.425   4.556   3.277  0.1261  0.2538  0.0528
10942SOL    HW235847   2.453   4.442   3.372  0.2269  0.2145 -0.0247
10943SOL     OW35848   5.849   3.247   1.258 -0.1862  0.0097  0.1039
10943SOL    HW135849   5.892   3.277   1.338 -0.5116  1.4968 -0.2557
10943SOL    HW235850   5.920   3.215   1.203  0.1512 -0.1035  0.6057
10944SOL     OW35851   8.898   6.685   2.576 -0.0007  1.0746 -0.0464
10944SOL    HW135852   8.874   6.674   2.668  1.0900  0.1681  0.1316
10944SOL    HW235853   8.856   6.611   2.532  0.8035  0.6185 -0.0406
10945SOL     OW35854   2.317   8.370   7.786  0.5379  0.6126 -0.4181
10945SOL    HW135855   2.284   8.398   7.700 -0.4347  0.5473 -0.0792
10945SOL    HW235856   2.240   8.374   7.843  1.0462  0.0843  0.3148
10946SOL     OW35857   6.270   9.010   0.294  0.1540  0.7302 -0.1284
10946SOL    HW135858   6.333   8.942   0.270 -0.2012  0.6574 -0.8330
10946SOL    HW235859   6.185   8.968   0.287  0.0250  0.7992  0.9444
10947SOL     OW35860   1.843   0.755   8.379  0.3089 -0.0123  0.4365
10947SOL    HW135861   1.750   0.773   8.393  0.7094  1.6520  1.1329
10947SOL    HW235862   1.865   0.690   8.445  0.2233  1.5440  2.0455
10948SOL     OW35863   6.920   8.933   3.240  0.2416 -0.1818 -0.1813
10948SOL    HW135864   7.007   8.948   3.276  0.8650 -0.6522 -1.4320
10948SOL    HW235865   6.883   9.020   3.226  1.0859  0.0590 -0.9695
10949SOL     OW35866   0.146   8.034   3.161 -0.7304  1.2244 -0.2154
10949SOL    HW135867   0.230   8.052   3.203  0.3688  1.9875 -2.6250
10949SOL    HW235868   0.160   7.949   3.118 -1.7740  0.5407  0.7706
10950SOL     OW35869   9.162   7.297   3.649 -0.1688  0.2153 -0.1489
10950SOL    HW135870   9.086   7.338   3.608 -0.9798 -2.1752 -1.1487
10950SOL    HW235871   9.215   7.265   3.575  0.0737 -1.1468  0.5985
10951SOL     OW35872   0.079   8.974   0.717 -0.0064 -0.0407 -0.9884
10951SOL    HW135873   0.018   9.039   0.682 -0.4505 -0.2036 -0.5148
10951SOL    HW235874   0.083   8.992   0.811  1.9189  1.0060 -1.2434
10952SOL     OW35875   4.607   4.778   1.658 -0.1295 -0.1599 -0.5581
10952SOL    HW135876   4.596   4.872   1.642 -0.2370  0.1308  1.1214
10952SOL    HW235877   4.663   4.748   1.586  0.5147  1.3438 -0.7049
10953SOL     OW35878   8.451   4.333   4.638  0.2805  0.0692  0.0044
10953SOL    HW135879   8.504   4.413   4.637  0.3499  0.0103 -2.0311
10953SOL    HW235880   8.361   4.364   4.633  0.2860  0.0300 -0.3133
10954SOL     OW35881   1.498   1.075   3.377  0.4526  0.0010  0.3347
10954SOL    HW135882   1.518   1.157   3.422 -0.3144  0.9065 -0.9417
10954SOL    HW235883   1.408   1.054   3.403  0.7800 -0.6439  0.9623
10955SOL     OW35884   1.981   5.596   6.556 -0.2185  0.1305 -0.3011
10955SOL    HW135885   2.059   5.554   6.521  0.5504  0.8033  0.6069
10955SOL    HW235886   1.931   5.524   6.597 -0.7746 -0.5347 -2.1038
10956SOL     OW35887   6.440   2.733   1.774 -0.4039 -0.2918  0.5013
10956SOL    HW135888   6.471   2.721   1.684 -1.8734 -1.1323  0.1097
10956SOL    HW235889   6.507   2.690   1.828  1.0797  1.2073 -0.0917
10957SOL     OW35890   8.426   4.670   3.063  0.1283  0.3117  0.2106
10957SOL    HW135891   8.391   4.674   3.152  0.7109 -0.7025  0.4877
10957SOL    HW235892   8.412   4.580   3.035  1.3210  0.2316 -0.1598
10958SOL     OW35893   1.343   0.488   0.093 -0.1766 -0.1331  0.4258
10958SOL    HW135894   1.360   0.582   0.102 -0.8973 -0.0029  0.4765
10958SOL    HW235895   1.282   0.482   0.019 -1.6039 -0.3924  1.6118
10959SOL     OW35896   7.440   8.600   1.144  0.0033 -0.2166 -0.2908
10959SOL    HW135897   7.513   8.542   1.125 -0.3855 -0.8524  0.1684
10959SOL    HW235898   7.366   8.564   1.094 -0.0715  0.2710 -0.5428
10960SOL     OW35899   3.474   5.924   0.175  0.0980 -0.1221  0.5704
10960SOL    HW135900   3.542   5.860   0.155  0.2817  0.5861 -1.1537
10960SOL    HW235901   3.504   5.965   0.256  0.9860 -0.8487  0.6224
10961SOL     OW35902   4.517   5.002   0.705  0.5688 -0.4476 -0.1601
10961SOL    HW135903   4.576   5.075   0.688 -0.2146  0.8486  2.4990
10961SOL    HW235904   4.444   5.015   0.645  1.0713  0.1784 -0.6369
10962SOL     OW35905   2.533   8.008   2.205 -0.3219  0.1787 -0.1672
10962SOL    HW135906   2.584   7.937   2.164  1.5335  0.8325  0.9502
10962SOL    HW235907   2.511   8.066   2.133 -0.1144 -0.4919 -0.7777
10963SOL     OW35908   4.193   9.154   6.027  0.3327  0.2075  0.1473
10963SOL    HW135909   4.098   9.146   6.039  0.3226  1.1942  0.7087
10963SOL    HW235910   4.216   9.077   5.974 -0.6048 -0.6465  0.9488
10964SOL     OW35911   5.627   4.539   2.162  0.2095  0.0224 -0.1046
10964SOL    HW135912   5.665   4.589   2.090 -0.6090 -0.1111 -0.6397
10964SOL    HW235913   5.682   4.461   2.168 -0.6803 -0.7547 -1.6819
10965SOL     OW35914   3.626   3.975   7.381  0.2506  0.3559  0.0008
10965SOL    HW135915   3.646   3.917   7.454  2.2187 -1.1831 -1.6753
10965SOL    HW235916   3.705   3.972   7.326 -1.0610  1.6540 -2.0426
10966SOL     OW35917   6.354   2.595   4.868  0.2494  0.5072  0.6689
10966SOL    HW135918   6.395   2.544   4.799  1.2707  1.1398  0.8042
10966SOL    HW235919   6.419   2.661   4.892  0.3217 -0.3289  2.9357
10967SOL     OW35920   2.887   7.609   0.997 -0.5350  0.0290 -0.4199
10967SOL    HW135921   2.920   7.590   0.909 -1.7309 -0.9853 -0.6646
10967SOL    HW235922   2.814   7.670   0.984 -1.9460 -1.5966 -0.3123
10968SOL     OW35923   6.087   4.997   3.340 -0.0643 -1.1532 -0.4404
10968SOL    HW135924   6.093   4.949   3.423 -1.2577 -1.1188 -0.3218
10968SOL    HW235925   6.175   5.033   3.327  0.2405 -1.4867  0.6128
10969SOL     OW35926   5.721   0.990   1.747 -0.0116 -0.3056  0.3218
10969SOL    HW135927   5.635   1.020   1.717  1.9900  3.0778 -2.3986
10969SOL    HW235928   5.738   1.040   1.826  0.7362  1.4462 -0.8995
10970SOL     OW35929   3.855   6.052   0.544  0.5436  0.2901  0.1083
10970SOL    HW135930   3.768   6.092   0.545  0.5521  0.2816  1.0140
10970SOL    HW235931   3.850   5.985   0.476  0.0510  0.7527 -0.3133
10971SOL     OW35932   2.429   7.734   1.362  0.5073 -0.5099 -0.4124
10971SOL    HW135933   2.478   7.674   1.418 -0.7194 -1.2445 -0.1164
10971SOL    HW235934   2.346   7.690   1.346 -0.2108  0.8785 -0.6044
10972SOL     OW35935   1.943   2.606   7.483  0.3312 -0.0307  0.3259
10972SOL    HW135936   1.961   2.656   7.403 -1.4205 -1.0946 -0.7625
10972SOL    HW235937   2.015   2.543   7.488  0.3611 -0.0741 -0.5151
10973SOL     OW35938   4.422   3.913   4.290  0.1036  0.1589  0.2477
10973SOL    HW135939   4.502   3.932   4.338  1.0869  0.4344 -1.4595
10973SOL    HW235940   4.377   3.997   4.284 -0.8018 -0.1642  2.0051
10974SOL     OW35941   4.706   2.489   3.723 -0.0379  0.1033  0.1740
10974SOL    HW135942   4.711   2.447   3.809  0.7829 -0.5421 -0.1711
10974SOL    HW235943   4.627   2.453   3.683 -0.3992  0.3749  0.6444
10975SOL     OW35944   1.860   0.435   3.064 -0.4375  0.1709  0.2884
10975SOL    HW135945   1.817   0.517   3.089  0.9313  0.5552  1.4310
10975SOL    HW235946   1.931   0.462   3.006  0.6976 -0.0996  1.5395
10976SOL     OW35947   9.081   4.448   5.661  0.2554  0.2759 -0.5415
10976SOL    HW135948   9.122   4.431   5.746  1.0723 -1.1061 -1.1897
10976SOL    HW235949   9.108   4.536   5.638  0.7861  0.3111  0.2079
10977SOL     OW35950   8.606   5.363   6.576  0.0301  0.3324 -0.4178
10977SOL    HW135951   8.594   5.433   6.511 -1.0485 -0.2930 -0.9080
10977SOL    HW235952   8.533   5.374   6.637 -1.6535 -1.9310 -1.9554
10978SOL     OW35953   5.486   8.939   4.555 -0.0218 -0.4331  0.1479
10978SOL    HW135954   5.560   9.000   4.555  1.1526 -1.8181 -0.2385
10978SOL    HW235955   5.475   8.914   4.646 -2.2943  2.4048  0.7420
10979SOL     OW35956   6.789   1.963   2.638  0.0954 -0.4646  0.7080
10979SOL    HW135957   6.841   1.951   2.717 -1.4321 -0.0364  1.7865
10979SOL    HW235958   6.774   1.874   2.605  0.4762 -0.6620  1.0660
10980SOL     OW35959   4.293   7.493   6.014  0.2340 -0.1197  0.4433
10980SOL    HW135960   4.264   7.570   6.062 -1.2016 -0.6483  0.4568
10980SOL    HW235961   4.321   7.526   5.929 -1.7227  0.2792 -0.0818
10981SOL     OW35962   0.120   7.664   1.231  1.2649  0.2985  0.6909
10981SOL    HW135963   0.046   7.724   1.220  1.7466  0.8868  0.6020
10981SOL    HW235964   0.086   7.579   1.206  1.5519  1.1221 -2.6760
10982SOL     OW35965   4.537   3.398   4.804 -0.0219  0.2379 -0.1320
10982SOL    HW135966   4.518   3.330   4.739 -1.4533  0.1366  0.3911
10982SOL    HW235967   4.488   3.474   4.775  1.4617  1.0338 -0.6295
10983SOL     OW35968   1.064   1.332   5.408  0.1320  0.3863 -0.0817
10983SOL    HW135969   1.100   1.249   5.439  0.8953  0.1311 -1.5981
10983SOL    HW235970   1.012   1.308   5.331  1.8690  1.5246 -1.6283
10984SOL     OW35971   7.362   3.850   8.943  0.2033 -0.0017 -0.1410
10984SOL    HW135972   7.342   3.931   8.897 -1.2343 -0.5014 -0.4174
10984SOL    HW235973   7.278   3.806   8.952  1.2936 -2.6625 -2.2772
10985SOL     OW35974   8.741   7.000   0.040 -0.0520 -0.2349 -0.6592
10985SOL    HW135975   8.782   7.052   0.109  0.5448  0.1894 -1.3211
10985SOL    HW235976   8.648   7.021   0.047  0.1931  1.0430 -0.9895
10986SOL     OW35977   2.877   8.358   6.600  0.1353  0.0676 -0.3225
10986SOL    HW135978   2.920   8.401   6.674  0.0903 -0.1604 -0.1669
10986SOL    HW235979   2.848   8.431   6.545 -0.0148  0.2411 -0.0154
10987SOL     OW35980   2.355   7.543   1.716 -0.3289  0.2326 -0.1757
10987SOL    HW135981   2.347   7.455   1.753  2.6775  0.6193  1.5518
10987SOL    HW235982   2.327   7.533   1.625  0.3343 -2.6276 -0.1373
10988SOL     OW35983   8.792   1.174   2.351 -0.9293  0.3034  0.5708
10988SOL    HW135984   8.798   1.091   2.398 -0.6004 -0.6638 -1.1247
10988SOL    HW235985   8.781   1.149   2.259 -0.8189  2.1394  0.0301
10989SOL     OW35986   6.091   0.085   5.754  0.3845  0.1235 -0.0112
10989SOL    HW135987   6.044   0.100   5.836  1.1610  1.4168  0.2206
10989SOL    HW235988   6.138   0.167   5.739 -0.9339  0.4654 -2.5380
10990SOL     OW35989   1.647   4.894   1.798 -0.3091 -0.1422  0.3065
10990SOL    HW135990   1.574   4.931   1.848 -0.1478 -0.0138  0.4457
10990SOL    HW235991   1.721   4.895   1.858  0.1334  0.9357 -0.2375
10991SOL     OW35992   6.083   4.557   8.823 -0.1350  0.4378  0.0622
10991SOL    HW135993   6.126   4.641   8.837 -1.0971  1.0026 -0.3464
10991SOL    HW235994   6.062   4.555   8.730  0.3725 -0.4856 -0.0347
10992SOL     OW35995   1.496   4.188   8.482  0.2854 -0.3589  0.3763
10992SOL    HW135996   1.486   4.246   8.558 -1.9245 -0.5801  0.2961
10992SOL    HW235997   1.532   4.107   8.518  0.4040 -0.0366  0.9872
10993SOL     OW35998   3.387   3.368   3.289 -0.8023  0.3463 -0.2933
10993SOL    HW135999   3.292   3.369   3.289 -0.8835 -2.6959 -0.0824
10993SOL    HW236000   3.411   3.348   3.379 -0.0665 -1.5362 -0.8814
10994SOL     OW36001   9.435   9.305   4.727 -0.3017 -0.2696  0.1523
10994SOL    HW136002   9.503   9.266   4.783 -0.0001  0.6498  0.4345
10994SOL    HW236003   9.357   9.253   4.745  0.1793 -0.9699  0.2600
10995SOL     OW36004   2.380   2.956   3.042  0.2261 -0.3404  0.9097
10995SOL    HW136005   2.428   2.883   3.081  0.3058 -0.5201  0.4859
10995SOL    HW236006   2.329   2.915   2.972  0.6966  0.0903  0.3069
10996SOL     OW36007   0.140   9.046   3.092 -0.2044  0.1013 -0.1866
10996SOL    HW136008   0.208   9.112   3.079 -0.6237  0.4470 -0.6855
10996SOL    HW236009   0.058   9.096   3.085 -0.4965 -0.0680  1.6898
10997SOL     OW36010   4.511   9.017   2.452  0.1437 -0.2709 -0.0438
10997SOL    HW136011   4.511   9.088   2.389 -0.2146  0.2906  0.5871
10997SOL    HW236012   4.465   9.052   2.528 -0.3674 -1.2948  0.1296
10998SOL     OW36013   0.154   3.478   8.846  0.3257  0.0124 -0.1274
10998SOL    HW136014   0.147   3.565   8.884  0.0559 -0.4912  1.0047
10998SOL    HW236015   0.076   3.469   8.791 -0.6356 -0.2215  1.2522
10999SOL     OW36016   8.889   2.710   7.281  0.0456  0.0715  0.0126
10999SOL    HW136017   8.981   2.704   7.258  0.8298  0.1439  2.9992
10999SOL    HW236018   8.866   2.624   7.316 -1.0029  0.0853 -0.5988
11000SOL     OW36019   7.498   6.044   6.598  0.1078 -0.2810 -0.3776
11000SOL    HW136020   7.426   6.081   6.649  0.8443 -0.2680  0.6762
11000SOL    HW236021   7.525   5.967   6.647  1.3541  0.1878 -0.3077
11001SOL     OW36022   4.504   4.091   5.471  0.2368  0.3989 -0.1192
11001SOL    HW136023   4.412   4.080   5.493  0.3554  1.9930  1.2657
11001SOL    HW236024   4.504   4.157   5.401  0.2627 -0.4349 -0.9156
11002SOL     OW36025   5.429   3.467   0.855  0.6292  0.0703 -0.3608
11002SOL    HW136026   5.502   3.518   0.889  0.6193 -0.0252 -0.1958
11002SOL    HW236027   5.352   3.505   0.898  0.5519  0.3510 -0.7429
11003SOL     OW36028   8.622   6.015   3.888  0.1061 -0.2283  0.1456
11003SOL    HW136029   8.538   5.979   3.856 -1.4232  2.2363  1.2886
11003SOL    HW236030   8.679   5.938   3.895 -2.0387 -1.9621 -0.6579
11004SOL     OW36031   0.630   5.952   0.031 -0.4274  0.4537  0.3000
11004SOL    HW136032   0.725   5.952   0.019 -0.3375 -1.1915  0.8345
11004SOL    HW236033   0.618   5.950   0.126 -0.9609 -1.2120  0.2191
11005SOL     OW36034   0.840   6.778   6.991  0.1696 -0.1144  0.0864
11005SOL    HW136035   0.807   6.855   7.038 -1.1733 -1.0531  0.7397
11005SOL    HW236036   0.791   6.778   6.909  0.4153 -0.0846 -0.0585
11006SOL     OW36037   2.541   0.716   6.883 -0.0693 -0.1741 -0.9111
11006SOL    HW136038   2.456   0.761   6.880 -0.8385 -1.6237 -1.8681
11006SOL    HW236039   2.548   0.684   6.973 -1.0878 -1.0100 -1.1077
11007SOL     OW36040   7.333   5.998   3.953 -0.7531 -0.3263 -0.0279
11007SOL    HW136041   7.282   6.076   3.976 -0.8840 -0.8026  1.3128
11007SOL    HW236042   7.414   6.033   3.915 -1.6196  0.4366 -1.2040
11008SOL     OW36043   3.899   7.617   3.167 -0.5055 -0.2047  0.1560
11008SOL    HW136044   3.984   7.579   3.189 -0.3216  0.5204  0.7172
11008SOL    HW236045   3.841   7.589   3.237 -0.2547  0.9342  0.8350
11009SOL     OW36046   7.039   7.136   3.225  0.3268 -0.3423  0.2573
11009SOL    HW136047   6.998   7.051   3.241 -2.1863  1.2086  2.3105
11009SOL    HW236048   6.997   7.169   3.145  0.6161 -0.5968 -0.0016
11010SOL     OW36049   4.412   6.813   1.835  0.3569  0.2076 -0.6096
11010SOL    HW136050   4.443   6.894   1.876  0.6540  1.2832 -2.8610
11010SOL    HW236051   4.489   6.756   1.831  0.4841  0.3588 -0.3017
11011SOL     OW36052   7.088   0.681   3.680  0.1712 -0.5365 -0.0252
11011SOL    HW136053   7.106   0.626   3.756 -1.5310  0.0223  0.8179
11011SOL    HW236054   7.151   0.753   3.687 -0.0014 -0.4707  0.8801
11012SOL     OW36055   5.566   2.655   0.714 -0.3271 -0.0642  0.3679
11012SOL    HW136056   5.608   2.666   0.629 -2.1493 -2.0333 -0.8634
11012SOL    HW236057   5.511   2.732   0.724  0.7902  0.7495  0.3171
11013SOL     OW36058   1.193   4.400   0.066 -0.1135 -0.5165 -0.2267
11013SOL    HW136059   1.115   4.354   0.034 -0.1059 -1.0479  0.5081
11013SOL    HW236060   1.166   4.492   0.073 -0.0711 -0.3608 -1.8967
11014SOL     OW36061   5.823   3.104   5.697 -0.5962  0.0960 -0.4114
11014SOL    HW136062   5.917   3.102   5.715 -0.8527  1.5957  1.3107
11014SOL    HW236063   5.785   3.045   5.762 -0.7173 -1.8183 -2.1833
11015SOL     OW36064   3.389   2.608   5.844  0.1171 -0.2684  0.4986
11015SOL    HW136065   3.465   2.659   5.872  1.8120 -1.3888 -1.8245
11015SOL    HW236066   3.364   2.647   5.760 -0.8523 -0.9376  0.4680
11016SOL     OW36067   2.488   8.190   6.334 -0.0961 -0.1696 -0.3199
11016SOL    HW136068   2.527   8.188   6.421  0.7732  0.5978 -0.6861
11016SOL    HW236069   2.561   8.204   6.274 -0.9669  1.9004 -0.9653
11017SOL     OW36070   6.176   4.836   8.824  0.1410 -0.2971  0.3056
11017SOL    HW136071   6.244   4.900   8.847  0.4683 -0.6888  0.4240
11017SOL    HW236072   6.123   4.829   8.904  0.2793 -0.3913  0.3892
11018SOL     OW36073   2.155   3.201   3.676 -0.4011 -0.1399 -0.3413
11018SOL    HW136074   2.209   3.279   3.694 -0.3879 -0.2369  0.0426
11018SOL    HW236075   2.217   3.136   3.644 -0.3341 -0.1690 -0.1469
11019SOL     OW36076   9.071   6.235   5.540 -0.6761 -0.3251  1.1570
11019SOL    HW136077   9.035   6.215   5.453  0.9380 -0.4511  0.4979
11019SOL    HW236078   9.103   6.324   5.533 -0.0295 -0.5310  1.4450
11020SOL     OW36079   3.632   6.489   5.193 -0.6990  0.3520  0.1311
11020SOL    HW136080   3.566   6.539   5.241  0.1388  3.1407 -1.5741
11020SOL    HW236081   3.671   6.432   5.259 -2.9166  0.6160  1.7237
11021SOL     OW36082   9.170   3.252   3.764  0.0501 -0.3494  0.2464
11021SOL    HW136083   9.248   3.197   3.768  0.0471 -0.2821  1.6025
11021SOL    HW236084   9.197   3.336   3.801 -0.7102 -0.3945  0.9269
11022SOL     OW36085   5.756   2.227   8.415  0.2850  0.7801  0.1619
11022SOL    HW136086   5.747   2.271   8.331 -0.9977  1.2072  0.5143
11022SOL    HW236087   5.776   2.136   8.393 -0.9765  0.6812 -0.6181
11023SOL     OW36088   0.274   1.142   1.675 -0.0936 -0.0456 -0.0687
11023SOL    HW136089   0.221   1.146   1.595 -0.7037  1.1456  0.3772
11023SOL    HW236090   0.248   1.060   1.717  0.5106 -0.8703 -1.2742
11024SOL     OW36091   0.737   9.240   1.939 -0.2177  0.1644 -0.0032
11024SOL    HW136092   0.726   9.289   2.020 -1.5856  1.1434 -0.7805
11024SOL    HW236093   0.659   9.259   1.888  0.5142 -0.6592 -1.4567
11025SOL     OW36094   2.201   6.042   5.661  0.1905 -0.0056  0.1561
11025SOL    HW136095   2.229   6.055   5.751  0.9975  1.8622 -0.3483
11025SOL    HW236096   2.106   6.054   5.664  0.3857  1.6084  0.5151
11026SOL     OW36097   4.406   0.553   3.124  0.3924  0.3802 -0.1831
11026SOL    HW136098   4.314   0.561   3.151  0.5330 -0.0367  0.4250
11026SOL    HW236099   4.455   0.548   3.206  0.8573 -0.5079 -0.5100
11027SOL     OW36100   6.064   9.269   8.955 -0.6385 -0.4666  0.3101
11027SOL    HW136101   5.970   9.254   8.967 -0.3130 -1.5065  1.6915
11027SOL    HW236102   6.102   9.254   9.042  0.7197  0.6405 -0.0828
11028SOL     OW36103   5.165   2.683   8.696  1.2168 -0.5874 -0.2599
11028SOL    HW136104   5.233   2.615   8.693  1.5302 -0.2838 -0.1730
11028SOL    HW236105   5.131   2.687   8.607  1.5656 -0.4884 -0.3880
11029SOL     OW36106   6.472   0.492   8.136  1.0520 -0.1735 -0.1958
11029SOL    HW136107   6.504   0.582   8.127  1.3824 -0.3427 -0.7032
11029SOL    HW236108   6.429   0.491   8.221 -0.2109  0.8548 -0.7999
11030SOL     OW36109   3.607   0.504   3.108  0.6458  0.0854 -0.0515
11030SOL    HW136110   3.684   0.533   3.058  0.8410  0.8007  0.6498
11030SOL    HW236111   3.558   0.449   3.047  1.3396  0.2193 -0.7403
11031SOL     OW36112   7.184   3.982   7.599 -0.0878 -0.2924  0.3074
11031SOL    HW136113   7.140   3.926   7.663  2.9398 -1.8604  1.1086
11031SOL    HW236114   7.144   3.958   7.516 -1.4042 -1.0013  1.1121
11032SOL     OW36115   8.175   3.625   5.154 -0.0521 -0.0039 -0.5257
11032SOL    HW136116   8.080   3.635   5.151  0.0884  1.0845 -2.1377
11032SOL    HW236117   8.204   3.682   5.226 -0.5680  0.0867 -0.3914
11033SOL     OW36118   6.466   3.345   9.146  0.1080  0.4816 -0.1318
11033SOL    HW136119   6.402   3.416   9.151 -0.1090  0.3247 -0.5443
11033SOL    HW236120   6.551   3.387   9.156 -0.0229  0.7943 -0.3167
11034SOL     OW36121   1.412   4.739   7.345  0.4036 -0.0369 -0.0773
11034SOL    HW136122   1.397   4.803   7.276 -0.2701 -1.6115 -1.4073
11034SOL    HW236123   1.434   4.658   7.299  1.0669 -0.8273  1.5828
11035SOL     OW36124   8.315   0.705   7.219  0.0823  0.0139  0.0493
11035SOL    HW136125   8.379   0.658   7.272  0.4243  0.3571 -0.0610
11035SOL    HW236126   8.360   0.723   7.137 -0.2977 -0.1156 -0.1858
11036SOL     OW36127   8.446   0.627   4.841  0.4847  0.1697 -0.0848
11036SOL    HW136128   8.470   0.630   4.749  0.0364  1.4658 -0.1671
11036SOL    HW236129   8.524   0.654   4.888 -0.1840  2.5005 -0.2548
11037SOL     OW36130   0.461   4.949   4.899 -0.0271 -0.1555 -0.5605
11037SOL    HW136131   0.522   5.022   4.891 -0.9835  0.8733  1.3847
11037SOL    HW236132   0.502   4.890   4.962 -1.0322  0.5559  0.7770
11038SOL     OW36133   6.723   7.399   6.499 -0.1473 -0.1792  0.4129
11038SOL    HW136134   6.795   7.461   6.506 -0.0826 -0.3121  0.9315
11038SOL    HW236135   6.725   7.370   6.408  0.8152 -0.6087  0.5688
11039SOL     OW36136   1.895   1.855   2.346 -0.8636  0.1874 -0.4202
11039SOL    HW136137   1.867   1.875   2.256 -1.0358  0.2037 -0.3637
11039SOL    HW236138   1.842   1.913   2.401 -1.9139 -0.9558 -0.2095
11040SOL     OW36139   4.893   9.282   6.770  0.1403  0.4274 -0.3156
11040SOL    HW136140   4.987   9.282   6.789  0.1367  1.8855 -0.2470
11040SOL    HW236141   4.887   9.245   6.682  0.7705  0.2603 -0.2933
11041SOL     OW36142   0.559   3.594   0.124  0.3968  0.1458 -0.0006
11041SOL    HW136143   0.651   3.590   0.147  0.5703 -1.4165 -0.9514
11041SOL    HW236144   0.513   3.600   0.209  1.1949 -2.3508  0.6349
11042SOL     OW36145   7.196   5.915   3.638 -0.0791 -0.0341  0.1376
11042SOL    HW136146   7.274   5.880   3.596 -0.5745 -1.0208  0.0272
11042SOL    HW236147   7.209   5.898   3.732  0.7628  1.6547  0.3596
11043SOL     OW36148   5.369   0.265   3.822 -0.1247 -0.1107 -0.1396
11043SOL    HW136149   5.338   0.245   3.734 -1.7382  2.0223 -0.0787
11043SOL    HW236150   5.339   0.192   3.876  1.2130 -1.6247 -1.4058
11044SOL     OW36151   2.541   1.570   0.430 -0.2028  0.2957  0.1188
11044SOL    HW136152   2.614   1.527   0.385  0.4705  1.6349 -0.0750
11044SOL    HW236153   2.477   1.499   0.443  0.3971 -0.5328 -1.2328
11045SOL     OW36154   1.270   7.670   2.321  0.4535 -0.1576 -0.2450
11045SOL    HW136155   1.275   7.582   2.360 -0.8407 -0.0504  0.2199
11045SOL    HW236156   1.204   7.715   2.375  0.6646  0.8920 -0.8655
11046SOL     OW36157   4.912   7.041   4.899  0.1687 -0.1869 -0.1350
11046SOL    HW136158   4.859   6.965   4.875 -1.1400  0.5510  0.3499
11046SOL    HW236159   4.953   7.016   4.982  2.1343 -1.5026 -1.4784
11047SOL     OW36160   4.985   5.183   1.730 -0.0509 -0.3346 -0.8923
11047SOL    HW136161   5.018   5.248   1.792 -0.5019  0.3277 -1.3303
11047SOL    HW236162   5.054   5.118   1.724  0.8902  0.6842 -1.2882
11048SOL     OW36163   0.496   0.501   1.559  0.1889  0.2020 -0.5577
11048SOL    HW136164   0.507   0.413   1.523  1.9995  0.4808 -0.7243
11048SOL    HW236165   0.481   0.557   1.483  1.2538  0.3686 -0.6506
11049SOL     OW36166   6.062   9.357   4.415  0.1963  0.3431  0.0783
11049SOL    HW136167   6.022   9.442   4.399 -0.1634  0.0515 -0.5688
11049SOL    HW236168   6.126   9.347   4.344  0.7689  0.4006  0.5811
11050SOL     OW36169   6.552   8.683   1.836 -0.2447  0.3107 -0.2812
11050SOL    HW136170   6.613   8.611   1.818  0.7019  0.7021  1.2566
11050SOL    HW236171   6.503   8.653   1.913  0.6946  1.6155  0.8457
11051SOL     OW36172   6.426   3.682   0.116 -0.0341  0.3027 -0.2640
11051SOL    HW136173   6.379   3.765   0.106  1.0262  0.9798  0.3070
11051SOL    HW236174   6.398   3.649   0.201 -0.3678  0.1213 -0.4411
11052SOL     OW36175   2.616   1.406   5.688  0.6238 -0.7347  1.2331
11052SOL    HW136176   2.575   1.320   5.698  1.6762 -1.3797  0.2196
11052SOL    HW236177   2.709   1.389   5.705  0.7028  0.3818  1.9097
11053SOL     OW36178   2.251   4.233   2.960  0.6042 -0.4762  0.0918
11053SOL    HW136179   2.310   4.307   2.942 -0.0624  0.1152  0.3206
11053SOL    HW236180   2.294   4.158   2.918  1.9628 -0.2315  0.9929
11054SOL     OW36181   2.440   0.363   5.888  0.5483  0.1809  0.5433
11054SOL    HW136182   2.377   0.388   5.821 -1.7927  1.5872  3.1390
11054SOL    HW236183   2.460   0.271   5.870 -0.4944  0.3660 -1.6749
11055SOL     OW36184   2.807   8.473   8.025  0.0603  0.4963 -0.1255
11055SOL    HW136185   2.780   8.538   8.090 -1.6529 -3.3730  3.2447
11055SOL    HW236186   2.725   8.435   7.994  1.0526 -0.4391 -1.6660
11056SOL     OW36187   4.780   8.609   7.580 -0.2818 -0.0228  0.1885
11056SOL    HW136188   4.778   8.704   7.585 -0.0581  0.0200 -0.5203
11056SOL    HW236189   4.837   8.590   7.506  1.4539 -0.7569  1.6712
11057SOL     OW36190   4.930   4.070   4.467 -0.1105 -0.0989  0.4607
11057SOL    HW136191   4.914   4.000   4.530  0.0449 -0.0074  0.6005
11057SOL    HW236192   5.011   4.112   4.496  0.1519 -0.2855 -0.0075
11058SOL     OW36193   5.919   7.807   3.776 -0.0763 -0.7810  0.1688
11058SOL    HW136194   5.975   7.735   3.750 -0.2016  0.0199 -2.4682
11058SOL    HW236195   5.836   7.791   3.731 -0.9841 -0.3353  1.6185
11059SOL     OW36196   3.488   5.735   5.757 -0.4635 -0.1596 -0.3797
11059SOL    HW136197   3.483   5.642   5.737  2.1727 -1.1720  3.1869
11059SOL    HW236198   3.560   5.768   5.703 -1.5354 -0.0937 -1.8004
11060SOL     OW36199   9.433   2.777   0.045 -0.3029  0.2816 -0.3933
11060SOL    HW136200   9.341   2.791   0.023  0.0593 -0.4767 -2.4670
11060SOL    HW236201   9.480   2.846  -0.002  0.2905 -0.0132 -0.2374
11061SOL     OW36202   5.822   3.141   9.082  0.2702  0.2592  0.5301
11061SOL    HW136203   5.880   3.066   9.092  0.3032  0.3381  0.9302
11061SOL    HW236204   5.872   3.215   9.117 -0.0785  0.3231  0.9052
11062SOL     OW36205   7.450   3.665   2.412  0.2734  0.3889  0.2628
11062SOL    HW136206   7.402   3.583   2.416  1.2058 -0.1420  0.8073
11062SOL    HW236207   7.407   3.715   2.343 -1.2039  0.0327  0.9030
11063SOL     OW36208   3.621   7.615   2.392  0.0860 -0.4404 -0.7214
11063SOL    HW136209   3.675   7.684   2.432 -0.2118  0.3199 -1.6064
11063SOL    HW236210   3.640   7.621   2.298 -1.4981 -0.1777 -1.0468
11064SOL     OW36211   5.055   0.779   0.502 -0.4565 -0.2814 -0.5959
11064SOL    HW136212   5.000   0.857   0.504 -0.9174 -0.6046 -0.7535
11064SOL    HW236213   5.135   0.806   0.548 -1.1571 -0.1390  0.5603
11065SOL     OW36214   6.870   2.776   8.661  0.1435  0.4676 -0.7907
11065SOL    HW136215   6.857   2.766   8.566 -0.3052  0.2596 -0.7072
11065SOL    HW236216   6.952   2.825   8.668  0.1052  0.6110 -1.2928
11066SOL     OW36217   4.055   8.920   0.068 -0.7240 -0.1484  0.5491
11066SOL    HW136218   4.014   8.966  -0.005  2.5333  0.1436 -1.2168
11066SOL    HW236219   4.028   8.829   0.057 -0.5296 -0.0539 -0.8943
11067SOL     OW36220   2.561   2.259   6.528 -0.2831 -0.4868 -0.0097
11067SOL    HW136221   2.650   2.272   6.495 -0.1428  1.0001  0.9264
11067SOL    HW236222   2.564   2.292   6.617 -1.1926 -2.5761  0.8257
11068SOL     OW36223   8.478   7.735   8.433  0.1028 -0.6138  0.1464
11068SOL    HW136224   8.441   7.777   8.511 -0.9212 -1.2729  0.0230
11068SOL    HW236225   8.524   7.658   8.466 -2.1586 -2.0880 -0.1045
11069SOL     OW36226   3.938   4.452   1.671 -0.4642 -0.3484  0.4417
11069SOL    HW136227   4.004   4.521   1.679  0.3170 -1.3709  3.4932
11069SOL    HW236228   3.989   4.371   1.663 -1.3329 -1.0033  1.3836
11070SOL     OW36229   8.286   3.210   2.322 -0.2427  0.0700 -0.1976
11070SOL    HW136230   8.257   3.118   2.319  0.9469 -0.3014 -0.3783
11070SOL    HW236231   8.249   3.243   2.404 -0.1924 -0.7307  0.1585
11071SOL     OW36232   3.482   3.389   7.739 -0.1646 -0.5803  0.1933
11071SOL    HW136233   3.426   3.369   7.664  0.2985 -0.6803 -0.1324
11071SOL    HW236234   3.439   3.462   7.783 -0.8970 -1.0880  0.3268
11072SOL     OW36235   1.019   8.083   3.553  0.4548 -0.2675 -0.1036
11072SOL    HW136236   0.978   8.162   3.517 -0.3563 -1.1170 -1.0834
11072SOL    HW236237   0.974   8.068   3.636  0.3276  0.0602 -0.1128
11073SOL     OW36238   3.557   3.079   9.258 -0.4400 -0.7823  0.7389
11073SOL    HW136239   3.646   3.104   9.236 -1.1079 -0.1917 -1.3703
11073SOL    HW236240   3.561   2.984   9.269  0.1721 -0.9399 -0.7626
11074SOL     OW36241   3.853   5.941   5.964 -0.7211  0.2740  0.1940
11074SOL    HW136242   3.872   5.877   5.894 -1.2782  2.0535 -1.6307
11074SOL    HW236243   3.764   5.919   5.992 -0.6990 -0.1104 -0.0275
11075SOL     OW36244   8.187   6.258   8.221 -0.0787  0.3017 -0.1575
11075SOL    HW136245   8.151   6.178   8.258  0.7206  0.1416  0.2786
11075SOL    HW236246   8.281   6.249   8.231 -0.0610  2.1627  1.6926
11076SOL     OW36247   8.511   0.061   6.674  0.0195 -0.3752  0.5663
11076SOL    HW136248   8.475   0.054   6.585 -0.3741  0.1325  0.6852
11076SOL    HW236249   8.605   0.075   6.661  0.1824 -1.6737  0.2509
11077SOL     OW36250   5.744   5.084   4.421 -0.5503  0.5908  0.4247
11077SOL    HW136251   5.783   5.163   4.384  0.6357 -0.4896 -0.6650
11077SOL    HW236252   5.776   5.082   4.511  1.2202  0.2027 -0.1888
11078SOL     OW36253   7.686   1.964   0.296  0.0156  0.8365 -0.2488
11078SOL    HW136254   7.653   1.989   0.382  0.2728  0.1265  0.0597
11078SOL    HW236255   7.636   2.018   0.235 -2.4451 -0.9378  0.1489
11079SOL     OW36256   5.698   5.299   1.206 -0.2638  0.0731 -0.1852
11079SOL    HW136257   5.718   5.208   1.182 -0.6312  0.0311 -0.3380
11079SOL    HW236258   5.605   5.297   1.228 -0.0025  0.1778  0.9270
11080SOL     OW36259   3.751   4.020   3.386  0.3382 -0.3201 -0.1600
11080SOL    HW136260   3.709   4.100   3.417  1.9379  0.4520  0.0548
11080SOL    HW236261   3.791   3.982   3.464  0.5268 -0.7541 -0.4646
11081SOL     OW36262   3.773   4.593   1.461 -0.2156  0.2159 -0.0400
11081SOL    HW136263   3.821   4.538   1.399  0.5843  0.8116  0.0440
11081SOL    HW236264   3.811   4.571   1.546  0.0530  0.8420  0.0011
11082SOL     OW36265   1.364   1.576   8.295 -0.7887 -0.3239 -0.3780
11082SOL    HW136266   1.351   1.556   8.388 -1.6077 -0.9152 -0.6060
11082SOL    HW236267   1.303   1.647   8.277  0.2065  0.5741 -0.1927
11083SOL     OW36268   6.046   3.419   7.012 -0.5378 -0.2834  0.1799
11083SOL    HW136269   5.984   3.475   6.965 -1.2645 -0.9171  0.3928
11083SOL    HW236270   5.996   3.342   7.036  0.3198 -0.7718  0.4075
11084SOL     OW36271   4.542   0.794   2.102 -0.0871  0.7442 -0.4507
11084SOL    HW136272   4.481   0.806   2.174  0.9046 -1.3431  0.7819
11084SOL    HW236273   4.564   0.701   2.104  2.5478  1.2915 -1.3027
11085SOL     OW36274   5.156   0.325   1.486  0.4198 -0.5974 -0.3066
11085SOL    HW136275   5.079   0.284   1.446  0.2530 -0.4175 -0.1685
11085SOL    HW236276   5.124   0.408   1.521  0.0192 -1.7477  2.2456
11086SOL     OW36277   8.369   6.349   3.906 -0.0821 -0.2355 -0.3663
11086SOL    HW136278   8.406   6.272   3.948  1.7373  1.5150  1.3512
11086SOL    HW236279   8.387   6.337   3.812 -0.1142 -2.0056 -0.1637
11087SOL     OW36280   4.872   0.576   0.052 -0.5759 -0.4470  0.0873
11087SOL    HW136281   4.883   0.591   0.146 -0.4342 -0.5225  0.0825
11087SOL    HW236282   4.865   0.481   0.044 -1.5455 -0.3902  0.1283
11088SOL     OW36283   0.396   0.614   6.808  0.3759  0.1192 -0.0134
11088SOL    HW136284   0.343   0.536   6.825  1.1207 -0.5747 -0.8386
11088SOL    HW236285   0.347   0.685   6.849  0.4351 -0.9919  2.0506
11089SOL     OW36286   8.644   4.877   4.034  0.5973  0.5306 -0.0327
11089SOL    HW136287   8.614   4.944   4.095 -2.9716 -1.4533  0.5611
11089SOL    HW236288   8.714   4.832   4.081 -1.0084  0.0774  2.0163
11090SOL     OW36289   8.646   2.937   6.362  0.2069  0.1930  0.0925
11090SOL    HW136290   8.572   2.932   6.423 -0.8561 -2.3251 -1.3009
11090SOL    HW236291   8.716   2.888   6.406 -0.0623 -0.2918 -0.0073
11091SOL     OW36292   2.014   0.449   7.880  0.0094 -0.2303 -0.4032
11091SOL    HW136293   2.012   0.373   7.939 -0.7416 -0.7891 -1.1276
11091SOL    HW236294   1.943   0.505   7.912  0.1864 -0.1128 -0.2209
11092SOL     OW36295   5.599   2.008   8.694 -0.2661 -0.5063 -0.2527
11092SOL    HW136296   5.544   1.941   8.733 -1.1654  0.4358  0.1216
11092SOL    HW236297   5.553   2.032   8.613 -1.1937  1.3153  0.7800
11093SOL     OW36298   8.465   3.870   8.281  0.1954 -0.8110 -0.4897
11093SOL    HW136299   8.514   3.793   8.308  0.6906 -0.5946 -0.7610
11093SOL    HW236300   8.381   3.836   8.249  0.4054 -1.2310 -0.5916
11094SOL     OW36301   5.426   2.639   4.705  0.2876  0.1677  0.1346
11094SOL    HW136302   5.475   2.557   4.698  0.5859  0.3902 -0.4364
11094SOL    HW236303   5.365   2.625   4.778 -0.5436 -1.0206 -0.7776
11095SOL     OW36304   7.649   2.527   4.464 -0.1438  0.6376  0.0684
11095SOL    HW136305   7.612   2.544   4.551  2.7502  0.2588  1.4339
11095SOL    HW236306   7.724   2.586   4.459  2.7775 -2.9487 -0.0558
11096SOL     OW36307   6.957   7.373   6.314  0.5644 -0.4937 -0.5856
11096SOL    HW136308   6.959   7.332   6.401 -2.2833  1.0621  0.2454
11096SOL    HW236309   7.020   7.445   6.320  0.2502 -0.2855  0.2505
11097SOL     OW36310   1.571   1.580   9.204 -0.4403 -0.4427  0.2000
11097SOL    HW136311   1.566   1.487   9.182  1.1452 -0.7234  0.9726
11097SOL    HW236312   1.569   1.583   9.300  1.4723  0.1630  0.2486
11098SOL     OW36313   9.210   2.941   2.069 -0.0930 -0.0784 -0.5443
11098SOL    HW136314   9.206   2.906   2.158  1.3234 -1.6760 -1.0868
11098SOL    HW236315   9.121   2.972   2.052 -0.3683  0.3354  1.4422
11099SOL     OW36316   1.810   7.170   6.237  0.4205 -0.2708  0.4342
11099SOL    HW136317   1.901   7.197   6.246  0.4087  0.2836 -0.9878
11099SOL    HW236318   1.804   7.131   6.150 -0.9301  0.7216  0.0568
11100SOL     OW36319   4.855   9.371   4.842 -0.2773  0.6671 -0.5286
11100SOL    HW136320   4.864   9.289   4.891 -0.1253  0.7115 -0.4828
11100SOL    HW236321   4.765   9.400   4.860 -0.0112  1.0144  0.2396
11101SOL     OW36322   8.802   5.811   1.985 -0.0571 -0.0961  0.1169
11101SOL    HW136323   8.726   5.869   1.973 -0.3177 -0.4054  0.2691
11101SOL    HW236324   8.789   5.771   2.071 -0.8225 -1.7488 -0.7356
11102SOL     OW36325   4.849   4.184   7.745 -0.1210  0.0171 -0.3520
11102SOL    HW136326   4.941   4.159   7.737  0.8801  3.4446 -0.3216
11102SOL    HW236327   4.829   4.172   7.838  0.2699 -0.7493 -0.3611
11103SOL     OW36328   2.096   8.611   5.778 -0.0678  0.0219  0.2105
11103SOL    HW136329   2.165   8.560   5.821  0.3571  0.5210  0.1196
11103SOL    HW236330   2.016   8.587   5.825 -0.1871 -2.1320 -0.9785
11104SOL     OW36331   8.189   6.909   0.702 -0.2776  0.1147 -0.3877
11104SOL    HW136332   8.163   6.841   0.765  0.1669  2.0607  1.9526
11104SOL    HW236333   8.118   6.972   0.704  0.7590  1.2925 -0.1785
11105SOL     OW36334   8.108   0.700   7.450  0.3204  0.2374  0.0022
11105SOL    HW136335   8.191   0.736   7.480 -1.1920  3.9116 -0.0321
11105SOL    HW236336   8.061   0.679   7.530  0.8620 -0.9302  0.0267
11106SOL     OW36337   7.553   7.479   0.487 -0.0972 -0.3896  0.5624
11106SOL    HW136338   7.495   7.536   0.538  0.2533 -0.7231  1.3437
11106SOL    HW236339   7.504   7.397   0.479 -0.2706 -0.2423  0.1172
11107SOL     OW36340   7.640   8.332   5.120 -0.0380  0.6015  0.8102
11107SOL    HW136341   7.646   8.242   5.151  1.0265  0.1671 -0.5934
11107SOL    HW236342   7.632   8.324   5.025 -1.7959  1.9402  0.8212
11108SOL     OW36343   8.528   1.646   9.061  0.2778  0.2911  0.1712
11108SOL    HW136344   8.573   1.668   9.143  1.3826 -0.0910 -0.3323
11108SOL    HW236345   8.438   1.626   9.088  0.7699 -0.3689  1.3642
11109SOL     OW36346   5.829   4.756   9.252  0.3050 -0.4050  0.2744
11109SOL    HW136347   5.810   4.846   9.224  1.8796  0.2240  1.2115
11109SOL    HW236348   5.755   4.705   9.219 -0.5685  1.2219 -0.3258
11110SOL     OW36349   7.914   7.082   2.611  0.4365  0.1131  1.0174
11110SOL    HW136350   7.833   7.086   2.663  0.3257  3.4844  0.6513
11110SOL    HW236351   7.984   7.098   2.675  0.4861  1.5472  0.6218
11111SOL     OW36352   0.907   5.280   5.317 -0.0865  0.0440 -0.2457
11111SOL    HW136353   0.983   5.275   5.259 -0.1238  1.7758 -0.4725
11111SOL    HW236354   0.898   5.191   5.353  1.9246 -0.2102 -0.3337
11112SOL     OW36355   5.066   1.793   1.144 -0.7602  0.4726  0.7606
11112SOL    HW136356   5.097   1.767   1.231  0.8511  1.3334  0.4700
11112SOL    HW236357   5.138   1.770   1.085 -1.5240  0.6123 -0.2450
11113SOL     OW36358   3.933   0.771   3.767  0.1672 -0.1683 -0.0554
11113SOL    HW136359   4.002   0.792   3.830 -0.4220  0.9281  0.2531
11113SOL    HW236360   3.873   0.714   3.815 -0.5289  1.0455  0.5607
11114SOL     OW36361   5.327   6.273   5.200  0.3719  0.5035  0.1261
11114SOL    HW136362   5.384   6.340   5.240  0.7825  0.3246 -0.1489
11114SOL    HW236363   5.257   6.323   5.159  0.3866  0.7351  0.3820
11115SOL     OW36364   6.416   5.126   3.719 -0.4583  0.3074 -0.2979
11115SOL    HW136365   6.430   5.202   3.662  0.4572  0.7833  0.5599
11115SOL    HW236366   6.471   5.057   3.680  1.0135  0.9414  0.5996
11116SOL     OW36367   8.393   0.234   3.807 -0.7142 -0.0703  0.3158
11116SOL    HW136368   8.355   0.318   3.781 -2.9149 -1.2058 -0.2406
11116SOL    HW236369   8.482   0.256   3.836 -0.7041  2.2176 -1.3368
11117SOL     OW36370   9.187   8.729   0.940 -0.0914  0.0852 -0.0745
11117SOL    HW136371   9.215   8.742   1.030 -2.1771  0.0922  0.5993
11117SOL    HW236372   9.202   8.636   0.923  3.1366  0.6433 -0.7806
11118SOL     OW36373   2.810   6.676   5.696 -0.1124  0.1432  0.2001
11118SOL    HW136374   2.803   6.599   5.639 -1.0358  1.2950 -1.2690
11118SOL    HW236375   2.896   6.668   5.737 -0.4540 -2.0161  0.5838
11119SOL     OW36376   5.653   6.629   1.092  0.2324 -0.1130  0.3737
11119SOL    HW136377   5.655   6.725   1.094  0.7446 -0.1239  0.2841
11119SOL    HW236378   5.562   6.608   1.068  0.5993  0.3740 -1.5695
11120SOL     OW36379   6.519   2.600   6.816  0.0035 -0.0490  0.0626
11120SOL    HW136380   6.522   2.510   6.784  1.1698 -1.0394  2.7858
11120SOL    HW236381   6.603   2.638   6.790 -0.0394 -0.1013 -0.1496
11121SOL     OW36382   0.382   9.366   3.543 -0.3712  0.1828 -0.0545
11121SOL    HW136383   0.343   9.295   3.493 -0.1535  0.5716 -0.7891
11121SOL    HW236384   0.457   9.326   3.587 -1.4636 -0.5179  1.2040
11122SOL     OW36385   2.488   6.751   3.728 -0.1797  0.8325 -0.5129
11122SOL    HW136386   2.431   6.757   3.651  0.4405  0.5223 -0.9987
11122SOL    HW236387   2.575   6.773   3.695 -0.2240  2.6319  0.4996
11123SOL     OW36388   7.738   6.667   6.542  0.1198  0.3718  0.0545
11123SOL    HW136389   7.784   6.631   6.619  0.1598  1.3993  0.5146
11123SOL    HW236390   7.646   6.647   6.558  0.1702  0.2340  0.1821
11124SOL     OW36391   7.891   6.917   0.088  0.0276  0.4436 -0.4804
11124SOL    HW136392   7.852   6.916   0.000 -0.9243  1.4411 -0.0677
11124SOL    HW236393   7.872   7.004   0.122  0.0800 -0.0672  0.8761
11125SOL     OW36394   8.274   4.215   0.805 -0.5089 -0.7508  0.1809
11125SOL    HW136395   8.340   4.171   0.750  0.7013  0.7429  0.4136
11125SOL    HW236396   8.310   4.212   0.893 -0.8973 -0.1926  0.3612
11126SOL     OW36397   6.643   3.449   1.988 -0.1457 -0.1040  0.2992
11126SOL    HW136398   6.683   3.532   2.013 -1.1526  0.5504 -0.2189
11126SOL    HW236399   6.569   3.438   2.048 -1.9825  1.0003 -1.7038
11127SOL     OW36400   9.087   1.887   7.832 -0.5145 -0.3660 -0.1056
11127SOL    HW136401   9.075   1.952   7.763 -0.0265  0.8872  0.9671
11127SOL    HW236402   9.043   1.808   7.799 -1.8049  0.7430 -1.0932
11128SOL     OW36403   1.500   3.595   4.001  0.3213  0.8355 -0.2793
11128SOL    HW136404   1.491   3.616   3.908  0.4142  2.4161  0.0670
11128SOL    HW236405   1.450   3.663   4.046  0.2413  0.0528  0.8347
11129SOL     OW36406   1.575   4.987   8.424  0.2807  0.0172 -0.0000
11129SOL    HW136407   1.486   4.959   8.402  0.1395 -0.3296  0.9691
11129SOL    HW236408   1.632   4.918   8.390  0.0305 -0.7694  1.1414
11130SOL     OW36409   1.906   3.324   3.653  0.0678  0.4783 -0.6171
11130SOL    HW136410   1.997   3.298   3.665  0.2441  1.5274  0.4430
11130SOL    HW236411   1.857   3.267   3.713 -0.0667 -0.5805 -1.7134
11131SOL     OW36412   4.710   3.203   7.193  0.5139  0.1299 -0.4388
11131SOL    HW136413   4.693   3.296   7.177 -1.0534  0.4297  2.6705
11131SOL    HW236414   4.642   3.157   7.143 -1.5304  0.8504  1.6479
11132SOL     OW36415   9.283   2.710   0.700  0.2102  0.3636  0.3114
11132SOL    HW136416   9.227   2.777   0.660  0.2770  0.1346 -0.1743
11132SOL    HW236417   9.317   2.660   0.626 -1.0916 -1.2173  0.7365
11133SOL     OW36418   2.866   7.099   9.267  0.3252  0.1620 -0.2756
11133SOL    HW136419   2.850   7.031   9.202 -1.4298  0.3579 -0.0730
11133SOL    HW236420   2.827   7.178   9.229  0.6607  0.6247  0.3310
11134SOL     OW36421   1.520   0.887   1.893 -0.6732  0.0330 -0.0127
11134SOL    HW136422   1.608   0.911   1.922 -0.2710 -0.0720 -1.1124
11134SOL    HW236423   1.476   0.855   1.972  0.1108  0.5675  0.6410
11135SOL     OW36424   8.562   2.270   7.413 -0.1224  0.2715 -0.4195
11135SOL    HW136425   8.657   2.278   7.410 -0.3538  3.6448 -0.9718
11135SOL    HW236426   8.535   2.335   7.478 -2.0680 -0.1002 -0.8304
11136SOL     OW36427   6.394   0.297   9.321  0.1963  0.0822 -0.0024
11136SOL    HW136428   6.434   0.340   9.245  0.6152  2.4430  1.4890
11136SOL    HW236429   6.328   0.360   9.351  1.1981 -0.0568  2.5754
11137SOL     OW36430   1.016   1.008   3.239  0.4834 -0.4945  0.1922
11137SOL    HW136431   0.942   1.031   3.182  1.2165  2.0357  0.2107
11137SOL    HW236432   0.992   0.923   3.275 -0.8451 -1.3225 -2.4658
11138SOL     OW36433   5.138   9.245   7.965 -0.3354  0.0665  0.0909
11138SOL    HW136434   5.064   9.294   8.001  0.1636  0.6685  0.3179
11138SOL    HW236435   5.215   9.288   8.003  0.0736 -1.9184  1.6152
11139SOL     OW36436   5.806   6.471   5.142 -0.3601  0.2831  0.3911
11139SOL    HW136437   5.781   6.433   5.058  0.4301 -0.5702  0.5373
11139SOL    HW236438   5.884   6.422   5.169 -2.3023 -1.5193  3.0633
11140SOL     OW36439   9.048   2.327   1.054  0.1451  0.0959  0.0293
11140SOL    HW136440   8.986   2.399   1.069  1.0205  0.7303  0.6503
11140SOL    HW236441   8.996   2.248   1.065 -0.8852  0.6282 -0.8890
11141SOL     OW36442   8.985   5.076   1.485  0.4485 -0.0662  0.1064
11141SOL    HW136443   8.948   5.099   1.399  1.7699 -1.6365 -0.9301
11141SOL    HW236444   9.047   5.005   1.465  1.4579  0.1932  2.2434
11142SOL     OW36445   1.375   4.846   2.647  0.4726 -0.5491 -0.0726
11142SOL    HW136446   1.415   4.801   2.722 -0.7946 -2.9628 -0.7798
11142SOL    HW236447   1.297   4.888   2.682  1.7883  1.3562  0.6430
11143SOL     OW36448   1.614   3.359   6.612 -0.0874  0.0113 -0.4962
11143SOL    HW136449   1.663   3.294   6.561  1.3237  0.6201  0.0661
11143SOL    HW236450   1.586   3.311   6.690  2.0859  0.3953  0.5535
11144SOL     OW36451   8.145   1.508   9.363  0.0878 -0.1251  0.0179
11144SOL    HW136452   8.210   1.438   9.353  0.4294  0.0559  0.9094
11144SOL    HW236453   8.075   1.469   9.415 -1.0349 -0.6444 -1.8370
11145SOL     OW36454   2.048   7.733   6.002  0.0406  0.0249  0.3569
11145SOL    HW136455   2.112   7.710   5.934  1.2756  1.2227  1.1011
11145SOL    HW236456   2.100   7.739   6.083 -0.8623  1.8160  0.8305
11146SOL     OW36457   1.140   5.218   3.542  0.7222  0.2209  0.5029
11146SOL    HW136458   1.210   5.152   3.547  0.1367 -0.4147  0.3940
11146SOL    HW236459   1.083   5.197   3.616  1.2824  1.4794  1.3090
11147SOL     OW36460   7.254   1.330   2.602 -0.0289 -0.4209 -0.6457
11147SOL    HW136461   7.201   1.267   2.650 -1.0774  1.1291  0.2635
11147SOL    HW236462   7.224   1.324   2.511  0.8548 -2.2125 -0.8335
11148SOL     OW36463   7.520   2.677   1.308  0.2390  0.5949  0.5574
11148SOL    HW136464   7.530   2.625   1.228 -1.4524 -0.2226  0.8513
11148SOL    HW236465   7.456   2.745   1.285  0.7764  1.1997  0.8225
11149SOL     OW36466   0.438   9.270   4.783 -0.5213  0.0170  0.2719
11149SOL    HW136467   0.458   9.306   4.697 -0.7631  0.9916  0.6183
11149SOL    HW236468   0.482   9.185   4.785  1.0047  0.7858 -0.1279
11150SOL     OW36469   8.801   8.387   8.375  0.1255 -0.5095 -0.1417
11150SOL    HW136470   8.735   8.425   8.433  1.3631 -0.4621  1.2531
11150SOL    HW236471   8.856   8.461   8.349  0.0731 -0.6701 -0.7185
11151SOL     OW36472   5.436   5.067   0.830 -0.6630 -0.0881  0.6763
11151SOL    HW136473   5.423   4.975   0.854 -1.6705 -0.5789 -1.6398
11151SOL    HW236474   5.347   5.104   0.827 -0.2206  1.2216  2.4419
11152SOL     OW36475   7.384   3.555   8.809 -0.6706  0.7547 -0.0815
11152SOL    HW136476   7.408   3.641   8.844  0.0628  1.0901 -1.3784
11152SOL    HW236477   7.289   3.560   8.798 -0.7812  0.9912  0.9168
11153SOL     OW36478   4.108   7.953   8.399  0.0716 -0.1167 -0.5973
11153SOL    HW136479   4.086   7.965   8.306 -0.0184 -0.1639 -0.5820
11153SOL    HW236480   4.098   8.040   8.437 -1.3453 -0.3835 -0.3296
11154SOL     OW36481   7.506   6.160   9.110 -0.2995 -0.2498 -0.1238
11154SOL    HW136482   7.436   6.118   9.161  0.9072 -1.0031  0.9672
11154SOL    HW236483   7.551   6.087   9.067 -0.0053  0.2046 -0.5879
11155SOL     OW36484   2.411   4.933   6.066 -0.2375 -0.7379 -0.0735
11155SOL    HW136485   2.381   4.883   5.990 -2.9666 -1.2869  1.3005
11155SOL    HW236486   2.365   5.017   6.060 -0.9518 -1.0126  1.2682
11156SOL     OW36487   1.335   3.836   2.057 -0.2148  0.3250  0.5241
11156SOL    HW136488   1.388   3.798   2.127 -0.7338 -0.5884  0.4271
11156SOL    HW236489   1.282   3.763   2.025 -0.3702  0.8642 -0.4569
11157SOL     OW36490   0.044   8.140   4.344 -0.1491 -0.4062  0.3704
11157SOL    HW136491   0.096   8.064   4.317 -1.4024 -0.7253 -1.2336
11157SOL    HW236492   0.107   8.199   4.386  1.1281 -1.6409  0.1971
11158SOL     OW36493   2.453   4.221   6.283  0.3951  0.2457 -0.7197
11158SOL    HW136494   2.395   4.209   6.358  1.0314 -0.5587 -0.3491
11158SOL    HW236495   2.430   4.307   6.248 -1.8431 -0.5462 -1.2884
11159SOL     OW36496   0.437   1.553   8.377  0.3808 -0.4284  0.5029
11159SOL    HW136497   0.375   1.518   8.440 -1.2038  0.4481 -0.5500
11159SOL    HW236498   0.457   1.641   8.409 -1.4158  0.5137 -0.8585
11160SOL     OW36499   0.589   1.875   2.549  0.0227  0.1258  0.0966
11160SOL    HW136500   0.584   1.911   2.460  3.0456  0.4911  0.0135
11160SOL    HW236501   0.658   1.926   2.592  1.7856 -3.0459  1.1791
11161SOL     OW36502   0.981   6.353   6.571 -0.1751  0.2899 -0.2929
11161SOL    HW136503   0.957   6.410   6.498 -0.0135 -0.9095 -1.3021
11161SOL    HW236504   0.971   6.408   6.648 -0.5242  1.5296 -1.1985
11162SOL     OW36505   7.799   0.237   2.585 -0.5194  0.1039  0.0544
11162SOL    HW136506   7.841   0.187   2.515  0.7185 -0.8784  1.4862
11162SOL    HW236507   7.713   0.195   2.595 -0.2443 -0.4971 -0.0689
11163SOL     OW36508   0.393   5.789   2.474 -0.1285  0.3963 -0.2081
11163SOL    HW136509   0.365   5.879   2.458 -0.3918  0.8566  2.5668
11163SOL    HW236510   0.319   5.749   2.521  0.6572 -0.7538  0.0604
11164SOL     OW36511   3.566   3.986   1.889  0.1925  0.3067  0.3011
11164SOL    HW136512   3.493   3.935   1.926  1.8451 -3.0329 -0.7976
11164SOL    HW236513   3.574   3.954   1.800  0.7467  3.2272 -0.7360
11165SOL     OW36514   3.440   7.422   4.141  0.4625 -0.3500 -0.0957
11165SOL    HW136515   3.438   7.503   4.090  2.5067  0.3525  0.8887
11165SOL    HW236516   3.533   7.400   4.147  0.1326 -1.2783  2.0132
11166SOL     OW36517   2.509   8.748   8.586 -0.3025  0.2263 -0.1079
11166SOL    HW136518   2.580   8.694   8.621  0.7345  1.5808 -0.0498
11166SOL    HW236519   2.553   8.827   8.554 -1.9800  1.9563  1.7057
11167SOL     OW36520   7.387   2.252   5.372 -0.2909 -0.1304  0.1024
11167SOL    HW136521   7.415   2.176   5.321 -1.4466 -1.3279  1.1996
11167SOL    HW236522   7.466   2.281   5.417  0.1585 -0.7039 -0.2937
11168SOL     OW36523   8.678   9.202   3.515  0.0803 -0.2087 -0.4583
11168SOL    HW136524   8.723   9.148   3.451  0.9019  0.3286 -0.3505
11168SOL    HW236525   8.655   9.282   3.467  1.3490  0.5050  0.0807
11169SOL     OW36526   1.655   1.452   2.374  0.4557  0.4334  0.2543
11169SOL    HW136527   1.670   1.493   2.459 -1.1132  0.4696  0.5463
11169SOL    HW236528   1.621   1.523   2.320 -2.0801 -0.3862  0.7000
11170SOL     OW36529   3.223   5.475   1.517  0.4725 -0.3776 -0.2015
11170SOL    HW136530   3.221   5.452   1.424  0.3620  0.0152 -0.2943
11170SOL    HW236531   3.311   5.511   1.530  0.0993  0.6307 -0.4066
11171SOL     OW36532   4.800   8.377   4.302 -0.1253  0.1045 -0.3202
11171SOL    HW136533   4.827   8.404   4.390 -1.7821 -0.6146  0.4286
11171SOL    HW236534   4.880   8.341   4.263  0.8771  1.3738  0.5047
11172SOL     OW36535   2.900   6.631   1.544  0.3546  0.1905  0.0798
11172SOL    HW136536   2.823   6.672   1.505 -0.1575 -0.6087  0.2265
11172SOL    HW236537   2.915   6.553   1.491  0.5619 -0.0907  0.5439
11173SOL     OW36538   2.576   2.931   7.731  0.5730 -0.0322 -0.1866
11173SOL    HW136539   2.656   2.977   7.757  2.0311 -1.4224 -1.9722
11173SOL    HW236540   2.605   2.841   7.715 -1.2880 -0.4913 -1.1359
11174SOL     OW36541   3.284   3.780   2.809  0.6800 -0.1517 -0.0970
11174SOL    HW136542   3.271   3.859   2.861 -0.9827 -0.8038  0.5210
11174SOL    HW236543   3.298   3.812   2.720  1.1405  0.8749  0.3337
11175SOL     OW36544   5.980   8.033   3.632 -0.5450 -0.2953 -0.5811
11175SOL    HW136545   5.978   7.956   3.689 -1.1349 -0.4102 -0.7462
11175SOL    HW236546   6.069   8.036   3.598 -0.0423  0.0798  0.7520
11176SOL     OW36547   0.475   8.447   5.962  0.0978  0.5210 -0.0769
11176SOL    HW136548   0.492   8.485   5.876 -1.0832 -0.6590 -0.8628
11176SOL    HW236549   0.561   8.444   6.004  0.8170  0.4521 -1.5024
11177SOL     OW36550   6.991   5.954   8.791 -0.4449 -0.3435 -0.4757
11177SOL    HW136551   7.076   5.988   8.821  0.2491 -1.3277 -1.3392
11177SOL    HW236552   6.935   6.032   8.787  0.6879  0.4641 -0.8664
11178SOL     OW36553   5.374   1.992   0.648  0.3401 -0.1588 -0.0971
11178SOL    HW136554   5.370   2.017   0.741 -2.4542 -0.9822  0.0661
11178SOL    HW236555   5.354   2.072   0.601 -1.5600 -0.4588  0.1623
11179SOL     OW36556   1.584   3.959   4.853  0.1346  0.1798 -0.4321
11179SOL    HW136557   1.542   3.976   4.768 -0.4317  2.2816  0.2401
11179SOL    HW236558   1.521   3.904   4.900  0.3539 -0.8090 -1.2697
11180SOL     OW36559   1.174   8.269   8.548 -0.2972  0.3419  0.2497
11180SOL    HW136560   1.159   8.232   8.635  0.9326  0.0126  0.3194
11180SOL    HW236561   1.269   8.272   8.538 -0.4246 -0.0682 -1.2809
11181SOL     OW36562   2.358   4.546   0.736 -0.7115  0.2937  0.0667
11181SOL    HW136563   2.296   4.612   0.769  0.1071  0.1481  1.9554
11181SOL    HW236564   2.414   4.526   0.811  0.0923 -1.3686 -0.9472
11182SOL     OW36565   4.554   2.836   8.088 -0.2934  0.0331 -0.0394
11182SOL    HW136566   4.580   2.744   8.078 -1.0008 -0.1691 -0.0395
11182SOL    HW236567   4.467   2.840   8.049 -0.7769  0.4470  1.0895
11183SOL     OW36568   5.263   3.646   8.323 -0.3416 -0.4182 -0.6117
11183SOL    HW136569   5.234   3.737   8.333  0.1690 -0.4775  1.7341
11183SOL    HW236570   5.238   3.623   8.234 -1.2789  1.7379 -0.9556
11184SOL     OW36571   5.577   1.332   1.064 -0.1308 -0.2931  0.2259
11184SOL    HW136572   5.636   1.403   1.040 -1.2696  0.4111 -0.4942
11184SOL    HW236573   5.604   1.308   1.153  0.1288  1.1750  0.5558
11185SOL     OW36574   8.931   3.380   5.703 -0.5910 -0.2542  0.3541
11185SOL    HW136575   8.952   3.297   5.747  1.2434 -0.8825 -1.6357
11185SOL    HW236576   8.846   3.364   5.661  1.4558 -2.5040 -3.1914
11186SOL     OW36577   2.275   1.882   0.105 -0.2183  0.0090  0.3560
11186SOL    HW136578   2.332   1.806   0.093 -2.2937 -1.5469  0.0804
11186SOL    HW236579   2.309   1.924   0.184  1.2055 -0.9691  0.3001
11187SOL     OW36580   5.941   4.397   8.482 -0.3022 -0.0346 -0.0390
11187SOL    HW136581   5.983   4.336   8.422  2.2303  1.4231  0.2086
11187SOL    HW236582   5.921   4.345   8.560  0.0373 -1.0053 -0.6053
11188SOL     OW36583   7.847   8.676   4.299  0.4898 -0.5665  0.3542
11188SOL    HW136584   7.838   8.656   4.392 -0.4231  0.1983  0.4429
11188SOL    HW236585   7.940   8.666   4.281  0.5820 -1.2879  1.2193
11189SOL     OW36586   6.845   8.692   6.180 -0.1672 -0.0658 -0.5989
11189SOL    HW136587   6.819   8.671   6.091 -1.7111 -0.6747 -0.0309
11189SOL    HW236588   6.926   8.642   6.194 -0.4746 -0.7707 -1.3112
11190SOL     OW36589   4.817   1.751   5.164 -0.4100  0.2047  0.9260
11190SOL    HW136590   4.897   1.731   5.213  0.1582 -0.1463 -0.1381
11190SOL    HW236591   4.768   1.669   5.164  0.7006 -0.4917 -1.1495
11191SOL     OW36592   1.332   1.548   1.980  0.5171  1.1337 -0.1361
11191SOL    HW136593   1.335   1.590   1.894  0.2752  0.0973 -0.6497
11191SOL    HW236594   1.246   1.506   1.984  0.4619  1.3050  0.6760
11192SOL     OW36595   7.721   6.977   4.276  0.2872  1.3550  0.0676
11192SOL    HW136596   7.656   7.034   4.317 -0.5134  0.8101 -0.4237
11192SOL    HW236597   7.799   7.032   4.266  0.0569  1.8828  1.0768
11193SOL     OW36598   4.132   5.872   6.867 -0.1758 -0.6319  0.3029
11193SOL    HW136599   4.167   5.787   6.839 -2.0125 -1.1160 -0.6359
11193SOL    HW236600   4.132   5.868   6.963  1.4467 -0.9575  0.3063
11194SOL     OW36601   5.121   3.107   6.488 -0.0167  0.5788  0.1277
11194SOL    HW136602   5.068   3.044   6.440  0.1953  2.2123 -2.3414
11194SOL    HW236603   5.062   3.181   6.503  1.0607  1.7177 -1.1653
11195SOL     OW36604   3.267   2.762   8.369 -0.5602  0.0231  0.4672
11195SOL    HW136605   3.348   2.777   8.418 -0.2820 -2.3553  0.8403
11195SOL    HW236606   3.207   2.725   8.433 -1.3552  0.1260 -0.2146
11196SOL     OW36607   3.416   8.832   4.305  0.1773  0.3291 -0.2756
11196SOL    HW136608   3.371   8.915   4.292 -1.0388 -0.2783  0.0207
11196SOL    HW236609   3.425   8.823   4.400  0.3925  0.1674 -0.3094
11197SOL     OW36610   7.301   0.916   1.754  0.2673 -0.1561  0.3182
11197SOL    HW136611   7.269   0.825   1.755  2.7495 -1.0365  1.6185
11197SOL    HW236612   7.352   0.925   1.834  2.6899  1.4101 -1.3430
11198SOL     OW36613   2.146   9.117   4.555 -0.0926 -0.3212  0.0982
11198SOL    HW136614   2.138   9.054   4.483  1.8558 -3.1327  2.2521
11198SOL    HW236615   2.239   9.118   4.576 -0.0962  3.2272  0.2570
11199SOL     OW36616   4.030   6.117   0.968  0.0312 -0.1933  0.2181
11199SOL    HW136617   4.119   6.150   0.953 -0.3717  1.2846  1.0071
11199SOL    HW236618   4.042   6.039   1.022  0.9363 -0.8146 -0.8664
11200SOL     OW36619   3.558   7.876   1.155 -0.8128  0.3333  0.0772
11200SOL    HW136620   3.599   7.792   1.136 -1.3475  0.0245  0.2833
11200SOL    HW236621   3.570   7.889   1.249  0.4153  1.1032 -0.1816
11201SOL     OW36622   4.060   5.917   3.207 -0.0646 -0.5393  0.5859
11201SOL    HW136623   4.060   5.887   3.298  1.6278 -0.0653  0.7566
11201SOL    HW236624   3.995   5.988   3.205  3.0141  2.5032  2.4932
11202SOL     OW36625   2.907   5.617   3.786 -0.1480  0.0240  0.7543
11202SOL    HW136626   2.881   5.526   3.772  0.5536  0.0168 -0.6084
11202SOL    HW236627   2.862   5.666   3.717  1.3502  0.3621 -0.0184
11203SOL     OW36628   7.883   3.220   0.200  0.1818 -0.3022 -0.1858
11203SOL    HW136629   7.970   3.245   0.233  0.6773 -1.3287 -0.6933
11203SOL    HW236630   7.863   3.139   0.246 -0.2250 -0.4132 -0.5613
11204SOL     OW36631   0.945   7.280   6.541 -0.2531 -0.1720  0.2545
11204SOL    HW136632   0.978   7.200   6.581  0.8984  0.6982  1.0466
11204SOL    HW236633   0.890   7.249   6.468  0.1619 -1.6687  0.5627
11205SOL     OW36634   5.717   4.186   6.626  0.4075  0.4771  0.4392
11205SOL    HW136635   5.665   4.197   6.546 -0.6056  0.2509  1.0486
11205SOL    HW236636   5.719   4.273   6.666 -1.2869  0.0924  1.4601
11206SOL     OW36637   5.308   7.989   2.110 -0.1407  0.0088 -0.2294
11206SOL    HW136638   5.370   7.916   2.110 -1.1862 -0.8806 -0.1091
11206SOL    HW236639   5.308   8.021   2.200  1.2501  0.9778 -0.5450
11207SOL     OW36640   7.795   6.813   1.659  0.0798 -0.4167  0.1701
11207SOL    HW136641   7.719   6.823   1.600  1.4629 -0.3441 -1.6542
11207SOL    HW236642   7.824   6.723   1.645 -0.1445 -0.7063  1.4869
11208SOL     OW36643   7.838   4.325   1.333  0.6674  0.0114 -0.5200
11208SOL    HW136644   7.835   4.262   1.261  1.3340 -0.1547 -0.4082
11208SOL    HW236645   7.764   4.383   1.317  0.4534 -0.3869 -1.0061
11209SOL     OW36646   6.829   6.696   5.036  0.5064  0.4995  0.0335
11209SOL    HW136647   6.742   6.732   5.015  0.7723  0.6376 -0.8664
11209SOL    HW236648   6.821   6.666   5.126 -1.2379 -1.7338 -0.8068
11210SOL     OW36649   8.170   8.555   8.529  0.3201 -0.1797  0.1818
11210SOL    HW136650   8.208   8.469   8.507  1.4393  0.0219  1.2471
11210SOL    HW236651   8.161   8.600   8.445  1.0874 -0.7971 -0.2365
11211SOL     OW36652   5.462   9.172   7.320  0.1284  0.1822 -0.0962
11211SOL    HW136653   5.528   9.115   7.360  1.2117  0.8683 -0.8633
11211SOL    HW236654   5.470   9.255   7.367 -2.6304 -0.7526  2.1975
11212SOL     OW36655   3.457   3.237   5.380  0.4266  0.0938  0.6842
11212SOL    HW136656   3.379   3.264   5.428  1.0940  1.2869  1.1162
11212SOL    HW236657   3.439   3.146   5.354 -0.1851 -0.3970  2.7034
11213SOL     OW36658   0.007   4.086   7.534 -0.1023 -0.8380  0.5796
11213SOL    HW136659  -0.023   4.156   7.477 -2.1508 -2.4587 -0.4145
11213SOL    HW236660  -0.028   4.006   7.495  0.5914 -2.2370  2.6969
11214SOL     OW36661   3.991   7.495   8.979  0.0514 -0.6006  0.3254
11214SOL    HW136662   3.991   7.512   8.884 -0.5141 -0.9213  0.2660
11214SOL    HW236663   3.936   7.418   8.990  1.3562 -1.4951  0.7679
11215SOL     OW36664   4.122   3.345   5.563  0.1040 -0.2248 -0.1176
11215SOL    HW136665   4.197   3.304   5.606 -0.7969 -1.1153  0.6245
11215SOL    HW236666   4.123   3.310   5.474  1.2033  0.6070 -0.4390
11216SOL     OW36667   8.328   0.689   7.645  0.2220  0.6551  0.3435
11216SOL    HW136668   8.293   0.633   7.714 -0.5075  0.6988  0.0103
11216SOL    HW236669   8.383   0.752   7.692 -2.1376  2.1678  1.1768
11217SOL     OW36670   5.104   5.849   3.553 -0.6642  0.3686  0.3054
11217SOL    HW136671   5.115   5.793   3.630 -2.3702  0.0607  0.3344
11217SOL    HW236672   5.048   5.920   3.583  1.3353  2.0437  0.2175
11218SOL     OW36673   0.952   5.392   5.918  0.2732 -0.2036 -0.3410
11218SOL    HW136674   0.897   5.355   5.987  2.0306  1.8720  2.2734
11218SOL    HW236675   0.915   5.479   5.902  0.4002 -0.3380 -1.4305
11219SOL     OW36676   4.122   2.361   1.518  0.8426 -0.4944  0.0499
11219SOL    HW136677   4.055   2.377   1.451 -0.2622 -1.9447  0.7762
11219SOL    HW236678   4.201   2.341   1.468  0.7526  1.2684 -0.8224
11220SOL     OW36679   2.255   8.431   0.868 -0.0891  0.2959  0.2901
11220SOL    HW136680   2.276   8.498   0.933  0.0511  0.1051  0.4412
11220SOL    HW236681   2.215   8.479   0.796  1.0315  0.6908 -0.0852
11221SOL     OW36682   9.349   8.050   5.424  0.6397 -0.8323 -0.6404
11221SOL    HW136683   9.298   7.980   5.383  1.4917 -0.8545 -1.6975
11221SOL    HW236684   9.337   8.126   5.366  0.7226 -0.4633 -0.1765
11222SOL     OW36685   0.193   3.951   4.893  0.6130 -0.6946 -0.2316
11222SOL    HW136686   0.207   3.885   4.961  1.4078  0.5150  0.8171
11222SOL    HW236687   0.253   3.926   4.823 -0.2245 -1.9653 -0.4988
11223SOL     OW36688   3.861   4.200   4.990  0.3328 -0.2605  0.1338
11223SOL    HW136689   3.880   4.293   4.981 -2.1136  0.2606 -0.0650
11223SOL    HW236690   3.940   4.156   4.959  1.1276  1.7494 -0.7773
11224SOL     OW36691   4.091   5.754   8.883 -0.4018  0.1569  0.2002
11224SOL    HW136692   4.102   5.762   8.977 -0.7206  2.2666  0.0877
11224SOL    HW236693   4.180   5.744   8.849 -0.0536  1.9892  0.5285
11225SOL     OW36694   3.411   9.345   8.692 -0.6867 -0.2400  0.1225
11225SOL    HW136695   3.448   9.384   8.612 -0.7658 -2.2386 -0.9056
11225SOL    HW236696   3.485   9.304   8.735 -0.6293  0.9144  1.1466
11226SOL     OW36697   7.962   3.499   1.578 -0.0491 -0.6306 -0.7003
11226SOL    HW136698   7.998   3.579   1.616 -0.0979 -1.4960  1.2199
11226SOL    HW236699   7.943   3.522   1.487  0.5962  1.3240 -0.3607
11227SOL     OW36700   5.983   3.314   9.205 -0.0338 -0.0799 -0.0037
11227SOL    HW136701   6.025   3.366   9.136 -0.4693  1.7256  1.0691
11227SOL    HW236702   6.025   3.343   9.286  0.4076 -2.1268  0.5401
11228SOL     OW36703   2.739   2.658   0.201 -0.1681  0.6077 -0.0227
11228SOL    HW136704   2.720   2.603   0.125  0.6233  0.0277  0.1940
11228SOL    HW236705   2.656   2.665   0.247  0.1845 -2.2905  1.1748
11229SOL     OW36706   1.211   2.246   8.856 -0.2882  0.3143  0.7016
11229SOL    HW136707   1.217   2.226   8.763 -0.8702  2.8307  0.0819
11229SOL    HW236708   1.127   2.211   8.883 -0.9556  1.2163 -0.1770
11230SOL     OW36709   4.154   2.129   6.782 -0.1551  0.1252  0.9423
11230SOL    HW136710   4.095   2.063   6.747  1.2665 -2.2418  2.9143
11230SOL    HW236711   4.097   2.201   6.808 -1.7549 -0.4588 -0.8507
11231SOL     OW36712   4.345   3.401   0.731  0.6658  0.1827  0.5891
11231SOL    HW136713   4.318   3.438   0.647  0.0726  0.5384  0.9366
11231SOL    HW236714   4.399   3.326   0.708 -1.1740 -0.9400 -0.1087
11232SOL     OW36715   8.753   6.294   8.914  0.4947 -0.3063 -0.0994
11232SOL    HW136716   8.691   6.282   8.843  0.2795 -0.6736  0.1452
11232SOL    HW236717   8.796   6.377   8.895  0.9616 -0.7506 -1.0586
11233SOL     OW36718   9.044   1.754   4.029  0.0216 -0.8127  0.3495
11233SOL    HW136719   9.021   1.777   4.119 -0.1948 -0.7390  0.2742
11233SOL    HW236720   9.096   1.674   4.037 -0.3314 -1.0248  0.5084
11234SOL     OW36721   6.677   7.695   1.626 -0.4578 -0.2816  0.1561
11234SOL    HW136722   6.635   7.610   1.613 -1.4411  0.3329 -0.7854
11234SOL    HW236723   6.619   7.758   1.581  0.4747  0.8242  0.4684
11235SOL     OW36724   1.206   4.161   7.975 -0.2947  0.2208 -0.1168
11235SOL    HW136725   1.114   4.174   7.951 -0.3787 -0.5918 -0.2558
11235SOL    HW236726   1.206   4.152   8.070 -0.5785 -1.4874 -0.2647
11236SOL     OW36727   8.073   1.182   7.891 -0.2658 -0.8450 -0.3521
11236SOL    HW136728   8.012   1.151   7.823 -1.1883  1.5157 -0.6474
11236SOL    HW236729   8.017   1.201   7.966  0.3370 -0.4039 -0.0130
11237SOL     OW36730   4.069   1.602   7.682 -0.1034  0.1742  0.6077
11237SOL    HW136731   4.124   1.524   7.685 -2.3422 -1.5219 -1.1855
11237SOL    HW236732   4.101   1.651   7.606  0.3309  0.2653  0.8483
11238SOL     OW36733   1.475   6.391   8.090 -0.7127  0.1388  0.0207
11238SOL    HW136734   1.460   6.300   8.115 -1.1118  0.4445  0.9163
11238SOL    HW236735   1.400   6.413   8.035 -2.2033  0.8436  2.2880
11239SOL     OW36736   9.170   4.305   6.232  0.3474  0.1085 -0.3888
11239SOL    HW136737   9.240   4.370   6.228  0.0032  0.4603 -0.6711
11239SOL    HW236738   9.105   4.343   6.291  0.0979  0.0676 -0.6376
11240SOL     OW36739   6.584   3.273   5.473 -0.5761 -0.3583 -0.1182
11240SOL    HW136740   6.546   3.270   5.560 -1.3408  2.3070 -0.2914
11240SOL    HW236741   6.563   3.189   5.433 -3.0384 -0.3475  1.1154
11241SOL     OW36742   1.905   5.730   2.827  0.0453  0.0435  0.0584
11241SOL    HW136743   1.969   5.706   2.759  0.6276  0.8058  0.3393
11241SOL    HW236744   1.854   5.801   2.788  0.0299  0.1221  0.2254
11242SOL     OW36745   6.977   6.800   2.468 -0.4446 -0.3618  0.6254
11242SOL    HW136746   7.026   6.735   2.418 -0.9875 -1.8348  1.9660
11242SOL    HW236747   6.977   6.878   2.413  3.3682 -0.2957  0.5800
11243SOL     OW36748   9.330   0.862   2.028  0.1009 -0.1880 -0.2310
11243SOL    HW136749   9.288   0.796   1.973  0.8176 -1.1918  0.3935
11243SOL    HW236750   9.422   0.836   2.031  0.3582  0.7337  0.1873
11244SOL     OW36751   5.526   0.551   5.393 -0.0043 -0.5697 -0.1033
11244SOL    HW136752   5.620   0.550   5.371  0.4350 -1.5493  1.6400
11244SOL    HW236753   5.516   0.627   5.451 -0.3449 -0.3090 -0.5045
11245SOL     OW36754   9.155   7.918   2.853 -0.1492 -0.3567 -0.0185
11245SOL    HW136755   9.200   7.858   2.912 -0.6413 -1.7024 -0.9825
11245SOL    HW236756   9.224   7.974   2.818  0.2223  0.0768  1.3925
11246SOL     OW36757   0.832   4.059   8.307 -0.6178  0.0623 -0.4077
11246SOL    HW136758   0.737   4.068   8.320 -0.5032 -0.1736  0.5891
11246SOL    HW236759   0.840   3.977   8.258 -0.8895 -0.1768 -0.0522
11247SOL     OW36760   4.570   6.836   2.112 -0.6399  0.0081  0.1800
11247SOL    HW136761   4.563   6.928   2.139 -2.3695 -0.2331  0.6331
11247SOL    HW236762   4.637   6.836   2.044 -0.8779  1.6635 -0.0787
11248SOL     OW36763   2.420   6.103   3.570 -0.0125  0.8664 -0.1696
11248SOL    HW136764   2.412   6.106   3.474  0.1028 -1.6278 -0.2777
11248SOL    HW236765   2.350   6.045   3.598 -0.5368  2.2130  1.3650
11249SOL     OW36766   6.479   5.010   0.483 -0.7228 -0.0506  0.0384
11249SOL    HW136767   6.383   5.012   0.485 -0.7087 -0.0650  1.0555
11249SOL    HW236768   6.504   4.983   0.572  0.1744 -1.6579 -0.6834
11250SOL     OW36769   6.070   5.125   4.998  0.4577  0.3324  0.0862
11250SOL    HW136770   6.009   5.124   5.072  1.7926 -0.4025  1.2016
11250SOL    HW236771   6.067   5.036   4.963 -1.4722  1.1259 -1.8663
11251SOL     OW36772   4.674   7.900   2.062  0.2430 -0.1653  0.0830
11251SOL    HW136773   4.700   7.991   2.048 -0.7413  0.1252  0.1176
11251SOL    HW236774   4.660   7.893   2.157 -2.8013  0.5157 -0.2677
11252SOL     OW36775   6.876   0.656   2.998  0.5827  0.1697 -0.4753
11252SOL    HW136776   6.848   0.621   3.082  0.5976  0.0968 -0.5008
11252SOL    HW236777   6.894   0.749   3.015  1.4418 -0.0470 -0.2020
11253SOL     OW36778   3.354   6.360   7.326  0.4688 -0.4428  0.1248
11253SOL    HW136779   3.376   6.447   7.359 -0.0546 -0.4545  0.5131
11253SOL    HW236780   3.294   6.376   7.253  0.8922 -0.4526 -0.2262
11254SOL     OW36781   1.596   8.081   6.524 -0.9174 -0.1671 -0.0298
11254SOL    HW136782   1.509   8.041   6.527  1.0255 -4.6331 -0.3856
11254SOL    HW236783   1.641   8.046   6.600  1.4142 -0.0125 -1.3107
11255SOL     OW36784   7.219   1.762   0.244  0.0251 -0.1682  0.4006
11255SOL    HW136785   7.275   1.698   0.288  0.5864  0.2871  0.3578
11255SOL    HW236786   7.136   1.758   0.291  0.4123 -0.1507  1.0875
11256SOL     OW36787   1.353   4.219   4.541 -0.2972 -0.4094  0.2275
11256SOL    HW136788   1.357   4.312   4.561 -0.5853 -0.4965  0.7036
11256SOL    HW236789   1.259   4.198   4.541 -0.1758 -1.0313  1.7176
11257SOL     OW36790   6.390   7.894   4.073 -0.1406  0.2702 -0.4450
11257SOL    HW136791   6.318   7.833   4.056 -0.4992 -0.1284  2.2705
11257SOL    HW236792   6.352   7.963   4.127  0.4651  2.5508 -2.8004
11258SOL     OW36793   6.080   6.021   5.880 -0.5358 -0.3164  0.6480
11258SOL    HW136794   6.104   5.933   5.852 -2.0277 -1.0275  1.5416
11258SOL    HW236795   5.985   6.019   5.887 -0.3725  0.2854  4.0534
11259SOL     OW36796   9.088   8.717   3.796  0.6378 -0.3612  0.2017
11259SOL    HW136797   9.153   8.674   3.741 -0.0026 -0.9222 -0.1250
11259SOL    HW236798   9.007   8.712   3.746  0.4120  0.6402  0.4536
11260SOL     OW36799   6.915   6.096   5.119  0.1570 -0.0322  0.2776
11260SOL    HW136800   6.949   6.125   5.203  0.7099 -0.2278  0.1231
11260SOL    HW236801   6.987   6.046   5.080 -0.2252 -0.2524 -0.1481
11261SOL     OW36802   1.944   1.323   6.419 -0.3642 -0.1555  0.3634
11261SOL    HW136803   1.973   1.313   6.328 -0.7801  0.2229  0.1867
11261SOL    HW236804   2.007   1.272   6.470 -0.0071 -0.1986 -0.1173
11262SOL     OW36805   9.096   6.644   2.045  0.1288 -0.1537  0.1210
11262SOL    HW136806   9.114   6.570   1.987 -1.1178 -1.0687  0.8900
11262SOL    HW236807   9.099   6.607   2.133 -0.1080  0.7952  0.5320
11263SOL     OW36808   2.066   3.009   2.350  0.0045  0.2536  0.4738
11263SOL    HW136809   2.159   3.034   2.353  1.0584 -3.1858 -1.6413
11263SOL    HW236810   2.024   3.067   2.414  3.4208  2.5779  0.7231
11264SOL     OW36811   6.662   3.177   3.231  0.9043  0.0258  0.0847
11264SOL    HW136812   6.635   3.258   3.274  1.2837  1.6871 -2.7115
11264SOL    HW236813   6.580   3.133   3.208  0.6951 -0.1069  1.0824
11265SOL     OW36814   4.950   0.185   7.374  0.0916 -0.0115  0.5882
11265SOL    HW136815   4.993   0.111   7.331 -1.0065  0.9017 -2.2112
11265SOL    HW236816   4.857   0.168   7.362 -0.2386  0.3139  2.6081
11266SOL     OW36817   2.523   0.966   7.960  0.1534  0.9104 -0.6896
11266SOL    HW136818   2.574   1.035   8.004  1.3282  1.6859 -3.1532
11266SOL    HW236819   2.437   1.006   7.946 -0.5754  0.2772  1.7914
11267SOL     OW36820   3.994   3.039   5.457  0.9090  0.4017  0.2483
11267SOL    HW136821   4.049   3.036   5.535  1.0869 -0.5841  0.0909
11267SOL    HW236822   4.039   2.985   5.393 -1.1008 -1.8955  0.6948
11268SOL     OW36823   8.180   4.142   8.443 -0.6892 -0.0437  0.2840
11268SOL    HW136824   8.214   4.223   8.482  2.9187 -0.1790 -2.3139
11268SOL    HW236825   8.195   4.075   8.509 -0.8122  0.8649  1.2461
11269SOL     OW36826   6.926   1.921   6.397  0.3846  0.2641 -0.5213
11269SOL    HW136827   6.903   1.838   6.356 -0.9491 -0.0387  0.8044
11269SOL    HW236828   6.847   1.974   6.390  0.6597  0.7828  0.2052
11270SOL     OW36829   3.967   1.279   8.650  0.3833  0.7548  0.2907
11270SOL    HW136830   3.891   1.297   8.705 -0.3789 -0.6979 -0.2813
11270SOL    HW236831   4.006   1.200   8.688  1.1105  1.0054  0.0638
11271SOL     OW36832   3.806   4.037   6.979 -0.0486  0.1457 -0.4903
11271SOL    HW136833   3.745   4.108   6.962  0.1763  0.4013 -0.2347
11271SOL    HW236834   3.885   4.059   6.930  0.8802  1.2763  1.4420
11272SOL     OW36835   5.066   2.014   5.137 -0.6085 -0.1979  0.1966
11272SOL    HW136836   5.144   2.008   5.193  0.2430 -2.0493 -1.1270
11272SOL    HW236837   5.026   2.098   5.160  1.7332  0.7475  0.9460
11273SOL     OW36838   5.893   2.451   0.759 -0.4977  0.0436  0.6929
11273SOL    HW136839   5.823   2.478   0.818 -0.6633  0.9491  0.0897
11273SOL    HW236840   5.973   2.460   0.811 -0.6294  0.9449  0.7554
11274SOL     OW36841   1.481   8.738   9.034  0.8187  0.0499 -0.3090
11274SOL    HW136842   1.456   8.663   8.980 -1.0444  0.2639  0.2316
11274SOL    HW236843   1.573   8.722   9.056  0.3066 -2.3602  0.2501
11275SOL     OW36844   8.812   5.340   3.982 -0.0462 -0.2457  0.4925
11275SOL    HW136845   8.783   5.260   3.937 -0.0686 -0.1928  0.4145
11275SOL    HW236846   8.863   5.308   4.056 -0.4621 -0.3414  0.7363
11276SOL     OW36847   6.743   9.183   4.493 -0.4695  0.1003  0.8214
11276SOL    HW136848   6.799   9.211   4.565 -0.4602  0.0463  0.8347
11276SOL    HW236849   6.655   9.180   4.530 -0.4028 -0.3346  0.9399
11277SOL     OW36850   2.463   8.338   1.509  0.7271  0.8133 -0.1107
11277SOL    HW136851   2.371   8.331   1.482  0.8557  0.2543 -0.3932
11277SOL    HW236852   2.513   8.307   1.434  1.0939 -0.4693  0.6567
11278SOL     OW36853   4.717   7.566   7.046  0.2958  0.5927  0.2449
11278SOL    HW136854   4.760   7.503   7.104 -1.1116 -0.2649  0.3869
11278SOL    HW236855   4.763   7.557   6.962 -1.0680 -2.0185 -0.3061
11279SOL     OW36856   1.717   8.725   2.457 -0.1318 -0.4058  0.0817
11279SOL    HW136857   1.748   8.809   2.425  0.6247 -0.0527  1.6648
11279SOL    HW236858   1.622   8.736   2.466 -0.0298  0.2909  0.3165
11280SOL     OW36859   2.139   4.068   4.098  0.1388 -0.7428 -0.2881
11280SOL    HW136860   2.230   4.045   4.079 -0.1545 -1.5691 -0.7135
11280SOL    HW236861   2.095   3.983   4.108 -0.4276 -0.3457  0.6673
11281SOL     OW36862   8.287   2.527   7.231  0.4073 -0.2115  0.2174
11281SOL    HW136863   8.242   2.458   7.181 -0.9414  1.5065 -0.9832
11281SOL    HW236864   8.217   2.579   7.270  1.4240  0.2921  1.4265
11282SOL     OW36865   8.379   7.702   4.879  0.3485  0.3089  0.9250
11282SOL    HW136866   8.443   7.689   4.809 -0.3662 -1.2724  0.5465
11282SOL    HW236867   8.396   7.791   4.910  0.7198  1.0145 -1.2052
11283SOL     OW36868   9.437   2.257   6.541  0.0505  0.2894 -0.4555
11283SOL    HW136869   9.354   2.304   6.547  1.1180  2.2809 -0.7788
11283SOL    HW236870   9.464   2.267   6.450  0.7588 -0.1405 -0.3020
11284SOL     OW36871   8.686   1.841   8.615  0.1277  0.5072  0.6866
11284SOL    HW136872   8.621   1.912   8.608 -0.0286  0.4007  1.0481
11284SOL    HW236873   8.657   1.790   8.690 -1.3439 -1.5523 -1.2299
11285SOL     OW36874   6.812   1.476   3.881  0.1953  0.1997  0.2237
11285SOL    HW136875   6.880   1.418   3.847 -0.0930 -0.5625  0.9160
11285SOL    HW236876   6.828   1.479   3.975  0.4862  1.6320  0.1359
11286SOL     OW36877   0.768   0.263   3.932  0.3998 -0.0104  0.1398
11286SOL    HW136878   0.699   0.325   3.907 -0.3023 -1.4075 -1.4927
11286SOL    HW236879   0.783   0.280   4.025 -1.2457  1.1895  0.2055
11287SOL     OW36880   3.417   1.174   2.132 -0.4478 -0.0253 -0.3942
11287SOL    HW136881   3.446   1.130   2.213 -1.0906  0.1112 -0.0890
11287SOL    HW236882   3.388   1.103   2.075  0.3899 -0.1563 -0.6652
11288SOL     OW36883   0.917   7.374   5.484 -0.2351 -0.2663 -0.7498
11288SOL    HW136884   0.994   7.336   5.441  0.1541 -1.0461  0.6330
11288SOL    HW236885   0.868   7.299   5.517 -0.7925  0.3139 -0.2547
11289SOL     OW36886   7.120   0.122   2.684 -0.0002  0.8550  0.6639
11289SOL    HW136887   7.034   0.081   2.689  1.1053 -1.5553  0.4933
11289SOL    HW236888   7.173   0.074   2.747  1.8425  0.6845 -0.9810
11290SOL     OW36889   2.133   0.818   3.294 -0.4519 -0.3454  0.0428
11290SOL    HW136890   2.057   0.820   3.236 -0.4302  1.4550  0.0268
11290SOL    HW236891   2.189   0.749   3.259  0.8051  2.3713 -3.7406
11291SOL     OW36892   6.279   0.061   3.330  0.3849  0.5669 -0.0796
11291SOL    HW136893   6.228   0.047   3.410 -0.5168  1.1416 -0.5483
11291SOL    HW236894   6.308   0.152   3.336 -1.5755  1.3134 -1.4638
11292SOL     OW36895   8.257   5.098   9.046  0.1987 -0.1554 -0.5005
11292SOL    HW136896   8.272   5.006   9.027 -2.6151 -0.7371 -0.0753
11292SOL    HW236897   8.186   5.124   8.988  0.0035  1.3740  0.3860
11293SOL     OW36898   2.105   5.627   6.132  0.4975  0.0852  1.2019
11293SOL    HW136899   2.197   5.614   6.107  0.2253  1.3107 -0.5055
11293SOL    HW236900   2.098   5.721   6.148 -0.8203  0.2278 -0.1925
11294SOL     OW36901   7.014   7.082   3.849  0.5948  0.1688  0.2750
11294SOL    HW136902   6.980   7.148   3.911 -0.5779 -1.2850  1.2214
11294SOL    HW236903   7.099   7.116   3.822  0.3987  1.6450  1.4400
11295SOL     OW36904   1.739   0.921   4.444  0.6479  0.3085  0.0258
11295SOL    HW136905   1.707   0.885   4.527 -0.1109  0.3773 -0.2372
11295SOL    HW236906   1.667   0.975   4.412  0.1358 -1.3703 -1.7095
11296SOL     OW36907   3.443   0.768   8.873  0.4387  0.2218 -0.0352
11296SOL    HW136908   3.511   0.780   8.938 -1.4768 -0.1245  2.0853
11296SOL    HW236909   3.391   0.848   8.877  0.0449  0.0173 -0.8220
11297SOL     OW36910   1.449   2.399   1.875  0.2411  0.2452  0.1056
11297SOL    HW136911   1.544   2.390   1.868  0.2741  1.8860 -2.4686
11297SOL    HW236912   1.433   2.493   1.862 -1.6666  0.1282  1.4555
11298SOL     OW36913   5.536   1.536   4.641  0.2287 -0.1898  0.4374
11298SOL    HW136914   5.537   1.576   4.554  1.4356 -0.3802  0.3656
11298SOL    HW236915   5.607   1.472   4.639 -1.0798 -1.6874  0.8672
11299SOL     OW36916   7.585   3.509   6.759 -0.7515  0.4653  0.2615
11299SOL    HW136917   7.535   3.540   6.834 -1.1657 -0.0376  0.1985
11299SOL    HW236918   7.617   3.422   6.785 -1.1618  0.1542 -0.2580
11300SOL     OW36919   2.556   6.543   0.853  0.4025 -0.0863  0.3374
11300SOL    HW136920   2.640   6.589   0.857  0.3359  0.2858 -1.9615
11300SOL    HW236921   2.574   6.466   0.798 -0.8898  0.3130 -0.6693
11301SOL     OW36922   9.114   6.838   6.061  0.5340  0.0955  0.2656
11301SOL    HW136923   9.195   6.818   6.108  0.5701 -1.0488 -0.2554
11301SOL    HW236924   9.085   6.753   6.027 -0.2395  0.6937 -0.5772
11302SOL     OW36925   6.782   4.041   5.626  0.5670 -0.1986  0.3136
11302SOL    HW136926   6.765   4.103   5.696 -2.0258  0.8281 -1.1636
11302SOL    HW236927   6.856   3.989   5.657 -0.5647  0.1838  3.8139
11303SOL     OW36928   9.156   7.923   5.748  0.4646 -0.3088  0.1682
11303SOL    HW136929   9.108   8.004   5.764 -1.1632 -0.9020 -1.5859
11303SOL    HW236930   9.239   7.936   5.794 -0.0099  2.0854  0.4479
11304SOL     OW36931   5.251   2.962   6.848  0.0600 -0.5963  0.4715
11304SOL    HW136932   5.255   2.929   6.759  0.2690 -0.1123  0.2992
11304SOL    HW236933   5.343   2.976   6.872 -0.0951  1.8246 -0.2013
11305SOL     OW36934   8.662   4.385   0.841  0.9165 -0.1665 -0.2021
11305SOL    HW136935   8.673   4.351   0.930 -0.6799 -0.0122  0.0626
11305SOL    HW236936   8.725   4.458   0.835  0.7715  0.0506  0.9140
11306SOL     OW36937   2.596   6.408   6.033 -0.3081  0.2617 -0.0956
11306SOL    HW136938   2.616   6.500   6.049  1.5895 -0.4313  1.7269
11306SOL    HW236939   2.502   6.401   6.048 -0.2092  1.6080  1.2780
11307SOL     OW36940   9.424   6.230   0.536  0.2404 -0.0454  0.0804
11307SOL    HW136941   9.506   6.201   0.574  0.4826  0.0036 -0.3987
11307SOL    HW236942   9.449   6.298   0.473  0.0879 -1.8979 -2.0321
11308SOL     OW36943   6.217   7.120   1.575  0.3197 -0.0508 -0.5041
11308SOL    HW136944   6.276   7.057   1.615  0.8444 -0.5430 -2.0416
11308SOL    HW236945   6.273   7.178   1.524 -0.2555  1.0978  0.1382
11309SOL     OW36946   4.867   1.792   5.724 -0.1469  0.4378  0.5150
11309SOL    HW136947   4.959   1.808   5.701  0.1831 -1.5600  0.3560
11309SOL    HW236948   4.818   1.840   5.658  0.7587  2.2307  1.1000
11310SOL     OW36949   4.232   0.525   5.313  0.2003 -0.1605 -0.5988
11310SOL    HW136950   4.302   0.462   5.333  0.9221  0.8674  0.1680
11310SOL    HW236951   4.255   0.558   5.226 -0.1810 -0.9474 -1.0049
11311SOL     OW36952   5.316   3.991   2.506  0.1114 -0.3540  0.1770
11311SOL    HW136953   5.222   3.987   2.526 -0.1838  0.8875 -0.8960
11311SOL    HW236954   5.335   4.084   2.502  1.2988 -0.6052 -0.0594
11312SOL     OW36955   5.703   1.895   3.062  0.7097 -0.2313  0.5865
11312SOL    HW136956   5.641   1.914   3.133 -1.0801  1.7238 -1.4163
11312SOL    HW236957   5.767   1.966   3.068  0.9131 -0.4180  0.6220
11313SOL     OW36958   1.150   1.945   5.098  0.0211 -0.0233 -0.4798
11313SOL    HW136959   1.146   1.887   5.022  0.0147 -1.7884  0.8368
11313SOL    HW236960   1.243   1.946   5.123  0.4455  2.5726 -2.0092
11314SOL     OW36961   9.309   2.138   8.529 -0.0116 -0.1527  0.3926
11314SOL    HW136962   9.300   2.149   8.624  3.0345  0.5988  0.6258
11314SOL    HW236963   9.281   2.048   8.512  0.5177 -0.6656  2.1659
11315SOL     OW36964   1.511   6.178   8.318  0.5713  0.7038  0.0268
11315SOL    HW136965   1.468   6.243   8.373 -0.5384  0.2188 -0.2735
11315SOL    HW236966   1.456   6.100   8.323  1.2978  0.1375 -0.5155
11316SOL     OW36967   2.594   5.318   3.339  0.6348  0.0838  0.2014
11316SOL    HW136968   2.662   5.302   3.404 -0.5578 -2.9428  0.7789
11316SOL    HW236969   2.526   5.254   3.359 -0.5539  0.2891 -2.9238
11317SOL     OW36970   2.455   3.234   1.612  0.3426  0.3730 -0.0878
11317SOL    HW136971   2.396   3.179   1.560 -1.2635  1.2331  0.7688
11317SOL    HW236972   2.424   3.323   1.596  0.7930  0.7578  1.1396
11318SOL     OW36973   2.978   9.271   4.050 -0.0873 -0.7300 -0.6396
11318SOL    HW136974   3.009   9.222   4.126 -0.0237 -0.2401 -0.3491
11318SOL    HW236975   3.052   9.325   4.024 -1.0747  1.4661  0.8862
11319SOL     OW36976   5.811   8.678   4.435  0.1140  0.2219  0.8303
11319SOL    HW136977   5.843   8.748   4.493  0.3247  0.4627  0.4274
11319SOL    HW236978   5.820   8.598   4.487  0.4939  0.4092  1.0577
11320SOL     OW36979   2.075   0.760   8.244  0.7226  0.4212  0.2497
11320SOL    HW136980   1.996   0.763   8.298  1.7324 -0.7585  1.8362
11320SOL    HW236981   2.087   0.851   8.215 -0.5295  0.8379  0.9906
11321SOL     OW36982   0.628   4.123   5.648 -0.7005 -0.1221  0.2495
11321SOL    HW136983   0.645   4.152   5.738 -3.1275  2.0043  0.0627
11321SOL    HW236984   0.606   4.030   5.657 -3.1874  0.6092  2.1774
11322SOL     OW36985   8.658   7.055   1.580 -0.2453  0.2836 -0.2137
11322SOL    HW136986   8.585   7.092   1.630  0.9745  0.0859  1.7862
11322SOL    HW236987   8.723   7.126   1.577  1.1271 -0.8391  1.5655
11323SOL     OW36988   7.234   0.503   1.605 -0.0639  0.6689 -0.4265
11323SOL    HW136989   7.172   0.462   1.545 -0.9970 -0.4715  1.2679
11323SOL    HW236990   7.316   0.505   1.557 -0.6789 -0.6259 -1.5667
11324SOL     OW36991   1.921   8.078   1.176  0.3022  0.2793  0.7395
11324SOL    HW136992   1.839   8.032   1.155  0.5523 -0.2463  0.9049
11324SOL    HW236993   1.908   8.167   1.142  0.4024 -0.3335 -0.9560
11325SOL     OW36994   3.576   0.420   5.802  0.0926  0.0141 -0.4512
11325SOL    HW136995   3.607   0.331   5.787 -1.2954 -0.4929 -0.3588
11325SOL    HW236996   3.562   0.426   5.896  1.7868  0.8792 -0.2297
11326SOL     OW36997   8.406   7.165   4.109  0.4281 -0.9626  0.5517
11326SOL    HW136998   8.337   7.129   4.053 -0.3776  1.5486 -0.1134
11326SOL    HW236999   8.365   7.238   4.154  2.1852 -0.5283  1.4912
11327SOL     OW37000   1.735   5.538   0.134  0.5944 -0.0952 -0.4846
11327SOL    HW137001   1.810   5.594   0.155 -0.0766  0.6239  0.0611
11327SOL    HW237002   1.772   5.452   0.117  1.6953  0.6157 -1.7632
11328SOL     OW37003   4.744   1.483   9.403 -0.4771  0.3419  0.3608
11328SOL    HW137004   4.790   1.567   9.404 -0.2493  0.2462 -1.0388
11328SOL    HW237005   4.813   1.417   9.401 -0.6550  0.1375  0.9478
11329SOL     OW37006   6.634   7.383   3.185  0.3596 -0.3561  0.4425
11329SOL    HW137007   6.624   7.308   3.127  0.5795  0.7100 -0.9840
11329SOL    HW237008   6.721   7.418   3.165 -0.5992  1.5765 -0.4592
11330SOL     OW37009   0.676   3.861   3.543 -0.1755  0.3865  0.2077
11330SOL    HW137010   0.680   3.781   3.491 -1.3092  0.9425 -0.7321
11330SOL    HW237011   0.768   3.886   3.555  0.1632 -0.7945  0.1205
11331SOL     OW37012   4.943   3.879   0.560 -0.4189 -0.5464 -1.0918
11331SOL    HW137013   4.860   3.848   0.524 -0.8504  0.0659 -0.6469
11331SOL    HW237014   5.010   3.828   0.514 -1.0295 -0.9065 -1.5954
11332SOL     OW37015   2.081   8.207   7.432  0.3943 -0.4098 -0.7566
11332SOL    HW137016   2.159   8.255   7.403  0.0345 -0.8580 -2.5695
11332SOL    HW237017   2.037   8.184   7.350 -0.6823 -1.7468  0.1907
11333SOL     OW37018   3.863   8.853   0.261 -0.1829  0.0636 -0.4122
11333SOL    HW137019   3.915   8.868   0.182  1.8746 -1.3218  0.6502
11333SOL    HW237020   3.906   8.905   0.329 -1.9932  1.3195 -0.1700
11334SOL     OW37021   5.501   8.672   3.969 -0.0459  0.2874  0.0184
11334SOL    HW137022   5.491   8.737   3.900  0.3944 -1.6302 -1.9220
11334SOL    HW237023   5.414   8.632   3.977 -0.0220  0.3039  0.3858
11335SOL     OW37024   9.099   4.218   3.963 -0.4819  0.8423  0.2122
11335SOL    HW137025   9.043   4.234   3.887 -0.8788  0.8116  0.4985
11335SOL    HW237026   9.086   4.126   3.984  2.0788 -0.0342 -1.6580
11336SOL     OW37027   6.782   0.461   8.080 -0.0260 -0.0434 -0.6713
11336SOL    HW137028   6.719   0.397   8.111  1.6057 -1.0806  0.5712
11336SOL    HW237029   6.799   0.517   8.156  0.4838  0.2887 -1.0239
11337SOL     OW37030   6.388   8.725   8.286  0.1688  0.1230 -0.2853
11337SOL    HW137031   6.448   8.714   8.212 -1.0395  0.2150 -1.2864
11337SOL    HW237032   6.434   8.786   8.344  0.8491  0.5523 -1.2560
11338SOL     OW37033   5.287   3.820   5.213 -0.1515  0.1929  0.0867
11338SOL    HW137034   5.317   3.730   5.209  2.1246  0.9837 -1.5868
11338SOL    HW237035   5.214   3.825   5.152  0.8050 -0.1291 -1.0881
11339SOL     OW37036   1.373   4.451   8.124  0.1148 -0.4363  0.4529
11339SOL    HW137037   1.441   4.487   8.181  1.4299 -0.0591 -1.3256
11339SOL    HW237038   1.377   4.356   8.140  1.6922 -0.5147 -0.3159
11340SOL     OW37039   8.114   0.252   4.963  0.4540  0.1196  0.0664
11340SOL    HW137040   8.198   0.269   5.007 -0.1422  0.7758  0.9884
11340SOL    HW237041   8.124   0.166   4.924  0.8944 -0.6584  1.8273
11341SOL     OW37042   8.536   6.112   0.185  0.6940  0.0408  0.3742
11341SOL    HW137043   8.565   6.197   0.150  0.2316 -0.4279 -1.1768
11341SOL    HW237044   8.617   6.063   0.198  0.9699  0.7310  1.3409
11342SOL     OW37045   1.331   6.667   1.115 -0.0444  0.3744 -0.1169
11342SOL    HW137046   1.401   6.711   1.066  0.4819 -1.5227 -1.1005
11342SOL    HW237047   1.251   6.715   1.091  0.5436  0.9320 -0.9927
11343SOL     OW37048   0.854   9.094   8.011 -0.0562  0.4971  0.8706
11343SOL    HW137049   0.873   9.120   7.921  0.3134 -1.6870  0.3023
11343SOL    HW237050   0.910   9.018   8.027 -1.3663 -0.1831  2.3546
11344SOL     OW37051   2.959   2.224   9.059  0.0115  0.0358  0.3636
11344SOL    HW137052   2.923   2.297   9.109  1.4448 -0.1684  1.7042
11344SOL    HW237053   3.019   2.179   9.119  0.8442 -0.9255 -1.1325
11345SOL     OW37054   3.607   1.734   2.668 -0.1223 -0.2950  0.2381
11345SOL    HW137055   3.618   1.650   2.713 -1.0032 -0.5519 -0.0139
11345SOL    HW237056   3.595   1.797   2.738 -1.4199 -0.6843  0.3895
11346SOL     OW37057   6.260   0.133   4.138 -0.1137  0.2261  0.1273
11346SOL    HW137058   6.290   0.135   4.229  1.4205 -0.1863 -0.3483
11346SOL    HW237059   6.289   0.216   4.101  0.6225 -0.2411 -0.3782
11347SOL     OW37060   2.250   0.454   5.248  0.0255  0.1997 -0.1433
11347SOL    HW137061   2.195   0.486   5.319  1.4994  1.7593  0.3275
11347SOL    HW237062   2.285   0.370   5.279 -0.1853  0.3660  0.5301
11348SOL     OW37063   6.706   9.436   2.394 -0.0821 -0.2829 -0.1973
11348SOL    HW137064   6.794   9.471   2.386 -0.4898  0.4620 -1.5700
11348SOL    HW237065   6.709   9.381   2.473  1.4781  0.0698  0.0047
11349SOL     OW37066   8.327   3.532   7.600 -0.0974  0.1813 -0.5161
11349SOL    HW137067   8.294   3.552   7.688 -0.1353  1.6253 -0.8414
11349SOL    HW237068   8.273   3.460   7.569 -1.7051  1.2893 -0.3062
11350SOL     OW37069   7.354   6.090   3.349 -0.2087 -0.0094  0.3652
11350SOL    HW137070   7.304   6.092   3.268 -1.1243 -0.3564  0.9235
11350SOL    HW237071   7.336   6.004   3.387  1.3682 -0.4245  0.2224
11351SOL     OW37072   1.597   1.794   1.717  0.0568  0.8271  0.6302
11351SOL    HW137073   1.674   1.799   1.660 -0.9756  0.6959 -0.8022
11351SOL    HW237074   1.551   1.877   1.702 -0.6469  0.4438  0.6444
11352SOL     OW37075   6.182   8.603   5.696  0.0355 -0.4704  0.0036
11352SOL    HW137076   6.141   8.555   5.624 -0.2412 -1.6721  0.9487
11352SOL    HW237077   6.271   8.567   5.702 -0.2476 -1.0399  0.8656
11353SOL     OW37078   2.665   8.971   8.489  0.4510 -0.3735 -0.9393
11353SOL    HW137079   2.708   8.956   8.405 -0.2364 -0.1186 -1.3398
11353SOL    HW237080   2.686   9.062   8.510  2.7458 -1.1735  0.4075
11354SOL     OW37081   8.200   0.613   7.873 -0.1551 -0.2673  0.0072
11354SOL    HW137082   8.130   0.679   7.869 -0.0038 -0.1729 -1.2579
11354SOL    HW237083   8.257   0.644   7.943 -1.3517 -0.3226  1.0250
11355SOL     OW37084   4.608   2.437   4.253  0.2277  0.4305  0.5746
11355SOL    HW137085   4.676   2.387   4.209 -0.0995 -1.2370  1.9020
11355SOL    HW237086   4.572   2.495   4.185  0.8858 -0.8564 -0.8853
11356SOL     OW37087   4.183   4.650   2.954 -0.1581  0.5337  0.3079
11356SOL    HW137088   4.182   4.630   2.860  0.0632 -0.2453  0.4606
11356SOL    HW237089   4.266   4.696   2.968  0.1026  0.1014  0.2188
11357SOL     OW37090   4.445   6.387   4.689 -0.3184  0.0366  0.0298
11357SOL    HW137091   4.361   6.428   4.668 -0.1423  0.4117  0.0537
11357SOL    HW237092   4.509   6.438   4.640 -0.3676 -1.8911 -2.1103
11358SOL     OW37093   2.089   4.172   8.796  0.4066  0.5758  0.0623
11358SOL    HW137094   2.127   4.207   8.716  1.3192 -2.4472 -0.8872
11358SOL    HW237095   1.999   4.151   8.773 -0.1883  2.3459  0.6760
11359SOL     OW37096   2.116   8.637   1.325 -0.1189  0.0778 -0.1998
11359SOL    HW137097   2.072   8.580   1.389  0.2096 -2.2602 -1.9953
11359SOL    HW237098   2.194   8.667   1.371  2.1925 -4.7124 -0.6803
11360SOL     OW37099   8.189   8.992   5.490  0.3934  0.1306  0.6392
11360SOL    HW137100   8.258   9.015   5.552 -0.1574 -0.5006  1.5028
11360SOL    HW237101   8.206   8.900   5.469 -0.4398 -0.1622  1.2057
11361SOL     OW37102   4.928   2.416   2.006 -0.2583  0.7106 -0.3722
11361SOL    HW137103   5.003   2.357   1.997  1.0002  2.3127 -0.6483
11361SOL    HW237104   4.930   2.444   2.097 -1.8271 -0.8900  0.1959
11362SOL     OW37105   3.799   0.066   7.879  0.2058  0.4503  0.4347
11362SOL    HW137106   3.792   0.076   7.974  1.3379 -1.2401  0.7200
11362SOL    HW237107   3.892   0.079   7.860 -0.3701  3.3188 -0.8046
11363SOL     OW37108   9.096   1.808   6.459  0.1158  0.2308  0.0015
11363SOL    HW137109   9.074   1.853   6.540 -2.8978 -1.5535  0.2278
11363SOL    HW237110   9.191   1.796   6.463  0.1595  1.3147  2.6471
11364SOL     OW37111   7.501   8.112   0.448 -0.0456 -0.1678  0.4468
11364SOL    HW137112   7.486   8.052   0.521  1.4622  0.4762  1.3251
11364SOL    HW237113   7.528   8.056   0.376  2.8862 -0.4899  1.7057
11365SOL     OW37114   0.256   0.319   5.788 -0.0986  0.9346 -0.3379
11365SOL    HW137115   0.180   0.271   5.755 -0.2525  1.0129 -0.0959
11365SOL    HW237116   0.325   0.252   5.793 -0.9384  0.2058  2.1871
11366SOL     OW37117   8.075   8.704   5.980 -0.8585 -0.4187 -0.1022
11366SOL    HW137118   8.105   8.717   5.890 -0.4568  0.4867  0.1556
11366SOL    HW237119   8.024   8.782   6.000 -1.0928 -0.6980  0.4025
11367SOL     OW37120   1.278   5.963   6.374  0.0172 -0.2970  0.0777
11367SOL    HW137121   1.267   6.017   6.296 -0.9981 -0.9508 -0.2402
11367SOL    HW237122   1.373   5.957   6.386  0.1453  0.9095 -0.3267
11368SOL     OW37123   3.488   7.292   7.144 -0.2931  0.2068  0.2263
11368SOL    HW137124   3.523   7.289   7.234  0.4156  0.8921 -0.0186
11368SOL    HW237125   3.472   7.200   7.122  0.1977 -0.0247  0.8032
11369SOL     OW37126   5.266   5.196   3.619  0.2510 -0.0126 -0.4618
11369SOL    HW137127   5.193   5.191   3.682 -0.7818  1.0955 -1.5345
11369SOL    HW237128   5.317   5.271   3.649  1.1064 -0.9549  0.4470
11370SOL     OW37129   2.569   0.362   1.240  0.1769  0.5688  0.2377
11370SOL    HW137130   2.517   0.357   1.160 -1.4966  2.2082  1.1750
11370SOL    HW237131   2.601   0.453   1.242 -0.3133  0.7168  1.7332
11371SOL     OW37132   7.629   1.451   0.691  0.3614  0.3236  0.2665
11371SOL    HW137133   7.548   1.498   0.674  0.5254  0.9088  1.0635
11371SOL    HW237134   7.616   1.365   0.651 -0.1781  0.8296 -0.6710
11372SOL     OW37135   7.554   2.614   5.754 -0.0426  0.5521 -0.4618
11372SOL    HW137136   7.612   2.556   5.804 -0.7057 -1.4796 -1.9950
11372SOL    HW237137   7.476   2.621   5.808  0.4348  0.8466  0.2008
11373SOL     OW37138   0.153   8.349   3.011  1.0112 -0.2877  0.3007
11373SOL    HW137139   0.124   8.341   3.102  1.3792  0.2480  0.4699
11373SOL    HW237140   0.186   8.263   2.988  3.3846  0.2637  1.5332
11374SOL     OW37141   6.743   0.057   7.184 -0.7756 -0.5720  0.1372
11374SOL    HW137142   6.735   0.007   7.265 -0.6729 -0.6693  0.0875
11374SOL    HW237143   6.838   0.059   7.167 -0.6538  0.7210  0.8297
11375SOL     OW37144   6.689   6.283   5.630 -0.4427  0.4935  0.3082
11375SOL    HW137145   6.729   6.366   5.657 -0.8932  0.8748 -0.1812
11375SOL    HW237146   6.721   6.219   5.693  2.0747  0.5075 -0.8989
11376SOL     OW37147   7.184   5.192   3.654 -0.0271  0.4751 -0.1412
11376SOL    HW137148   7.266   5.164   3.693  0.8129  2.6180 -0.3225
11376SOL    HW237149   7.210   5.240   3.575 -1.4786  0.6848 -0.5081
11377SOL     OW37150   6.356   4.503   5.462  0.1156  0.4826 -0.4200
11377SOL    HW137151   6.278   4.537   5.507  1.1465  1.0758  0.9377
11377SOL    HW237152   6.362   4.412   5.490  0.5867  0.7694  0.4515
11378SOL     OW37153   7.912   2.571   7.253 -0.3868  0.6571 -0.1766
11378SOL    HW137154   7.829   2.607   7.285 -1.1424  0.4923 -1.8815
11378SOL    HW237155   7.918   2.485   7.295 -0.6846  0.9896  0.5620
11379SOL     OW37156   0.811   3.756   8.226 -0.1298 -0.3411  0.3732
11379SOL    HW137157   0.805   3.744   8.321 -2.1120 -0.8630  0.2267
11379SOL    HW237158   0.727   3.723   8.193 -0.4787  2.1143 -1.3393
11380SOL     OW37159   2.410   8.244   4.595  0.1454 -0.2394  0.2024
11380SOL    HW137160   2.337   8.198   4.637 -1.4524 -0.0521 -2.2982
11380SOL    HW237161   2.380   8.334   4.586  1.3349  0.2077  0.5994
11381SOL     OW37162   6.242   2.009   1.570  0.0413  0.6403 -0.0216
11381SOL    HW137163   6.334   1.993   1.591  0.0736 -0.0478 -0.6713
11381SOL    HW237164   6.239   2.005   1.475 -0.2210  3.0817 -0.1317
11382SOL     OW37165   6.038   1.488   1.005  0.2446 -0.2963 -0.0374
11382SOL    HW137166   6.061   1.444   0.923  1.4830  1.3798 -0.6086
11382SOL    HW237167   6.085   1.438   1.073  0.2060 -0.9353 -0.4773
11383SOL     OW37168   4.905   2.588   1.291 -0.3548 -0.2391  0.3801
11383SOL    HW137169   4.979   2.533   1.265  1.8250  1.8854  1.9391
11383SOL    HW237170   4.887   2.562   1.381  0.4814  1.3498  1.0162
11384SOL     OW37171   4.552   0.876   5.794  0.2456  0.1784  0.5534
11384SOL    HW137172   4.505   0.931   5.732  0.9769  0.3615  0.1597
11384SOL    HW237173   4.558   0.790   5.751  1.7079  0.5963 -0.1112
11385SOL     OW37174   7.880   2.578   0.272 -0.0148  0.0681  0.1024
11385SOL    HW137175   7.819   2.598   0.344  0.6812 -0.1125  0.7520
11385SOL    HW237176   7.855   2.490   0.243 -0.6487  0.3598 -0.2392
11386SOL     OW37177   5.539   0.023   0.933 -0.0538  0.1209 -0.3208
11386SOL    HW137178   5.562   0.095   0.873 -0.3788  0.7450  0.3001
11386SOL    HW237179   5.578   0.048   1.016 -0.0599 -0.4909 -0.1323
11387SOL     OW37180   6.270   2.803   2.192  0.1333 -0.3323 -0.7144
11387SOL    HW137181   6.258   2.875   2.253  1.3333 -0.2705 -0.5394
11387SOL    HW237182   6.204   2.739   2.218 -0.8348  0.6277 -0.7743
11388SOL     OW37183   7.030   9.423   8.580  0.0504 -0.0811  0.4645
11388SOL    HW137184   7.105   9.377   8.617 -0.1934  0.4450  1.6091
11388SOL    HW237185   7.052   9.432   8.487  1.3021 -0.1363  0.7474
11389SOL     OW37186   2.185   0.717   0.378  0.4699 -0.4491 -0.2507
11389SOL    HW137187   2.252   0.783   0.361 -0.7326  0.7247 -0.5739
11389SOL    HW237188   2.168   0.677   0.293 -0.1665  0.1796 -0.4290
11390SOL     OW37189   5.278   6.179   2.787 -0.4713 -0.7047  0.2299
11390SOL    HW137190   5.257   6.169   2.880 -1.2987 -0.0897  0.1115
11390SOL    HW237191   5.198   6.212   2.748 -0.1482 -1.0466 -0.7249
11391SOL     OW37192   4.484   0.627   7.004 -0.6676  0.6631 -0.4005
11391SOL    HW137193   4.411   0.583   7.047 -0.0252  1.6105  1.7458
11391SOL    HW237194   4.452   0.649   6.917 -2.0561 -1.2070 -0.3952
11392SOL     OW37195   7.019   3.377   9.283  0.4270  0.2834 -0.1779
11392SOL    HW137196   6.959   3.450   9.267 -0.9068 -0.5936  0.7366
11392SOL    HW237197   7.085   3.413   9.343  0.1250  0.8868 -0.2011
11393SOL     OW37198   4.165   7.526   3.268  0.2850  0.2371 -0.3181
11393SOL    HW137199   4.245   7.474   3.267  1.2951  1.7001 -4.2578
11393SOL    HW237200   4.193   7.614   3.241 -2.1594  1.6412  1.4507
11394SOL     OW37201   0.093   6.335   6.222  0.3434  0.2156 -0.3439
11394SOL    HW137202   0.159   6.280   6.179  1.8650  2.3830 -0.8578
11394SOL    HW237203   0.113   6.424   6.192 -0.8950  1.3073  1.9512
11395SOL     OW37204   0.015   7.409   1.238  0.8026  0.6144  0.1950
11395SOL    HW137205   0.011   7.389   1.144  0.3331 -1.1601  0.5728
11395SOL    HW237206  -0.068   7.375   1.272  1.1160  0.9586  1.3035
11396SOL     OW37207   5.931   0.741   2.494  0.2798  0.2009  0.2911
11396SOL    HW137208   5.883   0.675   2.545  0.4554  0.5155  0.8751
11396SOL    HW237209   5.876   0.758   2.418 -0.0514 -0.1792  0.4433
11397SOL     OW37210   7.612   9.303   5.183 -0.3986  0.4559 -0.5352
11397SOL    HW137211   7.520   9.279   5.166 -0.1284 -0.5623 -0.6098
11397SOL    HW237212   7.627   9.381   5.130 -1.2290  0.6246 -0.5255
11398SOL     OW37213   9.303   7.545   8.667  0.3552  0.0492  0.2391
11398SOL    HW137214   9.255   7.628   8.662 -2.2407 -1.4600 -0.9099
11398SOL    HW237215   9.361   7.546   8.591 -1.3947 -0.1858 -1.1274
11399SOL     OW37216   3.907   3.805   0.606  0.1198 -0.5830 -0.2808
11399SOL    HW137217   3.970   3.837   0.670 -0.0250 -2.5073  0.8516
11399SOL    HW237218   3.945   3.829   0.521  0.9256  0.8527  0.4710
11400SOL     OW37219   1.375   2.378   4.373 -0.0094 -0.1366  0.0440
11400SOL    HW137220   1.290   2.340   4.348 -0.7181  1.3324  0.1822
11400SOL    HW237221   1.384   2.455   4.316  1.3143 -0.3848 -0.0838
11401SOL     OW37222   2.058   4.546   0.816  0.1196  0.7018 -0.2963
11401SOL    HW137223   1.974   4.586   0.792 -0.1860 -1.1434 -2.4335
11401SOL    HW237224   2.116   4.620   0.833 -1.8131  2.0062  0.8173
11402SOL     OW37225   6.783   5.694   3.338 -0.3340 -0.0528 -0.0464
11402SOL    HW137226   6.821   5.700   3.426 -0.5662 -0.3474  0.0753
11402SOL    HW237227   6.843   5.636   3.290 -0.4783 -0.2973  0.0659
11403SOL     OW37228   8.325   7.997   4.416 -0.2953 -0.1987  0.1377
11403SOL    HW137229   8.255   8.038   4.467 -1.5422 -1.1885 -0.7771
11403SOL    HW237230   8.386   7.965   4.483  0.6756  2.9886  0.8981
11404SOL     OW37231   1.131   9.059   5.285 -0.0172 -0.2526 -0.1822
11404SOL    HW137232   1.130   9.002   5.362 -2.4245  0.6046  0.4644
11404SOL    HW237233   1.139   9.147   5.321  0.5571  0.0418 -1.0107
11405SOL     OW37234   5.411   8.881   6.123 -0.3430  0.2667 -0.0439
11405SOL    HW137235   5.393   8.973   6.107  0.3339  0.4221  0.0544
11405SOL    HW237236   5.370   8.834   6.050 -0.3097  0.6784 -0.3242
11406SOL     OW37237   7.718   6.902   7.344 -0.1263  0.4267  0.2189
11406SOL    HW137238   7.692   6.971   7.282 -1.3852  1.1328  1.5120
11406SOL    HW237239   7.776   6.845   7.293 -1.6702  0.6203 -1.8027
11407SOL     OW37240   1.871   1.248   2.330 -0.6106 -0.3213  0.1593
11407SOL    HW137241   1.844   1.197   2.253  0.7705  0.5128 -0.9007
11407SOL    HW237242   1.812   1.323   2.331  0.1325  0.2922 -0.8026
11408SOL     OW37243   2.959   0.060   5.382  0.4756  0.6478 -0.0830
11408SOL    HW137244   2.934   0.141   5.338  0.3634  0.4290 -0.4165
11408SOL    HW237245   3.018   0.089   5.452 -0.7000  1.1594  0.7124
11409SOL     OW37246   0.105   7.301   7.908  0.5152  0.1076 -0.1405
11409SOL    HW137247   0.134   7.380   7.955 -0.4683  1.3876 -1.6389
11409SOL    HW237248   0.010   7.301   7.919  0.6183 -1.5982  0.9361
11410SOL     OW37249   1.686   0.781   2.600  0.4430 -0.3947  0.4852
11410SOL    HW137250   1.676   0.691   2.569  0.4039 -0.2223 -0.0110
11410SOL    HW237251   1.613   0.795   2.661 -1.6613  0.4485 -2.1355
11411SOL     OW37252   1.377   8.841   2.153 -0.1436 -0.0254  0.2719
11411SOL    HW137253   1.380   8.856   2.058 -0.0154 -0.3508  0.2231
11411SOL    HW237254   1.457   8.791   2.171  0.4892  1.1274  0.7480
11412SOL     OW37255   3.693   7.321   4.128 -0.2415  0.4986 -0.0250
11412SOL    HW137256   3.691   7.332   4.033  0.6113 -1.0485 -0.2442
11412SOL    HW237257   3.750   7.245   4.142 -0.5624  0.5549  1.7070
11413SOL     OW37258   2.066   2.221   3.873 -0.0225 -0.4905  0.7713
11413SOL    HW137259   2.029   2.133   3.886 -2.5063  0.3325 -0.3721
11413SOL    HW237260   2.101   2.219   3.784 -1.8928  0.2476 -0.0129
11414SOL     OW37261   6.034   5.148   2.394 -0.1609  0.1459 -0.7423
11414SOL    HW137262   6.058   5.074   2.337  0.2682 -0.4784  0.2312
11414SOL    HW237263   6.080   5.131   2.476 -1.4797  0.5589  0.1005
11415SOL     OW37264   6.705   5.770   4.935 -0.1086 -0.1037  0.0162
11415SOL    HW137265   6.657   5.698   4.893  0.8903 -0.9972  0.3949
11415SOL    HW237266   6.782   5.782   4.880  0.2673 -0.0364  0.5560
11416SOL     OW37267   8.962   4.832   7.393  0.1262  0.1941  0.1219
11416SOL    HW137268   8.887   4.775   7.411 -0.1661  0.3445 -0.6052
11416SOL    HW237269   8.923   4.915   7.367  0.5476  0.3429 -0.0333
11417SOL     OW37270   9.160   5.647   0.699 -0.0033  0.2131  0.2897
11417SOL    HW137271   9.108   5.608   0.628  0.0515  1.0142 -0.1902
11417SOL    HW237272   9.233   5.689   0.655  0.0236  0.7266  0.8271
11418SOL     OW37273   5.327   2.126   9.353  0.0840  0.0374  0.4446
11418SOL    HW137274   5.306   2.095   9.265  0.2540  0.0982  0.3819
11418SOL    HW237275   5.283   2.063   9.411  1.2511 -0.9022  0.3259
11419SOL     OW37276   4.232   2.431   2.208 -0.4847  0.1832 -0.2886
11419SOL    HW137277   4.281   2.436   2.125  0.3682  0.7405  0.2332
11419SOL    HW237278   4.272   2.358   2.255  0.0606  0.8394  0.2716
11420SOL     OW37279   6.826   3.659   8.181  0.0923  0.3183 -0.1761
11420SOL    HW137280   6.834   3.716   8.257  0.1039  0.5027 -0.3131
11420SOL    HW237281   6.851   3.572   8.213  1.6424  0.6855 -0.3378
11421SOL     OW37282   4.265   8.806   8.770  0.1584  0.1710 -0.0873
11421SOL    HW137283   4.275   8.783   8.678 -0.1701  0.7315 -0.2686
11421SOL    HW237284   4.353   8.802   8.806 -0.0253 -2.4019  0.1473
11422SOL     OW37285   0.731   7.137   8.973 -0.1521 -0.2165  0.2942
11422SOL    HW137286   0.688   7.143   9.058  0.3972 -1.4108  0.6678
11422SOL    HW237287   0.770   7.223   8.960 -0.3355  0.0111  1.1994
11423SOL     OW37288   7.294   1.195   6.329  0.7209 -0.0705 -0.1429
11423SOL    HW137289   7.258   1.264   6.273 -0.7512 -1.0731 -0.4598
11423SOL    HW237290   7.381   1.177   6.293  1.2818  1.8977  0.1873
11424SOL     OW37291   6.612   1.402   5.433  0.5663  0.4694 -0.3006
11424SOL    HW137292   6.586   1.426   5.345  1.0885 -0.2695 -0.6653
11424SOL    HW237293   6.676   1.469   5.459 -0.1616  1.1195 -0.1830
11425SOL     OW37294   0.753   9.438   1.283 -0.3951 -0.6526 -0.2034
11425SOL    HW137295   0.818   9.369   1.301  1.3230  1.4372  1.9388
11425SOL    HW237296   0.773   9.466   1.193 -1.3107 -3.1022 -1.2173
11426SOL     OW37297   9.103   6.162   6.208  0.7219 -0.2882 -0.0190
11426SOL    HW137298   9.067   6.114   6.133  1.4665 -0.7260 -0.1048
11426SOL    HW237299   9.092   6.103   6.282  0.0070  0.1367  0.2097
11427SOL     OW37300   9.203   4.112   9.109 -0.4137  0.0404 -0.1366
11427SOL    HW137301   9.110   4.128   9.123 -0.5749 -1.4262  0.4913
11427SOL    HW237302   9.227   4.049   9.176  1.1333  0.6999 -0.0470
11428SOL     OW37303   7.113   0.087   4.008  0.2946  0.4094 -0.0802
11428SOL    HW137304   7.034   0.135   4.032  0.4675  1.2659 -1.2090
11428SOL    HW237305   7.131   0.112   3.918  0.1918 -2.0490 -0.8223
11429SOL     OW37306   7.729   5.314   5.010  0.3156  0.2433  0.0406
11429SOL    HW137307   7.807   5.267   4.982  0.7527  1.7423 -1.3451
11429SOL    HW237308   7.666   5.302   4.938  0.1624  1.1033  0.0242
11430SOL     OW37309   3.290   3.593   8.164  0.0332  0.2575 -0.6445
11430SOL    HW137310   3.292   3.654   8.238  0.8761  0.5385 -0.8907
11430SOL    HW237311   3.378   3.556   8.161 -0.6438 -1.4438 -0.1230
11431SOL     OW37312   7.833   6.571   2.313  0.7508 -0.2799  0.0144
11431SOL    HW137313   7.908   6.513   2.326  0.8774 -0.4281 -1.2762
11431SOL    HW237314   7.860   6.629   2.242  0.0974  0.4616  0.3604
11432SOL     OW37315   3.255   4.077   9.413 -0.1190 -0.2204  0.5587
11432SOL    HW137316   3.340   4.112   9.436 -0.6782  1.9177 -0.5385
11432SOL    HW237317   3.256   4.072   9.317 -0.6447 -1.7452  0.6043
11433SOL     OW37318   5.912   0.995   7.133  0.2108  0.2510 -0.2962
11433SOL    HW137319   5.836   0.952   7.095 -0.0231 -0.9316  1.4612
11433SOL    HW237320   5.987   0.945   7.100  0.1652  0.7207 -1.1191
11434SOL     OW37321   8.271   5.438   7.404 -0.1875  1.0295 -0.1641
11434SOL    HW137322   8.260   5.449   7.499  2.9237 -0.8839  0.5094
11434SOL    HW237323   8.237   5.351   7.385 -2.1453  1.9668 -1.1130
11435SOL     OW37324   4.158   0.412   0.392 -0.5691  0.7918 -0.1670
11435SOL    HW137325   4.077   0.458   0.372 -0.5011  0.6378 -0.8104
11435SOL    HW237326   4.223   0.451   0.334 -0.9798 -1.6020 -2.3466
11436SOL     OW37327   9.411   0.354   7.103  0.5557  0.7495  1.1293
11436SOL    HW137328   9.492   0.396   7.072 -0.1386  3.0884  2.3456
11436SOL    HW237329   9.344   0.382   7.040  0.8040 -1.9043 -0.3858
11437SOL     OW37330   1.236   8.640   1.218  0.1761 -0.0779 -0.2160
11437SOL    HW137331   1.188   8.576   1.270  0.4947  2.0054  2.7906
11437SOL    HW237332   1.328   8.618   1.233  0.2726 -0.6806 -1.5684
11438SOL     OW37333   9.161   5.524   4.655  0.2593  0.4489  0.4251
11438SOL    HW137334   9.220   5.600   4.649  0.1525  0.8011  3.0665
11438SOL    HW237335   9.207   5.463   4.714 -0.4730 -0.7545 -0.2386
11439SOL     OW37336   7.463   4.962   6.130 -0.0596  0.0666  0.5097
11439SOL    HW137337   7.378   4.920   6.119 -0.0444  0.4742 -1.3893
11439SOL    HW237338   7.521   4.913   6.072  0.2708  1.8132 -0.6607
11440SOL     OW37339   0.427   1.205   5.131 -0.4099 -0.5958  0.1688
11440SOL    HW137340   0.370   1.249   5.194  1.6053  1.8611  0.3498
11440SOL    HW237341   0.391   1.225   5.046 -1.2483 -1.1695  0.3828
11441SOL     OW37342   2.721   0.004   7.086 -0.6862 -0.2024 -0.7544
11441SOL    HW137343   2.770   0.082   7.113 -1.4853  0.9840 -2.6826
11441SOL    HW237344   2.679  -0.027   7.167 -2.0983  2.6115 -0.3578
11442SOL     OW37345   0.146   4.623   6.281  0.2155 -0.0652  0.0452
11442SOL    HW137346   0.146   4.643   6.188  2.3529 -0.5507 -0.0893
11442SOL    HW237347   0.128   4.529   6.285 -1.1699  0.2018  0.2004
11443SOL     OW37348   2.922   0.399   1.679 -0.2317  0.2832 -0.5671
11443SOL    HW137349   2.894   0.369   1.593 -1.6828 -1.2247  0.3974
11443SOL    HW237350   2.942   0.319   1.727  0.1017  1.0870  0.6632
11444SOL     OW37351   7.765   8.632   7.951 -0.7576  0.3739 -0.0670
11444SOL    HW137352   7.796   8.643   7.861  2.5125  3.0487  1.2866
11444SOL    HW237353   7.676   8.668   7.950 -1.1341 -0.4832 -2.3871
11445SOL     OW37354   0.958   2.389   2.432 -0.0304  0.0541 -0.3445
11445SOL    HW137355   0.991   2.305   2.465  1.0047 -0.0744 -1.6597
11445SOL    HW237356   1.032   2.427   2.385 -0.7402  1.3424 -0.4362
11446SOL     OW37357   6.363   5.961   5.118  0.3178  0.2078 -0.0067
11446SOL    HW137358   6.447   6.007   5.112  0.5505 -0.1575  0.4704
11446SOL    HW237359   6.381   5.872   5.088  0.5079 -0.3859  1.8105
11447SOL     OW37360   3.046   1.512   3.715 -0.9570 -0.4218  0.2186
11447SOL    HW137361   2.995   1.431   3.716 -1.0938 -0.4324 -2.9037
11447SOL    HW237362   3.127   1.489   3.669 -0.6346  0.9900  0.0508
11448SOL     OW37363   9.149   2.584   8.477 -0.5573  0.5090 -0.6658
11448SOL    HW137364   9.153   2.495   8.444  0.6346 -0.5863  2.2750
11448SOL    HW237365   9.241   2.613   8.476 -0.3420  0.0533  2.6091
11449SOL     OW37366   3.291   6.887   4.007 -0.5594 -0.1650 -0.2647
11449SOL    HW137367   3.368   6.926   4.047 -0.6309 -0.6940  0.3984
11449SOL    HW237368   3.217   6.937   4.044 -0.6029 -0.4063 -0.0258
11450SOL     OW37369   6.938   0.147   2.360 -0.4134 -0.3462 -0.3018
11450SOL    HW137370   6.929   0.166   2.267 -0.5667 -0.4127 -0.3008
11450SOL    HW237371   7.031   0.160   2.379 -1.0173  3.5948  0.3873
11451SOL     OW37372   6.238   3.610   2.222 -0.2869  0.1371 -0.1428
11451SOL    HW137373   6.205   3.699   2.235  2.3838  0.8935  2.2272
11451SOL    HW237374   6.187   3.557   2.283 -0.7004  0.3534 -0.2972
11452SOL     OW37375   5.815   6.491   4.241  0.9794 -0.1051 -0.1058
11452SOL    HW137376   5.787   6.445   4.162 -0.7211 -0.0863  0.4695
11452SOL    HW237377   5.774   6.577   4.234 -0.9355 -0.8136  1.7925
11453SOL     OW37378   5.943   8.002   2.788 -0.2632  0.0860  0.4979
11453SOL    HW137379   5.853   8.023   2.815  0.0807 -0.6609  2.2776
11453SOL    HW237380   5.956   8.053   2.708 -2.3014  0.1331  0.1617
11454SOL     OW37381   3.555   7.853   9.224  0.2558 -0.1340  0.3508
11454SOL    HW137382   3.567   7.796   9.300  2.4647 -0.1822 -0.0141
11454SOL    HW237383   3.631   7.911   9.225 -0.7262  1.1991 -0.6851
11455SOL     OW37384   3.680   6.803   7.609 -0.2117 -0.1339  0.1590
11455SOL    HW137385   3.740   6.858   7.559 -0.9068  1.4148  0.9950
11455SOL    HW237386   3.598   6.807   7.561 -0.2740 -0.4523  0.2326
11456SOL     OW37387   1.868   6.417   8.720  0.1988 -0.2543  0.0809
11456SOL    HW137388   1.779   6.394   8.693  1.1388 -1.5504 -2.0268
11456SOL    HW237389   1.875   6.511   8.702 -0.0684 -0.5670 -1.7724
11457SOL     OW37390   6.608   6.830   9.214  0.0723 -0.3096  0.0885
11457SOL    HW137391   6.602   6.888   9.289 -0.5527  1.1716 -1.0955
11457SOL    HW237392   6.695   6.791   9.221  0.2276  0.2283  1.2681
11458SOL     OW37393   5.111   5.457   1.839  0.7909  0.1701  0.1317
11458SOL    HW137394   5.134   5.525   1.903  0.6008  0.6665 -0.3294
11458SOL    HW237395   5.080   5.505   1.763 -0.9316 -0.4811  0.4089
11459SOL     OW37396   7.386   6.894   4.409  0.1280 -0.1225  0.0087
11459SOL    HW137397   7.421   6.982   4.424  0.6195 -0.6047  1.7759
11459SOL    HW237398   7.312   6.908   4.350  0.8992  1.3379 -0.6533
11460SOL     OW37399   3.976   2.170   5.008 -0.1886 -0.1754 -0.6651
11460SOL    HW137400   3.880   2.167   5.011 -0.1550 -0.2869  0.5521
11460SOL    HW237401   3.996   2.201   4.920 -1.3500  0.1956 -0.8083
11461SOL     OW37402   4.583   5.371   7.021  0.2773 -0.0385 -0.1967
11461SOL    HW137403   4.506   5.320   7.046 -0.0467  1.1561  1.3572
11461SOL    HW237404   4.655   5.332   7.071 -0.0747  1.3150  1.4486
11462SOL     OW37405   1.327   4.976   4.648 -0.0354 -0.0567 -0.6009
11462SOL    HW137406   1.325   4.986   4.553  0.4887 -1.6177 -0.7928
11462SOL    HW237407   1.358   5.060   4.681  1.2592 -0.0004 -1.9157
11463SOL     OW37408   8.762   1.801   6.659 -0.0923  0.0318  0.0786
11463SOL    HW137409   8.822   1.783   6.732  0.6469  0.8108 -0.3257
11463SOL    HW237410   8.773   1.727   6.599  1.4011  0.7821 -0.5936
11464SOL     OW37411   8.344   7.459   3.939 -0.2983  0.1122  0.8675
11464SOL    HW137412   8.305   7.480   4.024 -0.6292 -0.0581  0.7595
11464SOL    HW237413   8.273   7.416   3.891  0.2046 -0.7329  0.8773
11465SOL     OW37414   6.537   5.079   5.940 -0.0633  0.1727 -0.1240
11465SOL    HW137415   6.494   4.994   5.941 -0.3262  0.3045  1.6301
11465SOL    HW237416   6.476   5.136   5.893 -1.7603  0.3088  2.1283
11466SOL     OW37417   9.330   1.107   4.088 -0.4458  0.1164 -0.4055
11466SOL    HW137418   9.350   1.019   4.119  0.3752  0.3651 -0.2212
11466SOL    HW237419   9.243   1.126   4.123  0.3590  0.2996  1.5404
11467SOL     OW37420   3.900   7.270   3.747  0.0483  0.0025 -0.1776
11467SOL    HW137421   3.930   7.235   3.830 -1.2792  0.2070  0.4001
11467SOL    HW237422   3.901   7.196   3.687 -1.0667 -0.6408  0.5866
11468SOL     OW37423   8.272   5.148   2.837 -0.1996 -0.1911  0.2054
11468SOL    HW137424   8.314   5.070   2.871  0.1093 -0.4497 -0.7645
11468SOL    HW237425   8.246   5.197   2.915  1.1946 -0.3950  0.8133
11469SOL     OW37426   2.284   1.082   1.099 -0.2437  0.0297 -0.1028
11469SOL    HW137427   2.260   1.155   1.157  0.6352  1.4552 -1.5002
11469SOL    HW237428   2.222   1.087   1.027 -0.8120 -1.2431  0.2826
11470SOL     OW37429   1.188   8.430   0.099 -0.1214 -0.0005  0.2713
11470SOL    HW137430   1.250   8.418   0.171  0.5995 -0.8875 -0.4796
11470SOL    HW237431   1.237   8.477   0.032 -0.0368 -1.3073 -0.6021
11471SOL     OW37432   1.684   2.897   3.010 -0.0938 -0.2749 -0.5843
11471SOL    HW137433   1.739   2.911   3.086  0.3758  1.2643 -1.1877
11471SOL    HW237434   1.594   2.906   3.043  0.0800 -0.6248 -0.0209
11472SOL     OW37435   9.268   9.360   8.361  0.0267 -0.6144 -0.1659
11472SOL    HW137436   9.222   9.441   8.341 -0.6088 -1.1553 -0.9367
11472SOL    HW237437   9.274   9.359   8.457 -1.8434 -0.6752 -0.0304
11473SOL     OW37438   4.963   0.245   2.749  0.1509  0.0737 -0.3116
11473SOL    HW137439   4.906   0.169   2.740 -1.3644  0.8154  2.5475
11473SOL    HW237440   4.909   0.311   2.793  2.0650  2.1207 -0.9098
11474SOL     OW37441   8.674   0.327   3.493 -0.1888 -0.1975  0.7798
11474SOL    HW137442   8.719   0.283   3.420 -1.1843  0.1794 -0.0646
11474SOL    HW237443   8.597   0.272   3.510 -0.4835  0.2531  0.8968
11475SOL     OW37444   8.530   7.528   4.402 -0.4324 -0.4272 -0.1202
11475SOL    HW137445   8.461   7.481   4.449  1.6978 -2.3156  1.1981
11475SOL    HW237446   8.544   7.476   4.323 -0.5055 -0.0436 -0.3866
11476SOL     OW37447   6.053   2.055   4.866  0.1043  0.3954  0.1546
11476SOL    HW137448   6.024   2.038   4.776  0.9556 -0.4068  0.0297
11476SOL    HW237449   6.139   2.096   4.857  0.2416  0.2119  0.6049
11477SOL     OW37450   2.580   0.637   2.723  0.0585  0.4814 -0.1062
11477SOL    HW137451   2.568   0.579   2.647 -0.0091  2.4725 -1.6409
11477SOL    HW237452   2.673   0.627   2.746 -0.6551 -2.7683  1.7955
11478SOL     OW37453   6.659   2.666   7.733  0.3410  0.2152 -0.3494
11478SOL    HW137454   6.648   2.623   7.649 -0.2097  0.1251 -0.2314
11478SOL    HW237455   6.595   2.737   7.732 -0.0135 -0.0932  0.1951
11479SOL     OW37456   9.312   7.575   5.670  0.0673 -0.5920  0.7253
11479SOL    HW137457   9.229   7.620   5.653  0.6402 -0.3052 -1.4840
11479SOL    HW237458   9.321   7.576   5.765 -2.3494 -0.4269  0.9804
11480SOL     OW37459   8.413   0.202   7.455  1.0944 -0.7732 -0.3099
11480SOL    HW137460   8.356   0.176   7.527  0.6180 -0.2415 -0.4979
11480SOL    HW237461   8.484   0.251   7.498  0.7618 -0.3753 -0.2102
11481SOL     OW37462   8.695   0.305   5.228 -0.2552 -0.2246  0.1736
11481SOL    HW137463   8.726   0.362   5.298 -3.0733  0.1645  1.1809
11481SOL    HW237464   8.668   0.365   5.159  2.9964 -0.6219 -1.5562
11482SOL     OW37465   1.835   5.229   5.055 -0.2301  0.2891  0.2200
11482SOL    HW137466   1.886   5.263   4.982  0.7916  0.3127  0.9211
11482SOL    HW237467   1.894   5.165   5.097 -0.5883  0.6793  1.3408
11483SOL     OW37468   2.395   5.598   9.206  0.4005  0.4046 -0.0055
11483SOL    HW137469   2.364   5.509   9.191 -0.5420  0.6051  0.7265
11483SOL    HW237470   2.491   5.590   9.206  0.3233 -0.6415  0.2475
11484SOL     OW37471   8.826   2.160   2.449 -0.8137  0.5047  0.0006
11484SOL    HW137472   8.906   2.201   2.415  0.1577 -1.1501  0.2031
11484SOL    HW237473   8.790   2.224   2.510  0.3415  1.2994 -0.1359
11485SOL     OW37474   1.368   8.688   3.132 -0.1378 -0.1555  0.2436
11485SOL    HW137475   1.296   8.737   3.172 -0.3064  0.2295 -0.5216
11485SOL    HW237476   1.357   8.701   3.038  1.0649  0.0973  0.1211
11486SOL     OW37477   3.296   6.683   1.285 -0.8212 -0.1747  0.5144
11486SOL    HW137478   3.214   6.689   1.236  0.1953  2.1618 -0.9585
11486SOL    HW237479   3.359   6.645   1.223 -0.6316 -1.4773  1.4771
11487SOL     OW37480   2.158   4.301   0.886 -0.4973  0.0407  0.2820
11487SOL    HW137481   2.110   4.374   0.845 -1.1979 -1.0116 -0.8032
11487SOL    HW237482   2.234   4.343   0.927 -0.8111  1.3671 -0.4489
11488SOL     OW37483   7.082   4.104   3.076  0.3812  0.2033 -0.4251
11488SOL    HW137484   7.122   4.085   3.161  1.8116 -0.6282 -1.2589
11488SOL    HW237485   7.155   4.102   3.015 -0.4571  2.0476 -1.5057
11489SOL     OW37486   6.186   5.845   4.545 -0.3541 -0.3251  0.4396
11489SOL    HW137487   6.134   5.923   4.562  1.8919  1.3423 -0.1248
11489SOL    HW237488   6.212   5.814   4.632 -0.2521  0.2305  0.6032
11490SOL     OW37489   8.385   7.257   1.476 -0.1812  0.1260 -0.1361
11490SOL    HW137490   8.432   7.243   1.558  1.3103 -2.2453 -1.3305
11490SOL    HW237491   8.337   7.338   1.489  0.7103  0.2339  2.7665
11491SOL     OW37492   3.173   1.489   1.571  0.2513  0.0559 -0.6540
11491SOL    HW137493   3.260   1.464   1.539 -0.6156  0.2350 -3.1984
11491SOL    HW237494   3.173   1.585   1.569  0.6406  0.1141  1.1763
11492SOL     OW37495   5.840   8.283   3.375  0.3395 -0.1983 -0.6603
11492SOL    HW137496   5.791   8.266   3.456  1.5845 -1.0948 -0.0790
11492SOL    HW237497   5.801   8.224   3.310 -0.1306 -0.0516 -0.5142
11493SOL     OW37498   4.908   0.368   4.993 -0.3240 -0.3208 -0.3340
11493SOL    HW137499   4.836   0.344   5.052  0.7835 -1.8637  0.4251
11493SOL    HW237500   4.951   0.442   5.036  0.0896 -1.0308  0.4853
11494SOL     OW37501   9.228   5.670   6.983 -0.3117  0.0959  0.3024
11494SOL    HW137502   9.286   5.630   7.047  1.9219  1.5109 -0.7879
11494SOL    HW237503   9.209   5.757   7.019  1.8800  1.3446 -1.4398
11495SOL     OW37504   7.727   5.443   4.447 -1.1523 -0.0310 -0.0636
11495SOL    HW137505   7.638   5.420   4.473 -0.6638 -1.1423  0.6575
11495SOL    HW237506   7.738   5.533   4.478 -1.6335 -0.2836  0.8618
11496SOL     OW37507   8.817   5.408   9.376  0.2530 -0.1225 -0.6420
11496SOL    HW137508   8.783   5.415   9.286 -1.7489 -0.2046  0.0800
11496SOL    HW237509   8.842   5.316   9.384 -0.4190 -0.3292 -0.8332
11497SOL     OW37510   5.952   2.099   5.409  0.3406  0.1333  0.1275
11497SOL    HW137511   5.865   2.060   5.411  0.0806  0.5943 -1.5219
11497SOL    HW237512   5.937   2.191   5.390  1.3003 -0.4075 -3.7605
11498SOL     OW37513   3.552   0.106   5.819 -0.2594  0.1895 -0.4906
11498SOL    HW137514   3.462   0.120   5.849 -0.1685  0.3849 -0.3099
11498SOL    HW237515   3.550   0.129   5.726 -0.9851 -2.2401 -1.1146
11499SOL     OW37516   3.426   6.032   0.691  0.4206  0.1384 -0.0292
11499SOL    HW137517   3.448   5.979   0.768  0.2526 -0.3904 -0.3413
11499SOL    HW237518   3.346   5.992   0.657 -0.0031  0.9242  0.0360
11500SOL     OW37519   3.762   6.331   1.804 -0.2862 -0.2392  0.1903
11500SOL    HW137520   3.679   6.296   1.770 -0.5081 -1.2230  1.7010
11500SOL    HW237521   3.828   6.300   1.741 -1.0527  0.5961 -1.0516
11501SOL     OW37522   4.953   5.364   3.961 -0.0219 -0.6072  0.1430
11501SOL    HW137523   4.884   5.338   4.021  1.1712  0.6547  2.1003
11501SOL    HW237524   4.990   5.444   3.999  1.0332 -0.0147 -2.0403
11502SOL     OW37525   9.145   0.140   8.292 -0.3909 -0.2857 -0.0776
11502SOL    HW137526   9.174   0.194   8.365  1.5772  1.4477 -2.0565
11502SOL    HW237527   9.145   0.200   8.217 -0.9689 -2.3540 -1.7789
11503SOL     OW37528   4.295   0.793   0.948 -0.0683  0.0964  0.0616
11503SOL    HW137529   4.222   0.732   0.943  0.2149 -0.1742 -0.9153
11503SOL    HW237530   4.291   0.829   1.037  0.2342 -1.9115  0.9019
11504SOL     OW37531   7.818   4.995   0.354  0.2418 -0.2867  0.3074
11504SOL    HW137532   7.909   5.020   0.344  0.4904 -1.6440 -0.9591
11504SOL    HW237533   7.816   4.943   0.435  0.8249 -1.3634 -0.3691
11505SOL     OW37534   6.119   7.939   5.444 -0.5859  0.2097 -0.8477
11505SOL    HW137535   6.189   7.975   5.499 -1.4564  1.3173 -0.4433
11505SOL    HW237536   6.161   7.920   5.361  0.9700 -2.3476  0.4608
11506SOL     OW37537   3.201   2.240   7.332  0.3710  0.0863  0.0379
11506SOL    HW137538   3.296   2.232   7.335  0.5341  2.1462  1.2228
11506SOL    HW237539   3.168   2.163   7.378  1.4841 -0.2097  0.3360
11507SOL     OW37540   3.392   0.263   7.410 -0.1102 -0.2591 -0.4518
11507SOL    HW137541   3.456   0.329   7.436 -0.8331 -0.5733  2.2486
11507SOL    HW237542   3.443   0.193   7.372  1.2928 -0.9698  2.6209
11508SOL     OW37543   1.896   8.705   2.668  0.4063 -0.0755 -0.1685
11508SOL    HW137544   1.936   8.619   2.678  1.2509  0.2641 -0.5377
11508SOL    HW237545   1.865   8.707   2.577  0.1460 -0.0933 -0.0794
11509SOL     OW37546   0.411   0.326   4.420  0.3680 -0.5728  0.7169
11509SOL    HW137547   0.373   0.302   4.336 -0.6512 -0.4784  1.1399
11509SOL    HW237548   0.409   0.246   4.472  0.3006 -0.4570  0.8983
11510SOL     OW37549   7.506   9.424   7.610 -0.0162 -1.0266  0.2754
11510SOL    HW137550   7.421   9.388   7.637 -0.8498 -0.3704 -1.3809
11510SOL    HW237551   7.483   9.493   7.548  1.7073 -0.1373  0.6028
11511SOL     OW37552   4.508   2.352   7.775 -0.5308 -0.0089  0.2113
11511SOL    HW137553   4.557   2.399   7.843 -0.8478 -1.6233  1.6044
11511SOL    HW237554   4.436   2.309   7.823 -0.4825 -1.5590 -1.0597
11512SOL     OW37555   8.143   3.950   4.506 -0.0197  0.7264 -0.1944
11512SOL    HW137556   8.159   3.861   4.539 -3.3330 -0.0313 -0.4090
11512SOL    HW237557   8.216   3.967   4.447  2.9278 -0.1652  3.0115
11513SOL     OW37558   3.248   3.682   3.095  0.3338  0.3852  0.2429
11513SOL    HW137559   3.247   3.776   3.077  0.6504  0.0694 -1.4779
11513SOL    HW237560   3.191   3.672   3.171  0.0363  1.9311  0.2406
11514SOL     OW37561   5.535   1.633   3.355  0.3512  0.0549 -0.2640
11514SOL    HW137562   5.589   1.584   3.417 -0.6542  0.4328  0.9274
11514SOL    HW237563   5.576   1.720   3.351 -0.5262  0.5383  1.1190
11515SOL     OW37564   9.144   4.339   7.754  0.0633  0.5764  0.4471
11515SOL    HW137565   9.094   4.265   7.788  2.7046 -2.0317 -1.1510
11515SOL    HW237566   9.103   4.358   7.669 -0.4543  0.8399  0.7483
11516SOL     OW37567   5.841   3.996   0.163  0.0137 -0.1084 -0.0239
11516SOL    HW137568   5.865   4.058   0.094  1.8665 -1.8301 -0.9713
11516SOL    HW237569   5.879   4.032   0.243 -0.1094  0.6725 -0.3146
11517SOL     OW37570   6.921   8.340   3.103  0.1236  0.4456  0.2787
11517SOL    HW137571   7.015   8.348   3.086 -0.1327  0.5316 -1.1512
11517SOL    HW237572   6.916   8.289   3.184  1.4053  0.6413  0.4976
11518SOL     OW37573   7.069   5.657   1.274 -0.3831 -0.2078  0.3208
11518SOL    HW137574   7.065   5.582   1.214 -2.7909 -0.4865  0.7795
11518SOL    HW237575   7.104   5.729   1.221  1.7128 -1.5408 -0.1935
11519SOL     OW37576   1.463   5.908   5.664 -0.1652 -1.0040 -0.4153
11519SOL    HW137577   1.551   5.876   5.648 -0.3088 -2.1166  0.9027
11519SOL    HW237578   1.445   5.968   5.591  2.0164 -0.0384 -0.1732
11520SOL     OW37579   2.921   4.848   9.372 -0.0073 -0.0895  0.1694
11520SOL    HW137580   2.995   4.855   9.311 -0.7325  1.5628 -0.5418
11520SOL    HW237581   2.945   4.904   9.446  0.0973 -0.7085  0.6050
11521SOL     OW37582   1.750   9.043   1.009 -0.1467  0.1386  0.3557
11521SOL    HW137583   1.815   8.974   1.021 -1.2367 -0.9678 -0.0989
11521SOL    HW237584   1.701   9.017   0.932 -1.4096  0.7496  0.9470
11522SOL     OW37585   8.987   2.154   6.021  0.1851  0.2647  0.6918
11522SOL    HW137586   9.058   2.145   5.958  0.5946 -2.1328  1.4505
11522SOL    HW237587   8.907   2.147   5.968  0.5197 -0.0133  0.2202
11523SOL     OW37588   5.035   5.265   7.514  0.5062  0.2375  0.2775
11523SOL    HW137589   4.952   5.295   7.552  0.4410 -1.6781  1.7355
11523SOL    HW237590   5.010   5.228   7.429  0.2185  1.7912 -0.3288
11524SOL     OW37591   2.561   7.653   2.914  0.9652 -0.0429 -0.8508
11524SOL    HW137592   2.620   7.725   2.935 -0.6517  0.6077  1.7556
11524SOL    HW237593   2.475   7.694   2.907  0.3712 -1.3932 -1.6267
11525SOL     OW37594   2.002   7.983   1.968  0.0704 -0.5052  0.3550
11525SOL    HW137595   2.008   8.058   2.028  0.4015 -0.9561  0.8916
11525SOL    HW237596   2.047   7.912   2.014 -1.8732 -1.5627  0.6959
11526SOL     OW37597   2.934   0.303   4.135 -0.0679  0.1527  0.4197
11526SOL    HW137598   2.941   0.393   4.167 -0.9352  0.4655 -0.2579
11526SOL    HW237599   2.851   0.271   4.171 -0.9114  0.4129 -1.2487
11527SOL     OW37600   8.362   3.308   0.724 -0.4759  0.3153  0.2150
11527SOL    HW137601   8.294   3.324   0.659 -0.1337 -0.2325 -0.2804
11527SOL    HW237602   8.444   3.326   0.678 -0.1257 -2.0398 -0.1159
11528SOL     OW37603   0.812   3.999   2.674  0.5306  0.6208  0.2770
11528SOL    HW137604   0.886   3.974   2.728  1.2116 -2.3944 -1.8965
11528SOL    HW237605   0.852   4.045   2.599  0.3165 -1.5533 -1.2065
11529SOL     OW37606   3.736   7.156   7.221  0.2425 -0.5372 -0.1723
11529SOL    HW137607   3.671   7.125   7.159  0.8922 -1.7939 -0.2341
11529SOL    HW237608   3.685   7.185   7.297 -0.3741 -1.7894 -0.1013
11530SOL     OW37609   3.065   6.885   2.331 -0.0005  0.6782  0.3419
11530SOL    HW137610   3.139   6.831   2.357 -0.5994 -1.1578 -1.6460
11530SOL    HW237611   3.096   6.932   2.253 -1.0864 -0.4981 -0.8142
11531SOL     OW37612   3.554   6.683   8.350 -0.0778 -0.1403  0.9553
11531SOL    HW137613   3.635   6.720   8.386 -0.2425 -0.9387  2.1478
11531SOL    HW237614   3.583   6.611   8.294  0.0655 -0.0875  0.9617
11532SOL     OW37615   8.442   7.370   5.091 -0.0603 -0.1310 -0.4902
11532SOL    HW137616   8.526   7.417   5.097 -0.0115 -0.2981  0.2300
11532SOL    HW237617   8.456   7.290   5.141 -1.5271  1.1631  2.1438
11533SOL     OW37618   5.306   9.030   1.902  0.2193 -0.3173  0.2325
11533SOL    HW137619   5.373   9.092   1.873 -1.2473  1.6275  0.8314
11533SOL    HW237620   5.337   8.945   1.873  2.8021  0.5743  0.2674
11534SOL     OW37621   4.733   2.198   8.868  0.5096  0.1972 -0.4630
11534SOL    HW137622   4.826   2.217   8.872  0.0303  2.4464  1.0133
11534SOL    HW237623   4.700   2.252   8.796 -0.1138  1.6700  0.8886
11535SOL     OW37624   4.821   2.279   6.508 -0.1283 -0.1989 -0.1856
11535SOL    HW137625   4.815   2.317   6.596 -0.5985  0.7198 -0.6022
11535SOL    HW237626   4.889   2.213   6.515  0.8110  0.8253  0.5446
11536SOL     OW37627   7.019   4.965   0.057  0.3460 -0.1557  0.2265
11536SOL    HW137628   7.114   4.953   0.065  0.2462 -1.1922  0.0130
11536SOL    HW237629   6.999   4.937  -0.032 -0.4467 -2.0414  0.9670
11537SOL     OW37630   2.012   3.123   6.312 -0.0410 -0.2754 -0.0044
11537SOL    HW137631   2.020   3.039   6.357  1.3891 -0.5503 -0.7237
11537SOL    HW237632   2.098   3.164   6.324 -0.8004  1.1909  0.5298
11538SOL     OW37633   4.399   1.752   5.870 -0.3013  0.1410 -0.0164
11538SOL    HW137634   4.321   1.802   5.893 -0.3770  0.0556 -0.0877
11538SOL    HW237635   4.372   1.698   5.795 -1.3106 -2.7427  2.3131
11539SOL     OW37636   3.172   3.579   3.909  0.0871  0.2315 -0.0077
11539SOL    HW137637   3.104   3.601   3.845  0.0102  0.8227  0.2760
11539SOL    HW237638   3.254   3.606   3.866  0.0457  0.5289  0.1031
11540SOL     OW37639   8.877   7.406   6.045  0.6292 -0.0194 -0.7183
11540SOL    HW137640   8.890   7.450   5.961  2.8000  1.7904  0.4898
11540SOL    HW237641   8.878   7.313   6.024  2.1369  0.3842 -2.6092
11541SOL     OW37642   7.340   2.652   5.926  0.5354 -0.7760 -0.3751
11541SOL    HW137643   7.264   2.596   5.941  0.9509 -1.5051 -0.9207
11541SOL    HW237644   7.382   2.660   6.011 -0.7233  0.4796  0.1336
11542SOL     OW37645   4.466   8.909   1.696  0.3892  0.3088  0.1222
11542SOL    HW137646   4.560   8.924   1.702  0.5394 -0.6135  0.1647
11542SOL    HW237647   4.431   8.940   1.781  0.8424 -0.7041  0.6821
11543SOL     OW37648   2.840   6.358   0.471 -0.1767 -1.1036 -0.0139
11543SOL    HW137649   2.851   6.393   0.383 -0.9517  1.1565  0.7595
11543SOL    HW237650   2.775   6.288   0.460 -0.9240 -0.2593 -1.1037
11544SOL     OW37651   8.004   8.258   9.289  0.1570  0.0189 -0.0592
11544SOL    HW137652   7.996   8.317   9.364 -2.7039  0.3409 -0.5699
11544SOL    HW237653   7.994   8.171   9.327 -0.0232  0.1027  0.0865
11545SOL     OW37654   5.190   3.769   9.202  0.3660  0.7900 -0.2985
11545SOL    HW137655   5.226   3.707   9.266 -0.7530  0.6045  0.1674
11545SOL    HW237656   5.267   3.813   9.165  1.2026 -1.2197 -0.9897
11546SOL     OW37657   0.910   3.175   8.889 -0.3029 -0.6541  0.0543
11546SOL    HW137658   0.869   3.261   8.893 -1.2174 -1.1715  2.8642
11546SOL    HW237659   0.858   3.127   8.825 -0.1085  0.6803 -1.1400
11547SOL     OW37660   5.604   4.520   9.360  0.4350 -0.1157  1.0844
11547SOL    HW137661   5.639   4.484   9.442 -2.2809 -0.6105  2.0677
11547SOL    HW237662   5.628   4.455   9.294 -0.9530 -1.8164  2.1953
11548SOL     OW37663   2.743   2.189   0.568  0.5808 -0.1157 -0.2488
11548SOL    HW137664   2.750   2.099   0.536 -0.1835 -1.1394  2.2833
11548SOL    HW237665   2.823   2.203   0.619  1.1944  1.0349 -1.4902
11549SOL     OW37666   3.326   4.536   0.739  0.2304 -0.0222 -0.0712
11549SOL    HW137667   3.295   4.575   0.658 -1.4402 -1.3109 -0.0844
11549SOL    HW237668   3.259   4.472   0.763  0.0847  1.1400  2.9353
11550SOL     OW37669   3.858   2.057   0.091 -0.3369 -0.3415  0.0905
11550SOL    HW137670   3.876   2.135   0.144  1.5584 -1.4883  1.1994
11550SOL    HW237671   3.775   2.024   0.125 -0.6428  0.6525  0.3050
11551SOL     OW37672   6.580   1.513   7.155  1.0909  0.3289  0.0280
11551SOL    HW137673   6.568   1.608   7.162  0.3712  0.1534  1.5606
11551SOL    HW237674   6.574   1.482   7.246  0.7637 -1.2393 -0.5130
11552SOL     OW37675   3.493   8.969   2.214 -0.1857 -0.0771  0.0741
11552SOL    HW137676   3.435   9.035   2.177 -0.1532  0.1197  0.3741
11552SOL    HW237677   3.579   8.988   2.175 -0.0521  0.4148  0.5985
11553SOL     OW37678   6.056   4.727   7.663 -0.0775  0.0882 -0.1756
11553SOL    HW137679   6.115   4.666   7.708  0.6185 -0.3589 -1.6788
11553SOL    HW237680   5.981   4.735   7.722  0.0333 -1.8505  0.2539
11554SOL     OW37681   4.361   8.121   8.697  0.4996  0.3032  0.0529
11554SOL    HW137682   4.449   8.119   8.735 -0.4142  0.1109  2.2703
11554SOL    HW237683   4.337   8.214   8.700  0.3172  0.2505  0.2271
11555SOL     OW37684   3.572   6.170   3.898 -0.2896  0.0094  0.0234
11555SOL    HW137685   3.589   6.223   3.820 -1.1192 -0.1188 -0.2488
11555SOL    HW237686   3.491   6.124   3.878  0.1062 -0.9033  0.5106
11556SOL     OW37687   3.613   6.869   1.577  0.2147 -0.2334 -0.0307
11556SOL    HW137688   3.531   6.862   1.528 -1.5154  0.3702  2.6187
11556SOL    HW237689   3.612   6.792   1.635  0.1425  1.2000  1.9291
11557SOL     OW37690   3.701   1.954   9.057  0.3422 -0.2280 -0.3115
11557SOL    HW137691   3.671   2.006   8.982  0.4676 -2.4751 -1.9629
11557SOL    HW237692   3.757   2.014   9.107 -0.6517  1.6442 -1.3802
11558SOL     OW37693   0.922   5.556   4.701 -0.1213 -0.5369  0.0332
11558SOL    HW137694   0.941   5.517   4.787  0.2457  1.1206  0.7137
11558SOL    HW237695   0.830   5.534   4.685 -0.0305 -1.3655  0.5697
11559SOL     OW37696   8.568   8.854   5.231  0.2637 -0.6505 -0.3511
11559SOL    HW137697   8.565   8.916   5.158 -0.0683 -1.2102 -0.8105
11559SOL    HW237698   8.604   8.774   5.193 -2.4014 -1.8157 -0.5375
11560SOL     OW37699   6.937   7.167   4.804  0.3244  0.3886 -0.1593
11560SOL    HW137700   6.976   7.082   4.825  0.9784  0.8439  0.5033
11560SOL    HW237701   6.845   7.159   4.828  0.2903 -0.2702 -0.5057
11561SOL     OW37702   0.073   4.586   2.663 -0.1510  0.1605  0.4536
11561SOL    HW137703   0.044   4.619   2.748  1.3939  0.2762  0.9522
11561SOL    HW237704   0.059   4.491   2.668 -2.1143  0.3994  0.0008
11562SOL     OW37705   0.283   6.985   6.324 -0.1024  0.3974 -0.2813
11562SOL    HW137706   0.263   7.061   6.379  1.5697  0.8750 -0.3276
11562SOL    HW237707   0.319   7.021   6.244 -0.6396 -0.3987 -0.8961
11563SOL     OW37708   5.854   4.428   4.299  0.0834  0.0264 -0.1042
11563SOL    HW137709   5.920   4.360   4.314 -1.6180 -1.2155  1.8814
11563SOL    HW237710   5.884   4.472   4.219  3.5000 -0.2796  0.9094
11564SOL     OW37711   8.405   4.450   0.894 -0.4411 -0.1522  0.0802
11564SOL    HW137712   8.481   4.393   0.882 -0.8504 -0.5489 -0.6525
11564SOL    HW237713   8.334   4.405   0.849 -1.2147  0.0128  1.1205
11565SOL     OW37714   1.678   6.295   4.586 -0.2396 -0.1149  0.0007
11565SOL    HW137715   1.734   6.222   4.612  0.2576 -0.3576 -1.6895
11565SOL    HW237716   1.626   6.314   4.664  1.3219 -0.6839  1.2090
11566SOL     OW37717   3.353   3.401   1.390 -0.0089 -0.1262  0.1980
11566SOL    HW137718   3.279   3.343   1.407  0.1947 -1.4405 -3.0375
11566SOL    HW237719   3.413   3.386   1.463 -0.8516 -2.4877  0.4395
11567SOL     OW37720   1.573   4.704   4.136 -0.2332  0.5878  0.1219
11567SOL    HW137721   1.654   4.679   4.181  0.7304  1.2403 -1.2227
11567SOL    HW237722   1.526   4.758   4.200  1.0649  1.3965  0.4262
11568SOL     OW37723   2.156   8.521   5.079  0.0485  0.1468 -0.5212
11568SOL    HW137724   2.222   8.482   5.136  0.7278  0.5787 -1.0092
11568SOL    HW237725   2.204   8.549   5.001 -0.7419  0.2820 -0.9714
11569SOL     OW37726   8.962   5.580   7.750 -0.1517  0.3000  0.1895
11569SOL    HW137727   8.962   5.670   7.784  0.7732  0.2237  0.4150
11569SOL    HW237728   8.897   5.535   7.803 -0.8826  0.9270 -0.1627
11570SOL     OW37729   0.262   4.941   6.480  0.6707  0.1157  0.6876
11570SOL    HW137730   0.270   4.846   6.490  0.3974 -0.0703 -0.7304
11570SOL    HW237731   0.169   4.955   6.463  0.4013  0.8237  2.5861
11571SOL     OW37732   3.097   2.152   7.098 -0.1428  0.0658  0.3486
11571SOL    HW137733   3.116   2.201   7.178  1.3295  1.2484 -0.6945
11571SOL    HW237734   3.058   2.217   7.039 -1.1112 -0.7689  0.0539
11572SOL     OW37735   1.285   1.365   3.717  0.0200  0.8167 -0.4129
11572SOL    HW137736   1.254   1.376   3.627 -0.9490 -0.7319 -0.2837
11572SOL    HW237737   1.330   1.280   3.717 -0.4823  0.5451  0.7030
11573SOL     OW37738   2.667   3.709   5.602 -0.5532  0.0176 -0.0347
11573SOL    HW137739   2.604   3.637   5.598 -0.8619  0.3482 -1.0618
11573SOL    HW237740   2.750   3.668   5.578 -0.7710  0.0600 -0.8532
11574SOL     OW37741   3.699   4.552   6.263  0.0830 -0.0426  0.2970
11574SOL    HW137742   3.709   4.498   6.185 -0.9788  0.5330 -0.2528
11574SOL    HW237743   3.663   4.494   6.329 -2.4861  0.3107 -0.7297
11575SOL     OW37744   5.189   1.452   7.986  0.4297  0.3155  0.4978
11575SOL    HW137745   5.136   1.446   7.906  0.6864 -1.3796  0.4335
11575SOL    HW237746   5.126   1.473   8.055 -0.1994 -0.8202  0.2781
11576SOL     OW37747   0.049   3.841   2.916 -0.0112 -0.9985 -0.5454
11576SOL    HW137748   0.101   3.768   2.951  0.9352 -0.4920 -0.8904
11576SOL    HW237749   0.028   3.894   2.993  1.1470 -0.4696 -0.5925
11577SOL     OW37750   9.093   8.109   1.518  0.6259 -0.1703  0.0168
11577SOL    HW137751   9.155   8.100   1.446  0.5521 -0.5982  0.0060
11577SOL    HW237752   9.094   8.203   1.539  1.4525 -0.2206  0.1846
11578SOL     OW37753   4.375   1.523   2.629  0.4370  0.2010 -0.2409
11578SOL    HW137754   4.465   1.547   2.651 -0.6239  2.3893  2.1022
11578SOL    HW237755   4.323   1.560   2.701 -2.4575  0.1577 -2.2292
11579SOL     OW37756   5.510   7.739   4.351  0.0186 -0.2708  0.7633
11579SOL    HW137757   5.441   7.753   4.287  0.3372 -1.2741  0.1914
11579SOL    HW237758   5.513   7.644   4.363  1.0791 -0.2158  1.0135
11580SOL     OW37759   3.894   8.692   7.208 -0.0476 -0.0391 -0.2844
11580SOL    HW137760   3.902   8.611   7.258  0.4894  0.2918  0.1656
11580SOL    HW237761   3.893   8.664   7.116 -0.3982 -0.5928 -0.1093
11581SOL     OW37762   0.309   2.936   4.352  0.2043  0.3518  0.1382
11581SOL    HW137763   0.341   3.010   4.300  0.5730 -0.2814 -0.5522
11581SOL    HW237764   0.382   2.874   4.352 -1.2297 -1.4283 -2.0379
11582SOL     OW37765   6.966   4.380   0.168  0.3206 -0.3609  0.4703
11582SOL    HW137766   6.990   4.433   0.092 -0.4243 -0.9984 -0.2050
11582SOL    HW237767   6.941   4.445   0.234 -1.3173  0.1222 -0.6055
11583SOL     OW37768   2.302   0.612   0.874 -0.3960 -0.1966 -0.4163
11583SOL    HW137769   2.317   0.693   0.922 -1.8499  0.7723 -1.5948
11583SOL    HW237770   2.267   0.639   0.790  0.5541 -1.9836 -1.4093
11584SOL     OW37771   0.220   6.332   4.768  0.3979  0.1792 -0.2776
11584SOL    HW137772   0.217   6.264   4.835 -0.0102 -1.0961 -1.5748
11584SOL    HW237773   0.185   6.410   4.812 -0.9561 -0.9348  0.6785
11585SOL     OW37774   5.304   0.153   4.590 -0.3888  0.2466  0.1958
11585SOL    HW137775   5.392   0.178   4.564 -0.6727  1.3595  0.2788
11585SOL    HW237776   5.317   0.082   4.653  0.4688  0.6640  0.5031
11586SOL     OW37777   7.224   8.806   8.183  0.2996 -0.5361  0.0704
11586SOL    HW137778   7.248   8.892   8.148 -0.0586 -0.2380  0.5558
11586SOL    HW237779   7.179   8.825   8.265 -0.4473 -1.1524 -0.1983
11587SOL     OW37780   8.946   8.847   2.381  0.1116  0.4851  0.3885
11587SOL    HW137781   9.031   8.837   2.425  0.1552  0.9223  0.4033
11587SOL    HW237782   8.918   8.936   2.402  0.2668  0.7988 -0.7052
11588SOL     OW37783   0.415   0.223   2.432  0.0527 -0.2556 -0.3392
11588SOL    HW137784   0.429   0.172   2.512  3.5577  3.1721  1.3464
11588SOL    HW237785   0.486   0.196   2.373 -1.5758 -1.5819 -1.7659
11589SOL     OW37786   5.883   1.533   4.701 -0.1830 -0.5474  0.6486
11589SOL    HW137787   5.948   1.550   4.769  1.1940 -1.0922 -0.5145
11589SOL    HW237788   5.884   1.613   4.648 -0.3345 -0.6419  0.5052
11590SOL     OW37789   5.999   4.563   5.986 -0.5636  0.1354  0.4111
11590SOL    HW137790   5.958   4.642   5.950 -0.4330  0.3782  0.7892
11590SOL    HW237791   6.087   4.562   5.947 -0.6834 -0.0072  0.1442
11591SOL     OW37792   7.934   9.293   8.801  0.1670 -0.1336  0.4816
11591SOL    HW137793   7.917   9.383   8.772  1.6747  0.4560  1.3759
11591SOL    HW237794   7.854   9.268   8.848 -1.7207 -0.5887 -2.8340
11592SOL     OW37795   6.166   9.141   0.533 -0.0411  0.8315  0.1468
11592SOL    HW137796   6.132   9.231   0.532  0.0760  0.8644 -1.3827
11592SOL    HW237797   6.202   9.127   0.445 -1.4353 -1.2208 -0.1509
11593SOL     OW37798   3.394   1.926   2.237 -0.1111 -0.2532 -0.8896
11593SOL    HW137799   3.357   1.975   2.310  0.5582 -1.6919  0.4456
11593SOL    HW237800   3.488   1.940   2.244 -0.1211  0.6318 -2.2535
11594SOL     OW37801   4.602   8.471   6.768  0.2329 -0.5387 -0.1332
11594SOL    HW137802   4.568   8.399   6.821 -0.8750 -0.1243 -0.2678
11594SOL    HW237803   4.550   8.468   6.687  0.1845  0.3924 -0.1455
11595SOL     OW37804   7.694   9.014   5.933  0.2271 -0.1352 -0.3738
11595SOL    HW137805   7.661   9.099   5.961 -1.2645 -1.1078  0.8993
11595SOL    HW237806   7.668   8.954   6.003  1.6105 -1.5698 -1.0603
11596SOL     OW37807   6.957   6.070   8.192  0.7286 -0.3054  0.5927
11596SOL    HW137808   7.029   6.077   8.129  0.0256 -1.6846 -0.3745
11596SOL    HW237809   6.927   6.160   8.204 -0.7510 -0.2415 -2.9510
11597SOL     OW37810   7.485   5.696   7.772 -0.2941  1.2360 -0.1212
11597SOL    HW137811   7.475   5.672   7.864 -1.0463  1.0533 -0.2478
11597SOL    HW237812   7.579   5.689   7.755 -0.5786 -2.8747 -0.4768
11598SOL     OW37813   0.468   2.292   7.074  0.5056 -0.7272 -0.0054
11598SOL    HW137814   0.535   2.359   7.062  0.7784 -1.1457 -0.9132
11598SOL    HW237815   0.447   2.263   6.985 -1.6117  0.0997  0.2025
11599SOL     OW37816   7.879   5.821   7.036  0.5266 -0.1632 -0.2813
11599SOL    HW137817   7.946   5.753   7.027  0.5710  0.0095 -1.2718
11599SOL    HW237818   7.832   5.819   6.953 -0.5441 -0.1194  0.3182
11600SOL     OW37819   0.356   4.264   1.532 -0.1656  0.2101 -0.0449
11600SOL    HW137820   0.428   4.326   1.530  0.0492 -0.0153  0.6203
11600SOL    HW237821   0.396   4.182   1.561 -0.3487 -0.3664 -1.3918
11601SOL     OW37822   7.840   2.015   1.813  0.3112 -0.7047 -0.0621
11601SOL    HW137823   7.815   2.031   1.722  0.1726  0.5605  0.1979
11601SOL    HW237824   7.764   2.043   1.865 -0.0325 -2.4296  0.3930
11602SOL     OW37825   7.870   6.598   6.805 -0.0324 -0.1441  0.0807
11602SOL    HW137826   7.857   6.691   6.821 -0.8230 -0.2101 -0.1772
11602SOL    HW237827   7.955   6.578   6.846 -0.5176  0.3836  1.3717
11603SOL     OW37828   0.173   4.305   4.178 -0.2557  0.1011 -0.0281
11603SOL    HW137829   0.086   4.308   4.138 -0.4555  0.7366  0.4396
11603SOL    HW237830   0.229   4.267   4.111 -0.5753  1.2110 -0.9393
11604SOL     OW37831   8.448   5.528   4.505 -0.1967 -0.1339 -0.3595
11604SOL    HW137832   8.381   5.554   4.443  0.6469 -1.6680 -1.9473
11604SOL    HW237833   8.418   5.446   4.542  0.0634 -0.0290  0.1027
11605SOL     OW37834   6.369   6.088   4.006 -0.2134  0.5025  0.3508
11605SOL    HW137835   6.444   6.057   3.956 -0.5957 -0.0974  0.1392
11605SOL    HW237836   6.407   6.126   4.086  0.2745 -0.4024  0.5537
11606SOL     OW37837   4.239   4.963   5.740 -0.0260  0.7044  0.2499
11606SOL    HW137838   4.320   4.920   5.713  0.2898  1.7107 -0.4333
11606SOL    HW237839   4.226   4.934   5.830  0.6533 -0.1072  0.1037
11607SOL     OW37840   7.483   4.126   6.259 -0.1011  0.6277  0.4958
11607SOL    HW137841   7.547   4.081   6.314  0.5051  0.2826 -0.4774
11607SOL    HW237842   7.406   4.069   6.262  0.2412  0.1477  0.2543
11608SOL     OW37843   8.206   2.435   3.609 -0.3575 -0.2847  0.2229
11608SOL    HW137844   8.280   2.377   3.624  0.1740  0.1799 -0.5596
11608SOL    HW237845   8.142   2.410   3.675  0.3285 -0.9745  0.6325
11609SOL     OW37846   0.430   9.331   5.619  0.0969 -0.0416 -0.3757
11609SOL    HW137847   0.438   9.420   5.653 -0.5689 -0.6417  1.3925
11609SOL    HW237848   0.517   9.294   5.626  0.0640 -0.0047  0.2403
11610SOL     OW37849   3.872   6.197   4.064  0.2410  0.2834  0.7802
11610SOL    HW137850   3.797   6.141   4.082 -0.3200  1.1119  1.0325
11610SOL    HW237851   3.867   6.267   4.130  2.2086 -0.6000  1.9348
11611SOL     OW37852   9.227   6.246   2.977  0.3785 -0.0469  0.0765
11611SOL    HW137853   9.154   6.205   2.931 -0.5390 -0.3959  1.7812
11611SOL    HW237854   9.189   6.281   3.057  2.0877 -0.3074  1.0465
11612SOL     OW37855   5.923   1.895   4.256  0.1570 -0.3173  0.1421
11612SOL    HW137856   6.002   1.904   4.204 -0.7523  0.2314 -1.1731
11612SOL    HW237857   5.901   1.984   4.284 -0.6417 -0.3130 -0.4811
11613SOL     OW37858   3.078   6.777   2.953  0.4819  0.5299  0.5707
11613SOL    HW137859   3.028   6.857   2.939  0.8508  0.7408  0.4420
11613SOL    HW237860   3.138   6.773   2.878 -1.6796 -1.5062 -1.0838
11614SOL     OW37861   6.424   4.449   8.724  0.6253  0.3494 -0.3877
11614SOL    HW137862   6.400   4.407   8.807 -2.2567  0.6748 -0.9788
11614SOL    HW237863   6.486   4.517   8.748  0.1856  0.1221  1.4614
11615SOL     OW37864   0.937   1.741   7.964 -0.3341 -0.2688  0.0105
11615SOL    HW137865   0.917   1.652   7.995 -2.5564  0.4793  0.8546
11615SOL    HW237866   0.851   1.778   7.942  0.4206  2.1348  0.9428
11616SOL     OW37867   8.326   7.699   3.213 -0.3408 -0.2719  0.1936
11616SOL    HW137868   8.418   7.714   3.235 -0.0929 -3.0361  1.2484
11616SOL    HW237869   8.328   7.655   3.128 -0.5778 -1.9690  1.0548
11617SOL     OW37870   0.762   1.360   6.800  0.0011  0.2585  0.3554
11617SOL    HW137871   0.709   1.391   6.874 -0.3040 -1.0097  0.6896
11617SOL    HW237872   0.800   1.439   6.763 -1.8471  1.1725  0.3335
11618SOL     OW37873   7.768   0.659   8.567 -0.1132  0.1714 -0.6943
11618SOL    HW137874   7.816   0.660   8.485 -0.9803  1.5098 -1.1993
11618SOL    HW237875   7.702   0.590   8.556 -1.0730  1.2266 -1.6256
11619SOL     OW37876   6.447   6.130   2.731  0.2755 -0.1549 -0.0715
11619SOL    HW137877   6.395   6.181   2.669  0.5582 -1.5387 -1.4750
11619SOL    HW237878   6.391   6.122   2.808 -0.5602  0.5719 -0.5886
11620SOL     OW37879   1.211   1.154   1.156 -0.1428 -0.1692 -0.0909
11620SOL    HW137880   1.245   1.177   1.070  1.1633 -0.6939  0.2744
11620SOL    HW237881   1.190   1.238   1.197 -1.0389  0.0722 -1.0157
11621SOL     OW37882   0.436   1.983   8.467  0.2716  0.0229  0.0882
11621SOL    HW137883   0.360   1.990   8.524 -0.8472 -0.0177 -1.3729
11621SOL    HW237884   0.497   1.927   8.515 -1.0349 -0.7913  0.8143
11622SOL     OW37885   5.118   4.444   0.749 -0.2544  0.3556  0.0418
11622SOL    HW137886   5.160   4.449   0.835  0.7203  0.5099 -0.4437
11622SOL    HW237887   5.157   4.515   0.699 -1.8918  1.2038 -0.0706
11623SOL     OW37888   9.145   2.742   9.379 -0.0424  0.1226 -0.1984
11623SOL    HW137889   9.131   2.655   9.418 -1.1100  0.8798  1.1539
11623SOL    HW237890   9.077   2.796   9.417 -1.8415  0.6800 -3.9795
11624SOL     OW37891   7.306   5.812   8.881 -0.0785 -0.0960  0.5284
11624SOL    HW137892   7.391   5.771   8.898 -0.3057 -0.1697  1.5158
11624SOL    HW237893   7.247   5.771   8.944 -0.6819  0.5010  0.3530
11625SOL     OW37894   8.838   4.328   5.718 -0.5772  0.1594  0.1371
11625SOL    HW137895   8.922   4.373   5.721 -0.4051 -0.2024  1.3979
11625SOL    HW237896   8.788   4.373   5.651  0.0186  1.4672  0.5619
11626SOL     OW37897   1.446   8.135   3.538  0.5881  0.0374  0.7176
11626SOL    HW137898   1.519   8.112   3.481 -1.7381 -0.6582 -2.0709
11626SOL    HW237899   1.482   8.128   3.627  4.1873  0.8277 -0.5904
11627SOL     OW37900   4.956   1.124   3.571 -0.1919  0.3535  0.0952
11627SOL    HW137901   4.992   1.188   3.632  0.3544  1.6160 -1.4886
11627SOL    HW237902   5.005   1.043   3.588 -0.2881  0.6016  1.5403
11628SOL     OW37903   2.593   5.546   7.589  0.5976  0.2007 -0.0105
11628SOL    HW137904   2.669   5.592   7.553 -0.9578  0.9737 -2.3681
11628SOL    HW237905   2.572   5.594   7.669  1.8088  0.7366  0.0012
11629SOL     OW37906   4.083   6.211   1.309 -0.1005 -0.0519  0.7998
11629SOL    HW137907   4.091   6.283   1.371 -0.2626  0.4485  0.2470
11629SOL    HW237908   4.107   6.249   1.224  0.3001 -0.7696  0.5822
11630SOL     OW37909   4.805   2.149   7.213 -0.2363  0.8191  0.2083
11630SOL    HW137910   4.796   2.230   7.262 -2.7422  0.6415  0.1338
11630SOL    HW237911   4.875   2.166   7.150  1.3128  1.8788  2.1585
11631SOL     OW37912   8.170   0.440   1.885  0.4411 -0.7674 -0.2699
11631SOL    HW137913   8.127   0.446   1.799  1.7843  0.7451 -0.8375
11631SOL    HW237914   8.254   0.398   1.867  1.4677  1.1303  0.0412
11632SOL     OW37915   7.191   2.532   1.772  0.5474 -1.1535 -0.0215
11632SOL    HW137916   7.159   2.555   1.859  1.1790  1.6912 -0.5093
11632SOL    HW237917   7.275   2.489   1.787  0.5651 -0.8421  0.7729
11633SOL     OW37918   3.525   6.427   3.771 -0.4306  0.6626  0.1487
11633SOL    HW137919   3.445   6.404   3.723  0.3678  0.0176 -0.9053
11633SOL    HW237920   3.496   6.488   3.839 -1.9840 -0.3544  0.4356
11634SOL     OW37921   5.352   1.641   7.003  0.1118 -0.0369 -0.2717
11634SOL    HW137922   5.381   1.557   7.038 -1.8622  0.3836  2.5172
11634SOL    HW237923   5.261   1.627   6.977  0.4316  0.6731 -1.8413
11635SOL     OW37924   0.976   7.581   8.601 -0.5672 -0.1286  0.8102
11635SOL    HW137925   0.984   7.674   8.579 -0.5032 -0.7950 -2.2083
11635SOL    HW237926   0.896   7.552   8.556 -0.9148 -1.4323  2.1956
11636SOL     OW37927   6.147   7.366   1.313  0.8034 -0.5544  0.5012
11636SOL    HW137928   6.150   7.459   1.331  0.6034 -0.3631 -0.4122
11636SOL    HW237929   6.236   7.335   1.329  0.8761 -0.2022  0.7782
11637SOL     OW37930   5.559   7.187   4.606  0.3850 -0.0362 -0.3524
11637SOL    HW137931   5.533   7.146   4.524 -0.3278  1.0135 -0.6604
11637SOL    HW237932   5.481   7.181   4.661  1.0320 -1.2370  0.4583
11638SOL     OW37933   7.189   0.533   0.771  0.4597 -0.1957 -0.8269
11638SOL    HW137934   7.188   0.557   0.864 -1.9744 -0.3648 -0.7706
11638SOL    HW237935   7.182   0.438   0.770 -0.8304 -0.1137 -1.1706
11639SOL     OW37936   6.727   2.089   0.998 -0.7650 -0.6038  0.2386
11639SOL    HW137937   6.758   2.013   0.949  1.2333  1.6440 -2.0926
11639SOL    HW237938   6.671   2.052   1.067  1.3063 -4.2685  0.0666
11640SOL     OW37939   1.664   5.577   0.798  0.0699 -0.5643 -0.4994
11640SOL    HW137940   1.640   5.653   0.744 -1.4520 -1.1169 -0.6157
11640SOL    HW237941   1.581   5.533   0.816  0.7672 -1.3488  0.8692
11641SOL     OW37942   2.054   5.340   5.866  0.3259 -0.4107 -0.1684
11641SOL    HW137943   2.023   5.411   5.922 -1.6463 -0.7971 -0.7547
11641SOL    HW237944   2.063   5.380   5.780  1.1487 -0.3938 -0.0814
11642SOL     OW37945   4.762   4.096   7.498  0.1097 -0.3203  0.3434
11642SOL    HW137946   4.762   4.000   7.495 -0.7033 -0.2851 -1.1828
11642SOL    HW237947   4.807   4.117   7.580  2.7730 -1.9465 -0.6283
11643SOL     OW37948   3.952   1.535   5.067 -0.8136 -0.2252  0.0765
11643SOL    HW137949   3.926   1.523   5.159 -1.8729 -0.3338 -0.2263
11643SOL    HW237950   4.045   1.513   5.065 -0.2645  1.8501  1.5414
11644SOL     OW37951   1.278   1.697   1.072 -0.0216  0.0551  0.2786
11644SOL    HW137952   1.284   1.723   0.980 -2.2282 -0.6474 -0.0747
11644SOL    HW237953   1.284   1.602   1.071  0.2708  0.0623  0.8966
11645SOL     OW37954   8.087   8.501   5.753  0.0919 -0.0222  0.1037
11645SOL    HW137955   8.156   8.554   5.712 -0.0540  0.0741 -0.0200
11645SOL    HW237956   8.040   8.463   5.679 -0.7580  0.8999  0.1521
11646SOL     OW37957   8.517   4.549   6.802 -0.2812  0.2447 -0.6223
11646SOL    HW137958   8.519   4.623   6.741 -0.1514  1.3457  0.7201
11646SOL    HW237959   8.545   4.585   6.886 -1.4424 -1.0442  0.3439
11647SOL     OW37960   1.016   6.775   7.771  0.0213  0.2936  0.0958
11647SOL    HW137961   1.099   6.817   7.749 -0.5024  0.2465 -2.1040
11647SOL    HW237962   0.981   6.746   7.687 -2.2083  0.2654  0.9938
11648SOL     OW37963   3.717   8.676   7.957  0.0492  0.1243 -0.1712
11648SOL    HW137964   3.742   8.616   7.887 -0.3361 -0.8079  0.4766
11648SOL    HW237965   3.693   8.757   7.913  0.9363 -0.0789 -1.0306
11649SOL     OW37966   6.455   1.149   2.836 -0.4992 -0.1556 -0.0101
11649SOL    HW137967   6.416   1.139   2.749 -1.6091 -0.1939  0.4858
11649SOL    HW237968   6.455   1.244   2.851  1.0580 -0.0313 -0.6525
11650SOL     OW37969   2.911   4.396   2.016 -0.0686  0.1617  0.3287
11650SOL    HW137970   2.939   4.378   1.927  1.7315  1.3849  0.6154
11650SOL    HW237971   2.841   4.333   2.033 -0.7265  0.2056 -2.0862
11651SOL     OW37972   7.817   5.351   8.888  0.9961  0.1413 -0.2792
11651SOL    HW137973   7.784   5.441   8.886  1.1044  0.2142  0.8295
11651SOL    HW237974   7.909   5.360   8.913  1.2867 -0.2012 -1.2424
11652SOL     OW37975   2.461   5.374   1.111 -0.5242 -0.1416  0.1291
11652SOL    HW137976   2.368   5.354   1.120 -0.5820  0.3550  0.6252
11652SOL    HW237977   2.504   5.288   1.115 -0.9671 -0.3810 -0.2142
11653SOL     OW37978   7.500   7.110   9.180  0.4791  0.1863 -0.1973
11653SOL    HW137979   7.546   7.060   9.113  0.7766  0.6217 -0.3175
11653SOL    HW237980   7.509   7.202   9.153 -2.5817  0.1273 -1.5887
11654SOL     OW37981   5.750   4.275   7.697  0.3905  0.3234  0.1806
11654SOL    HW137982   5.834   4.267   7.652  1.3181 -1.5101  2.1641
11654SOL    HW237983   5.697   4.203   7.664 -0.3343  1.3327 -0.8871
11655SOL     OW37984   0.592   1.740   2.976 -0.4651  0.0966 -0.0991
11655SOL    HW137985   0.539   1.685   2.918 -1.9504  0.9845  0.3883
11655SOL    HW237986   0.647   1.678   3.024 -0.3994 -0.7685 -1.2835
11656SOL     OW37987   0.723   2.772   8.256  0.6254 -0.1390 -0.1075
11656SOL    HW137988   0.677   2.835   8.200  1.1550 -0.6236 -1.1095
11656SOL    HW237989   0.658   2.704   8.274  0.5034 -0.0719 -0.2900
11657SOL     OW37990   3.088   4.706   6.127 -0.3163 -0.2447 -0.0215
11657SOL    HW137991   3.153   4.748   6.182 -0.1555 -2.7783  1.7831
11657SOL    HW237992   3.137   4.641   6.076 -1.0731 -0.5669 -0.3509
11658SOL     OW37993   5.171   6.543   5.763 -0.4734 -0.0263  0.2908
11658SOL    HW137994   5.232   6.575   5.696  1.1208 -2.4405  0.4945
11658SOL    HW237995   5.162   6.616   5.824  0.2454  1.2493 -1.0863
11659SOL     OW37996   8.970   7.496   1.683 -0.0622  0.0588  0.6771
11659SOL    HW137997   8.959   7.589   1.663  0.3996 -0.1704 -0.7037
11659SOL    HW237998   9.043   7.468   1.629 -1.7537 -1.6797 -0.8063
11660SOL     OW37999   0.787   6.141   0.573  0.2714 -0.1313 -0.1183
11660SOL    HW138000   0.729   6.086   0.625  0.2602  0.8472  0.9265
11660SOL    HW238001   0.731   6.211   0.539  0.9775  1.2950  1.5891
11661SOL     OW38002   6.718   7.439   6.806  0.3117 -0.1337  0.1411
11661SOL    HW138003   6.728   7.345   6.815 -0.2444 -0.2549 -0.4613
11661SOL    HW238004   6.699   7.453   6.713 -4.4830  0.0992  1.0124
11662SOL     OW38005   6.553   7.368   2.668  0.1425 -0.5962  0.4442
11662SOL    HW138006   6.629   7.419   2.694  0.4335 -0.8251  0.0410
11662SOL    HW238007   6.512   7.342   2.750 -0.7408  1.3899  0.6572
11663SOL     OW38008   7.197   7.939   8.707 -0.0777 -0.1071 -0.1842
11663SOL    HW138009   7.291   7.950   8.722 -0.2108 -0.0639  0.6368
11663SOL    HW238010   7.162   7.916   8.793 -0.8575  0.1561 -0.4308
11664SOL     OW38011   0.761   2.670   2.320 -0.4707  0.2318  0.1229
11664SOL    HW138012   0.750   2.631   2.407 -0.9088 -0.2480 -0.1490
11664SOL    HW238013   0.707   2.749   2.322 -0.6756  0.0908  0.2038
11665SOL     OW38014   8.277   5.311   3.069  0.1350 -0.0488 -0.2405
11665SOL    HW138015   8.350   5.373   3.083 -0.2871  0.2752  0.5937
11665SOL    HW238016   8.216   5.331   3.140  0.3879 -2.0111  0.5395
11666SOL     OW38017   4.806   8.521   2.536 -0.5048 -0.2864  0.1789
11666SOL    HW138018   4.725   8.514   2.485 -0.6426 -0.7797  0.4714
11666SOL    HW238019   4.818   8.616   2.548 -0.4161 -0.1553 -0.8582
11667SOL     OW38020   5.618   2.265   2.804 -0.0785  0.0946  0.4621
11667SOL    HW138021   5.615   2.211   2.726  2.0097  0.6842 -0.0603
11667SOL    HW238022   5.540   2.239   2.855 -0.1185 -2.0260 -0.6393
11668SOL     OW38023   4.871   3.450   6.038 -0.0854 -0.1688  0.0684
11668SOL    HW138024   4.877   3.466   5.943  1.1155 -0.8698  0.0160
11668SOL    HW238025   4.841   3.359   6.044 -0.0024 -0.1746  0.3614
11669SOL     OW38026   9.247   8.808   2.415 -0.4965  0.0733  0.6066
11669SOL    HW138027   9.250   8.780   2.506 -0.8749  1.3052  1.0049
11669SOL    HW238028   9.265   8.728   2.365  0.4579 -0.4497  1.7655
11670SOL     OW38029   1.556   7.979   8.118  0.1400  0.1442 -0.4353
11670SOL    HW138030   1.635   7.932   8.094  0.6811  1.1208 -0.6041
11670SOL    HW238031   1.544   8.044   8.048 -0.4674  0.4082 -0.0981
11671SOL     OW38032   9.058   3.564   3.228  0.0652 -0.1334  1.1963
11671SOL    HW138033   9.041   3.653   3.197 -0.7402 -1.3682 -2.1863
11671SOL    HW238034   9.126   3.532   3.169  1.1647 -1.3961  3.1157
11672SOL     OW38035   3.948   0.940   6.792 -0.9010  0.1469 -0.0862
11672SOL    HW138036   3.912   0.940   6.703 -3.5558  2.7484  0.8948
11672SOL    HW238037   3.875   0.914   6.847  0.5518 -0.8229  1.4103
11673SOL     OW38038   3.684   4.272   3.445  0.5302 -0.3850  0.0047
11673SOL    HW138039   3.695   4.344   3.506  1.7213 -1.8554  1.5861
11673SOL    HW238040   3.665   4.313   3.361  0.1503  1.7098  1.0999
11674SOL     OW38041   4.756   9.140   6.954 -0.8774 -0.2120  0.2079
11674SOL    HW138042   4.789   9.182   6.875 -1.5630  2.3340  1.2440
11674SOL    HW238043   4.662   9.159   6.954 -0.9603 -0.5802  1.4036
11675SOL     OW38044   8.060   3.925   5.909  0.3834 -0.1653  0.1686
11675SOL    HW138045   8.083   3.916   5.817 -0.7980 -1.0224 -0.0532
11675SOL    HW238046   8.142   3.948   5.952  1.2719 -1.4071 -0.8400
11676SOL     OW38047   4.480   5.754   5.229  0.0704 -0.6868 -0.2255
11676SOL    HW138048   4.447   5.783   5.314  1.7634 -2.3279  1.0431
11676SOL    HW238049   4.537   5.826   5.200 -0.3169 -0.2272  0.1384
11677SOL     OW38050   1.144   8.312   8.263  0.0867 -0.1349 -0.2170
11677SOL    HW138051   1.207   8.264   8.209  0.6058  1.2742 -0.9022
11677SOL    HW238052   1.179   8.306   8.351  0.1132 -1.0517 -0.2806
11678SOL     OW38053   2.841   0.229   0.704 -0.2481  0.4270  0.0061
11678SOL    HW138054   2.773   0.162   0.712 -0.1855  0.2403 -0.9544
11678SOL    HW238055   2.853   0.261   0.793  0.0223 -1.1348  0.5530
11679SOL     OW38056   8.140   8.126   6.374  0.2416  0.5994  0.2168
11679SOL    HW138057   8.158   8.039   6.339 -1.8182 -0.4137  1.5656
11679SOL    HW238058   8.083   8.166   6.308 -1.8540 -0.4991  1.3033
11680SOL     OW38059   6.218   8.137   4.867  0.4602  0.3381 -0.6955
11680SOL    HW138060   6.179   8.098   4.944  0.3048  0.1139 -0.8880
11680SOL    HW238061   6.167   8.102   4.793  0.1229  1.1369 -0.8467
11681SOL     OW38062   5.553   5.854   2.242 -0.6671 -0.2049 -0.4105
11681SOL    HW138063   5.576   5.872   2.333 -0.8091  0.0108 -0.4155
11681SOL    HW238064   5.528   5.940   2.206 -2.5538 -0.6177 -0.0983
11682SOL     OW38065   7.041   0.064   6.489  0.8390  0.1806 -0.6553
11682SOL    HW138066   7.041  -0.030   6.508  1.7563 -0.2797 -2.6990
11682SOL    HW238067   6.960   0.097   6.529  0.8954 -1.3268  0.7533
11683SOL     OW38068   5.877   8.621   1.914  0.3166  0.2256  0.0368
11683SOL    HW138069   5.831   8.696   1.876 -0.8304 -1.0223 -1.1005
11683SOL    HW238070   5.888   8.560   1.841  1.0711 -0.7838  0.9795
11684SOL     OW38071   5.891   8.959   6.358 -0.2006 -0.0067 -0.0611
11684SOL    HW138072   5.981   8.978   6.386  0.0001 -1.6328  0.4347
11684SOL    HW238073   5.859   9.043   6.324  1.7017  0.4708 -0.7773
11685SOL     OW38074   5.441   4.297   5.668  0.1755 -0.0488 -0.4789
11685SOL    HW138075   5.476   4.211   5.690 -0.4757 -0.6782 -1.8645
11685SOL    HW238076   5.349   4.292   5.694  0.1116  0.2013 -0.6621
11686SOL     OW38077   4.195   2.632   7.804  0.1837 -0.6386  0.2044
11686SOL    HW138078   4.278   2.626   7.758  0.4386 -0.4490  0.6323
11686SOL    HW238079   4.212   2.692   7.877 -1.1459  1.9015 -1.5007
11687SOL     OW38080   4.435   4.386   4.740  0.0445  0.8885 -0.4609
11687SOL    HW138081   4.358   4.439   4.757  0.8549  1.7703  0.4589
11687SOL    HW238082   4.448   4.392   4.645 -0.7091  1.1397 -0.5489
11688SOL     OW38083   2.868   5.175   8.245 -0.5544  0.1180  0.3656
11688SOL    HW138084   2.833   5.086   8.250 -0.1317 -0.1109 -0.7475
11688SOL    HW238085   2.792   5.229   8.224 -1.0977  0.2279  2.5061
11689SOL     OW38086   3.097   6.488   6.815  0.2351  0.2490  0.4311
11689SOL    HW138087   3.128   6.415   6.868 -0.6745  0.5978  1.4401
11689SOL    HW238088   3.177   6.533   6.788  0.8163 -1.2254 -0.3778
11690SOL     OW38089   7.764   0.582   9.078  0.0416 -0.3199  0.0249
11690SOL    HW138090   7.692   0.639   9.054 -0.5100 -0.4895  1.2176
11690SOL    HW238091   7.814   0.632   9.143  0.3333 -0.6406  0.0475
11691SOL     OW38092   9.010   5.407   3.247 -0.2040  0.3701 -0.2204
11691SOL    HW138093   9.094   5.441   3.215 -0.1149 -0.1512 -0.5447
11691SOL    HW238094   9.013   5.313   3.228 -1.9797  0.7874 -2.7401
11692SOL     OW38095   4.978   3.128   1.044 -0.7518 -0.0473  0.1434
11692SOL    HW138096   5.000   3.089   0.960  0.4462  1.5378 -0.3088
11692SOL    HW238097   4.930   3.208   1.021 -1.4878 -0.2269  1.0041
11693SOL     OW38098   5.221   4.233   1.121 -0.2099  0.7744 -0.2733
11693SOL    HW138099   5.298   4.182   1.146  0.2551  1.8549  0.5197
11693SOL    HW238100   5.190   4.190   1.041 -1.1838 -2.1630  1.5972
11694SOL     OW38101   7.805   9.425   0.469 -0.3001 -0.3669 -0.2312
11694SOL    HW138102   7.746   9.377   0.528  0.6480  0.0035  1.0405
11694SOL    HW238103   7.893   9.400   0.498  0.1882  0.2632 -1.1385
11695SOL     OW38104   2.511   6.729   6.995  0.2569 -0.2409  0.2510
11695SOL    HW138105   2.559   6.770   7.067 -0.9356 -1.6439  1.8830
11695SOL    HW238106   2.536   6.779   6.918  0.7234  1.9858  1.8105
11696SOL     OW38107   4.838   6.448   1.170  0.3509  0.2831  1.0146
11696SOL    HW138108   4.830   6.534   1.129 -0.5775  0.0049  0.5873
11696SOL    HW238109   4.930   6.424   1.157  0.9769  1.8144  2.3969
11697SOL     OW38110   3.588   8.802   8.223 -0.3791 -0.0575  0.1196
11697SOL    HW138111   3.634   8.857   8.160 -0.7837  0.2158  0.0587
11697SOL    HW238112   3.644   8.725   8.232 -0.4094 -0.1836 -0.7135
11698SOL     OW38113   7.044   8.177   6.054 -0.1972  0.5099 -0.1998
11698SOL    HW138114   6.981   8.174   6.126 -0.5135  2.6528 -0.3466
11698SOL    HW238115   6.992   8.153   5.977 -0.2705 -0.0729  0.0295
11699SOL     OW38116   2.624   0.482   3.071 -0.1994  0.0641  0.3265
11699SOL    HW138117   2.650   0.574   3.068  0.0932  0.0773  2.2052
11699SOL    HW238118   2.667   0.448   3.149 -1.5574 -1.2684  0.5297
11700SOL     OW38119   1.775   2.312   0.015  0.2352 -0.4925  0.2939
11700SOL    HW138120   1.818   2.283   0.095  1.5426 -1.0478 -0.5880
11700SOL    HW238121   1.690   2.346   0.043  0.8280 -0.3609  1.9464
11701SOL     OW38122   6.131   4.636   0.184  0.4458  0.0323 -0.1856
11701SOL    HW138123   6.134   4.723   0.144 -2.1353  0.3880  0.3472
11701SOL    HW238124   6.128   4.575   0.110 -0.4033  0.5240 -0.5618
11702SOL     OW38125   4.514   7.952   6.521  0.0910  0.3565 -0.9190
11702SOL    HW138126   4.527   8.035   6.475  3.2168  0.0803 -0.6054
11702SOL    HW238127   4.466   7.976   6.600  1.5267  1.9653 -0.5195
11703SOL     OW38128   6.061   3.307   1.683 -0.1126  0.2442 -0.2830
11703SOL    HW138129   6.049   3.276   1.772 -0.7973  0.8071 -0.1727
11703SOL    HW238130   6.094   3.397   1.693 -1.1807  0.6742 -0.5912
11704SOL     OW38131   9.193   6.760   1.781 -0.2619 -0.2343  0.0029
11704SOL    HW138132   9.112   6.726   1.743 -0.2449 -1.3626  0.9460
11704SOL    HW238133   9.199   6.718   1.867  1.3608 -0.2011 -0.0799
11705SOL     OW38134   6.049   0.576   2.931  0.5167 -0.2470  0.3984
11705SOL    HW138135   6.118   0.634   2.966  1.9817 -2.0550  0.5940
11705SOL    HW238136   6.048   0.501   2.991 -0.2805 -1.1414 -0.7151
11706SOL     OW38137   3.278   4.066   6.024  0.0350  0.3807 -0.0354
11706SOL    HW138138   3.193   4.022   6.033 -0.1326  0.3283 -1.7813
11706SOL    HW238139   3.334   4.023   6.088 -0.6234 -1.1834 -0.4851
11707SOL     OW38140   2.792   0.359   3.268 -0.1991  0.0274 -0.5239
11707SOL    HW138141   2.780   0.310   3.349  2.4391 -0.5631 -0.4372
11707SOL    HW238142   2.821   0.294   3.204 -0.2978  0.8269 -1.3968
11708SOL     OW38143   5.374   2.113   1.704 -0.5762 -0.4378  0.2115
11708SOL    HW138144   5.442   2.073   1.649 -1.8243 -1.4533 -0.6159
11708SOL    HW238145   5.378   2.064   1.786  0.2768  0.0946  0.5004
11709SOL     OW38146   4.987   7.223   0.812  0.1048  0.0050  0.4917
11709SOL    HW138147   4.973   7.300   0.867 -1.7181 -1.1611  1.7005
11709SOL    HW238148   5.082   7.223   0.795  0.3035  1.8482  1.4197
11710SOL     OW38149   3.653   8.449   5.662  0.8289  0.1658  0.4419
11710SOL    HW138150   3.624   8.406   5.581  2.0696 -0.1692  0.1716
11710SOL    HW238151   3.748   8.450   5.656  0.9801 -0.8578  2.4184
11711SOL     OW38152   6.621   2.045   6.790 -0.2710 -0.1953 -0.4541
11711SOL    HW138153   6.679   2.027   6.716 -1.5205 -0.8023 -1.2967
11711SOL    HW238154   6.675   2.028   6.867  1.9011  2.9923 -1.1369
11712SOL     OW38155   1.005   0.748   7.292  0.1509  0.4287 -0.0585
11712SOL    HW138156   1.009   0.734   7.386 -0.0540  0.8069  0.0080
11712SOL    HW238157   0.933   0.692   7.262  1.9164 -1.7044 -0.3719
11713SOL     OW38158   2.789   2.096   9.314  0.3606 -0.3263  0.1557
11713SOL    HW138159   2.813   2.085   9.222  1.6390  0.6481  0.3592
11713SOL    HW238160   2.734   2.020   9.334 -1.4958  0.4183 -1.9117
11714SOL     OW38161   3.855   8.685   4.721 -0.0041  0.2683 -0.4522
11714SOL    HW138162   3.786   8.618   4.719 -1.6267  1.9007 -0.8778
11714SOL    HW238163   3.932   8.639   4.755 -1.2121 -1.6828 -0.2532
11715SOL     OW38164   8.810   5.324   6.328  0.1705  0.2304 -0.4196
11715SOL    HW138165   8.732   5.276   6.302  0.2577 -0.7492  1.0740
11715SOL    HW238166   8.776   5.406   6.366 -0.1910 -0.4558  0.7846
11716SOL     OW38167   1.599   1.434   0.905  0.4789  0.2955  0.0174
11716SOL    HW138168   1.637   1.487   0.975 -1.0656  0.8231  0.4544
11716SOL    HW238169   1.646   1.462   0.826  0.7482  1.2125  0.4951
11717SOL     OW38170   4.166   4.129   5.299  0.2967 -0.2618  0.0688
11717SOL    HW138171   4.253   4.159   5.272  0.7615 -1.5679  0.0769
11717SOL    HW238172   4.173   4.117   5.394  0.1890 -0.5921  0.0385
11718SOL     OW38173   5.987   2.798   5.972  0.1566  0.2499 -0.0159
11718SOL    HW138174   6.054   2.825   6.036  2.9886  0.7497 -3.0532
11718SOL    HW238175   6.002   2.704   5.961  0.4362  0.3785 -0.7582
11719SOL     OW38176   4.459   5.726   6.904  0.3973 -1.1980  0.7104
11719SOL    HW138177   4.551   5.724   6.876  0.3460 -0.5256  0.4751
11719SOL    HW238178   4.463   5.718   6.999  0.8183  0.7833  0.8806
11720SOL     OW38179   0.867   3.349   6.623  0.7591  0.1246  0.2165
11720SOL    HW138180   0.916   3.345   6.705  0.9028  0.4483  0.1440
11720SOL    HW238181   0.781   3.384   6.648  0.5341 -0.5017  0.3542
11721SOL     OW38182   3.190   5.344   7.668 -0.6301  0.0688 -0.2132
11721SOL    HW138183   3.246   5.272   7.639 -0.5272 -0.3315  0.9612
11721SOL    HW238184   3.140   5.307   7.741 -0.8808  1.0740  0.1235
11722SOL     OW38185   6.925   0.459   4.664  0.3062 -0.6146 -0.3695
11722SOL    HW138186   6.909   0.443   4.757  2.1921  1.5717  0.3852
11722SOL    HW238187   6.862   0.528   4.641 -0.8217 -1.8280 -0.9924
11723SOL     OW38188   9.059   5.587   1.202  0.4860  0.0214  0.3629
11723SOL    HW138189   9.062   5.678   1.232 -0.4287  0.0027  0.5378
11723SOL    HW238190   8.966   5.563   1.207  0.7059 -0.8933  0.2329
11724SOL     OW38191   7.066   2.686   8.161  0.3399 -0.0604  0.3044
11724SOL    HW138192   6.980   2.690   8.120 -0.3212 -2.0641  1.4262
11724SOL    HW238193   7.067   2.758   8.224 -0.3764  0.1825  0.0343
11725SOL     OW38194   1.049   2.959   9.024 -0.1508  0.5985 -0.5798
11725SOL    HW138195   0.992   2.884   9.004 -0.1870  0.5155 -0.1533
11725SOL    HW238196   1.019   3.027   8.964 -0.3350  0.3766 -0.7425
11726SOL     OW38197   0.761   6.024   3.787 -0.2395 -0.0469  0.3218
11726SOL    HW138198   0.827   6.016   3.855 -0.8296 -0.4639  0.8482
11726SOL    HW238199   0.810   6.052   3.709  0.5795 -0.5655  0.6467
11727SOL     OW38200   6.359   1.274   6.462  0.4298  0.4744  0.2888
11727SOL    HW138201   6.281   1.329   6.462  0.9409  1.2155 -0.5938
11727SOL    HW238202   6.428   1.330   6.499  0.9115  0.3890 -0.4548
11728SOL     OW38203   8.802   3.472   0.787 -0.0784  0.4510 -0.1283
11728SOL    HW138204   8.723   3.508   0.746 -0.0506  0.2097 -0.3956
11728SOL    HW238205   8.852   3.434   0.714 -0.8056 -1.4522  0.3277
11729SOL     OW38206   3.864   4.959   3.889  0.2930 -0.0726  0.2965
11729SOL    HW138207   3.836   5.050   3.886 -1.0263 -0.4583  0.5725
11729SOL    HW238208   3.956   4.961   3.863  0.6719  1.5092  1.6845
11730SOL     OW38209   4.439   8.185   6.639  0.0393  0.1289  0.5705
11730SOL    HW138210   4.507   8.209   6.576 -0.3085  0.4157  0.2972
11730SOL    HW238211   4.373   8.254   6.629 -0.5731 -0.4779  0.4037
11731SOL     OW38212   8.858   3.128   2.464  0.0048  0.2484  0.2085
11731SOL    HW138213   8.812   3.046   2.447 -0.5311  0.8603 -1.4097
11731SOL    HW238214   8.863   3.133   2.559 -0.0138 -1.6206  0.3255
11732SOL     OW38215   8.954   6.392   6.129 -0.4996 -0.4582 -0.0829
11732SOL    HW138216   8.891   6.357   6.066  0.6444  1.3302 -2.2937
11732SOL    HW238217   8.999   6.315   6.164 -2.4391 -1.5964 -0.0547
11733SOL     OW38218   3.724   8.024   3.890  0.3023 -0.1363 -0.6655
11733SOL    HW138219   3.713   7.988   3.802  2.1419 -3.0413  0.2569
11733SOL    HW238220   3.655   7.983   3.941  2.1944 -2.1715  0.3120
11734SOL     OW38221   5.862   0.672   5.721 -0.4248 -0.1071  0.5804
11734SOL    HW138222   5.785   0.616   5.725 -0.4914 -0.1337 -0.8391
11734SOL    HW238223   5.828   0.761   5.731 -1.0824  0.1704 -3.2125
11735SOL     OW38224   7.279   4.434   0.639  0.3317  0.5414  0.0048
11735SOL    HW138225   7.321   4.450   0.724 -1.5679 -0.3937  1.1551
11735SOL    HW238226   7.282   4.519   0.595  2.4491  0.7369  0.4809
11736SOL     OW38227   0.301   2.381   0.648 -0.0660 -0.2203  0.4913
11736SOL    HW138228   0.257   2.340   0.722 -0.9726  0.8328  0.5439
11736SOL    HW238229   0.235   2.385   0.579  0.4607 -0.2336 -0.0193
11737SOL     OW38230   4.809   4.681   9.162 -0.7576  0.0474 -0.1409
11737SOL    HW138231   4.729   4.636   9.135 -0.9660 -0.6092  1.4786
11737SOL    HW238232   4.857   4.615   9.213  0.4826  0.6525 -0.5198
11738SOL     OW38233   4.353   1.414   6.783 -0.7908  0.1341  0.2473
11738SOL    HW138234   4.439   1.436   6.748  0.1719 -0.2558  2.3028
11738SOL    HW238235   4.317   1.497   6.813 -0.6563  0.1221  0.4383
11739SOL     OW38236   1.032   6.607   6.778 -0.3915 -0.1550 -0.6671
11739SOL    HW138237   0.952   6.659   6.784  0.9198  1.9194 -0.4613
11739SOL    HW238238   1.074   6.616   6.864  0.1140 -1.1523 -0.7922
11740SOL     OW38239   5.114   8.583   6.242  0.0418 -0.1771  0.1227
11740SOL    HW138240   5.203   8.547   6.242 -0.1966 -0.7912  1.5401
11740SOL    HW238241   5.064   8.522   6.296 -0.7447  1.3928  1.1840
11741SOL     OW38242   4.361   1.740   7.729 -0.1077  0.0648  0.2355
11741SOL    HW138243   4.440   1.776   7.769 -0.5689  0.2349  1.0064
11741SOL    HW238244   4.361   1.648   7.757  1.7380 -0.9201 -2.7633
11742SOL     OW38245   1.965   1.173   5.586  0.5110 -0.6065 -0.7331
11742SOL    HW138246   1.890   1.228   5.608  1.2360 -0.6704  2.1769
11742SOL    HW238247   1.927   1.094   5.548 -0.8111  0.0421 -0.7619
11743SOL     OW38248   1.211   5.197   4.350 -0.0505  1.1655  0.4676
11743SOL    HW138249   1.179   5.141   4.279  1.3819  0.7958  0.0977
11743SOL    HW238250   1.156   5.174   4.425 -1.1172  1.0639 -0.3227
11744SOL     OW38251   3.665   6.025   4.096 -0.6101  0.1650  0.0209
11744SOL    HW138252   3.631   6.051   4.010  1.3282  1.1081 -0.4887
11744SOL    HW238253   3.645   5.932   4.103  2.4120 -0.7950 -3.0246
11745SOL     OW38254   5.653   6.233   5.510  0.1277 -0.1031  0.1507
11745SOL    HW138255   5.723   6.217   5.447  0.7992 -1.5161  1.2208
11745SOL    HW238256   5.694   6.284   5.580 -0.3686  0.6212 -0.0811
11746SOL     OW38257   5.981   3.843   6.084 -0.0251  0.1348  0.1240
11746SOL    HW138258   5.966   3.879   6.171 -0.1659 -0.9154  0.5405
11746SOL    HW238259   5.936   3.759   6.085  1.1694 -0.5225 -0.4966
11747SOL     OW38260   9.134   1.393   0.292 -0.0521 -0.5963 -0.2247
11747SOL    HW138261   9.170   1.475   0.327 -0.2001 -0.0936 -1.2134
11747SOL    HW238262   9.047   1.387   0.331  0.0849 -0.4409  0.1054
11748SOL     OW38263   8.797   0.703   4.822 -0.3410 -0.4109  0.5210
11748SOL    HW138264   8.789   0.739   4.733 -3.4535  0.0158  0.9271
11748SOL    HW238265   8.861   0.759   4.865 -0.6632  0.9394 -0.7052
11749SOL     OW38266   3.055   5.361   5.012  0.6252  1.0233  0.0289
11749SOL    HW138267   2.993   5.315   4.955  2.0787 -0.8202 -0.1020
11749SOL    HW238268   3.041   5.454   4.993 -1.4523  0.6066 -0.6502
11750SOL     OW38269   4.338   4.377   0.886 -0.2213 -0.5304 -0.0043
11750SOL    HW138270   4.255   4.357   0.844  0.8126 -0.3849 -2.2271
11750SOL    HW238271   4.324   4.461   0.930 -1.3176 -0.6462 -0.1343
11751SOL     OW38272   3.454   4.767   7.101  0.2349  0.3739  0.1244
11751SOL    HW138273   3.518   4.819   7.150  2.1374 -1.5611 -0.2490
11751SOL    HW238274   3.373   4.818   7.107  1.7951  2.9088  0.5664
11752SOL     OW38275   6.688   2.715   4.148  0.4346 -0.3846 -0.3860
11752SOL    HW138276   6.615   2.681   4.200  0.7069 -1.9206 -0.9794
11752SOL    HW238277   6.668   2.687   4.059  1.3723 -0.1615 -0.6644
11753SOL     OW38278   2.986   3.755   0.679  0.0489  0.3925 -0.1429
11753SOL    HW138279   3.057   3.802   0.723  0.5141 -0.3038 -0.1423
11753SOL    HW238280   2.928   3.729   0.750 -0.1327  0.8257 -0.1274
11754SOL     OW38281   1.227   2.890   3.728  0.2326 -0.3153 -0.2740
11754SOL    HW138282   1.213   2.897   3.823  1.8794 -0.5713  0.0120
11754SOL    HW238283   1.192   2.972   3.693  0.8979  0.4115  0.7304
11755SOL     OW38284   6.761   2.553   6.279  0.0901 -0.1172  0.0399
11755SOL    HW138285   6.779   2.459   6.282 -2.2664 -0.5634  1.6446
11755SOL    HW238286   6.704   2.564   6.203 -0.4493 -0.1428  0.4397
11756SOL     OW38287   7.985   1.336   0.124  0.8021 -0.6520 -0.9551
11756SOL    HW138288   8.058   1.274   0.129  1.8421  0.4768 -1.6549
11756SOL    HW238289   8.015   1.412   0.174 -0.7073 -0.9292  0.4270
11757SOL     OW38290   7.425   2.654   5.158  0.0869  0.2403  1.0307
11757SOL    HW138291   7.435   2.581   5.097  0.6993  0.1451  1.2406
11757SOL    HW238292   7.442   2.732   5.104  2.0684  0.0793  1.3870
11758SOL     OW38293   2.939   6.878   6.208  0.1552 -0.4884 -0.1165
11758SOL    HW138294   2.860   6.932   6.215  1.2488  0.9358  1.6143
11758SOL    HW238295   2.914   6.794   6.248 -0.6383 -0.2427 -0.0876
11759SOL     OW38296   7.265   8.822   7.838 -0.3702  0.4488 -0.3159
11759SOL    HW138297   7.259   8.903   7.888  0.0394  0.0712  0.3622
11759SOL    HW238298   7.325   8.842   7.766  0.8589  0.3485  0.6642
11760SOL     OW38299   7.603   2.595   3.084 -0.5886 -0.2862 -0.0020
11760SOL    HW138300   7.512   2.621   3.097 -1.2309 -2.8334  1.0297
11760SOL    HW238301   7.610   2.582   2.989 -0.7739  1.6174 -0.2991
11761SOL     OW38302   1.861   4.690   4.017 -0.1861 -0.3064 -0.0860
11761SOL    HW138303   1.887   4.602   4.044  0.5560 -0.2650 -0.6413
11761SOL    HW238304   1.860   4.686   3.921 -0.0348  0.3269 -0.1125
11762SOL     OW38305   1.357   3.816   6.530 -0.3135  0.0551  0.1328
11762SOL    HW138306   1.409   3.778   6.601  0.4194  1.9033  0.5927
11762SOL    HW238307   1.421   3.839   6.463 -0.6028  1.7014  0.4096
11763SOL     OW38308   8.468   4.371   8.798 -0.5899  0.2914 -0.0810
11763SOL    HW138309   8.382   4.353   8.759 -0.6006  1.3966 -0.5748
11763SOL    HW238310   8.531   4.336   8.735 -0.6439  0.6141 -0.3113
11764SOL     OW38311   7.648   9.266   9.337 -0.2271 -0.1285  0.2979
11764SOL    HW138312   7.555   9.257   9.354 -0.5297 -1.3892 -1.8658
11764SOL    HW238313   7.653   9.330   9.266  0.6871  1.1995  1.5203
11765SOL     OW38314   1.147   1.686   4.167 -0.0358 -0.0039 -0.3859
11765SOL    HW138315   1.090   1.662   4.094 -0.7473  0.6507 -0.0585
11765SOL    HW238316   1.139   1.614   4.229  0.2843 -0.3883 -0.7858
11766SOL     OW38317   2.008   7.270   2.792 -0.5171 -0.2764 -0.0921
11766SOL    HW138318   1.927   7.245   2.749 -0.9399  0.3466  0.3296
11766SOL    HW238319   2.077   7.248   2.730 -1.1948  1.8713 -1.6607
11767SOL     OW38320   8.990   0.346   5.608  0.3568  0.5950  0.2446
11767SOL    HW138321   9.035   0.274   5.563 -0.5304 -0.6842  1.3761
11767SOL    HW238322   9.056   0.382   5.667  0.7363  0.5843 -0.1688
11768SOL     OW38323   9.312   3.616   6.659 -0.6412  0.0991  0.2812
11768SOL    HW138324   9.257   3.677   6.709 -1.9687 -0.4298 -0.4830
11768SOL    HW238325   9.363   3.570   6.725 -2.0575 -0.2914  1.1352
11769SOL     OW38326   5.256   2.053   1.958 -0.3883 -0.0096 -0.0158
11769SOL    HW138327   5.311   2.071   2.034  1.0754  0.2496 -1.1131
11769SOL    HW238328   5.200   1.981   1.985  0.0432  0.1571  1.3500
11770SOL     OW38329   4.358   8.402   1.157 -0.3135 -0.0642 -0.3008
11770SOL    HW138330   4.401   8.331   1.108 -0.9106 -0.8686  0.3171
11770SOL    HW238331   4.396   8.397   1.244 -1.2685 -0.4390  0.1002
11771SOL     OW38332   5.149   3.090   0.271  0.3449 -0.3454  0.6764
11771SOL    HW138333   5.171   3.088   0.178 -1.2461 -3.5729  0.3089
11771SOL    HW238334   5.232   3.071   0.316  0.5907 -1.4255 -0.2151
11772SOL     OW38335   3.592   1.227   6.985  0.2842 -0.0154  0.6809
11772SOL    HW138336   3.559   1.312   7.013 -0.9285 -0.5305  0.8583
11772SOL    HW238337   3.572   1.224   6.891  1.1026  0.2449  0.4966
11773SOL     OW38338   5.419   7.701   7.159  0.1041  0.0023  0.5389
11773SOL    HW138339   5.481   7.772   7.179  0.3509  0.1019 -0.5502
11773SOL    HW238340   5.461   7.652   7.089 -0.6703 -0.4488  0.3891
11774SOL     OW38341   2.123   7.726   2.037 -0.0757  0.0304  0.3478
11774SOL    HW138342   2.184   7.671   2.085 -0.3184 -0.4454  0.1156
11774SOL    HW238343   2.053   7.666   2.010 -0.4322  0.4867  0.2529
11775SOL     OW38344   0.182   5.741   8.739 -0.0496 -0.3746  0.0521
11775SOL    HW138345   0.261   5.692   8.764  0.1832  0.8399  1.8485
11775SOL    HW238346   0.136   5.755   8.822 -0.5152  1.7144 -0.5299
11776SOL     OW38347   3.190   8.508   6.002  0.2529 -0.2284 -0.4709
11776SOL    HW138348   3.109   8.520   5.952  0.0617 -1.1767 -0.4014
11776SOL    HW238349   3.240   8.444   5.951  0.3512 -0.6864  0.1960
11777SOL     OW38350   4.296   1.609   6.107  0.2509  0.3833 -0.2090
11777SOL    HW138351   4.271   1.606   6.014  0.6593  1.8205 -0.3696
11777SOL    HW238352   4.355   1.683   6.114  1.3611 -0.5916  0.9417
11778SOL     OW38353   4.291   3.940   2.623 -0.6898  0.7437  0.1822
11778SOL    HW138354   4.249   3.897   2.549  1.8346 -2.4664  0.5044
11778SOL    HW238355   4.234   3.922   2.698 -0.9665  0.1681 -0.1665
11779SOL     OW38356   1.357   0.427   5.804 -0.6268 -0.3487 -0.7665
11779SOL    HW138357   1.342   0.354   5.744 -0.6596 -0.5753 -0.4853
11779SOL    HW238358   1.336   0.505   5.753  2.7012 -0.3075 -2.1467
11780SOL     OW38359   4.661   4.894   6.401  0.0888 -0.3706  0.0694
11780SOL    HW138360   4.615   4.977   6.388  0.7626  0.3684  2.2154
11780SOL    HW238361   4.601   4.842   6.454 -0.1990 -1.1521 -1.0116
11781SOL     OW38362   1.466   6.211   7.176  0.3330 -0.0690  0.5722
11781SOL    HW138363   1.501   6.131   7.138  0.1556 -0.3037  0.8946
11781SOL    HW238364   1.373   6.209   7.155 -0.0202 -0.8491  2.1062
11782SOL     OW38365   7.079   0.493   8.682 -0.6089  0.4681 -0.0292
11782SOL    HW138366   7.049   0.429   8.617 -2.4175  2.9876 -1.7539
11782SOL    HW238367   7.033   0.468   8.762 -1.3899 -0.3422 -0.7143
11783SOL     OW38368   2.912   0.388   6.011 -0.2480  0.2474 -0.0276
11783SOL    HW138369   2.969   0.317   6.039  0.0375  0.2727 -0.5374
11783SOL    HW238370   2.859   0.409   6.088  0.5240  0.3109  0.4892
11784SOL     OW38371   0.621   2.977   8.582 -0.2571 -0.5256 -0.5027
11784SOL    HW138372   0.706   2.938   8.604 -0.2629 -0.3731 -0.2037
11784SOL    HW238373   0.609   3.046   8.648 -0.3138 -0.1190 -0.9386
11785SOL     OW38374   0.632   1.044   1.398 -0.1643 -0.2310  0.2036
11785SOL    HW138375   0.643   0.979   1.467  0.1448 -0.8112 -0.3900
11785SOL    HW238376   0.658   1.127   1.439 -1.2560 -0.3643  1.1710
11786SOL     OW38377   1.348   8.700   6.147  0.1694  0.0887 -0.3573
11786SOL    HW138378   1.393   8.668   6.069 -3.6295  1.2936 -3.1657
11786SOL    HW238379   1.276   8.639   6.160  1.5643 -0.9533  3.1968
11787SOL     OW38380   0.100   6.159   0.212  0.3517  0.4786 -0.5751
11787SOL    HW138381   0.040   6.234   0.220  0.0362  0.2944 -1.1975
11787SOL    HW238382   0.096   6.136   0.119  1.3056  0.3982 -0.5950
11788SOL     OW38383   5.352   1.815   4.719 -0.8516 -0.1703 -0.0112
11788SOL    HW138384   5.413   1.772   4.779  0.8930  1.3892 -0.6180
11788SOL    HW238385   5.300   1.873   4.775 -0.7197 -0.3442  0.2935
11789SOL     OW38386   2.881   6.390   0.200  0.2021 -0.3442 -0.3133
11789SOL    HW138387   2.935   6.315   0.223 -1.8681 -1.7419  0.0735
11789SOL    HW238388   2.827   6.360   0.127 -1.1635  0.5077  0.3264
11790SOL     OW38389   0.868   8.565   6.405 -0.2191 -0.2719 -0.2587
11790SOL    HW138390   0.915   8.499   6.456  1.1229  0.1760 -0.8966
11790SOL    HW238391   0.781   8.528   6.393  1.1960 -3.0540 -2.6162
11791SOL     OW38392   1.229   8.852   2.375  0.5560  0.2833 -0.1525
11791SOL    HW138393   1.255   8.922   2.315  1.3444 -0.8238 -1.1165
11791SOL    HW238394   1.210   8.777   2.319 -2.1764  0.2707  0.7255
11792SOL     OW38395   0.140   2.710   1.012  1.0329 -0.2984 -0.5266
11792SOL    HW138396   0.233   2.690   1.001  0.6864 -1.9635 -0.5139
11792SOL    HW238397   0.115   2.755   0.932  2.0880  1.0866 -0.0925
11793SOL     OW38398   4.886   0.246   3.920 -0.4382  0.1556 -0.1381
11793SOL    HW138399   4.882   0.210   3.831  0.0664 -1.0175  0.3047
11793SOL    HW238400   4.814   0.309   3.924 -1.5528 -1.0502 -0.8283
11794SOL     OW38401   2.629   1.081   9.394  0.2797 -0.1942 -0.0221
11794SOL    HW138402   2.621   1.132   9.314 -0.1854 -0.7546 -0.3414
11794SOL    HW238403   2.722   1.061   9.401  0.3658  0.1292 -0.2490
11795SOL     OW38404   7.595   3.764   6.616 -0.0170  0.5918  0.0566
11795SOL    HW138405   7.539   3.699   6.658 -0.1137  0.0092 -0.9437
11795SOL    HW238406   7.625   3.820   6.687 -1.7869  0.8495  0.6220
11796SOL     OW38407   1.781   0.282   8.457  0.1851 -0.3984  0.4787
11796SOL    HW138408   1.705   0.321   8.500 -0.0155 -1.5270  1.1517
11796SOL    HW238409   1.809   0.212   8.515  0.4666 -1.3519 -0.7914
11797SOL     OW38410   4.263   4.425   1.390  0.0368 -0.4473 -0.3319
11797SOL    HW138411   4.301   4.504   1.428 -0.4787  0.0589 -0.8582
11797SOL    HW238412   4.236   4.372   1.466 -0.4926  0.3105  0.0166
11798SOL     OW38413   3.516   9.134   5.483  0.0820 -0.3251 -0.1979
11798SOL    HW138414   3.528   9.164   5.393 -0.5007  0.9387  0.1276
11798SOL    HW238415   3.453   9.196   5.520  2.3151  0.7528  1.8788
11799SOL     OW38416   4.538   5.615   6.495  0.1142 -0.9400  0.6337
11799SOL    HW138417   4.487   5.575   6.566 -1.3564  1.0747  0.7748
11799SOL    HW238418   4.481   5.685   6.462  1.9473 -0.0214 -0.6521
11800SOL     OW38419   7.066   5.627   5.991  0.1559 -0.2558  0.5235
11800SOL    HW138420   6.985   5.580   5.969  0.6584 -0.2903 -1.2989
11800SOL    HW238421   7.136   5.564   5.973  0.7136  0.4924  0.0579
11801SOL     OW38422   6.707   7.504   4.569  0.2982  0.1478  0.0760
11801SOL    HW138423   6.665   7.558   4.502  0.9814 -1.3848 -1.6263
11801SOL    HW238424   6.742   7.429   4.521  1.1280 -0.8008  2.1056
11802SOL     OW38425   8.610   5.206   5.412 -0.1836 -0.1445 -0.2674
11802SOL    HW138426   8.625   5.162   5.496  1.7528 -0.3421 -0.6895
11802SOL    HW238427   8.565   5.287   5.435 -2.8139 -1.7964  0.6262
11803SOL     OW38428   9.227   3.180   6.576  0.0619  0.2465 -0.1518
11803SOL    HW138429   9.156   3.189   6.640  0.3905  1.5572  0.0408
11803SOL    HW238430   9.188   3.128   6.505 -0.6031 -0.3807  0.6646
11804SOL     OW38431   1.323   0.780   6.673  0.0083 -0.8460 -0.0886
11804SOL    HW138432   1.294   0.854   6.620  2.1106 -0.4114 -0.7134
11804SOL    HW238433   1.290   0.797   6.761 -0.6107  0.1836 -0.5234
11805SOL     OW38434   8.424   5.144   8.600 -0.1298  0.4102  0.0926
11805SOL    HW138435   8.504   5.115   8.644  1.3029 -0.1261 -2.7410
11805SOL    HW238436   8.393   5.066   8.552 -1.8947  0.8346  0.5084
11806SOL     OW38437   7.266   6.137   7.101 -0.0816 -0.4676 -0.7954
11806SOL    HW138438   7.349   6.183   7.098  0.3742 -1.2789 -0.9187
11806SOL    HW238439   7.255   6.114   7.193 -0.7798  0.7318 -0.5821
11807SOL     OW38440   6.414   3.120   0.658 -0.2684  0.0312 -0.6945
11807SOL    HW138441   6.418   3.212   0.633 -2.5458 -0.1136 -1.7159
11807SOL    HW238442   6.345   3.083   0.603  0.0999 -2.1214  0.2307
11808SOL     OW38443   7.138   7.178   3.543 -0.0536 -0.4525 -0.0831
11808SOL    HW138444   7.049   7.189   3.509  0.5957 -0.3124 -1.7495
11808SOL    HW238445   7.188   7.249   3.503  0.5529  0.2523  1.8442
11809SOL     OW38446   5.126   0.223   5.659 -0.5148  1.2001  0.4252
11809SOL    HW138447   5.143   0.205   5.751 -0.0257 -0.8946 -0.0435
11809SOL    HW238448   5.161   0.147   5.613 -1.9973  1.5640 -1.3845
11810SOL     OW38449   0.519   2.648   7.262 -0.0986  0.2097  0.1451
11810SOL    HW138450   0.454   2.583   7.288 -1.2200  0.8160 -1.1042
11810SOL    HW238451   0.579   2.602   7.203 -1.9581  0.7325 -2.2232
11811SOL     OW38452   1.124   7.902   0.894  1.1393  0.4726  0.7314
11811SOL    HW138453   1.105   7.994   0.913 -1.2594  0.0706  0.4133
11811SOL    HW238454   1.157   7.867   0.976  0.7272  1.2688  1.2435
11812SOL     OW38455   1.961   9.207   0.742  0.0347  0.3931 -0.3779
11812SOL    HW138456   1.978   9.231   0.833  0.9030  1.2630 -0.7572
11812SOL    HW238457   2.040   9.160   0.715 -0.6694 -0.8167 -0.3638
11813SOL     OW38458   1.808   8.987   4.581 -0.2180  0.6067  0.1860
11813SOL    HW138459   1.860   8.948   4.651 -0.8257  0.2365  0.4253
11813SOL    HW238460   1.723   9.006   4.621 -0.8742 -0.4384 -0.6852
11814SOL     OW38461   3.404   1.208   0.560  1.1137  0.1098  0.1478
11814SOL    HW138462   3.391   1.115   0.541 -0.4974  0.7378 -2.0835
11814SOL    HW238463   3.487   1.230   0.518  1.1944 -0.1882  0.1537
11815SOL     OW38464   3.056   3.308   3.511  0.3341  0.2424  0.0420
11815SOL    HW138465   3.143   3.316   3.550  0.6736 -2.2436 -0.1795
11815SOL    HW238466   2.995   3.323   3.584  0.9363  0.2794  0.5348
11816SOL     OW38467   9.387   5.640   2.537 -0.3853 -0.0329 -0.0728
11816SOL    HW138468   9.418   5.621   2.449 -0.9605  0.5427 -0.3995
11816SOL    HW238469   9.294   5.617   2.536 -0.7911  1.5082 -0.1045
11817SOL     OW38470   7.055   4.152   7.226  0.0480  0.2226  0.5157
11817SOL    HW138471   7.146   4.167   7.253  0.7514 -2.0121 -0.4639
11817SOL    HW238472   7.021   4.089   7.290 -0.2650 -0.2314 -0.0929
11818SOL     OW38473   8.123   4.098   0.595  0.2602  0.5214 -0.1376
11818SOL    HW138474   8.140   4.174   0.650  0.6649 -1.2668  2.2699
11818SOL    HW238475   8.028   4.085   0.601  0.5332 -0.7753  1.6718
11819SOL     OW38476   8.691   0.428   4.964 -0.4635  0.6760 -0.2563
11819SOL    HW138477   8.663   0.337   4.963  1.7364 -0.0355 -0.7813
11819SOL    HW238478   8.665   0.462   4.878 -2.1999  0.8456  0.3296
11820SOL     OW38479   5.730   0.592   1.091 -0.1515  0.0561 -0.1489
11820SOL    HW138480   5.785   0.561   1.163  1.1836  1.7582 -0.3727
11820SOL    HW238481   5.779   0.567   1.012 -1.0200 -0.7596 -0.4295
11821SOL     OW38482   6.828   0.445   4.939  0.0630  0.2231  0.1982
11821SOL    HW138483   6.745   0.492   4.953  0.3941  0.8915 -0.0550
11821SOL    HW238484   6.891   0.492   4.994  0.8539  1.3960 -1.6620
11822SOL     OW38485   4.829   0.390   7.063  0.1848  0.1931  0.6909
11822SOL    HW138486   4.752   0.442   7.083  1.4456  2.5498 -0.3996
11822SOL    HW238487   4.834   0.390   6.967  1.3132 -0.2808  0.7363
11823SOL     OW38488   4.127   1.913   9.328 -0.0309  0.5953 -0.0760
11823SOL    HW138489   4.219   1.937   9.321 -0.4078  2.4318  0.7947
11823SOL    HW238490   4.123   1.849   9.399  0.5237  0.8562  0.1897
11824SOL     OW38491   4.925   4.517   0.444  0.3923  0.3300 -0.2088
11824SOL    HW138492   4.855   4.551   0.500  0.0755  1.1214 -1.0731
11824SOL    HW238493   4.910   4.422   0.442 -0.7389  0.5072 -0.4927
11825SOL     OW38494   0.612   0.774   8.214  0.1809 -0.1064 -0.5750
11825SOL    HW138495   0.686   0.761   8.273  1.1296  0.9297 -1.5010
11825SOL    HW238496   0.651   0.768   8.126 -0.9079  0.0463 -1.0748
11826SOL     OW38497   0.146   0.101   1.614  0.6926 -0.3570  0.6322
11826SOL    HW138498   0.172   0.182   1.570 -1.7908  0.6191  0.8819
11826SOL    HW238499   0.074   0.127   1.672  1.8407 -2.1982  2.9784
11827SOL     OW38500   3.513   0.941   8.164  0.1539  0.1978  0.1059
11827SOL    HW138501   3.532   0.951   8.257  1.8664 -1.1879 -0.0925
11827SOL    HW238502   3.437   0.882   8.161 -0.0924  0.4850  0.6216
11828SOL     OW38503   7.879   4.915   2.440  0.1409  0.3041 -0.4824
11828SOL    HW138504   7.943   4.975   2.402 -0.9538  0.5920 -1.9345
11828SOL    HW238505   7.907   4.829   2.409 -0.5711  0.5057 -1.7204
11829SOL     OW38506   7.369   5.455   1.205  0.4453 -0.8162  0.5707
11829SOL    HW138507   7.353   5.517   1.134 -0.6149 -1.2575  0.4106
11829SOL    HW238508   7.421   5.504   1.269  0.1522  0.0368  0.1572
11830SOL     OW38509   2.185   8.785   9.111  0.0195 -0.0488 -0.2379
11830SOL    HW138510   2.261   8.788   9.052  0.8171  0.1904  0.7827
11830SOL    HW238511   2.182   8.694   9.142 -0.4833 -0.2088 -0.7619
11831SOL     OW38512   3.148   8.095   3.486 -0.1532  0.6801 -0.4571
11831SOL    HW138513   3.141   8.120   3.394 -0.6330  1.8959 -0.1023
11831SOL    HW238514   3.065   8.052   3.505 -0.0584  0.4387 -0.5926
11832SOL     OW38515   9.120   5.321   1.301  0.4320 -0.0181  0.0007
11832SOL    HW138516   9.043   5.284   1.258  0.7485  0.1385 -0.7003
11832SOL    HW238517   9.122   5.412   1.273  0.8847 -0.0273  0.0054
11833SOL     OW38518   8.450   1.164   5.019  0.2313  0.1366 -0.0941
11833SOL    HW138519   8.365   1.209   5.023 -0.2280 -0.6243 -1.1811
11833SOL    HW238520   8.485   1.187   4.933  1.7429  1.5279  0.8674
11834SOL     OW38521   5.872   9.002   4.243 -0.0511  0.1057  0.0234
11834SOL    HW138522   5.786   8.972   4.213  0.0089 -0.3384  0.2822
11834SOL    HW238523   5.863   9.096   4.253 -1.2982 -0.2157  2.5528
11835SOL     OW38524   2.025   0.593   1.944  0.5487 -0.1117 -0.1173
11835SOL    HW138525   2.118   0.598   1.968  0.3897 -0.8091  0.6544
11835SOL    HW238526   1.986   0.671   1.984  1.0081  0.8226 -1.4396
11836SOL     OW38527   1.243   8.352   7.082 -0.3939 -0.5562 -0.1763
11836SOL    HW138528   1.147   8.351   7.089 -0.3535 -0.2018  0.4312
11836SOL    HW238529   1.273   8.365   7.172  0.2431 -1.4669 -0.2620
11837SOL     OW38530   6.593   8.940   4.607 -0.1485 -0.5368 -0.4493
11837SOL    HW138531   6.508   8.940   4.563 -1.2517  0.7262  1.6163
11837SOL    HW238532   6.574   8.964   4.697  2.6449  1.8946 -0.4314
11838SOL     OW38533   9.148   6.746   6.431  0.1916 -0.4146 -0.0451
11838SOL    HW138534   9.062   6.716   6.462  0.3688 -1.4563 -0.5449
11838SOL    HW238535   9.136   6.840   6.415 -0.7679 -0.4925  0.1862
11839SOL     OW38536   3.296   1.404   8.416  0.0873  0.3347 -0.1849
11839SOL    HW138537   3.267   1.424   8.328  0.9971  0.7627 -0.3908
11839SOL    HW238538   3.305   1.308   8.417  0.6406  0.3794 -0.7313
11840SOL     OW38539   2.452   5.287   3.042 -0.6226 -0.8868  0.3648
11840SOL    HW138540   2.421   5.310   2.954 -0.0213 -1.3921  0.0143
11840SOL    HW238541   2.490   5.199   3.031  0.5379 -0.4562  0.8689
11841SOL     OW38542   8.131   1.180   3.383  0.3692  0.1411  0.4980
11841SOL    HW138543   8.056   1.130   3.353 -0.8259  1.5989  0.9879
11841SOL    HW238544   8.201   1.161   3.320 -1.0484  0.4372 -1.1778
11842SOL     OW38545   3.205   4.539   3.375  0.3178 -0.7161 -0.0125
11842SOL    HW138546   3.164   4.589   3.304 -1.5658 -1.3505  0.5757
11842SOL    HW238547   3.147   4.553   3.450  1.0033 -1.9497  0.7669
11843SOL     OW38548   3.121   5.515   0.817 -0.1947  0.3005  0.7207
11843SOL    HW138549   3.097   5.526   0.725 -0.8027 -0.1795  0.8239
11843SOL    HW238550   3.201   5.462   0.815  0.4920  1.3200  0.4167
11844SOL     OW38551   9.349   3.135   6.282 -0.0116 -0.3468  0.1990
11844SOL    HW138552   9.383   3.046   6.277  1.1451  0.1424 -1.1913
11844SOL    HW238553   9.261   3.130   6.245  0.5357 -0.7008 -1.0905
11845SOL     OW38554   6.059   1.207   8.973  0.0024 -0.4521 -0.3978
11845SOL    HW138555   6.015   1.226   8.890 -1.1267  0.0091  0.2869
11845SOL    HW238556   5.989   1.178   9.031  0.7731 -0.7287  0.4084
11846SOL     OW38557   9.002   8.598   3.302 -0.9072 -0.1499 -0.3098
11846SOL    HW138558   8.925   8.591   3.245 -1.8669  2.2562  0.6302
11846SOL    HW238559   9.053   8.671   3.265  1.3421 -2.2096 -1.3788
11847SOL     OW38560   0.839   8.305   0.265 -0.3681 -0.2638 -0.1687
11847SOL    HW138561   0.763   8.248   0.264 -0.2106 -0.4755 -0.0862
11847SOL    HW238562   0.874   8.301   0.176  0.5912 -1.5766  0.2648
11848SOL     OW38563   0.963   0.510   2.996  0.0356  0.0706  0.2352
11848SOL    HW138564   0.904   0.574   2.953  1.1991  0.5250 -0.7095
11848SOL    HW238565   0.916   0.484   3.075 -0.9818  1.2284  0.0330
11849SOL     OW38566   3.053   5.818   5.667 -0.0807 -0.9455  0.4587
11849SOL    HW138567   3.123   5.796   5.728 -1.1062  0.9956  2.4444
11849SOL    HW238568   2.972   5.796   5.714 -0.9558  2.3286  0.6717
11850SOL     OW38569   6.509   2.005   1.401 -0.8239  0.5405  0.1870
11850SOL    HW138570   6.568   2.054   1.345  0.0528  0.2538  0.8379
11850SOL    HW238571   6.426   2.001   1.353 -0.0488  0.1799 -1.1381
11851SOL     OW38572   3.537   7.458   6.483  0.0739  0.5398 -0.3104
11851SOL    HW138573   3.490   7.396   6.539  1.0370 -0.6257 -0.7527
11851SOL    HW238574   3.611   7.487   6.536  1.2211 -0.8833 -1.1002
11852SOL     OW38575   1.449   5.222   4.748  0.6152  0.2360 -0.4934
11852SOL    HW138576   1.485   5.226   4.836  1.8697  0.6221 -0.9986
11852SOL    HW238577   1.378   5.286   4.747 -0.9294 -1.4101  0.8775
11853SOL     OW38578   7.898   7.049   5.185  0.3456 -0.5462  0.1994
11853SOL    HW138579   7.925   7.073   5.096 -1.6050  1.2969  0.0628
11853SOL    HW238580   7.938   7.115   5.241 -0.4539 -0.2364  0.4143
11854SOL     OW38581   9.091   8.882   5.764  0.4432  0.1950 -0.2734
11854SOL    HW138582   9.037   8.916   5.835  0.9840  2.5093 -0.9314
11854SOL    HW238583   9.134   8.805   5.802 -0.7639  0.2627  1.2804
11855SOL     OW38584   5.639   2.206   1.538  0.3132 -0.4952 -0.1040
11855SOL    HW138585   5.682   2.123   1.562  1.0031  0.4331  1.9260
11855SOL    HW238586   5.658   2.265   1.610 -0.0342  1.5166 -1.6240
11856SOL     OW38587   3.009   4.488   2.255 -0.3289  0.2964  0.6922
11856SOL    HW138588   2.989   4.449   2.170 -2.3479  1.5052  0.5780
11856SOL    HW238589   2.927   4.483   2.304  0.4912  0.7135  2.1353
11857SOL     OW38590   7.537   2.311   3.730  0.0639 -0.0674  0.3329
11857SOL    HW138591   7.491   2.252   3.790 -2.3259  0.2374 -1.1207
11857SOL    HW238592   7.612   2.260   3.700 -0.1961 -1.1966  1.5190
11858SOL     OW38593   0.377   6.260   7.787 -0.1305  1.0213  0.0515
11858SOL    HW138594   0.352   6.327   7.723  2.5787  2.0779  0.0559
11858SOL    HW238595   0.404   6.309   7.864  0.0938 -0.1425  0.7277
11859SOL     OW38596   0.619   0.703   6.700 -0.0292 -0.4832 -0.5658
11859SOL    HW138597   0.673   0.732   6.773 -0.7110  0.2850 -0.3586
11859SOL    HW238598   0.535   0.678   6.740 -0.8477  1.1410 -1.2042
11860SOL     OW38599   5.955   0.542   4.839 -0.1633 -0.3119 -0.0278
11860SOL    HW138600   6.032   0.488   4.823  0.1257  0.0937 -0.0158
11860SOL    HW238601   5.960   0.563   4.932 -1.1242 -1.5673  0.3228
11861SOL     OW38602   1.981   0.903   0.396  0.0262 -0.0546 -0.0622
11861SOL    HW138603   2.051   0.837   0.391 -2.4840 -3.2329  3.6360
11861SOL    HW238604   1.929   0.889   0.317 -0.1242 -2.2044  0.3896
11862SOL     OW38605   9.346   5.137   8.696  0.1627  0.3475 -0.3149
11862SOL    HW138606   9.384   5.216   8.735 -1.7752  1.9450 -1.5894
11862SOL    HW238607   9.351   5.151   8.602  0.7292 -1.5399 -0.6061
11863SOL     OW38608   9.417   4.823   6.443  0.2144  0.5045 -0.0243
11863SOL    HW138609   9.339   4.826   6.497 -0.4138  1.6500 -0.9870
11863SOL    HW238610   9.419   4.733   6.409 -0.2264  0.2387  0.6486
11864SOL     OW38611   3.185   7.899   8.737  0.2915 -0.0936  0.0105
11864SOL    HW138612   3.267   7.933   8.772  1.0329 -0.7785 -1.0356
11864SOL    HW238613   3.161   7.960   8.667  1.0929 -1.1251 -1.1851
11865SOL     OW38614   6.667   5.375   3.313 -0.2376  0.3143  0.3189
11865SOL    HW138615   6.753   5.403   3.281 -0.2178  0.1282  0.2106
11865SOL    HW238616   6.613   5.454   3.308 -0.3741  0.1644 -0.6540
11866SOL     OW38617   6.066   6.916   4.876 -0.1306 -0.0642  0.0961
11866SOL    HW138618   6.023   6.845   4.925 -1.8343  0.1584 -1.0249
11866SOL    HW238619   6.007   6.991   4.886  0.1281  0.3296 -1.2454
11867SOL     OW38620   1.427   7.884   7.647  0.0242  0.3039  0.2750
11867SOL    HW138621   1.340   7.845   7.634 -0.3469  0.8517  1.0341
11867SOL    HW238622   1.469   7.879   7.562  0.2211 -2.3221  0.4985
11868SOL     OW38623   2.079   1.534   2.224 -0.3699 -0.1838  0.1770
11868SOL    HW138624   1.999   1.518   2.173 -0.3454  0.1332  0.0354
11868SOL    HW238625   2.052   1.525   2.315 -0.8255  1.0449  0.1680
11869SOL     OW38626   6.874   3.560   1.157  0.6428 -0.3958 -0.0307
11869SOL    HW138627   6.934   3.628   1.188  1.4296 -0.7608 -0.7160
11869SOL    HW238628   6.926   3.510   1.093 -0.8271  0.1712 -1.7045
11870SOL     OW38629   2.271   4.535   2.342 -0.2652 -0.2853 -0.2720
11870SOL    HW138630   2.200   4.488   2.300 -1.0745  0.0422  0.7101
11870SOL    HW238631   2.274   4.620   2.299 -1.1788  0.1003  0.4220
11871SOL     OW38632   7.628   4.901   0.115 -0.2974  0.4015  0.3915
11871SOL    HW138633   7.552   4.935   0.162  0.5065  0.0003  2.0203
11871SOL    HW238634   7.703   4.945   0.154  0.3251  0.8625 -1.2640
11872SOL     OW38635   4.971   3.301   8.556 -0.2549 -0.2908 -0.4058
11872SOL    HW138636   5.058   3.334   8.537  0.1748 -0.4904  1.1445
11872SOL    HW238637   4.960   3.226   8.497 -0.0530  0.7417 -1.7810
11873SOL     OW38638   7.902   5.731   5.679  0.0734  0.0871  0.1837
11873SOL    HW138639   7.973   5.668   5.690  1.7690  1.5844 -1.6025
11873SOL    HW238640   7.940   5.814   5.708 -1.7755  0.4853  1.5353
11874SOL     OW38641   7.690   2.456   2.368 -0.1358 -0.2130 -0.2214
11874SOL    HW138642   7.687   2.550   2.382 -0.4206 -0.0268 -1.4855
11874SOL    HW238643   7.692   2.445   2.273  1.3618 -1.4441 -0.0740
11875SOL     OW38644   2.720   7.048   6.197  0.1300 -0.1863  0.2042
11875SOL    HW138645   2.674   7.019   6.118  1.5145 -0.9948 -0.3248
11875SOL    HW238646   2.653   7.089   6.251 -1.0438 -0.6310 -0.9101
11876SOL     OW38647   7.568   7.639   2.748 -0.1166 -0.4504 -0.4351
11876SOL    HW138648   7.627   7.568   2.775  2.1369  0.5644 -2.4781
11876SOL    HW238649   7.527   7.606   2.668 -0.5019 -0.1993 -0.3386
11877SOL     OW38650   7.393   5.227   6.185  0.4007  0.4021  0.2951
11877SOL    HW138651   7.460   5.160   6.174 -2.1502 -2.1118 -0.3955
11877SOL    HW238652   7.433   5.307   6.152  2.2379 -1.5269 -2.2894
11878SOL     OW38653   5.409   2.090   7.190 -0.3785 -0.4151 -0.1385
11878SOL    HW138654   5.439   2.135   7.268 -0.4594  0.9836 -0.8949
11878SOL    HW238655   5.437   1.999   7.202 -1.3627 -0.4574  2.0072
11879SOL     OW38656   5.924   2.181   1.925  0.0845  0.2234 -0.2796
11879SOL    HW138657   5.992   2.190   1.858  0.8915 -0.9797  0.3530
11879SOL    HW238658   5.936   2.092   1.959 -1.8321 -0.0070 -0.1722
11880SOL     OW38659   9.104   6.771   8.561  0.6015 -0.4925  0.3310
11880SOL    HW138660   9.079   6.694   8.612 -0.5156  0.3030  1.0148
11880SOL    HW238661   9.068   6.845   8.610  0.5623  0.3792 -0.9779
11881SOL     OW38662   0.526   3.528   7.849 -0.2669 -0.5522 -0.4920
11881SOL    HW138663   0.444   3.525   7.899 -0.8473 -0.9032 -1.4448
11881SOL    HW238664   0.501   3.500   7.761  0.9129 -0.8131 -0.7519
11882SOL     OW38665   3.065   2.147   1.940 -0.3771  0.1021 -0.1780
11882SOL    HW138666   3.152   2.185   1.951 -0.5121  0.3043  0.2189
11882SOL    HW238667   3.081   2.061   1.900  0.0610 -0.1678  0.5583
11883SOL     OW38668   6.292   1.771   8.565 -0.1997  0.3547 -0.6987
11883SOL    HW138669   6.242   1.819   8.499 -0.3137  1.5523  0.2486
11883SOL    HW238670   6.341   1.706   8.515 -0.8629  0.7577 -1.8857
11884SOL     OW38671   2.793   4.912   3.640 -0.2502  0.9400 -0.4833
11884SOL    HW138672   2.859   4.971   3.603 -0.4982  2.2271  1.0790
11884SOL    HW238673   2.843   4.853   3.697 -0.3923  1.6127  0.3361
11885SOL     OW38674   1.394   3.421   4.257  0.1592 -0.5187  0.1557
11885SOL    HW138675   1.427   3.346   4.207 -1.0076  0.3438 -1.9878
11885SOL    HW238676   1.384   3.388   4.346 -0.3319 -2.9290 -0.7507
11886SOL     OW38677   2.077   3.720   5.718 -0.2769 -0.2455  0.3914
11886SOL    HW138678   2.135   3.717   5.794  1.1165  0.0415 -0.6454
11886SOL    HW238679   2.094   3.638   5.672 -1.1464 -0.4326  0.3809
11887SOL     OW38680   2.057   2.215   4.530  0.3177  0.0865 -0.8161
11887SOL    HW138681   2.074   2.309   4.528 -0.7413  0.2733 -0.8662
11887SOL    HW238682   1.990   2.200   4.464 -0.2222 -0.5548 -0.1388
11888SOL     OW38683   0.616   2.596   6.598 -0.2103 -0.2844  0.2715
11888SOL    HW138684   0.609   2.518   6.544 -0.2040 -0.8552  1.0800
11888SOL    HW238685   0.529   2.635   6.595 -0.1627 -0.2165 -0.2859
11889SOL     OW38686   2.146   9.095   9.035  0.0612 -0.1842  0.0979
11889SOL    HW138687   2.139   9.018   9.092 -0.1365 -0.3169 -0.1039
11889SOL    HW238688   2.070   9.149   9.057 -2.6233 -2.3758 -3.2014
11890SOL     OW38689   8.898   2.917   1.008 -0.5079  0.5067 -0.7093
11890SOL    HW138690   8.990   2.895   1.019 -0.6671 -0.3695 -1.0988
11890SOL    HW238691   8.894   3.012   1.019  0.3387  0.4639 -0.0511
11891SOL     OW38692   1.152   7.736   2.765 -0.6541 -0.0351  0.1270
11891SOL    HW138693   1.127   7.717   2.855 -0.4737  0.5507  0.3047
11891SOL    HW238694   1.246   7.720   2.762 -0.3457  1.5948  0.4980
11892SOL     OW38695   5.996   3.554   2.718  0.5883 -0.2757  0.5623
11892SOL    HW138696   6.071   3.611   2.737  0.2152  0.5653 -0.4289
11892SOL    HW238697   5.983   3.504   2.798  2.2999 -0.5258  0.6949
11893SOL     OW38698   6.388   0.098   0.923  0.1521  0.2978 -0.0971
11893SOL    HW138699   6.323   0.166   0.941  0.9726  0.9006  0.6209
11893SOL    HW238700   6.344   0.016   0.945 -1.4302  0.4403 -2.5526
11894SOL     OW38701   0.645   3.373   3.515  0.5238  0.0562 -0.1716
11894SOL    HW138702   0.608   3.347   3.430  2.4651 -2.8497 -0.2089
11894SOL    HW238703   0.660   3.467   3.507 -0.5333  0.0573 -2.5869
11895SOL     OW38704   8.101   7.244   2.803 -0.1542 -0.3720 -0.0761
11895SOL    HW138705   8.063   7.330   2.785  0.9893  0.3003  0.6813
11895SOL    HW238706   8.059   7.215   2.884  0.5861  0.1525  0.4948
11896SOL     OW38707   2.592   8.717   0.579  0.5723  0.0581  0.3997
11896SOL    HW138708   2.575   8.723   0.673 -0.8075  0.4518  0.1327
11896SOL    HW238709   2.507   8.731   0.538  1.3447  0.9619 -0.9475
11897SOL     OW38710   6.951   7.372   8.436 -0.0078 -0.1036  0.4528
11897SOL    HW138711   6.859   7.373   8.462  0.1923  1.3457  1.2287
11897SOL    HW238712   6.961   7.449   8.380  0.8985  0.2481  1.0721
11898SOL     OW38713   3.387   5.481   3.629 -0.1819  0.3026  0.7120
11898SOL    HW138714   3.320   5.528   3.679  1.1852  0.1264  2.7318
11898SOL    HW238715   3.386   5.392   3.664 -0.2258 -0.2447 -0.6210
11899SOL     OW38716   2.960   4.436   1.717  0.2095 -0.3900  0.4454
11899SOL    HW138717   2.977   4.512   1.662  1.0470  0.0040  1.2250
11899SOL    HW238718   2.910   4.376   1.662  0.2049  0.4020 -0.4176
11900SOL     OW38719   2.967   8.281   3.832  0.0309  0.1823  0.0134
11900SOL    HW138720   2.878   8.283   3.798  0.1886 -0.8959 -0.4867
11900SOL    HW238721   3.001   8.196   3.804  1.4057  0.8232 -0.2910
11901SOL     OW38722   4.686   0.316   2.799 -0.1115  0.3066 -0.1705
11901SOL    HW138723   4.656   0.315   2.890  2.2136  0.9001  0.6310
11901SOL    HW238724   4.672   0.227   2.767  1.4323 -0.5609  1.5637
11902SOL     OW38725   2.880   2.625   7.557 -0.0001  0.0084  0.0276
11902SOL    HW138726   2.793   2.619   7.517 -0.4455  0.4569  0.9369
11902SOL    HW238727   2.939   2.639   7.482 -0.8074  0.6439 -0.5012
11903SOL     OW38728   5.913   2.021   3.415  0.5105  0.0640  0.1214
11903SOL    HW138729   5.950   2.080   3.350 -0.0538  0.8478  0.5036
11903SOL    HW238730   5.945   1.934   3.390 -0.1346  0.2797 -1.5238
11904SOL     OW38731   4.834   2.802   1.754 -0.0651 -0.4502  0.2201
11904SOL    HW138732   4.844   2.745   1.830  3.8176 -3.0489 -2.0304
11904SOL    HW238733   4.886   2.880   1.775 -0.0975 -0.5695  0.7425
11905SOL     OW38734   9.190   4.174   6.521 -0.1202  0.2377 -0.0089
11905SOL    HW138735   9.201   4.268   6.507  0.9598  0.3152  1.1878
11905SOL    HW238736   9.116   4.150   6.465 -1.4815  2.1023  0.9194
11906SOL     OW38737   6.554   3.557   5.231 -0.1354 -0.0273 -0.3822
11906SOL    HW138738   6.581   3.649   5.236  2.4389 -0.7433 -0.4874
11906SOL    HW238739   6.521   3.546   5.142  0.8065  0.4639 -0.7956
11907SOL     OW38740   4.198   7.515   0.410 -0.4972  0.6640 -0.3948
11907SOL    HW138741   4.267   7.450   0.403  0.2518  1.2144  1.3673
11907SOL    HW238742   4.236   7.595   0.372 -0.3245  0.8420  0.1446
11908SOL     OW38743   5.243   3.539   5.644 -0.0568 -0.2712 -0.5810
11908SOL    HW138744   5.292   3.524   5.725  0.6461 -2.5577 -1.3873
11908SOL    HW238745   5.266   3.628   5.618  0.3481  0.1910  1.2787
11909SOL     OW38746   1.963   3.799   1.148 -0.4685 -0.4744 -0.1556
11909SOL    HW138747   1.948   3.875   1.204  0.2657 -1.0648  0.8397
11909SOL    HW238748   1.976   3.837   1.061 -0.2137  0.5318  0.3102
11910SOL     OW38749   2.082   4.052   7.834 -1.0264 -0.2514  0.1655
11910SOL    HW138750   2.043   4.011   7.911 -1.9372 -0.3140 -0.3242
11910SOL    HW238751   2.021   4.122   7.810 -0.5034  0.0801 -0.2110
11911SOL     OW38752   1.356   6.675   4.604  0.4074  0.3587 -0.2517
11911SOL    HW138753   1.299   6.745   4.573  1.6206  0.4467 -2.3690
11911SOL    HW238754   1.377   6.700   4.695 -0.3641  1.9418 -0.4838
11912SOL     OW38755   4.993   5.086   4.145  0.3002  0.4048 -0.0872
11912SOL    HW138756   4.999   5.005   4.196  1.2821  1.2446  1.1435
11912SOL    HW238757   5.072   5.135   4.167  0.2512  1.2281 -1.6610
11913SOL     OW38758   0.698   4.509   8.422 -0.0497  0.0022 -0.5792
11913SOL    HW138759   0.606   4.497   8.401  0.0665 -1.0675 -0.5076
11913SOL    HW238760   0.744   4.494   8.339  0.2645 -2.3538 -0.0280
11914SOL     OW38761   8.320   4.246   2.324  0.1831  0.6902  0.2094
11914SOL    HW138762   8.410   4.279   2.330  0.0589  1.3407 -1.2967
11914SOL    HW238763   8.277   4.281   2.402  1.2281  0.3804  0.9362
11915SOL     OW38764   0.718   0.500   6.577 -0.7312 -0.7759 -0.0438
11915SOL    HW138765   0.656   0.496   6.505 -0.5061  1.2312 -0.3776
11915SOL    HW238766   0.684   0.569   6.635  0.1045 -1.0381  0.7830
11916SOL     OW38767   0.248   8.236   8.063  0.3657 -0.6864 -0.3330
11916SOL    HW138768   0.203   8.203   7.986 -1.3978 -2.0048  1.2098
11916SOL    HW238769   0.313   8.169   8.084  0.6630 -0.4576 -0.5300
11917SOL     OW38770   6.880   6.334   3.127  0.0907  0.0593 -0.8204
11917SOL    HW138771   6.909   6.243   3.141 -0.2331  0.1108  0.2301
11917SOL    HW238772   6.789   6.335   3.158  0.7580  1.2472  1.2445
11918SOL     OW38773   5.425   9.320   1.722  0.7884  0.1265  0.8638
11918SOL    HW138774   5.480   9.276   1.788  2.0771 -0.2029 -0.3997
11918SOL    HW238775   5.472   9.306   1.639 -0.3400  1.3250  0.0101
11919SOL     OW38776   3.837   3.098   4.715  0.6918  0.3409 -0.4707
11919SOL    HW138777   3.869   3.067   4.800 -0.1037 -1.6481 -0.8783
11919SOL    HW238778   3.767   3.038   4.692  0.4533  1.2557 -2.2449
11920SOL     OW38779   9.260   1.565   4.842  0.3322 -0.3977  0.1656
11920SOL    HW138780   9.251   1.605   4.755 -0.1133 -1.6511 -0.3726
11920SOL    HW238781   9.298   1.635   4.896 -0.7145  0.8459 -0.6732
11921SOL     OW38782   6.802   2.555   8.356 -0.5036  0.2020  0.3059
11921SOL    HW138783   6.898   2.560   8.355 -0.4492 -0.7644 -0.2334
11921SOL    HW238784   6.781   2.494   8.285 -1.5452  0.7364  0.1432
11922SOL     OW38785   8.855   7.226   1.652 -0.1826  0.0202  0.6509
11922SOL    HW138786   8.899   7.180   1.724 -0.0069 -1.1718 -0.2012
11922SOL    HW238787   8.898   7.312   1.649  1.9581 -1.0290  0.0048
11923SOL     OW38788   4.954   9.182   8.863 -0.0413 -0.2913 -0.7600
11923SOL    HW138789   5.030   9.124   8.870  0.8147  0.7097 -1.5805
11923SOL    HW238790   4.936   9.186   8.769 -0.3746  0.4099 -0.6648
11924SOL     OW38791   8.805   5.495   3.475 -0.5108 -0.1386  0.3949
11924SOL    HW138792   8.897   5.470   3.481  0.0323  1.4809 -0.9206
11924SOL    HW238793   8.790   5.511   3.381 -2.8634 -3.0497  0.1974
11925SOL     OW38794   5.810   7.164   1.402  0.5770  0.2020 -0.4508
11925SOL    HW138795   5.814   7.180   1.497 -0.4963 -1.4873 -0.1142
11925SOL    HW238796   5.825   7.251   1.363 -1.6858  1.4280  1.2854
11926SOL     OW38797   3.302   8.650   5.363 -0.2427 -0.2288 -0.3862
11926SOL    HW138798   3.297   8.744   5.378  1.5444  0.0397 -1.4239
11926SOL    HW238799   3.231   8.614   5.416  1.0782  1.4110  2.6568
11927SOL     OW38800   5.586   7.945   4.547  0.0340  0.1277  0.9932
11927SOL    HW138801   5.590   7.895   4.466 -0.3179  1.2506  0.2726
11927SOL    HW238802   5.637   7.894   4.610  1.7569  0.0928 -0.3929
11928SOL     OW38803   4.426   1.229   8.657 -0.2826 -0.1014  0.5521
11928SOL    HW138804   4.385   1.315   8.663 -1.0466 -0.4673  0.6486
11928SOL    HW238805   4.380   1.176   8.722 -0.8072 -0.9722 -0.5174
11929SOL     OW38806   3.763   1.534   1.842 -0.0812 -0.2718 -0.7076
11929SOL    HW138807   3.788   1.451   1.882  1.3081  0.0443 -0.8908
11929SOL    HW238808   3.779   1.599   1.911  1.5288  0.1775 -1.4876
11930SOL     OW38809   8.690   7.146   0.475 -0.3257  0.4328 -0.0872
11930SOL    HW138810   8.678   7.137   0.570 -0.9030 -0.0563 -0.1998
11930SOL    HW238811   8.601   7.154   0.441 -0.1300  0.3598 -0.6161
11931SOL     OW38812   0.002   3.264   3.133 -0.2646  0.2177 -0.3571
11931SOL    HW138813   0.034   3.249   3.044 -0.5713  1.3026 -0.6607
11931SOL    HW238814  -0.047   3.184   3.155 -1.5167  0.5680 -1.7648
11932SOL     OW38815   9.141   0.655   4.084  0.1171 -0.1062 -0.2324
11932SOL    HW138816   9.154   0.646   3.990  2.7893 -1.5500  0.2267
11932SOL    HW238817   9.063   0.602   4.103 -0.1908 -0.1306 -1.5690
11933SOL     OW38818   7.939   1.657   8.481  0.3439 -0.0048  0.2114
11933SOL    HW138819   8.001   1.630   8.549  0.1474  1.3468  0.9485
11933SOL    HW238820   7.912   1.746   8.507 -1.1381 -0.1902 -0.6277
11934SOL     OW38821   6.084   9.186   9.209 -0.1041 -0.2041  0.4544
11934SOL    HW138822   5.995   9.182   9.244 -0.6216 -0.0664 -0.8312
11934SOL    HW238823   6.120   9.099   9.225 -0.4003 -0.1995  1.1599
11935SOL     OW38824   2.861   0.224   9.012  0.0825 -0.0470 -0.1979
11935SOL    HW138825   2.820   0.140   9.031  0.6628 -0.2960 -0.0279
11935SOL    HW238826   2.844   0.277   9.090 -0.9055  0.2402 -0.6000
11936SOL     OW38827   1.875   9.413   1.593  0.4607  0.4406  0.4874
11936SOL    HW138828   1.839   9.484   1.541  0.4328 -0.0556 -0.1880
11936SOL    HW238829   1.840   9.427   1.681 -1.0107  0.2430 -0.0410
11937SOL     OW38830   5.828   9.284   5.153 -0.1684  0.2387  0.3475
11937SOL    HW138831   5.826   9.247   5.065 -0.4589  0.4102  0.2837
11937SOL    HW238832   5.899   9.237   5.197  0.2986  0.4983 -0.1289
11938SOL     OW38833   9.228   1.005   7.714 -0.3727 -0.2405 -0.3548
11938SOL    HW138834   9.229   0.917   7.676  1.8525 -0.1642 -0.5348
11938SOL    HW238835   9.303   1.049   7.674 -0.5069  1.2199  0.9651
11939SOL     OW38836   4.150   9.368   7.508 -0.2462  0.1708  0.3293
11939SOL    HW138837   4.153   9.387   7.602 -2.4763  0.1471  0.4267
11939SOL    HW238838   4.146   9.273   7.503  2.3182  0.0426  0.1062
11940SOL     OW38839   7.436   2.834   4.511 -0.5873 -0.2666 -0.2120
11940SOL    HW138840   7.527   2.861   4.501 -0.0906 -1.5207  0.8405
11940SOL    HW238841   7.404   2.823   4.421  1.2916 -3.0169 -0.6204
11941SOL     OW38842   6.159   1.727   0.668  0.3802  0.6123  0.4722
11941SOL    HW138843   6.161   1.790   0.596 -0.1632 -0.4648 -0.4872
11941SOL    HW238844   6.143   1.643   0.627  0.5050 -0.0868  1.8136
11942SOL     OW38845   5.052   5.527   2.830 -0.3455  0.3701 -0.2368
11942SOL    HW138846   5.107   5.502   2.756 -0.0592 -0.1596  0.1536
11942SOL    HW238847   5.070   5.461   2.897 -1.6907  0.0212 -0.2223
11943SOL     OW38848   2.197   6.239   4.059  0.1311  0.1750 -0.0428
11943SOL    HW138849   2.274   6.229   4.115 -0.1420 -0.4395  0.2293
11943SOL    HW238850   2.166   6.328   4.077  0.3766  0.1819  0.3602
11944SOL     OW38851   6.858   8.656   5.285  0.2619  0.1498  0.1456
11944SOL    HW138852   6.778   8.675   5.236 -0.8103  2.4510  2.7013
11944SOL    HW238853   6.916   8.729   5.264  1.4450 -1.1163 -1.0900
11945SOL     OW38854   0.613   4.616   3.753 -0.6846 -0.5341 -0.1323
11945SOL    HW138855   0.574   4.699   3.728  0.9836  0.4492  0.4209
11945SOL    HW238856   0.572   4.594   3.837 -0.6416  0.0655  0.0443
11946SOL     OW38857   5.533   0.283   0.380  0.2928  0.2633 -0.4444
11946SOL    HW138858   5.481   0.237   0.314 -0.1620 -0.8488  0.6771
11946SOL    HW238859   5.511   0.375   0.367 -0.9698 -0.0773 -0.8538
11947SOL     OW38860   1.255   0.919   8.740  0.3379  0.6562 -0.0102
11947SOL    HW138861   1.333   0.917   8.685 -0.4271  1.9462 -1.1751
11947SOL    HW238862   1.184   0.939   8.679 -1.0836 -1.6263  0.8430
11948SOL     OW38863   7.978   7.162   4.307 -0.1198 -0.5444  0.2518
11948SOL    HW138864   7.989   7.177   4.401 -0.4801  0.6540  0.1175
11948SOL    HW238865   8.059   7.120   4.279  0.2673 -0.2793  0.9684
11949SOL     OW38866   1.850   6.220   8.408  0.2807  0.0893  0.1475
11949SOL    HW138867   1.917   6.246   8.471 -2.5652  1.5708  2.7416
11949SOL    HW238868   1.821   6.134   8.439 -0.8452  0.6465  0.6924
11950SOL     OW38869   8.993   3.435   4.520 -0.3199 -0.1390  0.2050
11950SOL    HW138870   8.977   3.511   4.464  0.6855 -0.9827 -1.2595
11950SOL    HW238871   9.064   3.462   4.577 -0.6264  0.3513  0.3614
11951SOL     OW38872   1.540   1.250   7.838  0.0648  0.8326  0.5053
11951SOL    HW138873   1.478   1.201   7.784 -0.8158  0.4265  1.8631
11951SOL    HW238874   1.616   1.192   7.845  0.5051  1.2156 -0.9328
11952SOL     OW38875   5.648   4.283   4.697  0.5946  0.4352 -0.6569
11952SOL    HW138876   5.722   4.342   4.685  0.3768  0.6110 -1.1133
11952SOL    HW238877   5.656   4.220   4.625 -0.0967  0.8602 -1.1029
11953SOL     OW38878   1.175   0.369   9.046  0.2310  0.6125  0.1588
11953SOL    HW138879   1.135   0.296   8.998  0.2079  1.0220 -0.4426
11953SOL    HW238880   1.269   0.349   9.046  0.1265  0.0991  0.8173
11954SOL     OW38881   9.427   5.339   1.894 -0.1838  0.2471  0.6151
11954SOL    HW138882   9.446   5.258   1.941  0.8296  1.0450  1.6196
11954SOL    HW238883   9.357   5.316   1.833  1.4306 -1.8463 -0.4805
11955SOL     OW38884   7.076   5.417   6.438 -0.0982  0.0361  0.2483
11955SOL    HW138885   7.040   5.398   6.524  0.5150  2.2442  1.0234
11955SOL    HW238886   7.001   5.445   6.386 -0.2791 -0.1123  0.4292
11956SOL     OW38887   5.413   5.242   2.981 -0.3016 -0.6601  0.4501
11956SOL    HW138888   5.384   5.331   3.000  0.5775 -0.4120  0.6950
11956SOL    HW238889   5.369   5.187   3.046 -0.8383 -0.4050  0.3014
11957SOL     OW38890   0.398   7.789   5.155  0.4604 -0.6749 -0.7108
11957SOL    HW138891   0.380   7.794   5.249 -1.2008 -1.3802 -0.9758
11957SOL    HW238892   0.351   7.864   5.117  2.5761  0.6613 -0.8013
11958SOL     OW38893   1.192   6.105   8.949 -0.2498  0.5629  0.4935
11958SOL    HW138894   1.219   6.190   8.913  0.7304 -0.0213 -0.1920
11958SOL    HW238895   1.258   6.085   9.015  0.1147 -0.1378 -0.0712
11959SOL     OW38896   9.345   3.225   2.318 -0.3890 -1.1425 -0.0456
11959SOL    HW138897   9.326   3.176   2.238  1.5416 -0.7866 -0.7586
11959SOL    HW238898   9.430   3.265   2.301 -0.3111 -0.4437  1.9073
11960SOL     OW38899   8.199   6.558   0.291  0.0664 -0.1249 -0.7335
11960SOL    HW138900   8.118   6.605   0.272 -0.0165 -0.1328 -0.4071
11960SOL    HW238901   8.247   6.615   0.351  0.2157 -0.2059 -0.7751
11961SOL     OW38902   2.729   2.055   4.821  0.1933 -0.1247  0.5354
11961SOL    HW138903   2.815   2.090   4.843  0.4561  0.1610 -0.9239
11961SOL    HW238904   2.667   2.120   4.854  0.5577  0.0531  0.8684
11962SOL     OW38905   7.800   0.375   1.520  0.1348 -0.2748 -0.0755
11962SOL    HW138906   7.776   0.467   1.534  1.8887  0.2126 -0.1083
11962SOL    HW238907   7.803   0.338   1.608 -1.8204 -0.6414 -0.1494
11963SOL     OW38908   3.490   3.751   3.267  0.7423  0.5332 -0.2196
11963SOL    HW138909   3.583   3.753   3.247  0.8201  1.5886  0.1970
11963SOL    HW238910   3.451   3.697   3.199  1.7279 -0.3390 -0.0986
11964SOL     OW38911   2.515   1.449   9.078 -0.1765  0.3593 -0.0656
11964SOL    HW138912   2.532   1.438   8.984  0.0772 -4.3386  0.4494
11964SOL    HW238913   2.427   1.413   9.090 -0.1063  0.7164  1.5479
11965SOL     OW38914   1.203   4.287   5.455 -0.2657  0.2272 -0.2325
11965SOL    HW138915   1.146   4.362   5.473  1.2840  0.7339  2.9082
11965SOL    HW238916   1.203   4.237   5.536  0.7044 -1.8441 -1.4823
11966SOL     OW38917   6.595   2.865   1.196 -0.7116  0.1871  0.1900
11966SOL    HW138918   6.503   2.839   1.199 -1.0775  1.4163 -0.1373
11966SOL    HW238919   6.600   2.926   1.123  1.0149 -2.3307 -1.8754
11967SOL     OW38920   8.221   2.723   1.163  0.2293  0.6620 -1.3006
11967SOL    HW138921   8.242   2.708   1.255  1.1447 -0.0152 -1.6135
11967SOL    HW238922   8.295   2.773   1.129 -0.4418  1.5269 -1.4954
11968SOL     OW38923   5.992   3.400   3.346 -0.4696 -0.1710 -0.2343
11968SOL    HW138924   6.050   3.438   3.412 -1.0748  0.1244  0.1330
11968SOL    HW238925   6.020   3.309   3.338 -2.1321 -0.9822  2.4203
11969SOL     OW38926   1.938   3.310   7.074 -0.5169 -0.3449 -0.0467
11969SOL    HW138927   1.901   3.393   7.044 -0.3608 -0.5365 -0.7781
11969SOL    HW238928   1.988   3.278   6.999  2.1241  0.4807  1.2773
11970SOL     OW38929   5.405   5.742   6.216 -0.3479  0.5162 -0.0824
11970SOL    HW138930   5.446   5.825   6.193 -1.2346  0.0627 -3.5673
11970SOL    HW238931   5.318   5.746   6.177 -0.9424 -1.5028  0.9294
11971SOL     OW38932   6.005   4.201   4.381 -0.1757  0.3782  0.0001
11971SOL    HW138933   5.981   4.200   4.474  1.1494  0.1970  0.3406
11971SOL    HW238934   6.100   4.206   4.380 -0.0389 -1.8966 -1.3490
11972SOL     OW38935   3.212   7.235   2.101  0.2857 -0.5454 -0.0452
11972SOL    HW138936   3.245   7.146   2.099 -0.6347 -0.9218  1.0134
11972SOL    HW238937   3.276   7.284   2.153  1.8229 -0.1284 -2.2433
11973SOL     OW38938   0.360   3.787   1.806  0.3463 -0.0710  0.4226
11973SOL    HW138939   0.395   3.825   1.726  0.4219 -0.4925  0.2502
11973SOL    HW238940   0.361   3.692   1.790  1.9586 -0.2762  1.5600
11974SOL     OW38941   8.750   4.598   6.507 -0.3786 -0.3328  0.4436
11974SOL    HW138942   8.742   4.639   6.594  1.0643 -1.0168  0.9156
11974SOL    HW238943   8.660   4.595   6.474 -1.0204 -0.5401  2.1357
11975SOL     OW38944   2.300   7.032   1.839  0.2193 -0.2670  0.4887
11975SOL    HW138945   2.281   6.946   1.802  0.1514  1.3558 -3.5935
11975SOL    HW238946   2.395   7.040   1.832  0.2525 -0.0950  1.1115
11976SOL     OW38947   0.580   1.584   3.680 -0.6086  0.7296 -0.4215
11976SOL    HW138948   0.499   1.543   3.651 -0.5675  0.6812 -0.4693
11976SOL    HW238949   0.630   1.513   3.720  0.8162  0.0045 -3.2946
11977SOL     OW38950   1.072   3.457   5.117 -0.2159  0.1240 -0.4060
11977SOL    HW138951   1.074   3.363   5.101 -2.0919  0.3483 -2.1818
11977SOL    HW238952   1.030   3.466   5.203  0.2636 -0.6452 -0.0833
11978SOL     OW38953   9.173   2.306   1.690 -0.0121  0.4362  0.2387
11978SOL    HW138954   9.128   2.233   1.732  1.0266 -1.1422 -1.3026
11978SOL    HW238955   9.103   2.367   1.666 -1.4228 -1.9745 -2.0900
11979SOL     OW38956   9.215   1.411   7.745  0.1458  0.2073 -0.6080
11979SOL    HW138957   9.280   1.467   7.702  1.6072 -2.4460 -1.9816
11979SOL    HW238958   9.230   1.424   7.838  1.7143  0.6747 -0.9145
11980SOL     OW38959   2.277   3.099   0.023  0.2559 -0.3433  0.6914
11980SOL    HW138960   2.298   3.050  -0.057  1.0232 -1.5859  1.6178
11980SOL    HW238961   2.335   3.175   0.021  0.1968 -0.3199  0.0085
11981SOL     OW38962   3.651   6.976   3.471  0.2842  0.0605  0.1685
11981SOL    HW138963   3.736   6.933   3.475 -0.5745 -1.5385  2.0980
11981SOL    HW238964   3.587   6.904   3.465 -0.9760  1.2129 -0.7593
11982SOL     OW38965   4.414   8.517   4.935 -0.2722 -0.2152 -0.0361
11982SOL    HW138966   4.371   8.585   4.987 -2.6739 -1.1627 -0.6839
11982SOL    HW238967   4.361   8.438   4.952  2.3020 -1.8748  0.5214
11983SOL     OW38968   6.362   1.009   5.851 -1.0408  0.1720  0.7061
11983SOL    HW138969   6.375   0.927   5.804  0.6484  0.5208  0.5257
11983SOL    HW238970   6.333   1.071   5.784  1.1986  0.6268  0.1131
11984SOL     OW38971   7.708   0.406   5.856 -0.2583 -0.0224  0.0071
11984SOL    HW138972   7.652   0.406   5.778 -1.4037 -4.0173  0.7270
11984SOL    HW238973   7.680   0.482   5.906 -2.2210  0.3762 -1.6403
11985SOL     OW38974   6.093   5.172   0.364 -0.4217  0.1553  0.0930
11985SOL    HW138975   6.157   5.169   0.294  0.0170  2.5985  0.3637
11985SOL    HW238976   6.021   5.117   0.333  0.4985 -0.1680 -1.5042
11986SOL     OW38977   6.727   7.795   5.199  0.5718  0.3417  0.2739
11986SOL    HW138978   6.772   7.759   5.276 -0.0583 -1.3689 -0.1295
11986SOL    HW238979   6.675   7.868   5.234  1.9388  0.9456  1.0993
11987SOL     OW38980   5.910   4.516   0.297 -0.1050  0.1366  0.6045
11987SOL    HW138981   5.992   4.547   0.258 -0.4368 -0.8753 -0.9452
11987SOL    HW238982   5.857   4.595   0.309  0.9819  0.7659  1.3909
11988SOL     OW38983   1.385   5.006   1.300  0.5462 -0.2898  0.4773
11988SOL    HW138984   1.477   5.014   1.275  0.6287 -1.0027  0.5549
11988SOL    HW238985   1.362   4.916   1.278 -0.7456  0.5159 -1.6481
11989SOL     OW38986   6.615   2.388   4.643 -0.5269  0.3869  0.5258
11989SOL    HW138987   6.638   2.309   4.595  0.5144  0.0939  1.4772
11989SOL    HW238988   6.524   2.404   4.621  0.2194  0.9145 -2.4569
11990SOL     OW38989   5.817   8.576   8.299 -0.5007 -0.0922 -0.1053
11990SOL    HW138990   5.777   8.518   8.234  0.0896 -0.3185 -0.2698
11990SOL    HW238991   5.787   8.542   8.384 -2.8281  1.3620 -0.3149
11991SOL     OW38992   6.906   0.662   9.111 -0.2949  0.3856 -0.2031
11991SOL    HW138993   6.982   0.718   9.125 -0.5688  0.4764  0.9634
11991SOL    HW238994   6.934   0.602   9.042  1.4494 -0.6487  1.3314
11992SOL     OW38995   4.089   4.210   6.663  0.0817  0.1616 -0.4611
11992SOL    HW138996   4.165   4.268   6.658 -0.5404  1.1724  1.3442
11992SOL    HW238997   4.126   4.123   6.676  0.9977  0.2239 -2.4297
11993SOL     OW38998   8.118   6.204   3.268  0.2845  0.5663 -0.1372
11993SOL    HW138999   8.161   6.130   3.223 -0.3106 -0.2833  0.6659
11993SOL    HW239000   8.109   6.271   3.201  0.7637 -0.1246 -0.9061
11994SOL     OW39001   7.625   3.529   4.294 -0.1264 -0.3506 -0.3390
11994SOL    HW139002   7.535   3.500   4.311  0.2047 -0.9607  0.3952
11994SOL    HW239003   7.666   3.529   4.380  0.3495  0.7100 -0.5607
11995SOL     OW39004   3.584   7.874   3.366  0.3202  0.6785 -0.0856
11995SOL    HW139005   3.668   7.883   3.321 -0.1442  1.7912 -0.7516
11995SOL    HW239006   3.535   7.812   3.313  1.8918 -2.5856  2.0885
11996SOL     OW39007   0.707   3.184   5.981 -0.0470 -0.2635 -0.6613
11996SOL    HW139008   0.720   3.277   5.966 -0.1178 -0.0430  0.5500
11996SOL    HW239009   0.614   3.174   5.998 -0.2386 -0.7370 -1.9751
11997SOL     OW39010   9.036   3.963   4.921 -0.1800 -0.6199  0.0326
11997SOL    HW139011   8.999   4.051   4.926 -1.3488 -1.1065  0.1125
11997SOL    HW239012   9.044   3.936   5.013 -0.8888 -1.0266 -0.0199
11998SOL     OW39013   2.071   2.908   0.082  0.0175  0.0937 -0.1216
11998SOL    HW139014   2.139   2.970   0.107  0.2585 -0.0429 -0.4348
11998SOL    HW239015   2.115   2.847   0.022  0.1622 -1.2314  1.2834
11999SOL     OW39016   1.057   8.123   7.459  0.4755  0.2979  0.4850
11999SOL    HW139017   1.070   8.039   7.416  1.6912  0.8485 -0.2487
11999SOL    HW239018   1.103   8.115   7.542  1.1043  0.4463  0.1521
12000SOL     OW39019   8.407   0.221   6.885 -0.3984 -0.1444  0.2717
12000SOL    HW139020   8.440   0.164   6.816 -0.4566 -0.4075  0.4602
12000SOL    HW239021   8.480   0.279   6.906 -1.0423  1.3425 -1.4824
12001SOL     OW39022   5.722   0.091   4.559 -0.1853 -0.1429 -0.8620
12001SOL    HW139023   5.711  -0.002   4.580  0.1732  0.0773  0.3248
12001SOL    HW239024   5.735   0.093   4.464  0.3259 -1.3554 -0.8236
12002SOL     OW39025   4.674   8.336   7.558  0.6700  0.0980  0.3559
12002SOL    HW139026   4.657   8.341   7.464 -0.2685  0.1925  0.5259
12002SOL    HW239027   4.750   8.392   7.572 -1.1273  2.6448  0.1343
12003SOL     OW39028   4.090   2.592   7.003  0.1363 -0.5285 -0.2371
12003SOL    HW139029   4.131   2.678   7.006  1.7364 -1.2740 -0.0755
12003SOL    HW239030   4.134   2.542   7.072 -0.6750 -1.5155 -0.4219
12004SOL     OW39031   3.053   6.334   7.179 -0.2048  0.0223 -0.0794
12004SOL    HW139032   2.960   6.321   7.157 -0.2945  1.7757 -0.8704
12004SOL    HW239033   3.095   6.253   7.153 -1.3104 -0.2571 -1.0826
12005SOL     OW39034   8.783   8.668   4.215  0.6291  0.1958  0.1735
12005SOL    HW139035   8.803   8.655   4.307 -0.9580  0.3029  0.5466
12005SOL    HW239036   8.858   8.716   4.180  1.2703  0.0737  1.3838
12006SOL     OW39037   4.880   2.693   6.405  0.2154 -0.0323 -0.3163
12006SOL    HW139038   4.801   2.680   6.352 -0.2024  0.6006  0.1476
12006SOL    HW239039   4.932   2.614   6.389 -0.2470 -0.1911 -1.0757
12007SOL     OW39040   5.316   4.009   5.711  0.1222  0.5125  0.1720
12007SOL    HW139041   5.286   3.948   5.778  1.0604 -1.1208 -0.8598
12007SOL    HW239042   5.409   4.021   5.728 -0.3959  3.1023  1.4513
12008SOL     OW39043   0.746   8.588   4.879 -0.3318 -0.2275 -0.1602
12008SOL    HW139044   0.652   8.579   4.862 -0.6833  0.2639  1.5182
12008SOL    HW239045   0.774   8.500   4.905 -0.8332  0.1557  1.7481
12009SOL     OW39046   3.287   1.781   1.258 -0.1920  0.0854 -0.2243
12009SOL    HW139047   3.369   1.771   1.210 -0.0315 -0.7518  0.2257
12009SOL    HW239048   3.223   1.731   1.208 -0.4818  0.8856 -0.6754
12010SOL     OW39049   0.348   1.501   5.501 -0.0957 -0.2151 -0.4623
12010SOL    HW139050   0.317   1.514   5.590  0.3052 -0.1912 -0.3271
12010SOL    HW239051   0.442   1.486   5.510  0.0840  0.5822 -0.9493
12011SOL     OW39052   1.149   0.752   3.049 -0.5109  0.1155  0.4845
12011SOL    HW139053   1.201   0.831   3.062 -0.9764  0.4931  0.1124
12011SOL    HW239054   1.083   0.755   3.119 -0.4261 -0.0299  0.5710
12012SOL     OW39055   6.967   2.553   9.270  0.7393 -0.6420 -0.6544
12012SOL    HW139056   7.051   2.549   9.225  1.4479 -0.9289  0.6539
12012SOL    HW239057   6.984   2.512   9.355 -0.2104  1.1669  0.4184
12013SOL     OW39058   3.536   0.291   5.123  0.1470  0.2593  0.2329
12013SOL    HW139059   3.574   0.373   5.090  1.5287 -0.3933  0.1761
12013SOL    HW239060   3.441   0.304   5.116  0.3527  1.9204  0.3982
12014SOL     OW39061   8.364   5.060   3.479 -0.0582  0.3611 -0.5753
12014SOL    HW139062   8.357   4.979   3.531  0.0725  0.2456 -0.7358
12014SOL    HW239063   8.366   5.130   3.544  0.0957  0.2162 -0.4241
12015SOL     OW39064   3.165   6.072   5.612 -0.2025 -0.0721  0.3757
12015SOL    HW139065   3.113   6.141   5.570  0.2725  0.4302  0.6053
12015SOL    HW239066   3.112   5.993   5.603 -1.8664  0.8131  2.2888
12016SOL     OW39067   6.926   4.099   6.018 -1.0090 -0.2939 -0.1878
12016SOL    HW139068   6.901   4.148   5.940 -2.4623 -0.7060  0.0026
12016SOL    HW239069   6.895   4.152   6.091  1.4832  0.7195  0.1835
12017SOL     OW39070   5.238   0.086   4.341 -0.6037  0.1703  0.0988
12017SOL    HW139071   5.230   0.164   4.286  0.9864  0.0836 -0.2748
12017SOL    HW239072   5.271   0.119   4.425  0.0012 -0.0853 -0.0366
12018SOL     OW39073   3.574   3.977   5.578  0.6772  0.5938 -0.1980
12018SOL    HW139074   3.525   3.988   5.659  1.1047  0.5357  0.0697
12018SOL    HW239075   3.615   4.062   5.562  1.4254  0.3193  0.1996
12019SOL     OW39076   1.147   3.590   2.319 -0.1384 -0.0336 -0.0464
12019SOL    HW139077   1.182   3.502   2.304  1.5140  0.3995  1.1140
12019SOL    HW239078   1.133   3.626   2.231  1.9331 -0.3996 -0.5528
12020SOL     OW39079   5.544   7.257   5.891 -0.3204 -0.5829  0.1157
12020SOL    HW139080   5.616   7.252   5.953 -0.5933  2.2592  0.7630
12020SOL    HW239081   5.476   7.201   5.927  0.5946 -1.2055  0.8744
12021SOL     OW39082   0.661   7.890   3.069 -0.0644 -0.3501 -0.0040
12021SOL    HW139083   0.743   7.845   3.049  0.0001  0.0531 -0.6433
12021SOL    HW239084   0.677   7.932   3.154 -0.0901 -1.4346  0.5519
12022SOL     OW39085   1.413   6.829   4.057 -0.1072 -0.1164  0.1926
12022SOL    HW139086   1.468   6.907   4.067 -0.7655  0.3174  0.4413
12022SOL    HW239087   1.441   6.771   4.127 -0.4920  0.4238  0.8014
12023SOL     OW39088   7.452   5.794   0.353 -0.3443  0.6326 -0.1511
12023SOL    HW139089   7.406   5.873   0.324  2.2094  2.9314  1.8059
12023SOL    HW239090   7.544   5.820   0.359  0.7805 -2.8916 -0.7426
12024SOL     OW39091   7.943   2.647   1.377 -0.3297 -0.0644  0.2041
12024SOL    HW139092   7.962   2.732   1.339  0.2582 -0.3719 -0.2042
12024SOL    HW239093   7.976   2.653   1.467  0.3353 -0.0911 -0.0380
12025SOL     OW39094   4.763   1.716   0.242  0.3579  0.5631 -0.0015
12025SOL    HW139095   4.839   1.692   0.295 -1.3651 -3.2074  0.9141
12025SOL    HW239096   4.788   1.695   0.153  1.2256  1.6226 -0.0241
12026SOL     OW39097   8.417   4.891   8.101  0.0179  0.3881  0.7457
12026SOL    HW139098   8.473   4.946   8.046  0.0952 -0.0078  0.4249
12026SOL    HW239099   8.429   4.802   8.066 -0.8526  0.3092  0.6423
12027SOL     OW39100   3.965   5.205   4.495 -0.3071 -0.3119 -0.6436
12027SOL    HW139101   4.028   5.276   4.495  0.4498 -0.9683 -2.2190
12027SOL    HW239102   3.950   5.186   4.588 -1.0652  2.3534 -0.1869
12028SOL     OW39103   7.633   8.081   5.189  0.5777 -0.7287  0.1433
12028SOL    HW139104   7.554   8.082   5.243  0.6482 -0.3414  0.2386
12028SOL    HW239105   7.692   8.021   5.235  1.3827  1.0992  1.5784
12029SOL     OW39106   2.598   8.358   9.086  0.1849 -0.4269 -0.4225
12029SOL    HW139107   2.539   8.319   9.022  0.7974  0.8023 -1.7677
12029SOL    HW239108   2.590   8.453   9.071 -1.5050  0.0469  2.9579
12030SOL     OW39109   6.160   0.469   7.206 -0.3363  0.0385 -0.0086
12030SOL    HW139110   6.114   0.504   7.283  0.6515  1.8546 -0.2037
12030SOL    HW239111   6.096   0.412   7.164 -0.6943 -1.5024  2.4818
12031SOL     OW39112   7.102   3.772   0.273 -0.0337 -0.0923  0.0236
12031SOL    HW139113   7.097   3.779   0.368  0.0109 -0.9283  0.0976
12031SOL    HW239114   7.188   3.805   0.250 -0.0200  0.0486  0.2835
12032SOL     OW39115   7.540   3.075   3.404  0.1601 -0.4931  0.3280
12032SOL    HW139116   7.594   3.097   3.480  1.5012  0.7593 -0.9530
12032SOL    HW239117   7.454   3.112   3.424  0.9795  1.4118  0.5030
12033SOL     OW39118   2.973   1.266   4.635 -0.1068 -0.3041  0.5852
12033SOL    HW139119   2.968   1.350   4.682  0.5444 -0.4166  0.8655
12033SOL    HW239120   3.031   1.284   4.561 -2.1310  0.2067 -0.9105
12034SOL     OW39121   2.866   1.734   0.713  0.7179  0.2765  0.1219
12034SOL    HW139122   2.778   1.696   0.703 -0.4730  2.7713  0.5620
12034SOL    HW239123   2.880   1.737   0.808  0.8274  0.8086  0.0925
12035SOL     OW39124   3.115   3.374   7.168  0.0194 -0.0230 -0.1707
12035SOL    HW139125   3.087   3.307   7.106  0.4386 -0.7750  0.4355
12035SOL    HW239126   3.036   3.423   7.187 -0.1025  0.2489 -1.3356
12036SOL     OW39127   0.951   5.784   1.667 -0.1399 -0.0594 -0.2754
12036SOL    HW139128   0.885   5.816   1.606 -2.9803  0.4200  2.9126
12036SOL    HW239129   0.963   5.856   1.729 -0.9071 -2.2012  2.4940
12037SOL     OW39130   6.378   4.888   0.122  0.1199 -0.1041  0.2477
12037SOL    HW139131   6.423   4.834   0.187  1.2360  0.9309  0.3518
12037SOL    HW239132   6.378   4.836   0.043 -0.4303 -0.9960  0.8255
12038SOL     OW39133   3.110   2.266   6.394  0.1614 -0.2623 -0.2275
12038SOL    HW139134   3.158   2.187   6.421  0.8592 -0.0568 -0.8562
12038SOL    HW239135   3.164   2.304   6.325  0.5253  1.5200  1.0040
12039SOL     OW39136   4.398   4.324   6.006  0.1296  0.0304 -0.0568
12039SOL    HW139137   4.472   4.313   5.947  1.0543 -0.8132  1.2268
12039SOL    HW239138   4.403   4.415   6.035  0.0170  0.2806 -0.8207
12040SOL     OW39139   2.702   1.502   8.621  0.1597  0.2286 -0.7071
12040SOL    HW139140   2.650   1.519   8.699  0.4528  0.3377 -0.5322
12040SOL    HW239141   2.652   1.437   8.572 -0.4175  0.7530 -0.8248
12041SOL     OW39142   7.525   8.601   2.731  0.0293  0.6600 -0.0193
12041SOL    HW139143   7.505   8.693   2.712 -0.0631  0.8094  0.7982
12041SOL    HW239144   7.564   8.568   2.650 -0.1204  1.3653 -0.3817
12042SOL     OW39145   1.381   3.765   5.988  0.1107 -0.8080 -0.5696
12042SOL    HW139146   1.391   3.709   5.911 -1.2914 -0.9416 -0.6641
12042SOL    HW239147   1.454   3.741   6.045  0.3399 -1.7064 -1.2387
12043SOL     OW39148   2.059   2.034   8.864  0.0190  0.3990  0.4301
12043SOL    HW139149   2.077   1.951   8.820 -1.3826  0.6009 -0.5364
12043SOL    HW239150   1.992   2.077   8.810 -0.3249  1.5123  1.7038
12044SOL     OW39151   6.937   0.665   2.532 -0.4875  0.6175  0.2559
12044SOL    HW139152   6.842   0.661   2.539 -0.4701  0.3189  0.2990
12044SOL    HW239153   6.953   0.690   2.441 -0.5999  0.3775  0.1688
12045SOL     OW39154   8.403   6.808   4.248 -0.1874  0.1941  0.1080
12045SOL    HW139155   8.431   6.754   4.322 -1.7082  0.8953  1.2238
12045SOL    HW239156   8.477   6.866   4.231  0.1574  0.0589  1.1192
12046SOL     OW39157   5.166   9.150   2.115 -0.4577  0.5754 -0.3833
12046SOL    HW139158   5.230   9.105   2.059 -0.7642 -0.9641  0.4718
12046SOL    HW239159   5.210   9.229   2.143  0.7509 -0.0314 -0.5434
12047SOL     OW39160   8.365   6.457   2.184  0.3698 -0.5505 -0.6075
12047SOL    HW139161   8.350   6.398   2.110  0.4469 -2.8710  1.1792
12047SOL    HW239162   8.459   6.456   2.197  0.5153  1.0559 -1.3963
12048SOL     OW39163   3.704   9.331   2.830  0.0878  0.3014 -0.3666
12048SOL    HW139164   3.631   9.273   2.808  1.3451 -0.6708 -2.0897
12048SOL    HW239165   3.763   9.324   2.756  3.9420 -2.1215  2.7270
12049SOL     OW39166   8.611   2.628   0.622 -0.4374 -0.1187  0.3505
12049SOL    HW139167   8.644   2.609   0.534 -0.8226  0.5502  0.0586
12049SOL    HW239168   8.659   2.707   0.649 -0.9747  0.2025  0.3741
12050SOL     OW39169   8.761   3.958   3.808 -0.0518  0.0364  0.6839
12050SOL    HW139170   8.794   3.870   3.829  0.5528  0.2014  0.4435
12050SOL    HW239171   8.718   3.947   3.723  2.1433  0.4678 -0.5041
12051SOL     OW39172   6.079   8.885   6.039 -0.3001  0.1699  0.3698
12051SOL    HW139173   6.032   8.812   6.080  1.1293  0.1231  2.0513
12051SOL    HW239174   6.107   8.851   5.954 -0.7703 -0.7983  0.5937
12052SOL     OW39175   8.106   1.705   8.132 -0.6398 -0.0271 -0.5829
12052SOL    HW139176   8.174   1.762   8.167 -0.4120 -0.2579 -0.6474
12052SOL    HW239177   8.033   1.763   8.115 -1.5632 -0.2259  2.3459
12053SOL     OW39178   0.674   4.306   3.472 -0.2466  0.5189 -0.1497
12053SOL    HW139179   0.632   4.222   3.454  0.7024 -0.0240  0.1009
12053SOL    HW239180   0.747   4.310   3.409 -0.6692  1.4467 -0.5913
12054SOL     OW39181   0.612   4.667   6.261 -0.2535 -0.4502  0.0419
12054SOL    HW139182   0.562   4.585   6.264 -0.3270 -0.3808  1.2397
12054SOL    HW239183   0.640   4.681   6.352  1.4830 -0.2041 -0.5067
12055SOL     OW39184   5.070   9.005   2.696 -0.3840  0.2356  0.0952
12055SOL    HW139185   5.061   8.930   2.754 -1.4154  0.1398 -0.1766
12055SOL    HW239186   5.165   9.015   2.684 -0.2182 -0.6160  0.6435
12056SOL     OW39187   3.856   3.890   3.590  1.0120 -0.5308  0.1849
12056SOL    HW139188   3.784   3.914   3.648 -0.5675 -3.5746 -0.3804
12056SOL    HW239189   3.935   3.908   3.641 -0.2192  0.7547  1.6833
12057SOL     OW39190   4.297   1.280   3.339  0.1657 -0.0819 -0.1458
12057SOL    HW139191   4.333   1.236   3.262  1.8193 -0.5810  0.9006
12057SOL    HW239192   4.203   1.288   3.319 -0.0020 -3.0203 -0.8798
12058SOL     OW39193   1.461   6.368   5.892  0.0614 -0.4848  0.0986
12058SOL    HW139194   1.532   6.308   5.914  1.4231  0.2129 -2.2363
12058SOL    HW239195   1.481   6.447   5.941 -0.3989 -1.0725  1.2612
12059SOL     OW39196   0.915   5.366   0.342  0.6210 -0.1531  0.1776
12059SOL    HW139197   0.907   5.410   0.258  0.6829 -0.4486  0.0180
12059SOL    HW239198   0.969   5.289   0.325  4.2859  2.0213  1.3340
12060SOL     OW39199   4.226   2.352   9.207  0.2897 -0.1887  0.1466
12060SOL    HW139200   4.148   2.333   9.259  0.3153 -0.6607  0.0112
12060SOL    HW239201   4.231   2.281   9.143  0.5515  0.1090 -0.1689
12061SOL     OW39202   6.392   7.605   3.765 -0.0144  0.1339 -0.1792
12061SOL    HW139203   6.462   7.665   3.790 -0.3746  0.1082  0.8977
12061SOL    HW239204   6.318   7.631   3.819 -0.4504 -0.6955 -0.3749
12062SOL     OW39205   0.809   1.822   4.111 -0.3472  0.0481 -0.2211
12062SOL    HW139206   0.785   1.840   4.202  0.2660 -0.9627  0.1480
12062SOL    HW239207   0.904   1.810   4.113 -0.5592 -1.8198 -0.6794
12063SOL     OW39208   7.022   0.623   5.355  0.1120 -0.0548  0.0763
12063SOL    HW139209   7.101   0.575   5.382  1.2293  0.6112 -1.9103
12063SOL    HW239210   7.012   0.691   5.421  1.1088 -0.2442  0.4336
12064SOL     OW39211   3.966   9.312   6.238 -0.0069 -0.5738 -0.0452
12064SOL    HW139212   3.980   9.407   6.237  1.6935 -0.8080 -1.9082
12064SOL    HW239213   3.937   9.291   6.149 -1.4384 -1.6664  0.6620
12065SOL     OW39214   6.807   0.781   3.662 -0.3682 -0.3207 -0.1139
12065SOL    HW139215   6.782   0.722   3.733 -1.1188 -1.3861 -1.2530
12065SOL    HW239216   6.900   0.763   3.647 -0.1765 -0.0021  0.6700
12066SOL     OW39217   6.328   6.462   1.488  0.2464  0.5444 -0.0683
12066SOL    HW139218   6.362   6.403   1.422 -0.7858  1.6113 -1.5770
12066SOL    HW239219   6.254   6.415   1.527  1.3124 -0.3828  0.8595
12067SOL     OW39220   6.457   1.770   4.085 -0.0696 -0.4927 -0.4259
12067SOL    HW139221   6.445   1.815   4.002  1.0548 -1.1370 -0.9461
12067SOL    HW239222   6.477   1.839   4.148  2.7446 -0.3281 -1.4281
12068SOL     OW39223   9.035   3.665   5.801  0.6046  0.3740  0.2275
12068SOL    HW139224   9.060   3.577   5.772  1.1253  0.7814 -0.5990
12068SOL    HW239225   9.034   3.660   5.897 -0.8945 -0.9312  0.1558
12069SOL     OW39226   1.053   7.612   3.901  0.1173  0.2772  0.2505
12069SOL    HW139227   1.129   7.668   3.886  0.3680  0.1469  0.9885
12069SOL    HW239228   1.087   7.541   3.956 -0.1502 -0.7070 -0.8481
12070SOL     OW39229   2.719   7.008   0.030  0.2631  0.1326 -0.4757
12070SOL    HW139230   2.791   7.048  -0.018  1.3376  1.3802  2.0710
12070SOL    HW239231   2.761   6.947   0.090 -1.0645 -1.6159 -1.3086
12071SOL     OW39232   2.198   5.871   0.262  0.0613 -0.7138 -0.5353
12071SOL    HW139233   2.232   5.956   0.290  0.7127 -0.4613 -2.0362
12071SOL    HW239234   2.253   5.807   0.306 -0.4395 -0.3648  0.6100
12072SOL     OW39235   3.079   4.731   8.921 -0.4919 -0.4624 -0.0690
12072SOL    HW139236   3.141   4.793   8.884 -1.0109  0.7751  1.0731
12072SOL    HW239237   3.008   4.786   8.954 -0.6621 -1.6254  1.5343
12073SOL     OW39238   1.970   6.435   1.913  0.3804  0.4781  0.0157
12073SOL    HW139239   1.889   6.392   1.889 -0.4075  1.2811  1.1539
12073SOL    HW239240   2.039   6.386   1.869 -0.6169 -1.0374  0.1437
12074SOL     OW39241   5.841   6.857   4.508  0.2461  0.0116 -0.2580
12074SOL    HW139242   5.808   6.904   4.584 -0.5203 -1.3857  0.3079
12074SOL    HW239243   5.874   6.774   4.544 -1.4021 -1.2656 -1.5802
12075SOL     OW39244   2.878   6.959   3.333 -0.1087  1.0237 -0.9017
12075SOL    HW139245   2.961   6.928   3.299 -0.3962  1.5844 -2.1372
12075SOL    HW239246   2.901   7.014   3.408  0.4700 -1.0648  0.4794
12076SOL     OW39247   5.903   2.094   3.092  0.0258  0.3283  0.1667
12076SOL    HW139248   5.928   2.141   3.012  0.7863  0.6605  0.6009
12076SOL    HW239249   5.851   2.157   3.141  0.6738  0.5612  0.5470
12077SOL     OW39250   4.605   1.300   3.848  0.1382  0.1840  0.2502
12077SOL    HW139251   4.639   1.266   3.931  1.0891 -0.3795 -0.3641
12077SOL    HW239252   4.656   1.255   3.781  0.8594  2.2133 -0.5929
12078SOL     OW39253   9.264   1.999   6.250  0.5163  0.3609 -0.3804
12078SOL    HW139254   9.279   1.950   6.331  0.0402 -0.4846 -0.7887
12078SOL    HW239255   9.174   1.978   6.226  1.5623 -1.8108 -2.7092
12079SOL     OW39256   0.976   2.902   5.608  0.3084 -0.7828 -0.4408
12079SOL    HW139257   1.043   2.901   5.540 -0.0066 -0.2459 -0.7643
12079SOL    HW239258   0.913   2.968   5.579 -0.0939 -0.9149  0.1160
12080SOL     OW39259   6.784   6.169   3.391 -0.0617 -0.2565 -0.2196
12080SOL    HW139260   6.735   6.114   3.329  1.5193 -1.8049 -0.1168
12080SOL    HW239261   6.853   6.112   3.425  1.3264  1.6600  0.2484
12081SOL     OW39262   7.772   0.416   3.322 -0.4907 -0.7318  0.2946
12081SOL    HW139263   7.717   0.456   3.255 -0.3432 -1.6219 -0.3779
12081SOL    HW239264   7.830   0.486   3.352 -1.3042 -0.0499  0.2759
12082SOL     OW39265   6.483   5.678   7.053 -0.7064 -0.4348 -0.5646
12082SOL    HW139266   6.476   5.620   7.129 -0.4219  2.1746  1.5317
12082SOL    HW239267   6.577   5.687   7.038 -0.7075  0.3970 -0.1216
12083SOL     OW39268   0.275   1.915   5.026 -0.1348  0.0860 -0.1144
12083SOL    HW139269   0.340   1.928   4.957  1.3774 -0.0377  1.2549
12083SOL    HW239270   0.326   1.907   5.106 -1.6831 -2.3789  0.7095
12084SOL     OW39271   2.911   1.930   7.124 -0.3763 -0.1100 -0.3423
12084SOL    HW139272   2.974   2.001   7.110  0.3203 -0.3755  1.3944
12084SOL    HW239273   2.959   1.850   7.100 -1.0833 -0.0386 -2.0653
12085SOL     OW39274   4.890   5.204   4.421 -0.0759 -0.3713 -0.4953
12085SOL    HW139275   4.982   5.229   4.410 -0.2577  0.4750 -0.1216
12085SOL    HW239276   4.882   5.120   4.375  0.8078 -0.2965 -0.7874
12086SOL     OW39277   0.281   2.770   0.370  0.0489 -0.4037 -0.0526
12086SOL    HW139278   0.204   2.715   0.356 -1.4657  1.8467 -0.6532
12086SOL    HW239279   0.323   2.775   0.284  0.4566 -0.9876  0.1068
12087SOL     OW39280   1.578   0.330   0.676  0.6693  0.6228 -0.1448
12087SOL    HW139281   1.660   0.379   0.682  1.7719 -1.2599  0.5186
12087SOL    HW239282   1.572   0.307   0.583  0.4499  1.4739 -0.3499
12088SOL     OW39283   7.833   3.199   8.313  0.7996 -0.0720  0.2066
12088SOL    HW139284   7.837   3.239   8.226 -0.4216 -0.0405  0.1521
12088SOL    HW239285   7.794   3.267   8.368  1.0632 -0.2904  0.6609
12089SOL     OW39286   6.943   0.919   6.664 -0.2262 -0.3422  0.1085
12089SOL    HW139287   6.976   0.923   6.754  0.3189 -1.1357 -0.0534
12089SOL    HW239288   7.001   0.857   6.620 -0.6251 -0.1223 -0.7365
12090SOL     OW39289   7.065   6.147   2.131 -0.7736  0.1605 -0.4250
12090SOL    HW139290   7.035   6.236   2.151 -0.9126 -0.2955  1.5901
12090SOL    HW239291   7.147   6.158   2.085 -2.3002  1.3786 -2.9296
12091SOL     OW39292   0.602   6.005   5.515 -0.1607 -0.1200  0.6068
12091SOL    HW139293   0.563   5.921   5.492 -1.5819  0.6966 -0.0848
12091SOL    HW239294   0.685   6.007   5.468 -0.2335 -1.0291  0.4323
12092SOL     OW39295   1.757   4.317   5.787 -0.2300 -0.0713 -0.4415
12092SOL    HW139296   1.678   4.283   5.745 -1.0525 -0.2799  1.1984
12092SOL    HW239297   1.826   4.257   5.762 -0.5519  0.2180 -2.0587
12093SOL     OW39298   2.791   5.322   7.721 -0.7438  0.0899  0.1772
12093SOL    HW139299   2.771   5.318   7.627 -1.5997 -1.0507  0.4001
12093SOL    HW239300   2.857   5.254   7.733 -2.1065 -1.1353  0.7630
12094SOL     OW39301   2.723   0.158   6.851 -0.0590  0.0204  0.1892
12094SOL    HW139302   2.704   0.174   6.943  0.2219  0.4358  0.1769
12094SOL    HW239303   2.639   0.167   6.806  0.0404  1.1894  0.2186
12095SOL     OW39304   3.347   9.039   1.419  0.1973 -0.7827 -0.1788
12095SOL    HW139305   3.312   8.950   1.413 -1.5927 -0.0679 -0.8678
12095SOL    HW239306   3.441   9.030   1.407 -0.0433 -2.5242 -0.7575
12096SOL     OW39307   1.935   8.836   3.002 -0.4838 -0.4203  0.1679
12096SOL    HW139308   1.991   8.799   3.071  2.8764  1.0891 -1.6365
12096SOL    HW239309   1.971   8.801   2.921 -1.6467  1.2521 -1.1028
12097SOL     OW39310   7.323   9.439   0.836 -0.7564 -0.2648  0.3746
12097SOL    HW139311   7.388   9.384   0.879  0.8689  0.4101 -1.1703
12097SOL    HW239312   7.319   9.518   0.889  0.3482  0.0600 -0.0195
12098SOL     OW39313   7.269   6.374   6.445  0.1543 -0.5570  0.3526
12098SOL    HW139314   7.348   6.353   6.494 -0.3249  1.5431  2.1418
12098SOL    HW239315   7.198   6.365   6.508 -0.4762  2.2447  0.1402
12099SOL     OW39316   8.048   4.550   8.510 -0.7468  0.0087 -0.0147
12099SOL    HW139317   7.967   4.526   8.555 -0.0973  1.1908  1.8683
12099SOL    HW239318   8.022   4.615   8.445 -1.8478 -2.4175 -2.0911
12100SOL     OW39319   8.592   2.794   5.279 -0.5302 -0.2839 -0.0788
12100SOL    HW139320   8.534   2.857   5.320 -1.1665 -1.2269  0.4887
12100SOL    HW239321   8.634   2.749   5.352  0.1650 -0.2974 -0.4791
12101SOL     OW39322   2.623   0.290   2.323  0.2122  0.2132 -0.0789
12101SOL    HW139323   2.581   0.243   2.251  1.1845  0.8118 -1.0420
12101SOL    HW239324   2.706   0.245   2.337 -0.4972 -0.6472  1.4843
12102SOL     OW39325   7.147   1.772   0.631 -0.5137  0.1379 -0.3025
12102SOL    HW139326   7.086   1.842   0.610 -1.0264 -0.2595 -0.1362
12102SOL    HW239327   7.134   1.757   0.725 -0.4720 -0.2451 -0.3590
12103SOL     OW39328   8.817   5.689   6.697 -0.1655 -0.5209  0.0210
12103SOL    HW139329   8.810   5.594   6.694 -0.7988 -0.5442  1.5488
12103SOL    HW239330   8.737   5.720   6.654  1.1952 -0.6364 -2.6875
12104SOL     OW39331   4.655   8.161   1.405  0.3759 -0.1764 -0.0831
12104SOL    HW139332   4.571   8.198   1.430  1.1626  0.9349  0.9725
12104SOL    HW239333   4.680   8.107   1.480  0.9982  0.1756 -0.0333
12105SOL     OW39334   4.461   5.182   3.038  0.1419  0.1026 -0.1128
12105SOL    HW139335   4.519   5.141   3.102 -1.8003  0.6144  2.0700
12105SOL    HW239336   4.398   5.113   3.016  0.1138  0.2842 -0.5974
12106SOL     OW39337   0.626   3.368   6.919 -0.7500 -0.1308 -0.3411
12106SOL    HW139338   0.560   3.314   6.876 -1.8524  1.1375 -0.2955
12106SOL    HW239339   0.640   3.441   6.858 -0.2185  0.1957  0.1691
12107SOL     OW39340   1.985   8.469   9.214 -0.0499 -0.0858 -0.1237
12107SOL    HW139341   1.935   8.507   9.286  0.1028 -0.6276  0.2729
12107SOL    HW239342   1.921   8.417   9.165 -0.2360  0.5957 -0.6045
12108SOL     OW39343   1.127   4.393   6.117 -0.2681  0.4245 -0.2806
12108SOL    HW139344   1.109   4.302   6.138 -2.2981  0.8113 -0.2177
12108SOL    HW239345   1.141   4.436   6.202 -2.2842  0.7521 -0.1000
12109SOL     OW39346   6.656   5.162   8.651 -0.1557 -0.5436  0.7832
12109SOL    HW139347   6.601   5.213   8.592 -0.2671  0.0754  1.4227
12109SOL    HW239348   6.746   5.180   8.621 -0.1376  0.7777  1.5960
12110SOL     OW39349   4.835   7.791   5.306 -0.2869 -0.7924 -0.3705
12110SOL    HW139350   4.907   7.756   5.253  0.7241  0.1635  0.3516
12110SOL    HW239351   4.841   7.743   5.389  0.4698  0.3568  0.2456
12111SOL     OW39352   6.533   3.902   7.190  0.1458  0.6636 -0.0056
12111SOL    HW139353   6.579   3.851   7.256 -0.9301 -0.0078  0.2336
12111SOL    HW239354   6.452   3.854   7.174 -0.1213  1.4161 -0.9937
12112SOL     OW39355   0.918   5.082   3.713  1.1464  0.7881  0.1397
12112SOL    HW139356   0.893   5.089   3.805  0.4004 -0.0532  0.0084
12112SOL    HW239357   0.836   5.062   3.667  1.5048  1.2409 -0.7130
12113SOL     OW39358   0.542   0.050   3.848 -0.2459 -0.0523 -0.5535
12113SOL    HW139359   0.454   0.036   3.814 -0.3636  0.7683 -0.6018
12113SOL    HW239360   0.528   0.101   3.928  0.2011  0.2080 -0.6444
12114SOL     OW39361   7.738   0.910   4.410 -0.3928  0.4574  0.0801
12114SOL    HW139362   7.792   0.833   4.393 -0.5601 -0.0457  1.7607
12114SOL    HW239363   7.701   0.932   4.325  1.2856 -0.0721 -0.8219
12115SOL     OW39364   5.420   2.922   2.494 -0.1657 -0.2124  0.1897
12115SOL    HW139365   5.486   2.932   2.425  0.1426  0.4351  0.5701
12115SOL    HW239366   5.415   3.009   2.535 -3.1705  0.4909 -1.5361
12116SOL     OW39367   2.896   4.019   9.329 -0.2951 -0.4656 -0.9780
12116SOL    HW139368   2.986   3.996   9.305  0.2777  0.3032  0.3885
12116SOL    HW239369   2.869   3.950   9.390  0.5777  1.0929  1.2392
12117SOL     OW39370   4.230   3.380   4.000 -0.3308 -0.0297 -0.0850
12117SOL    HW139371   4.237   3.379   3.904 -0.9356 -0.9571 -0.1204
12117SOL    HW239372   4.255   3.292   4.027  1.4689  0.7212  0.7429
12118SOL     OW39373   3.997   5.415   6.263  0.3365  0.3049  0.6162
12118SOL    HW139374   4.079   5.408   6.312  2.0116 -1.9008 -2.3633
12118SOL    HW239375   4.022   5.453   6.179 -1.7321 -0.2283 -0.2731
12119SOL     OW39376   1.409   9.265   9.403 -0.5269 -0.6551 -0.3099
12119SOL    HW139377   1.374   9.256   9.315  0.4763 -1.2292 -0.6645
12119SOL    HW239378   1.482   9.327   9.394  0.4967 -1.8169 -0.1676
12120SOL     OW39379   9.223   0.431   1.777 -0.3545  0.3568 -0.1575
12120SOL    HW139380   9.279   0.353   1.780 -0.0100  0.5727 -0.8918
12120SOL    HW239381   9.138   0.399   1.747 -1.4763 -0.4513  3.6108
12121SOL     OW39382   3.762   0.604   2.907 -0.3649  0.0850  0.2604
12121SOL    HW139383   3.781   0.559   2.825 -0.2114 -1.5010  1.1591
12121SOL    HW239384   3.799   0.692   2.895 -0.5027 -0.0684 -1.4254
12122SOL     OW39385   7.895   6.073   0.762 -0.2626 -0.5132 -0.1989
12122SOL    HW139386   7.963   6.129   0.800 -1.5532  0.7414  0.2961
12122SOL    HW239387   7.871   6.117   0.680 -3.2465  1.2436  1.5118
12123SOL     OW39388   6.266   0.060   2.183  0.1559 -0.3318 -0.2302
12123SOL    HW139389   6.286  -0.029   2.155  0.7947 -0.7569  1.4843
12123SOL    HW239390   6.346   0.090   2.226 -0.5254  0.5444  0.4516
12124SOL     OW39391   5.346   2.702   0.945  0.3416 -0.5599  0.0342
12124SOL    HW139392   5.354   2.740   1.033  0.9378 -1.3807  0.3358
12124SOL    HW239393   5.252   2.695   0.931  0.2360  0.0455  0.3996
12125SOL     OW39394   8.008   1.662   1.790  0.2555  0.3639  0.4038
12125SOL    HW139395   8.038   1.742   1.833 -0.2894  1.8862 -1.9584
12125SOL    HW239396   7.941   1.692   1.728 -1.5364 -2.1823  1.0038
12126SOL     OW39397   6.326   0.400   4.102  0.5071  0.1854 -0.3321
12126SOL    HW139398   6.312   0.465   4.033 -0.6109 -0.0897 -0.3706
12126SOL    HW239399   6.376   0.447   4.169  1.6244  0.4475 -1.3278
12127SOL     OW39400   5.863   4.099   2.482  0.2753  0.3144  0.0767
12127SOL    HW139401   5.868   4.110   2.577  0.1345 -1.0221  0.2496
12127SOL    HW239402   5.777   4.060   2.466  0.3133  0.4988 -0.5874
12128SOL     OW39403   8.673   3.384   2.053  0.4857 -0.0946 -0.1591
12128SOL    HW139404   8.731   3.357   2.124  0.5831 -1.9303 -0.9052
12128SOL    HW239405   8.593   3.333   2.066  0.6518 -0.7416 -1.5664
12129SOL     OW39406   8.364   4.664   4.199 -0.1101  0.9651 -0.0616
12129SOL    HW139407   8.310   4.743   4.189 -0.7892  0.3581 -1.2817
12129SOL    HW239408   8.419   4.663   4.121 -0.4870 -0.0606 -0.3171
12130SOL     OW39409   0.272   8.007   2.242 -0.0028  1.3085  0.7303
12130SOL    HW139410   0.345   7.984   2.184 -0.6505 -0.8491  0.7184
12130SOL    HW239411   0.229   8.081   2.199  0.0564  0.3062 -1.0942
12131SOL     OW39412   2.791   6.232   7.791  0.2731 -0.2214 -0.2216
12131SOL    HW139413   2.784   6.218   7.697 -0.8977  1.8287 -0.4598
12131SOL    HW239414   2.851   6.164   7.821  1.6515 -0.1210 -2.6450
12132SOL     OW39415   2.786   3.892   3.632 -0.2736 -0.1534 -0.2069
12132SOL    HW139416   2.805   3.967   3.688 -0.2642 -1.7665  2.0115
12132SOL    HW239417   2.699   3.911   3.595 -1.2784 -0.0512  2.1026
12133SOL     OW39418   2.375   4.673   6.730 -0.0371 -0.1737 -0.0320
12133SOL    HW139419   2.454   4.648   6.778 -0.0135 -1.0045 -0.4931
12133SOL    HW239420   2.403   4.744   6.672 -0.3034  1.5978  1.9335
12134SOL     OW39421   5.567   9.019   2.337 -0.0280  0.1762 -0.0370
12134SOL    HW139422   5.549   8.943   2.391 -1.1540  0.1787 -0.3888
12134SOL    HW239423   5.515   9.089   2.376 -0.6623  0.2348 -0.9799
12135SOL     OW39424   2.241   4.212   6.494 -0.0801 -0.4991 -0.0923
12135SOL    HW139425   2.256   4.262   6.574  0.7670 -1.9666  0.7004
12135SOL    HW239426   2.173   4.260   6.447 -0.6544  0.3257  1.5667
12136SOL     OW39427   2.499   5.873   3.783  0.4616  0.0711  0.2659
12136SOL    HW139428   2.545   5.889   3.866  1.7268 -0.3640 -0.3329
12136SOL    HW239429   2.484   5.960   3.746  0.6878  0.2262  0.5362
12137SOL     OW39430   7.414   3.084   2.625  0.5363  0.6712  0.9173
12137SOL    HW139431   7.352   3.151   2.595 -0.2931 -0.9615 -1.0810
12137SOL    HW239432   7.498   3.112   2.589 -0.0815 -0.1340 -1.2771
12138SOL     OW39433   5.243   0.392   4.705 -0.0852  0.3150 -0.0973
12138SOL    HW139434   5.304   0.338   4.655 -0.6132 -0.9339  0.5835
12138SOL    HW239435   5.274   0.385   4.796 -0.5595  0.6012  0.0918
12139SOL     OW39436   3.361   7.609   1.262 -0.0488 -0.2023  0.1890
12139SOL    HW139437   3.424   7.588   1.330  0.8207  2.2414  0.1910
12139SOL    HW239438   3.324   7.524   1.236  1.7973 -1.4605  1.5495
12140SOL     OW39439   5.572   2.835   5.923  0.3664  0.2768  0.2480
12140SOL    HW139440   5.596   2.789   5.842  0.6851 -1.0737  1.1038
12140SOL    HW239441   5.481   2.861   5.909  0.6106  0.6139 -0.8033
12141SOL     OW39442   4.519   2.716   0.098  0.2405 -0.7504  0.1220
12141SOL    HW139443   4.487   2.754   0.017  1.7967 -1.0369 -0.6534
12141SOL    HW239444   4.442   2.678   0.140 -0.6125 -0.3791 -1.1018
12142SOL     OW39445   0.647   0.334   3.345 -0.3370 -0.0930 -0.1538
12142SOL    HW139446   0.641   0.280   3.424  0.4962 -1.9392 -1.3216
12142SOL    HW239447   0.570   0.311   3.294 -0.9340  1.1864  0.1347
12143SOL     OW39448   6.428   9.126   6.522 -0.2970  0.0696 -0.0039
12143SOL    HW139449   6.445   9.065   6.594 -1.7793 -0.4236 -0.0732
12143SOL    HW239450   6.420   9.071   6.445 -0.0610  0.4925 -0.3360
12144SOL     OW39451   3.111   8.850   8.526  0.3753  0.1613 -0.3728
12144SOL    HW139452   3.140   8.920   8.584 -0.0084  1.4000 -1.6607
12144SOL    HW239453   3.186   8.791   8.521  0.6754  0.4359  0.7709
12145SOL     OW39454   7.411   3.446   5.308  0.6729  0.3017 -0.8795
12145SOL    HW139455   7.444   3.372   5.256  2.6022  0.2513  0.3617
12145SOL    HW239456   7.389   3.408   5.393 -1.3291  0.6093 -1.2274
12146SOL     OW39457   3.353   6.700   5.979  0.3540 -0.9855  0.1473
12146SOL    HW139458   3.343   6.791   6.007 -1.1245 -1.2971  0.6956
12146SOL    HW239459   3.383   6.654   6.057  0.4628 -1.0907  0.0441
12147SOL     OW39460   7.539   8.096   9.223 -0.2730  0.0644 -0.6645
12147SOL    HW139461   7.466   8.155   9.242  1.1926  1.9493 -0.7964
12147SOL    HW239462   7.616   8.152   9.223  0.7719 -1.2418 -4.1067
12148SOL     OW39463   7.274   8.221   3.676  0.1937 -0.2149 -0.2723
12148SOL    HW139464   7.262   8.308   3.637 -3.9535 -0.0180  1.1133
12148SOL    HW239465   7.338   8.234   3.745 -1.0823  2.0393  0.5634
12149SOL     OW39466   1.337   1.176   0.350  0.1921 -0.8743 -0.0381
12149SOL    HW139467   1.431   1.196   0.345  0.1898 -0.4228  1.5039
12149SOL    HW239468   1.317   1.180   0.444 -1.1516 -1.9951 -0.2705
12150SOL     OW39469   3.122   6.710   1.664  0.1559  0.5956 -0.2078
12150SOL    HW139470   3.048   6.687   1.607 -0.2479  1.2576  0.0414
12150SOL    HW239471   3.081   6.728   1.748  0.4128  2.6254 -0.5065
12151SOL     OW39472   7.294   4.238   3.591 -0.2069  0.4624  0.0754
12151SOL    HW139473   7.381   4.213   3.557 -0.9930 -1.2435 -0.7335
12151SOL    HW239474   7.234   4.219   3.519 -1.3297  1.1834  0.8066
12152SOL     OW39475   4.594   3.489   5.220  0.5977 -0.3480 -0.0896
12152SOL    HW139476   4.549   3.540   5.153  0.0628 -0.9248 -0.1739
12152SOL    HW239477   4.534   3.488   5.295  0.4893 -1.0702 -0.1808
12153SOL     OW39478   3.533   5.898   0.912 -0.7008  0.0886 -0.0515
12153SOL    HW139479   3.544   5.839   0.986 -0.5810  1.8343  1.3610
12153SOL    HW239480   3.614   5.888   0.862 -0.4280 -0.4912  0.4950
12154SOL     OW39481   6.174   1.722   1.028 -0.8198  0.2416  0.4560
12154SOL    HW139482   6.126   1.640   1.021 -0.5059 -0.0657  1.6540
12154SOL    HW239483   6.233   1.722   0.953 -0.7657 -0.6730  0.4880
12155SOL     OW39484   7.560   3.048   9.411  0.1921  0.2858 -0.2064
12155SOL    HW139485   7.615   3.116   9.449 -0.0612  0.8516 -0.8547
12155SOL    HW239486   7.471   3.068   9.441  0.3322 -0.6665  0.8948
12156SOL     OW39487   2.209   5.303   0.132  0.1388  0.0386 -0.3061
12156SOL    HW139488   2.142   5.266   0.189  1.6139 -1.1504  0.7047
12156SOL    HW239489   2.276   5.337   0.192  0.8858  0.3262 -1.2899
12157SOL     OW39490   7.069   5.405   1.127  0.2104  0.7515  0.1410
12157SOL    HW139491   7.151   5.366   1.154  1.0060  1.5745 -1.0332
12157SOL    HW239492   7.004   5.369   1.187  0.8792 -2.4664 -0.9911
12158SOL     OW39493   6.997   1.507   3.458 -0.2453  0.1022  0.4838
12158SOL    HW139494   7.046   1.467   3.387 -0.4615  1.0635 -0.2193
12158SOL    HW239495   7.062   1.558   3.507  0.0425 -1.1412  1.4172
12159SOL     OW39496   1.961   8.295   6.960  0.1784  0.1141  0.1753
12159SOL    HW139497   1.981   8.365   7.023  1.4844  0.2791 -0.3992
12159SOL    HW239498   1.890   8.331   6.907  2.4933  2.0396 -1.7125
12160SOL     OW39499   2.310   0.901   0.032 -0.3175 -0.3608 -0.1650
12160SOL    HW139500   2.219   0.932   0.039 -0.2693 -0.1774 -0.3501
12160SOL    HW239501   2.323   0.887  -0.062  0.5686  1.8025 -0.4044
12161SOL     OW39502   4.209   2.028   4.374  0.4040 -0.1442  0.3654
12161SOL    HW139503   4.156   2.013   4.296  0.0800  2.9636 -0.0872
12161SOL    HW239504   4.147   2.021   4.447  0.2991 -0.9890  0.2023
12162SOL     OW39505   2.507   5.971   8.945  0.1348 -0.0794  0.5087
12162SOL    HW139506   2.564   5.901   8.911 -0.6316 -0.1338 -0.6952
12162SOL    HW239507   2.497   5.949   9.038 -2.2433 -3.1287 -0.3728
12163SOL     OW39508   2.272   0.684   7.871 -0.2624 -0.9073  0.0766
12163SOL    HW139509   2.216   0.608   7.888  1.3990 -2.1511  0.0978
12163SOL    HW239510   2.338   0.681   7.941 -0.6026  0.9785  0.5017
12164SOL     OW39511   1.835   5.483   8.979  0.1661  0.1800 -0.3111
12164SOL    HW139512   1.829   5.576   8.956  0.9734  0.1756 -0.5530
12164SOL    HW239513   1.850   5.482   9.073  1.2858  0.3370 -0.4784
12165SOL     OW39514   6.010   4.519   1.788 -0.8046  0.0052 -0.2936
12165SOL    HW139515   6.105   4.513   1.783 -0.6688 -0.6759  2.1922
12165SOL    HW239516   5.993   4.589   1.850 -1.8433 -1.8346  1.5689
12166SOL     OW39517   0.466   4.978   2.108 -0.4098 -0.2754 -0.5173
12166SOL    HW139518   0.436   4.895   2.144 -1.6063  0.4133  0.1248
12166SOL    HW239519   0.511   5.022   2.180 -1.6387  0.5334 -0.2233
12167SOL     OW39520   5.859   0.443   6.164 -0.2045  0.2452  0.6527
12167SOL    HW139521   5.900   0.485   6.088 -0.2775 -1.7821 -0.5441
12167SOL    HW239522   5.932   0.423   6.223  0.2839 -1.2999 -0.4508
12168SOL     OW39523   2.811   1.558   6.078  0.3464 -0.3279  0.0436
12168SOL    HW139524   2.715   1.558   6.073  0.3732  0.0511 -0.5919
12168SOL    HW239525   2.831   1.520   6.163 -0.3313 -1.7689 -0.4374
12169SOL     OW39526   2.906   1.340   0.835  0.4552 -0.4348  0.0812
12169SOL    HW139527   2.899   1.270   0.771  0.4026 -0.5263  0.1864
12169SOL    HW239528   2.992   1.329   0.874 -0.2764 -1.5721  1.4068
12170SOL     OW39529   0.543   8.440   2.522 -0.0199  0.2366 -0.3956
12170SOL    HW139530   0.458   8.481   2.505  0.7727  2.2383  0.3103
12170SOL    HW239531   0.584   8.433   2.436 -0.3171  0.6367 -0.5728
12171SOL     OW39532   7.968   7.334   7.171 -0.2705 -0.3521  0.1045
12171SOL    HW139533   7.907   7.393   7.127 -0.9047 -2.1082 -1.4123
12171SOL    HW239534   8.008   7.284   7.099  2.1687  0.0178  1.1507
12172SOL     OW39535   2.181   6.176   2.922  0.0981  0.1533  0.2046
12172SOL    HW139536   2.241   6.234   2.876 -1.5405  0.3360 -1.7726
12172SOL    HW239537   2.236   6.105   2.955  1.8909  2.0493  1.3736
12173SOL     OW39538   0.879   4.546   6.990 -0.0173  0.1368  0.1500
12173SOL    HW139539   0.974   4.538   6.998  0.0453 -0.9929 -1.5696
12173SOL    HW239540   0.866   4.620   6.931 -0.0761 -2.1351 -2.8007
12174SOL     OW39541   0.528   1.212   1.204 -0.3545  0.0625 -0.0368
12174SOL    HW139542   0.611   1.215   1.156  1.3539  1.8098  2.8707
12174SOL    HW239543   0.544   1.151   1.276 -1.1946  1.2409  1.1862
12175SOL     OW39544   7.486   5.537   8.704 -0.0822  0.4672 -0.5463
12175SOL    HW139545   7.518   5.487   8.629  1.5092  1.5978 -0.6420
12175SOL    HW239546   7.422   5.479   8.746  0.3877 -0.9149 -1.6986
12176SOL     OW39547   8.531   5.078   3.229  0.3528 -0.1568  0.8868
12176SOL    HW139548   8.506   5.105   3.317 -0.1846  1.0037  0.3891
12176SOL    HW239549   8.458   5.106   3.173  0.1942 -1.8404  0.2199
12177SOL     OW39550   0.886   3.398   4.722 -0.2329  0.0871 -0.3309
12177SOL    HW139551   0.852   3.406   4.633 -1.4869  1.3805  0.2450
12177SOL    HW239552   0.850   3.474   4.768  2.1259  0.5927  0.7416
12178SOL     OW39553   2.793   7.247   7.168 -0.1017  0.3194  0.7588
12178SOL    HW139554   2.808   7.173   7.108 -0.6218  0.5048  0.3936
12178SOL    HW239555   2.700   7.239   7.192  0.3545 -0.3511  2.3505
12179SOL     OW39556   2.659   2.823   7.031  0.0555  0.5400  0.5400
12179SOL    HW139557   2.706   2.898   7.068 -0.7480  1.3313 -0.0212
12179SOL    HW239558   2.727   2.757   7.017  0.9763  1.6004 -0.0664
12180SOL     OW39559   8.871   4.702   8.532  0.1317 -0.2973  0.2732
12180SOL    HW139560   8.866   4.791   8.499  0.6342 -0.0681  0.7970
12180SOL    HW239561   8.842   4.647   8.459 -0.2996  0.3002 -0.0064
12181SOL     OW39562   4.692   3.156   7.575 -0.0019  0.4381  0.0286
12181SOL    HW139563   4.787   3.145   7.586  0.2137  1.2465 -0.9769
12181SOL    HW239564   4.669   3.093   7.507 -0.3038 -0.2004  0.7108
12182SOL     OW39565   4.197   8.355   4.997 -0.1593  0.0613  0.1937
12182SOL    HW139566   4.168   8.307   5.075  0.4513  0.7284  0.8318
12182SOL    HW239567   4.220   8.286   4.935 -1.8861 -0.4747  0.1337
12183SOL     OW39568   6.839   9.430   1.237  0.2677 -0.3169 -0.2120
12183SOL    HW139569   6.809   9.454   1.150 -0.8838 -1.8230 -0.2471
12183SOL    HW239570   6.930   9.402   1.225  0.4843  0.5957 -0.7243
12184SOL     OW39571   4.424   7.361   2.228  0.6250 -0.0599 -0.3986
12184SOL    HW139572   4.415   7.425   2.157  1.6457 -0.6034 -1.0293
12184SOL    HW239573   4.398   7.278   2.190 -3.8410  0.4242  1.3122
12185SOL     OW39574   3.848   2.867   7.132  0.2771 -0.1909 -0.1383
12185SOL    HW139575   3.922   2.908   7.088  1.1547 -2.7717 -1.1223
12185SOL    HW239576   3.838   2.917   7.213  0.6346  2.6158 -1.7569
12186SOL     OW39577   7.881   4.009   4.314 -0.2907  0.0686 -0.2689
12186SOL    HW139578   7.959   3.990   4.366  1.0017  2.6699 -1.1907
12186SOL    HW239579   7.871   4.104   4.319 -3.1273 -0.1694 -0.5873
12187SOL     OW39580   6.830   8.638   0.420  0.1538  0.2972 -0.2108
12187SOL    HW139581   6.754   8.589   0.451 -0.3463 -0.5797 -2.7288
12187SOL    HW239582   6.800   8.729   0.415 -0.1123  0.2607  0.7274
12188SOL     OW39583   3.935   7.433   2.854  0.0796 -0.8123  0.1293
12188SOL    HW139584   3.923   7.390   2.939  0.0303 -2.0333 -0.4892
12188SOL    HW239585   3.896   7.373   2.791  0.3397 -0.0262 -0.7892
12189SOL     OW39586   5.380   8.764   2.201 -0.0458  0.3438 -0.1214
12189SOL    HW139587   5.310   8.728   2.147 -1.1048  2.3351 -0.1092
12189SOL    HW239588   5.375   8.858   2.187  3.6788  0.4321 -1.3703
12190SOL     OW39589   0.676   4.400   9.092 -0.3881  0.6388 -0.2141
12190SOL    HW139590   0.762   4.421   9.128 -0.1347 -0.4818 -0.1422
12190SOL    HW239591   0.634   4.485   9.077  0.4540  1.1675  0.4211
12191SOL     OW39592   6.792   0.504   3.210  0.4397 -0.2596  0.0263
12191SOL    HW139593   6.733   0.431   3.226 -2.0625  1.6932 -0.0546
12191SOL    HW239594   6.798   0.549   3.294  1.6636 -0.2879 -0.0269
12192SOL     OW39595   5.643   5.268   4.064  0.0909  0.7395 -0.7886
12192SOL    HW139596   5.712   5.234   4.006 -0.0762  1.7356 -1.5806
12192SOL    HW239597   5.682   5.345   4.105  0.1231  0.1759  0.2641
12193SOL     OW39598   7.670   7.504   1.401  0.3246  0.6283 -0.4269
12193SOL    HW139599   7.668   7.512   1.305  0.6008 -0.2194 -0.5138
12193SOL    HW239600   7.580   7.525   1.428  0.4113  1.4990 -0.8157
12194SOL     OW39601   2.541   5.558   4.628  0.6214  0.2112 -0.4201
12194SOL    HW139602   2.610   5.574   4.564  1.3196 -0.6800  0.0911
12194SOL    HW239603   2.480   5.630   4.616  1.0595  0.3916 -1.6637
12195SOL     OW39604   2.903   6.363   5.060  0.0512  0.0030  0.3204
12195SOL    HW139605   2.821   6.402   5.089  1.4436  2.2995  1.3059
12195SOL    HW239606   2.898   6.364   4.964 -0.9899  0.2748  0.3758
12196SOL     OW39607   8.564   6.725   8.089  0.5352 -0.1846  0.0421
12196SOL    HW139608   8.556   6.653   8.151  0.4130  0.5169  0.8593
12196SOL    HW239609   8.654   6.719   8.057  0.5036 -0.7426  0.0558
12197SOL     OW39610   8.925   0.290   8.981  0.4437 -0.1947 -0.5940
12197SOL    HW139611   8.947   0.342   8.904  0.2362  1.4251  0.3991
12197SOL    HW239612   8.836   0.261   8.966 -0.3321  1.8193 -0.1008
12198SOL     OW39613   4.189   3.918   3.407 -0.3037 -0.1367 -0.3348
12198SOL    HW139614   4.123   3.867   3.454  0.0506 -0.3926 -0.1151
12198SOL    HW239615   4.154   4.007   3.406 -0.6898 -0.2864 -0.2902
12199SOL     OW39616   0.214   3.683   6.540  0.2816  0.2053  0.3639
12199SOL    HW139617   0.252   3.761   6.500  2.9418 -0.3438  1.7425
12199SOL    HW239618   0.190   3.710   6.628 -2.9785  0.6457 -0.5920
12200SOL     OW39619   1.580   1.319   3.080  0.6458  0.0899 -0.5219
12200SOL    HW139620   1.565   1.308   2.986  1.4781 -0.6957 -0.5698
12200SOL    HW239621   1.508   1.272   3.122  0.1541  0.6202 -0.7642
12201SOL     OW39622   9.438   6.555   5.581 -0.3123  0.1316 -0.4254
12201SOL    HW139623   9.519   6.525   5.539 -0.2206  0.2974 -0.3667
12201SOL    HW239624   9.449   6.650   5.590 -0.1004  0.0265  0.4675
12202SOL     OW39625   3.119   3.690   0.250 -0.2099 -0.6051 -0.1772
12202SOL    HW139626   3.107   3.659   0.340  0.9055 -0.9415 -0.1454
12202SOL    HW239627   3.030   3.713   0.222 -0.8867 -2.5278  0.2809
12203SOL     OW39628   8.909   7.546   0.735  0.2315 -0.0366  0.0934
12203SOL    HW139629   8.886   7.461   0.773 -1.3907 -0.0476 -0.8707
12203SOL    HW239630   8.985   7.528   0.679  0.5356 -0.6525  0.7004
12204SOL     OW39631   9.128   0.001   0.774  0.1129 -0.3794 -0.0727
12204SOL    HW139632   9.092   0.055   0.845 -1.6033  1.7379 -2.4843
12204SOL    HW239633   9.212   0.043   0.752  0.2112 -0.4922  0.0897
12205SOL     OW39634   1.836   5.595   8.368  0.0575 -0.0493  0.5968
12205SOL    HW139635   1.842   5.536   8.442  1.2322  0.6527  1.0802
12205SOL    HW239636   1.792   5.545   8.300  0.8299 -1.3914  1.0762
12206SOL     OW39637   6.366   3.115   7.447 -0.6616 -0.2556  0.2686
12206SOL    HW139638   6.411   3.183   7.497  1.2774 -0.5823 -0.9576
12206SOL    HW239639   6.310   3.164   7.386 -0.4393  0.2191  0.4381
12207SOL     OW39640   6.133   9.162   4.155 -0.2850  0.2197 -0.0823
12207SOL    HW139641   6.170   9.075   4.140  1.2310  0.7035  0.7200
12207SOL    HW239642   6.043   9.146   4.183 -0.8918 -0.9768 -2.5291
12208SOL     OW39643   4.985   1.228   8.129 -0.0503  0.0401 -0.0396
12208SOL    HW139644   5.023   1.239   8.216 -0.2206  1.7630 -0.1651
12208SOL    HW239645   4.897   1.195   8.145 -0.4394  1.3129  0.4944
12209SOL     OW39646   0.353   8.300   0.220 -0.0929 -0.1184  0.4047
12209SOL    HW139647   0.289   8.239   0.256 -0.5757  0.6854  0.9211
12209SOL    HW239648   0.408   8.325   0.294  0.5202 -0.4254  0.0637
12210SOL     OW39649   7.583   4.986   0.551  0.2351 -0.2220  0.2130
12210SOL    HW139650   7.662   4.932   0.548  0.4916  0.1683 -3.7546
12210SOL    HW239651   7.518   4.935   0.502 -1.1464  0.7000  1.0486
12211SOL     OW39652   4.835   1.608   3.965  0.2700 -0.0185 -0.0208
12211SOL    HW139653   4.914   1.637   3.919  0.6968 -1.3114 -0.1083
12211SOL    HW239654   4.867   1.571   4.047 -0.2888 -0.0362  0.1931
12212SOL     OW39655   8.330   5.475   9.362  0.1532  0.0801 -0.0857
12212SOL    HW139656   8.384   5.395   9.359 -0.3456 -0.2267 -1.7202
12212SOL    HW239657   8.275   5.464   9.439 -1.5402 -2.2916 -1.5398
12213SOL     OW39658   8.458   0.586   9.070 -0.7641 -0.3080  0.4743
12213SOL    HW139659   8.549   0.614   9.060  0.1389 -3.7315 -2.0061
12213SOL    HW239660   8.454   0.549   9.159  1.3122 -3.2950 -0.5668
12214SOL     OW39661   3.419   2.237   8.733  0.0023 -0.0942 -0.1185
12214SOL    HW139662   3.411   2.174   8.805 -0.8225  0.2711  0.1165
12214SOL    HW239663   3.330   2.247   8.700  0.3734 -0.2416 -1.1802
12215SOL     OW39664   4.328   8.164   7.806  0.5954  0.5713  0.0016
12215SOL    HW139665   4.321   8.123   7.893 -2.3587 -0.3878 -0.6396
12215SOL    HW239666   4.302   8.255   7.821  0.0221  0.3922  0.1207
12216SOL     OW39667   0.864   4.754   8.934 -0.2133 -0.0596 -0.4324
12216SOL    HW139668   0.824   4.821   8.879 -0.7105  0.0882  0.1031
12216SOL    HW239669   0.845   4.782   9.024 -0.4769 -0.9499 -0.2021
12217SOL     OW39670   3.733   0.324   0.994 -0.1946 -0.3954 -0.0481
12217SOL    HW139671   3.825   0.333   1.018  0.5195 -1.6857 -2.1630
12217SOL    HW239672   3.686   0.340   1.075  1.7613  2.7900  0.5355
12218SOL     OW39673   9.408   4.489   4.607 -0.3835 -0.1163  0.3375
12218SOL    HW139674   9.322   4.479   4.647  0.8737  0.0246  3.1864
12218SOL    HW239675   9.417   4.413   4.550 -1.9909 -0.6317  0.7350
12219SOL     OW39676   3.538   0.445   6.071  0.4687 -0.1772  0.1944
12219SOL    HW139677   3.542   0.530   6.115  0.2051  0.6030 -1.2649
12219SOL    HW239678   3.594   0.389   6.124  1.8705  1.3032  0.3385
12220SOL     OW39679   1.155   5.080   7.750 -0.0155 -0.5171 -0.0849
12220SOL    HW139680   1.214   5.105   7.678 -0.9071 -0.8222 -0.9432
12220SOL    HW239681   1.184   4.992   7.774  1.6288  0.3972  1.3635
12221SOL     OW39682   1.454   2.465   5.776 -0.3894  0.2873 -0.2673
12221SOL    HW139683   1.416   2.472   5.864  0.7046  0.2990  0.2125
12221SOL    HW239684   1.434   2.548   5.734  1.5262  1.4127  0.9689
12222SOL     OW39685   0.770   8.647   5.476 -0.5379 -0.2919  0.6542
12222SOL    HW139686   0.820   8.623   5.398  0.0977 -1.3633  1.3777
12222SOL    HW239687   0.683   8.612   5.460 -1.0064  1.3501 -0.4953
12223SOL     OW39688   1.305   8.030   6.510  0.0217 -0.0481 -0.0716
12223SOL    HW139689   1.212   8.030   6.486  0.3084 -0.1776 -1.2006
12223SOL    HW239690   1.310   8.087   6.586 -1.0640 -0.4207  0.2944
12224SOL     OW39691   7.090   4.651   1.944  0.0529 -0.7927 -0.1648
12224SOL    HW139692   7.011   4.597   1.938 -0.0087 -0.5193 -2.3100
12224SOL    HW239693   7.059   4.740   1.926  0.1207  0.0714  3.5213
12225SOL     OW39694   3.765   7.460   8.404  0.0453  0.5883  0.1947
12225SOL    HW139695   3.800   7.549   8.397  3.6849 -0.9357 -2.2096
12225SOL    HW239696   3.713   7.449   8.324 -0.3809  0.5245  0.4796
12226SOL     OW39697   4.354   4.547   3.782 -0.2782  0.3909  0.0151
12226SOL    HW139698   4.443   4.513   3.770 -0.4652 -0.1422  0.1237
12226SOL    HW239699   4.312   4.484   3.840 -0.8544  0.4317 -0.3538
12227SOL     OW39700   2.671   8.048   2.436 -0.2221 -0.2324 -0.2020
12227SOL    HW139701   2.619   7.997   2.498  0.3878 -0.9513 -0.2832
12227SOL    HW239702   2.619   8.047   2.355  0.0123 -1.1177 -0.3417
12228SOL     OW39703   0.482   9.041   2.095  0.0527  0.5089  0.1514
12228SOL    HW139704   0.480   9.059   2.001  1.1265  1.2110  0.2587
12228SOL    HW239705   0.392   9.058   2.124 -0.0537  1.2189 -0.5776
12229SOL     OW39706   1.301   4.195   8.966 -0.1489 -0.3844  0.0786
12229SOL    HW139707   1.298   4.173   9.059  0.9354 -1.2312 -0.0713
12229SOL    HW239708   1.256   4.279   8.960 -1.6174 -1.0814  1.1257
12230SOL     OW39709   5.961   0.035   2.942 -0.1260 -0.6071 -0.1433
12230SOL    HW139710   5.975   0.019   3.036 -0.8198 -0.7104 -0.0552
12230SOL    HW239711   6.003  -0.040   2.899 -0.0146 -0.6828  0.0938
12231SOL     OW39712   0.815   0.342   7.277  0.8796  0.1802  0.0251
12231SOL    HW139713   0.815   0.290   7.196  0.7782 -0.1288  0.2220
12231SOL    HW239714   0.726   0.334   7.311  0.8131  0.6364 -0.0380
12232SOL     OW39715   0.474   5.260   4.697 -0.0776  0.2535  0.1632
12232SOL    HW139716   0.480   5.188   4.634 -0.2016  2.1074 -2.0500
12232SOL    HW239717   0.400   5.312   4.666  1.5418  2.6708  0.2830
12233SOL     OW39718   6.352   6.977   4.339  0.0166 -0.4765  0.2695
12233SOL    HW139719   6.328   7.048   4.399  0.5524 -1.4696  1.6790
12233SOL    HW239720   6.303   6.901   4.370 -0.0781 -0.8836 -0.8568
12234SOL     OW39721   4.770   2.863   1.268  0.1248  0.5766 -0.0563
12234SOL    HW139722   4.743   2.775   1.242  1.7916 -0.4251  1.5152
12234SOL    HW239723   4.708   2.889   1.335 -0.0703  0.3945 -0.1670
12235SOL     OW39724   2.403   2.197   2.350 -0.3236  0.3374 -0.2403
12235SOL    HW139725   2.462   2.246   2.406 -0.1803 -0.9328  0.7571
12235SOL    HW239726   2.332   2.258   2.330 -2.0165 -0.0661  3.9381
12236SOL     OW39727   0.020   6.582   4.549 -0.1717  0.1935  0.1177
12236SOL    HW139728  -0.052   6.583   4.485  0.6026  0.2553 -0.7731
12236SOL    HW239729   0.065   6.499   4.533 -0.4142 -0.1317  1.0978
12237SOL     OW39730   1.880   5.338   0.935 -0.1267 -0.1342 -0.1292
12237SOL    HW139731   1.943   5.406   0.960 -1.0902  0.2579  1.3147
12237SOL    HW239732   1.821   5.332   1.010 -0.6897 -1.8236 -0.6912
12238SOL     OW39733   7.736   3.805   2.217  0.2333 -0.3082  0.3179
12238SOL    HW139734   7.677   3.732   2.197 -1.1378  0.9413 -0.2623
12238SOL    HW239735   7.678   3.880   2.229  1.6632  0.7769  0.5290
12239SOL     OW39736   4.897   2.962   7.838 -0.0591  0.1915  0.0068
12239SOL    HW139737   4.894   3.029   7.770  1.4013  0.2787  0.0103
12239SOL    HW239738   4.852   2.886   7.800  0.7787  0.2247 -1.0799
12240SOL     OW39739   4.661   4.134   5.147 -0.4154 -0.0996  0.6965
12240SOL    HW139740   4.657   4.170   5.058  1.4086 -3.7461 -0.9454
12240SOL    HW239741   4.738   4.176   5.186 -0.2944  0.3269  0.0158
12241SOL     OW39742   1.910   2.085   1.657 -0.3176 -0.4009 -0.3120
12241SOL    HW139743   1.929   2.084   1.750  0.7028 -0.3617 -0.5120
12241SOL    HW239744   1.852   2.160   1.644 -1.9426 -1.4898  0.5638
12242SOL     OW39745   0.244   1.395   8.524 -0.1609 -0.1080  0.1713
12242SOL    HW139746   0.154   1.378   8.499 -0.3024 -1.1613  1.3548
12242SOL    HW239747   0.290   1.312   8.511  0.3562  0.0752  0.7675
12243SOL     OW39748   3.502   3.519   3.069  0.0383  0.4002  0.1985
12243SOL    HW139749   3.435   3.478   3.125 -2.4906  1.0870 -2.2348
12243SOL    HW239750   3.565   3.448   3.052 -0.5128 -0.5014  1.7820
12244SOL     OW39751   0.865   2.902   0.267 -0.0770 -0.1033  0.0624
12244SOL    HW139752   0.897   2.993   0.263 -1.5566  0.4039 -0.6452
12244SOL    HW239753   0.869   2.871   0.177 -1.1865 -0.1664  0.0305
12245SOL     OW39754   0.280   4.356   3.504  0.1803 -0.3179 -0.6632
12245SOL    HW139755   0.358   4.402   3.474  0.1171  0.0083 -0.3340
12245SOL    HW239756   0.301   4.331   3.595 -0.1172 -0.1801 -0.5564
12246SOL     OW39757   0.977   5.161   5.760 -0.4238 -0.5279 -0.0879
12246SOL    HW139758   0.990   5.233   5.821 -0.4420  0.2162 -0.9451
12246SOL    HW239759   0.913   5.104   5.802 -0.2624 -0.1413  0.6796
12247SOL     OW39760   4.780   3.091   2.767 -0.4533 -0.2679 -0.1616
12247SOL    HW139761   4.716   3.160   2.752  1.2787  1.0426 -1.6509
12247SOL    HW239762   4.775   3.036   2.688  0.4545  0.0037 -0.4097
12248SOL     OW39763   5.295   9.061   5.149 -0.6569 -0.0281 -0.1991
12248SOL    HW139764   5.277   9.123   5.219 -0.4189  1.3778 -1.3742
12248SOL    HW239765   5.383   9.028   5.168 -0.5095  0.4994  0.0285
12249SOL     OW39766   6.301   8.508   6.442  0.0186 -0.5333  0.2498
12249SOL    HW139767   6.259   8.538   6.362 -2.0587 -0.4463  1.3348
12249SOL    HW239768   6.326   8.588   6.487  0.0886 -0.5565  0.2521
12250SOL     OW39769   7.648   5.148   8.994 -0.8927 -0.2010  0.4767
12250SOL    HW139770   7.666   5.227   8.944 -1.3867 -0.6945 -0.4906
12250SOL    HW239771   7.707   5.082   8.959  0.1792 -0.0430  1.9104
12251SOL     OW39772   4.763   1.579   4.671  0.7227  0.1558 -0.1770
12251SOL    HW139773   4.779   1.517   4.742  0.0068  1.0359  0.7639
12251SOL    HW239774   4.681   1.623   4.695  1.4989  1.8593 -0.5356
12252SOL     OW39775   0.743   1.155   6.008  0.1464  0.3542  0.2131
12252SOL    HW139776   0.692   1.216   6.062  0.4417  0.2092  0.6517
12252SOL    HW239777   0.681   1.125   5.941  0.0911  1.4008 -0.2142
12253SOL     OW39778   2.687   3.178   3.602  0.2574 -0.0419 -0.2833
12253SOL    HW139779   2.652   3.236   3.534  2.6608  0.5346 -1.0867
12253SOL    HW239780   2.744   3.235   3.655  1.1909 -1.2458  0.0364
12254SOL     OW39781   6.534   9.247   6.094  0.0006 -0.3193 -0.2485
12254SOL    HW139782   6.471   9.245   6.022  0.2316  0.5350 -0.4815
12254SOL    HW239783   6.481   9.265   6.172 -0.2746 -1.4343 -0.1747
12255SOL     OW39784   3.835   1.790   4.034  0.1253 -0.5437  0.5684
12255SOL    HW139785   3.771   1.786   4.104  0.8175  0.6442  1.2956
12255SOL    HW239786   3.840   1.701   3.999 -1.8137 -0.6596  0.5810
12256SOL     OW39787   4.372   8.816   9.374  0.4415 -0.1973 -0.3039
12256SOL    HW139788   4.444   8.849   9.321  0.0982 -2.1982 -2.0604
12256SOL    HW239789   4.413   8.795   9.458  1.4286  0.8609 -0.4982
12257SOL     OW39790   4.445   2.161   3.355  0.2795 -0.2041 -0.2659
12257SOL    HW139791   4.419   2.174   3.264 -0.0307 -0.0222 -0.1534
12257SOL    HW239792   4.365   2.130   3.398 -0.1790  1.8309  0.4165
12258SOL     OW39793   0.373   0.002   9.395 -0.1560 -0.2604  0.4015
12258SOL    HW139794   0.316  -0.019   9.468  0.0310 -0.1645  0.5762
12258SOL    HW239795   0.375  -0.077   9.342  0.4380 -0.6385  0.9880
12259SOL     OW39796   9.376   3.279   0.124  0.0327 -0.1972  0.6967
12259SOL    HW139797   9.378   3.361   0.174 -0.4572 -1.0330  2.1028
12259SOL    HW239798   9.465   3.271   0.088  0.1689  0.8003  0.7902
12260SOL     OW39799   5.993   1.794   7.374 -0.5185  0.1369  0.0869
12260SOL    HW139800   5.998   1.699   7.368 -0.7242  0.1987 -1.0994
12260SOL    HW239801   6.014   1.825   7.286  1.2614  1.2618  0.8685
12261SOL     OW39802   2.270   3.104   5.812 -0.2033  0.5334 -0.3291
12261SOL    HW139803   2.174   3.102   5.813 -0.1741 -2.2696  0.1414
12261SOL    HW239804   2.294   3.119   5.904 -0.1709 -0.8690 -0.1074
12262SOL     OW39805   4.551   2.727   8.480  0.1688 -0.4712 -0.0450
12262SOL    HW139806   4.630   2.778   8.502  0.1880 -0.4757 -0.1037
12262SOL    HW239807   4.488   2.793   8.450 -0.1628 -0.3630  0.8706
12263SOL     OW39808   8.339   2.340   2.994  0.0449 -0.3337 -0.3251
12263SOL    HW139809   8.246   2.344   2.971  0.6087 -3.1538 -3.4330
12263SOL    HW239810   8.349   2.258   3.042  0.9617 -0.0427 -0.0079
12264SOL     OW39811   4.212   2.209   2.828 -0.0093  0.0606 -0.4293
12264SOL    HW139812   4.142   2.188   2.767 -2.5535 -0.1190  2.4801
12264SOL    HW239813   4.204   2.303   2.843  0.9875  0.2136 -0.7701
12265SOL     OW39814   8.880   6.556   6.800  0.0046  0.0139  0.2595
12265SOL    HW139815   8.973   6.554   6.820  0.6838  0.8937 -2.5689
12265SOL    HW239816   8.876   6.573   6.706 -3.0005 -0.8183  0.1819
12266SOL     OW39817   4.662   3.392   4.456  0.0606  0.3435 -0.1377
12266SOL    HW139818   4.750   3.427   4.449  0.3103 -0.5938 -2.2681
12266SOL    HW239819   4.613   3.436   4.387 -0.9473  0.3111  0.5438
12267SOL     OW39820   6.805   3.732   0.614 -0.2247  0.0164  0.3816
12267SOL    HW139821   6.809   3.745   0.709  0.1645 -0.6635  0.4650
12267SOL    HW239822   6.714   3.750   0.591 -0.7237 -1.4558  1.1484
12268SOL     OW39823   3.560   3.225   7.404 -0.0872  0.1216 -0.0362
12268SOL    HW139824   3.604   3.271   7.333  0.2171  0.3845  0.3191
12268SOL    HW239825   3.467   3.230   7.383  0.0356 -0.2089 -0.6591
12269SOL     OW39826   8.540   5.120   2.410 -0.9186 -0.2471  0.1561
12269SOL    HW139827   8.466   5.180   2.404 -0.5371  0.2248  0.1494
12269SOL    HW239828   8.575   5.116   2.321 -1.6986 -1.4569 -0.1217
12270SOL     OW39829   2.375   5.634   6.088 -1.1691 -0.7620 -0.2285
12270SOL    HW139830   2.430   5.572   6.040 -0.8952  0.0384 -0.9471
12270SOL    HW239831   2.338   5.691   6.021 -1.5964 -0.2741  0.4107
12271SOL     OW39832   6.571   1.282   8.094  0.1423 -0.2368 -0.4788
12271SOL    HW139833   6.631   1.212   8.118  1.4160  0.8330 -0.4958
12271SOL    HW239834   6.548   1.323   8.178 -2.3591 -2.0342 -0.2176
12272SOL     OW39835   1.275   8.047   9.211  0.3690 -0.0900  0.7074
12272SOL    HW139836   1.213   8.089   9.270 -0.9267 -0.4808 -0.3674
12272SOL    HW239837   1.274   7.955   9.237  1.3841  0.1052  1.4585
12273SOL     OW39838   8.705   0.598   3.417 -0.1083  0.0550 -0.1771
12273SOL    HW139839   8.768   0.661   3.452  0.1238 -0.8856  1.1516
12273SOL    HW239840   8.728   0.516   3.460 -0.7255 -0.8230 -1.5124
12274SOL     OW39841   1.839   5.218   4.271  0.2097  0.2699 -0.1045
12274SOL    HW139842   1.806   5.246   4.356  0.0834  1.0562 -0.4109
12274SOL    HW239843   1.773   5.247   4.208  0.3549 -0.2113 -0.4829
12275SOL     OW39844   2.144   2.381   4.097  0.0659  0.3109  0.2851
12275SOL    HW139845   2.065   2.420   4.134  0.5264  0.1819  1.4120
12275SOL    HW239846   2.116   2.343   4.014 -1.0050  0.4646  0.5773
12276SOL     OW39847   3.146   6.125   2.720 -0.1043  0.0686 -0.1732
12276SOL    HW139848   3.118   6.178   2.794  0.4987 -1.3504  1.1095
12276SOL    HW239849   3.213   6.177   2.676 -1.8237  1.7295 -0.8543
12277SOL     OW39850   5.697   1.957   1.617  0.0634  0.5015 -0.6130
12277SOL    HW139851   5.647   1.879   1.591 -1.8740  1.5017 -0.0144
12277SOL    HW239852   5.680   1.966   1.711  2.9678 -0.2207  0.0292
12278SOL     OW39853   2.635   1.333   4.946 -0.1579 -0.2270 -0.3570
12278SOL    HW139854   2.673   1.398   5.005  3.1854 -0.6002 -1.9729
12278SOL    HW239855   2.682   1.252   4.966  0.9388 -0.3840 -3.3740
12279SOL     OW39856   7.085   0.225   1.787 -0.2819 -0.0944 -0.7327
12279SOL    HW139857   7.117   0.271   1.709  1.5591  0.5916  0.4146
12279SOL    HW239858   7.163   0.182   1.823 -0.6519  1.5184  2.0579
12280SOL     OW39859   5.012   5.532   0.469 -0.2446 -0.0799  0.1049
12280SOL    HW139860   4.973   5.610   0.510  0.0006  0.2797 -0.3430
12280SOL    HW239861   5.044   5.480   0.542 -0.2990  0.2992  0.4006
12281SOL     OW39862   1.405   4.510   1.034  0.3527 -0.4296 -0.7799
12281SOL    HW139863   1.338   4.553   0.981 -0.5336  0.7364  1.2046
12281SOL    HW239864   1.356   4.463   1.102  1.4926  0.4356  0.6948
12282SOL     OW39865   6.843   5.674   3.589  0.0228 -0.0821 -0.3548
12282SOL    HW139866   6.754   5.639   3.586 -0.2515  0.6742 -1.3936
12282SOL    HW239867   6.831   5.769   3.596  0.7479 -0.0584  0.5445
12283SOL     OW39868   6.682   1.290   4.636  0.2962 -0.0556 -0.2160
12283SOL    HW139869   6.746   1.361   4.649  0.8495 -0.7633  1.0174
12283SOL    HW239870   6.718   1.216   4.685 -0.1270 -1.3004 -1.7221
12284SOL     OW39871   7.228   2.949   5.923 -0.7269 -0.5513 -0.2861
12284SOL    HW139872   7.287   2.995   5.983  0.2318  0.1132 -1.6981
12284SOL    HW239873   7.188   2.880   5.976 -1.6766  1.4666  1.6987
12285SOL     OW39874   8.814   4.661   0.195  0.5216 -0.4099 -0.4533
12285SOL    HW139875   8.867   4.663   0.116  0.3065  0.6454 -0.5873
12285SOL    HW239876   8.749   4.593   0.179  0.6311 -0.3659 -1.0974
12286SOL     OW39877   8.082   3.357   6.672 -0.3182  0.5379  0.3150
12286SOL    HW139878   8.020   3.307   6.620 -0.5115  0.9729  0.1172
12286SOL    HW239879   8.083   3.314   6.757  1.4753 -1.3791 -0.6285
12287SOL     OW39880   6.911   6.699   1.336  0.1159  0.6292 -0.6405
12287SOL    HW139881   6.897   6.701   1.430 -0.8225 -0.0775 -0.7653
12287SOL    HW239882   6.976   6.768   1.320  1.3430 -0.1871  0.6972
12288SOL     OW39883   1.004   0.166   3.676  0.3011  0.0919  0.4070
12288SOL    HW139884   0.966   0.204   3.755  0.7524  0.5291  0.4153
12288SOL    HW239885   0.955   0.085   3.662 -1.2774  1.1240 -0.1374
12289SOL     OW39886   7.519   5.150   4.257  0.0385  1.0913  0.0255
12289SOL    HW139887   7.489   5.175   4.345  0.5181 -1.7038  1.0606
12289SOL    HW239888   7.449   5.094   4.223  1.2877 -0.4984 -0.0044
12290SOL     OW39889   7.930   7.718   1.413  0.0128 -0.0995  0.5371
12290SOL    HW139890   7.946   7.634   1.455  1.2521  0.3221  0.9372
12290SOL    HW239891   7.842   7.743   1.442 -0.5157 -1.4229  0.1038
12291SOL     OW39892   3.456   5.600   2.609  0.4996  0.3552  0.2869
12291SOL    HW139893   3.458   5.694   2.623  0.3941  0.2847  0.7759
12291SOL    HW239894   3.432   5.563   2.694 -2.7342  0.0714 -0.6786
12292SOL     OW39895   7.218   3.844   6.574 -0.0173  0.2875  0.0237
12292SOL    HW139896   7.126   3.854   6.598  0.0036  3.3094 -0.9022
12292SOL    HW239897   7.260   3.925   6.603  1.8611  0.0178 -1.7567
12293SOL     OW39898   5.550   1.734   1.523  0.0831 -0.5854 -0.2753
12293SOL    HW139899   5.488   1.695   1.585  0.4390 -2.6433 -1.1862
12293SOL    HW239900   5.498   1.752   1.445  0.2033 -0.4880 -0.3315
12294SOL     OW39901   1.222   4.785   4.363  0.0240  0.5150  0.3028
12294SOL    HW139902   1.208   4.861   4.306  0.5867 -0.4204 -1.1226
12294SOL    HW239903   1.136   4.767   4.401 -1.0831 -0.6591 -2.5953
12295SOL     OW39904   2.678   7.160   2.807 -0.1888 -0.4376 -0.6519
12295SOL    HW139905   2.685   7.255   2.812 -0.6657 -0.4946  2.2158
12295SOL    HW239906   2.607   7.144   2.745  0.4318  1.0343 -1.7725
12296SOL     OW39907   8.826   1.167   0.475 -0.0036  0.0473 -0.0943
12296SOL    HW139908   8.813   1.080   0.512  3.0428 -1.2750 -1.8691
12296SOL    HW239909   8.887   1.210   0.535  2.1663 -0.8265 -1.5692
12297SOL     OW39910   7.088   2.900   0.766 -0.0030 -0.2450  0.6211
12297SOL    HW139911   7.169   2.947   0.788  1.2783 -1.2142 -1.7903
12297SOL    HW239912   7.019   2.966   0.775  1.2725  1.0835  0.9453
12298SOL     OW39913   1.276   2.084   0.345  0.0629 -0.0676  0.6486
12298SOL    HW139914   1.311   2.135   0.272 -0.4896 -0.7547 -0.0985
12298SOL    HW239915   1.323   2.118   0.422 -2.0104  3.2776  0.5723
12299SOL     OW39916   0.776   5.788   8.433 -0.1378 -0.0115  0.1305
12299SOL    HW139917   0.707   5.824   8.488  2.4017  1.9387  2.1836
12299SOL    HW239918   0.828   5.864   8.407  0.9216 -1.3690 -1.8610
12300SOL     OW39919   8.454   0.832   0.933  0.0809  0.8145  0.3743
12300SOL    HW139920   8.548   0.845   0.921  0.1073 -0.2122 -0.7012
12300SOL    HW239921   8.434   0.874   1.016  1.4118  1.4338  0.3906
12301SOL     OW39922   4.762   8.781   8.530 -0.1253  0.0672 -0.6197
12301SOL    HW139923   4.680   8.830   8.539  0.4889  1.0397 -0.2776
12301SOL    HW239924   4.809   8.796   8.612  0.4427 -0.3861 -0.8572
12302SOL     OW39925   7.943   1.019   7.713  0.0698 -0.3663 -0.2907
12302SOL    HW139926   7.957   0.937   7.760  0.3019  0.5363  1.2416
12302SOL    HW239927   7.864   1.003   7.661 -0.0228 -1.4800  0.1725
12303SOL     OW39928   3.120   4.543   5.697 -0.1834 -0.0659 -0.6072
12303SOL    HW139929   3.132   4.462   5.745  0.4358 -0.5327 -1.5255
12303SOL    HW239930   3.168   4.530   5.615  2.1063  2.1838  0.3041
12304SOL     OW39931   7.410   7.313   3.100  0.2034  0.3621  0.2393
12304SOL    HW139932   7.479   7.374   3.126  0.6682 -0.3832  0.7669
12304SOL    HW239933   7.382   7.343   3.014  1.8298  0.0989 -0.3852
12305SOL     OW39934   1.485   7.590   4.818 -0.4021 -0.4624  0.2498
12305SOL    HW139935   1.450   7.676   4.796 -2.3224 -1.4357 -0.6986
12305SOL    HW239936   1.485   7.588   4.914 -2.7278 -0.2786  0.3013
12306SOL     OW39937   1.624   3.325   0.951  0.3398 -0.3199  0.4344
12306SOL    HW139938   1.581   3.399   0.994  1.5429  0.8014 -0.2589
12306SOL    HW239939   1.584   3.321   0.864 -1.8195 -2.3495  1.4461
12307SOL     OW39940   7.472   1.054   0.299  0.8627 -0.3864  0.3802
12307SOL    HW139941   7.429   0.989   0.354 -0.0190  0.3397  0.5541
12307SOL    HW239942   7.414   1.131   0.302  2.2621  0.6713  0.7839
12308SOL     OW39943   7.135   5.568   3.302  0.1253  0.6745 -0.1859
12308SOL    HW139944   7.180   5.498   3.348 -1.4516 -0.4562 -0.3296
12308SOL    HW239945   7.059   5.525   3.261 -1.3763  2.6270  0.4956
12309SOL     OW39946   0.584   8.260   2.919  0.3013 -0.0123  0.1476
12309SOL    HW139947   0.559   8.277   2.828 -2.3285  2.0191  1.1839
12309SOL    HW239948   0.514   8.205   2.953 -0.6211  2.1905  1.9151
12310SOL     OW39949   6.821   8.971   4.719  0.1085 -0.2863  0.5957
12310SOL    HW139950   6.739   8.954   4.672 -0.2489  0.0017  1.1121
12310SOL    HW239951   6.884   8.989   4.649 -0.7120  1.3765  0.2472
12311SOL     OW39952   0.146   1.686   4.785 -0.4336 -0.2448 -0.1966
12311SOL    HW139953   0.081   1.695   4.855 -0.9007 -0.5778 -0.5810
12311SOL    HW239954   0.119   1.749   4.718  1.3626  1.7807  0.9191
12312SOL     OW39955   1.983   4.279   8.160 -0.1439 -0.0797  0.2430
12312SOL    HW139956   1.929   4.333   8.103 -0.5225 -0.4895  0.2067
12312SOL    HW239957   1.963   4.189   8.134  0.2967 -0.2456  0.4651
12313SOL     OW39958   0.052   1.057   0.300 -0.5830 -0.1706 -0.2207
12313SOL    HW139959   0.004   1.077   0.380  0.2784  0.1032  0.2434
12313SOL    HW239960  -0.015   1.034   0.236 -1.4983  2.6348 -0.3139
12314SOL     OW39961   5.900   4.473   2.091  0.0189  1.1155  0.1205
12314SOL    HW139962   5.954   4.397   2.108  1.6790  2.0851 -0.6875
12314SOL    HW239963   5.884   4.470   1.996  1.4000  2.6161 -0.1685
12315SOL     OW39964   2.802   0.799   9.290 -0.6062 -0.7646  0.1526
12315SOL    HW139965   2.800   0.750   9.372 -0.6556 -0.0591  0.5842
12315SOL    HW239966   2.890   0.837   9.286 -0.6644 -0.6427 -0.0246
12316SOL     OW39967   7.993   0.968   1.787 -0.0931  0.1023  0.0965
12316SOL    HW139968   8.062   0.912   1.824  0.4236  0.4917 -0.2720
12316SOL    HW239969   8.041   1.040   1.746 -0.4435 -2.0385 -4.3398
12317SOL     OW39970   0.999   5.165   8.199 -0.5216 -0.1904  0.0966
12317SOL    HW139971   1.022   5.185   8.290 -0.4932  4.2311 -0.7848
12317SOL    HW239972   0.906   5.146   8.202 -0.8739  1.5467  0.8602
12318SOL     OW39973   1.295   7.281   4.334 -0.6079  0.2170 -0.5641
12318SOL    HW139974   1.337   7.307   4.417 -0.9292 -1.8051  0.2571
12318SOL    HW239975   1.362   7.299   4.268  0.3422  0.1273  0.3455
12319SOL     OW39976   7.890   0.158   1.897  0.3029  0.5489  0.5138
12319SOL    HW139977   7.873   0.250   1.877 -2.7355 -0.0568  0.0679
12319SOL    HW239978   7.931   0.122   1.818  1.2786  1.4336  0.6076
12320SOL     OW39979   2.017   0.418   8.972 -0.3046  0.5176 -0.1227
12320SOL    HW139980   2.042   0.444   9.061 -2.6710 -1.3867  1.1809
12320SOL    HW239981   2.095   0.376   8.937  0.6200  1.1402  1.1307
12321SOL     OW39982   6.801   6.050   1.131  0.0470 -0.5712 -0.1142
12321SOL    HW139983   6.806   6.034   1.037  1.6131  1.9840 -0.5242
12321SOL    HW239984   6.861   5.986   1.169  1.8797  0.4723 -1.1757
12322SOL     OW39985   0.981   3.723   2.997  0.1853  0.4502 -0.3714
12322SOL    HW139986   1.013   3.668   2.926  0.3089 -0.2519  0.2359
12322SOL    HW239987   1.016   3.810   2.977  1.5633 -0.0752 -0.2937
12323SOL     OW39988   5.768   5.046   1.153  0.4519 -0.0502  0.1809
12323SOL    HW139989   5.731   4.958   1.163  0.1977  0.1539  1.0867
12323SOL    HW239990   5.758   5.066   1.060 -1.8778  0.0537  0.4063
12324SOL     OW39991   1.811   2.847   7.029 -0.1171  0.5154 -0.5094
12324SOL    HW139992   1.805   2.928   7.080 -1.1611 -0.2843  0.6806
12324SOL    HW239993   1.855   2.872   6.948  0.3429  2.0941  0.2151
12325SOL     OW39994   8.305   2.706   5.089  0.4011 -0.3525 -0.3855
12325SOL    HW139995   8.352   2.789   5.082 -0.1804  0.0934  0.8505
12325SOL    HW239996   8.264   2.694   5.004 -1.2244  1.6788  0.0745
12326SOL     OW39997   5.211   3.086   8.119 -0.5241 -0.1221  0.6275
12326SOL    HW139998   5.188   2.994   8.115  1.7969 -0.8669  3.3539
12326SOL    HW239999   5.252   3.104   8.034  0.1147 -1.8871  0.5596
12327SOL     OW40000   3.866   3.069   6.521 -0.2324 -0.1133  0.3643
12327SOL    HW140001   3.774   3.088   6.505  0.2767  1.3588 -0.8486
12327SOL    HW240002   3.898   3.033   6.439 -0.0475 -1.9433  1.2110
12328SOL     OW40003   0.623   1.681   1.763 -0.7217 -0.5691 -0.6529
12328SOL    HW140004   0.536   1.720   1.757 -0.7293 -0.6628 -1.1263
12328SOL    HW240005   0.666   1.703   1.680 -0.9156 -2.0273 -1.1634
12329SOL     OW40006   0.872   5.434   9.063 -0.1003  0.1335 -0.3644
12329SOL    HW140007   0.793   5.390   9.095 -0.4542 -0.7923 -2.4523
12329SOL    HW240008   0.936   5.424   9.134 -0.8025 -2.0503 -0.0091
12330SOL     OW40009   1.036   9.389   3.952  0.3369 -0.4790 -0.2013
12330SOL    HW140010   1.053   9.482   3.942 -1.8957  0.1478  1.5316
12330SOL    HW240011   0.944   9.383   3.976  0.3205 -3.1687 -0.7041
12331SOL     OW40012   6.894   3.705   0.873 -0.2116 -0.4057  0.2479
12331SOL    HW140013   6.897   3.780   0.933 -4.5173  0.5318 -0.5110
12331SOL    HW240014   6.848   3.637   0.922  2.2472 -2.0287  0.3552
12332SOL     OW40015   6.038   0.119   6.427  0.1679 -0.6802 -0.0835
12332SOL    HW140016   5.951   0.080   6.433 -0.3130  0.2767 -0.7995
12332SOL    HW240017   6.090   0.072   6.492 -0.1311 -3.1871 -1.6041
12333SOL     OW40018   5.682   9.090   2.891 -0.1662 -0.1446  0.2770
12333SOL    HW140019   5.619   9.074   2.821 -0.3845 -1.9414  0.8438
12333SOL    HW240020   5.675   9.013   2.947  3.7745 -1.2628 -0.5754
12334SOL     OW40021   4.384   2.475   1.977 -0.0175  0.5067 -0.2523
12334SOL    HW140022   4.356   2.518   1.896 -1.5130  0.1267  0.0612
12334SOL    HW240023   4.444   2.538   2.017 -0.5659  1.4129 -0.8247
12335SOL     OW40024   7.343   8.199   6.987  0.1973 -0.1456  0.3611
12335SOL    HW140025   7.255   8.193   7.024  0.5143  2.0313  1.5722
12335SOL    HW240026   7.399   8.219   7.062  1.9480 -2.7923 -0.1806
12336SOL     OW40027   7.485   4.752   3.066  0.2557 -0.2573  0.0944
12336SOL    HW140028   7.504   4.823   3.005 -1.0064 -0.2580 -0.3076
12336SOL    HW240029   7.569   4.708   3.078  1.1567  1.5909  0.7397
12337SOL     OW40030   6.814   1.707   2.486 -0.5156  0.0647  0.2460
12337SOL    HW140031   6.892   1.683   2.536  0.0227 -0.3772 -0.7928
12337SOL    HW240032   6.847   1.727   2.399 -1.4600  0.7414  0.0393
12338SOL     OW40033   0.755   0.248   2.544  0.6291  0.1925  0.1735
12338SOL    HW140034   0.729   0.167   2.587  1.8834 -0.6937 -0.6896
12338SOL    HW240035   0.787   0.304   2.615  1.1801 -0.6481  0.5923
12339SOL     OW40036   1.908   0.498   2.326 -0.1599 -0.1039  0.5525
12339SOL    HW140037   1.888   0.505   2.419 -2.0995 -2.4377  0.3500
12339SOL    HW240038   1.824   0.510   2.282  0.5839  0.0713 -0.8362
12340SOL     OW40039   4.118   3.853   6.423  0.2551 -0.5672  0.3473
12340SOL    HW140040   4.189   3.854   6.488 -0.1473  0.7272  0.7853
12340SOL    HW240041   4.073   3.770   6.438 -0.2694  0.0182  2.2323
12341SOL     OW40042   7.438   2.307   0.719 -0.0670  0.6683  0.2076
12341SOL    HW140043   7.393   2.292   0.636  0.1151  0.8466  0.0766
12341SOL    HW240044   7.426   2.225   0.767 -0.7296  0.8010  0.2695
12342SOL     OW40045   8.900   3.715   3.038 -0.9327  0.2899 -0.3375
12342SOL    HW140046   8.831   3.654   3.012 -0.5036 -0.7105  0.8051
12342SOL    HW240047   8.966   3.708   2.969  1.2342 -4.0037  1.9068
12343SOL     OW40048   8.718   2.471   5.210  0.7776 -0.5789 -0.0264
12343SOL    HW140049   8.760   2.454   5.126 -0.2093  1.8945 -1.0684
12343SOL    HW240050   8.785   2.517   5.262  0.9993 -1.0795  0.1343
12344SOL     OW40051   0.108   5.138   6.319  0.2993 -0.4961 -0.1846
12344SOL    HW140052   0.179   5.104   6.265  2.7485  5.0362 -0.8119
12344SOL    HW240053   0.037   5.156   6.258  0.3605 -1.0109 -0.4100
12345SOL     OW40054   3.651   7.664   4.855 -0.0167 -0.2087  0.2044
12345SOL    HW140055   3.605   7.658   4.938 -1.8145  1.0682 -0.6609
12345SOL    HW240056   3.692   7.751   4.856  2.0374 -1.1368  0.7554
12346SOL     OW40057   8.922   7.328   3.351 -0.5162  0.0122  0.4745
12346SOL    HW140058   8.893   7.416   3.376 -1.7537 -0.1861 -0.2660
12346SOL    HW240059   8.913   7.276   3.431 -0.0833  0.4667  0.8279
12347SOL     OW40060   1.321   7.456   5.110 -0.0508  0.3888  0.3746
12347SOL    HW140061   1.337   7.545   5.079  1.9014  0.2064  0.7841
12347SOL    HW240062   1.395   7.438   5.168 -0.9142 -1.1759  1.0091
12348SOL     OW40063   7.601   0.757   2.794  0.5682  0.4518  0.2640
12348SOL    HW140064   7.642   0.673   2.814  2.2259  1.4427  1.1604
12348SOL    HW240065   7.668   0.822   2.817 -0.5207  1.9922 -0.8308
12349SOL     OW40066   4.455   2.829   5.292  0.7291  0.5069 -0.1351
12349SOL    HW140067   4.506   2.754   5.322 -2.6010 -2.0697 -0.6214
12349SOL    HW240068   4.457   2.824   5.197 -0.0602  0.6359 -0.1651
12350SOL     OW40069   8.456   8.641   6.921  0.2477 -0.1010 -0.0921
12350SOL    HW140070   8.454   8.584   6.998  1.5445  1.3469  1.0294
12350SOL    HW240071   8.413   8.590   6.852  0.6672 -2.1023  1.1072
12351SOL     OW40072   8.678   1.335   2.014  0.2388  0.4348 -0.1334
12351SOL    HW140073   8.734   1.394   1.964 -2.7042  3.8844  0.4195
12351SOL    HW240074   8.627   1.288   1.948  0.6016  0.5702 -0.5092
12352SOL     OW40075   4.455   5.223   4.260  0.5934 -0.3895 -0.1701
12352SOL    HW140076   4.512   5.263   4.326  1.4400 -2.5242  0.4394
12352SOL    HW240077   4.512   5.207   4.185  0.1545 -0.0738 -0.5782
12353SOL     OW40078   2.266   4.646   7.598  0.1793 -0.3375  0.1808
12353SOL    HW140079   2.343   4.646   7.654  0.6487  1.4771 -0.4164
12353SOL    HW240080   2.195   4.677   7.654  0.6668  1.5632 -0.2172
12354SOL     OW40081   1.882   0.141   9.314  0.0146 -0.0684  0.1122
12354SOL    HW140082   1.853   0.137   9.223 -1.3827  0.0417  0.5291
12354SOL    HW240083   1.902   0.233   9.329  0.3262 -0.0999 -0.1034
12355SOL     OW40084   6.065   8.041   4.683  0.5923  0.1785  0.5044
12355SOL    HW140085   5.987   8.075   4.640  0.5056 -0.0970  0.4390
12355SOL    HW240086   6.082   7.958   4.638  0.3796 -0.2151  1.1406
12356SOL     OW40087   7.181   9.363   9.045  0.0317 -0.2800 -0.1624
12356SOL    HW140088   7.086   9.372   9.053  0.0110  0.1083 -0.7730
12356SOL    HW240089   7.200   9.277   9.083 -0.5592 -0.3491 -0.0129
12357SOL     OW40090   0.442   8.045   7.021  0.3429 -0.2388 -0.1881
12357SOL    HW140091   0.377   7.981   7.048  1.7040 -1.3373  0.5648
12357SOL    HW240092   0.496   8.059   7.100  1.0580  0.5948 -0.8154
12358SOL     OW40093   7.113   3.589   1.524 -0.0046  0.2495  0.3167
12358SOL    HW140094   7.144   3.546   1.604 -1.4162  0.3364  0.9153
12358SOL    HW240095   7.142   3.531   1.453  0.3092 -0.3802  0.9527
12359SOL     OW40096   4.945   6.060   3.155  0.5806  0.0519  0.0973
12359SOL    HW140097   4.856   6.060   3.120  0.7930  0.7484 -0.4731
12359SOL    HW240098   4.968   5.968   3.164 -0.7189 -0.1463  1.6159
12360SOL     OW40099   9.061   7.763   6.608  0.3114 -0.7526  0.3258
12360SOL    HW140100   9.118   7.840   6.606 -0.4978 -0.0686  2.1116
12360SOL    HW240101   9.119   7.691   6.631  0.7988 -0.3940  0.2242
12361SOL     OW40102   1.398   0.121   2.500  0.0826 -0.2996  0.0623
12361SOL    HW140103   1.482   0.148   2.462  0.4926 -0.4340  0.8422
12361SOL    HW240104   1.333   0.174   2.454  0.5105 -0.8148 -1.1606
12362SOL     OW40105   2.054   7.852   1.150 -0.1911  0.1080 -0.0238
12362SOL    HW140106   1.992   7.788   1.115 -0.0648  0.3161 -0.6309
12362SOL    HW240107   2.004   7.932   1.160  0.2229  0.5781 -1.5271
12363SOL     OW40108   7.582   9.353   1.758 -0.3568  0.2367 -0.5646
12363SOL    HW140109   7.593   9.398   1.842 -2.0187 -0.5054  0.0677
12363SOL    HW240110   7.559   9.423   1.696 -0.9229  0.5382 -0.0164
12364SOL     OW40111   0.146   4.907   5.720  0.0577  0.6933 -0.4925
12364SOL    HW140112   0.109   4.939   5.638  0.0578  0.6351 -0.5148
12364SOL    HW240113   0.137   4.981   5.781  1.2583  1.1995 -0.9151
12365SOL     OW40114   3.509   3.031   2.560  0.1946 -0.5449  0.2194
12365SOL    HW140115   3.542   3.113   2.597  0.5949  0.3530 -2.0059
12365SOL    HW240116   3.417   3.050   2.541  0.1121 -0.8430  0.3278
12366SOL     OW40117   3.224   4.706   5.050  0.3230 -0.2844  0.5188
12366SOL    HW140118   3.211   4.799   5.033  1.9955 -0.1282  0.0161
12366SOL    HW240119   3.299   4.702   5.109 -0.5996 -1.2463  1.6422
12367SOL     OW40120   0.170   2.752   4.162 -0.4164 -0.0328 -0.4030
12367SOL    HW140121   0.232   2.801   4.215 -1.1831 -0.8928  1.3485
12367SOL    HW240122   0.108   2.818   4.131  1.3837  0.8351 -2.2178
12368SOL     OW40123   2.082   9.403   0.170 -0.3028 -0.0676 -0.7002
12368SOL    HW140124   2.148   9.423   0.236 -1.7818  1.2676  0.4224
12368SOL    HW240125   2.027   9.336   0.210 -0.1562 -0.5505 -1.2918
12369SOL     OW40126   2.155   5.427   5.607  0.2137  0.6148  0.6065
12369SOL    HW140127   2.224   5.491   5.619  0.6883 -0.0340  1.4321
12369SOL    HW240128   2.075   5.478   5.599  0.9525  1.4376 -1.7544
12370SOL     OW40129   2.484   3.968   0.708 -0.4487 -0.5265  0.4734
12370SOL    HW140130   2.424   3.990   0.779  0.5360 -1.0382  1.4729
12370SOL    HW240131   2.513   4.053   0.674  0.7449 -0.2668  2.1059
12371SOL     OW40132   0.098   8.473   1.080  0.5372  0.0569 -0.1793
12371SOL    HW140133   0.073   8.411   1.012 -0.8516 -0.9758  1.2294
12371SOL    HW240134   0.153   8.422   1.140  0.9977  0.7066 -0.0445
12372SOL     OW40135   1.501   0.411   3.810  0.1019  0.2265  0.2542
12372SOL    HW140136   1.413   0.444   3.792 -0.2773 -1.8048 -1.8711
12372SOL    HW240137   1.559   0.484   3.787 -0.9185  0.8396 -0.4291
12373SOL     OW40138   0.186   2.962   9.419 -0.1029  0.3446  0.0473
12373SOL    HW140139   0.178   3.057   9.406 -2.7725 -0.1029 -2.0286
12373SOL    HW240140   0.243   2.934   9.347 -0.0621  0.2260  0.1268
12374SOL     OW40141   1.116   7.056   1.143 -0.0452 -0.4338 -0.2139
12374SOL    HW140142   1.109   7.005   1.063 -0.0266  0.4110 -0.7514
12374SOL    HW240143   1.206   7.089   1.142 -0.0140 -0.4990  0.2082
12375SOL     OW40144   3.855   2.139   5.864 -0.4284  0.0600  0.0616
12375SOL    HW140145   3.821   2.225   5.890 -2.4627 -0.7009  0.0051
12375SOL    HW240146   3.858   2.142   5.768 -1.9677 -0.4641 -0.0083
12376SOL     OW40147   1.553   5.692   6.856  0.1809 -0.2064 -0.2207
12376SOL    HW140148   1.549   5.609   6.809 -1.7415 -0.0805 -0.3312
12376SOL    HW240149   1.543   5.668   6.948 -0.4199 -0.1072 -0.2564
12377SOL     OW40150   1.209   4.428   1.259  0.3374 -0.1256  0.3116
12377SOL    HW140151   1.148   4.404   1.189  1.2138  1.5540 -1.0813
12377SOL    HW240152   1.220   4.349   1.311 -1.2859 -1.0578 -0.7440
12378SOL     OW40153   4.102   9.439   7.792 -0.7188 -0.3677  1.2936
12378SOL    HW140154   4.166   9.508   7.809  0.7465 -1.4653  0.3208
12378SOL    HW240155   4.089   9.396   7.876 -1.9226  1.3022  1.9936
12379SOL     OW40156   5.809   4.733   3.994 -0.4157 -0.0509  0.4679
12379SOL    HW140157   5.869   4.670   4.035 -0.3582 -0.4504 -0.2125
12379SOL    HW240158   5.728   4.684   3.982  0.2162 -0.6202 -1.8155
12380SOL     OW40159   5.910   3.731   7.389 -0.2548 -0.5623 -0.1397
12380SOL    HW140160   5.935   3.820   7.411  1.5595 -1.4435  1.4721
12380SOL    HW240161   5.930   3.723   7.295  0.9995  0.2491  0.0552
12381SOL     OW40162   1.831   6.837   3.292  0.1384  0.5288 -0.0491
12381SOL    HW140163   1.751   6.882   3.319  1.4381  1.2075  2.8599
12381SOL    HW240164   1.851   6.779   3.365  0.2839 -2.4565 -2.3602
12382SOL     OW40165   5.162   0.510   9.066  0.2846  0.1899  0.3467
12382SOL    HW140166   5.116   0.567   9.128 -1.1166 -0.5704  0.0251
12382SOL    HW240167   5.161   0.560   8.984  1.3004  0.7833  0.6843
12383SOL     OW40168   1.880   8.800   1.341  0.1905  0.2127 -0.2484
12383SOL    HW140169   1.959   8.782   1.290 -0.7471 -1.1148 -1.2747
12383SOL    HW240170   1.851   8.886   1.311  0.9128  0.4380 -0.3039
12384SOL     OW40171   5.166   2.271   3.780 -0.0331  0.2814  0.5408
12384SOL    HW140172   5.148   2.344   3.721  1.0619  0.3690  0.3050
12384SOL    HW240173   5.261   2.260   3.777 -0.1864 -1.1478  0.5783
12385SOL     OW40174   6.324   7.002   1.963 -0.7026 -0.0996  0.2084
12385SOL    HW140175   6.243   7.047   1.942  1.3451  3.1696 -1.0588
12385SOL    HW240176   6.333   6.934   1.896 -1.8146  0.2228 -0.2725
12386SOL     OW40177   7.345   3.174   9.093 -0.2749 -0.3712  0.1137
12386SOL    HW140178   7.422   3.218   9.129  0.7398 -2.1978  0.2015
12386SOL    HW240179   7.297   3.144   9.169 -1.5750  1.5531  0.0890
12387SOL     OW40180   7.323   5.757   1.621  0.2443  0.2836 -0.3374
12387SOL    HW140181   7.338   5.721   1.708  1.7803  0.6736 -0.4242
12387SOL    HW240182   7.395   5.819   1.608 -2.1090  3.1372 -0.3162
12388SOL     OW40183   2.529   2.609   6.744  0.0254  0.4511 -0.3597
12388SOL    HW140184   2.582   2.605   6.665  0.3735 -1.8553 -0.0266
12388SOL    HW240185   2.568   2.544   6.803 -1.2002  1.0121  1.0972
12389SOL     OW40186   7.905   8.138   8.840  0.1144  0.2054  0.2827
12389SOL    HW140187   7.961   8.136   8.763 -0.2634  0.4812  0.0009
12389SOL    HW240188   7.867   8.226   8.841  0.3561  0.3047  0.9559
12390SOL     OW40189   0.566   4.117   0.888 -0.0953  0.2520  0.3863
12390SOL    HW140190   0.589   4.169   0.811 -0.7594 -0.7266 -0.4818
12390SOL    HW240191   0.558   4.182   0.958  1.3425  1.0653 -0.1628
12391SOL     OW40192   0.655   0.795   7.364 -0.6077 -0.4482  0.1140
12391SOL    HW140193   0.681   0.739   7.292 -2.1041 -1.6105  0.4625
12391SOL    HW240194   0.668   0.741   7.442  0.1876  0.5057  0.6573
12392SOL     OW40195   6.726   4.978   5.740  0.5076  0.4870  0.4146
12392SOL    HW140196   6.678   4.979   5.823 -0.1340  1.3708  0.0438
12392SOL    HW240197   6.725   5.069   5.711 -0.1170  0.0378 -1.0354
12393SOL     OW40198   6.969   8.469   2.352 -0.0073 -0.2901  0.5184
12393SOL    HW140199   7.009   8.553   2.329 -0.2306  0.1961  1.8896
12393SOL    HW240200   6.977   8.416   2.272  1.8917  0.3634  0.2573
12394SOL     OW40201   5.080   2.420   2.723  0.7226  0.0102 -0.0544
12394SOL    HW140202   5.085   2.410   2.818  0.2236  0.1098 -0.0125
12394SOL    HW240203   5.167   2.398   2.691  0.9841  0.2972  0.4559
12395SOL     OW40204   1.410   9.359   6.151  0.2158 -0.4620  0.2409
12395SOL    HW140205   1.377   9.312   6.228 -0.9552  0.6548  0.4168
12395SOL    HW240206   1.487   9.406   6.183  0.4235 -0.9300  0.4442
12396SOL     OW40207   7.509   1.017   7.147 -0.1581 -0.1464  0.6704
12396SOL    HW140208   7.425   0.998   7.105 -1.0343 -1.0629  2.7561
12396SOL    HW240209   7.563   0.941   7.129  0.2781  0.4759 -0.7374
12397SOL     OW40210   1.405   5.652   0.504 -0.2200  0.0468 -0.1883
12397SOL    HW140211   1.464   5.722   0.531  1.7560 -1.0742 -1.4821
12397SOL    HW240212   1.334   5.696   0.459  0.4639  1.3013 -0.0466
12398SOL     OW40213   8.251   8.203   4.178 -0.0772  0.1194  0.3941
12398SOL    HW140214   8.243   8.175   4.269  0.0572 -0.6832  0.1570
12398SOL    HW240215   8.330   8.160   4.146 -1.7019 -1.9309 -0.9529
12399SOL     OW40216   3.337   5.549   0.604 -0.1647 -0.2041  0.2013
12399SOL    HW140217   3.358   5.494   0.680 -0.7194  0.2386  0.6777
12399SOL    HW240218   3.271   5.499   0.556  0.1735 -0.4766  0.0238
12400SOL     OW40219   4.059   4.136   2.102  0.0703 -0.1992  0.0790
12400SOL    HW140220   4.033   4.149   2.193  1.9179  0.0189  0.5972
12400SOL    HW240221   4.052   4.042   2.088  1.4168 -0.4489  0.9847
12401SOL     OW40222   8.013   2.742   9.167  0.0149 -0.2430  0.4578
12401SOL    HW140223   7.996   2.834   9.187 -0.3053 -0.0798 -0.5706
12401SOL    HW240224   7.992   2.733   9.074  3.4538 -0.5640 -0.3234
12402SOL     OW40225   0.754   4.521   6.736 -0.2799 -0.8555 -0.3801
12402SOL    HW140226   0.801   4.515   6.819  0.2382  0.4424 -0.5662
12402SOL    HW240227   0.662   4.508   6.758 -0.1961  0.0114  0.4645
12403SOL     OW40228   5.653   0.447   4.909 -0.1942  0.1112 -0.7219
12403SOL    HW140229   5.679   0.356   4.902  0.8184  0.4102 -0.9872
12403SOL    HW240230   5.734   0.496   4.901 -0.5794  1.0025  0.5687
12404SOL     OW40231   8.155   6.325   3.508 -0.0007 -0.2833  0.4382
12404SOL    HW140232   8.070   6.352   3.543 -0.4257 -1.2188  0.1427
12404SOL    HW240233   8.134   6.276   3.429  0.8259 -0.3501  0.2549
12405SOL     OW40234   6.809   1.030   4.122 -0.6753  0.2943 -0.0597
12405SOL    HW140235   6.796   1.114   4.167  1.3311  1.3153 -1.2968
12405SOL    HW240236   6.872   0.983   4.177 -2.5140 -0.8044  1.1226
12406SOL     OW40237   0.613   5.745   7.562  0.2404 -0.0317  0.0207
12406SOL    HW140238   0.691   5.794   7.588  0.2382 -1.5172  3.1567
12406SOL    HW240239   0.644   5.654   7.553 -0.7900 -0.3566 -0.2898
12407SOL     OW40240   1.107   0.402   4.551 -0.4321 -0.7450  0.2024
12407SOL    HW140241   1.168   0.469   4.520 -1.4334 -0.8083 -1.9923
12407SOL    HW240242   1.065   0.442   4.627 -0.0460  0.5862 -0.2681
12408SOL     OW40243   8.318   9.437   8.367  0.1592 -0.0083  0.6528
12408SOL    HW140244   8.359   9.448   8.453 -0.3553  2.3407  0.6367
12408SOL    HW240245   8.229   9.406   8.385 -0.1286  1.0199  0.9983
12409SOL     OW40246   5.240   1.447   3.684  0.3305 -0.7198 -0.0435
12409SOL    HW140247   5.226   1.485   3.597  0.0792 -0.6027  0.0486
12409SOL    HW240248   5.322   1.397   3.675  0.2121 -0.8555 -0.3959
12410SOL     OW40249   5.879   7.674   4.091  0.2451  0.0582  0.4612
12410SOL    HW140250   5.824   7.700   4.018  1.6643  2.6383  0.2366
12410SOL    HW240251   5.851   7.730   4.164  2.4949  1.4229  0.3409
12411SOL     OW40252   4.631   3.833   3.029 -0.5680  0.3847  0.1321
12411SOL    HW140253   4.560   3.769   3.025  0.7384 -1.0456 -0.6880
12411SOL    HW240254   4.655   3.837   3.122  0.6920 -1.8715 -0.0655
12412SOL     OW40255   1.781   6.809   7.570  0.2778 -0.0026  0.4631
12412SOL    HW140256   1.753   6.814   7.661 -0.7781  1.4364  0.0785
12412SOL    HW240257   1.767   6.897   7.535  0.7361 -0.5088 -1.0720
12413SOL     OW40258   4.231   4.078   5.578  0.1268  0.6143  0.1674
12413SOL    HW140259   4.253   4.003   5.633 -0.3933  0.5810  0.3328
12413SOL    HW240260   4.155   4.118   5.621 -0.9382 -0.0273 -1.0922
12414SOL     OW40261   0.584   7.764   5.563  0.1254 -0.0611  1.1909
12414SOL    HW140262   0.515   7.722   5.513  1.2088 -1.0835  0.5123
12414SOL    HW240263   0.607   7.699   5.630  0.6256  0.1481  1.2262
12415SOL     OW40264   0.305   6.629   7.548 -0.1190 -0.3471  0.2633
12415SOL    HW140265   0.277   6.703   7.494  0.5389 -1.1967 -1.2592
12415SOL    HW240266   0.393   6.608   7.516  0.6899 -0.2374  2.3401
12416SOL     OW40267   0.233   5.049   7.626 -0.2260  0.1709 -0.1295
12416SOL    HW140268   0.154   5.041   7.680 -1.1961 -1.4449 -1.7231
12416SOL    HW240269   0.284   4.971   7.649  0.6267  0.8698  0.4005
12417SOL     OW40270   2.216   1.008   5.328  0.8531 -0.0559  0.3536
12417SOL    HW140271   2.288   0.952   5.300  1.4441  0.6736  0.3978
12417SOL    HW240272   2.145   0.988   5.266  0.3102 -2.4185  1.6726
12418SOL     OW40273   6.440   5.613   3.989  0.1988 -0.1403  0.1212
12418SOL    HW140274   6.379   5.542   3.969 -1.5480  1.2668  0.3409
12418SOL    HW240275   6.387   5.692   3.983  2.4388  1.2947 -1.5737
12419SOL     OW40276   9.110   0.233   1.285  0.3684  0.0895  0.1056
12419SOL    HW140277   9.195   0.263   1.252 -0.5058  0.1038 -2.2393
12419SOL    HW240278   9.105   0.142   1.257 -0.2673  0.0121  0.4720
12420SOL     OW40279   9.009   0.118   0.315  0.1015 -0.0656 -0.4463
12420SOL    HW140280   9.012   0.134   0.409  1.7972  1.0124 -0.6633
12420SOL    HW240281   8.926   0.072   0.301 -0.5615  0.5118  1.4528
12421SOL     OW40282   4.582   2.281   8.059 -0.0285 -0.1883  0.3060
12421SOL    HW140283   4.608   2.368   8.031 -1.0475  0.4104  1.1766
12421SOL    HW240284   4.533   2.295   8.140 -1.8572 -1.4036 -0.5598
12422SOL     OW40285   8.309   8.415   8.808 -0.1188  0.1898 -0.0300
12422SOL    HW140286   8.304   8.340   8.749  1.0535  1.1565 -1.3771
12422SOL    HW240287   8.400   8.444   8.804  0.4328 -0.7154  3.5561
12423SOL     OW40288   3.960   7.758   0.439 -0.0397  0.1521 -0.5313
12423SOL    HW140289   3.957   7.665   0.420  0.3111  0.2481 -1.0808
12423SOL    HW240290   3.882   7.775   0.491 -0.3961 -0.3420 -0.9012
12424SOL     OW40291   8.559   3.190   7.104 -0.7952 -0.3023  0.3482
12424SOL    HW140292   8.515   3.192   7.189  0.5033 -1.4671  1.0883
12424SOL    HW240293   8.650   3.167   7.126  0.1609  1.9998 -1.1300
12425SOL     OW40294   0.262   7.300   3.238 -0.1920  0.1070  0.2650
12425SOL    HW140295   0.222   7.309   3.324  0.7666  0.0950  0.7241
12425SOL    HW240296   0.256   7.206   3.218 -0.8569  0.1870  0.1041
12426SOL     OW40297   0.255   9.173   1.450 -0.3972  0.0793 -0.6995
12426SOL    HW140298   0.274   9.190   1.357 -0.5517  1.1472 -0.5459
12426SOL    HW240299   0.186   9.236   1.472  0.1098  0.2920  0.3167
12427SOL     OW40300   0.792   6.931   0.832 -0.6481 -0.1630 -0.1245
12427SOL    HW140301   0.813   7.016   0.793  1.3309 -0.4245  0.3481
12427SOL    HW240302   0.696   6.928   0.830 -0.6721  0.5967 -3.2913
12428SOL     OW40303   9.226   7.133   4.328 -0.2218  0.1272 -0.2194
12428SOL    HW140304   9.249   7.126   4.235 -1.1985 -3.2241 -0.2648
12428SOL    HW240305   9.311   7.136   4.373  0.2763 -1.4572 -1.0283
12429SOL     OW40306   1.013   2.741   7.623  0.2781 -0.4742 -0.1971
12429SOL    HW140307   1.104   2.770   7.630  0.2046 -0.5342  0.9770
12429SOL    HW240308   1.001   2.723   7.529  1.4460 -0.3837 -0.3677
12430SOL     OW40309   4.332   0.654   8.919 -0.2235 -0.4440  0.2848
12430SOL    HW140310   4.413   0.628   8.876 -1.0919 -0.4755 -1.4054
12430SOL    HW240311   4.332   0.608   9.002  2.0563  0.5204  0.8462
12431SOL     OW40312   3.572   3.265   4.511 -0.2676 -0.4168 -0.1064
12431SOL    HW140313   3.589   3.328   4.582  0.8674 -1.3926  0.5086
12431SOL    HW240314   3.651   3.211   4.508 -1.3206 -1.9719 -0.4473
12432SOL     OW40315   7.059   3.228   4.929  0.0134  0.2908  0.2080
12432SOL    HW140316   7.115   3.187   4.995  1.3613  0.2099 -0.9567
12432SOL    HW240317   7.001   3.158   4.900  0.0479  0.0835  0.6269
12433SOL     OW40318   4.196   6.313   7.487  0.3257  0.3971  0.2732
12433SOL    HW140319   4.172   6.386   7.545  0.3123 -0.1301  0.9337
12433SOL    HW240320   4.159   6.337   7.402  0.5035  1.2665  0.4338
12434SOL     OW40321   1.095   3.948   3.342  0.0900 -0.0997  0.4765
12434SOL    HW140322   1.179   3.977   3.377  0.5332  0.5194 -1.0689
12434SOL    HW240323   1.030   3.983   3.403  0.6746  3.1579 -0.6404
12435SOL     OW40324   0.717   4.700   6.507  0.9935 -0.0164 -0.7360
12435SOL    HW140325   0.739   4.651   6.586 -0.1456 -0.6917 -0.8166
12435SOL    HW240326   0.784   4.768   6.501  1.1125  0.0181  0.7795
12436SOL     OW40327   0.997   6.897   1.791  0.4530 -0.3636  0.0554
12436SOL    HW140328   0.971   6.979   1.749 -1.3223 -0.6077  0.6467
12436SOL    HW240329   1.036   6.845   1.720 -1.0885 -0.1632 -0.9589
12437SOL     OW40330   1.785   0.200   4.879  0.2867 -0.1971  0.0250
12437SOL    HW140331   1.824   0.130   4.825  0.5394  0.3121 -0.4586
12437SOL    HW240332   1.701   0.218   4.836  1.1019  1.1767 -1.0299
12438SOL     OW40333   0.683   3.277   3.052  0.3525 -0.0846 -0.2487
12438SOL    HW140334   0.641   3.192   3.043 -0.2768  0.1998  0.0271
12438SOL    HW240335   0.624   3.339   3.008  0.4469  0.3219  0.1917
12439SOL     OW40336   2.683   7.806   0.954 -0.6311  0.5113 -0.0928
12439SOL    HW140337   2.696   7.900   0.969 -0.6653  0.6120 -0.7146
12439SOL    HW240338   2.672   7.770   1.042 -0.2084  1.0297  0.1789
12440SOL     OW40339   8.981   8.906   3.468 -0.2888 -0.3543  0.0321
12440SOL    HW140340   8.941   8.829   3.508 -1.4276 -0.8773 -2.0457
12440SOL    HW240341   9.046   8.872   3.408 -1.8538  0.2131 -2.0322
12441SOL     OW40342   7.008   1.930   7.712  0.0203  0.1867  0.3026
12441SOL    HW140343   6.957   1.939   7.792  0.4947  0.2038  0.6101
12441SOL    HW240344   6.972   1.996   7.653 -1.5486 -1.0552 -0.1623
12442SOL     OW40345   5.450   1.371   4.034  0.3217  0.1197 -0.0221
12442SOL    HW140346   5.457   1.335   3.946 -0.9391 -0.9102  0.2896
12442SOL    HW240347   5.539   1.400   4.055  1.1459 -1.8428 -0.6922
12443SOL     OW40348   4.110   1.718   7.029 -0.3688 -0.0525 -0.0189
12443SOL    HW140349   4.058   1.795   7.002  0.2004  1.0695  1.9828
12443SOL    HW240350   4.176   1.709   6.961 -0.8224  0.8731 -0.5946
12444SOL     OW40351   6.765   2.114   6.553  0.2472 -0.1913 -0.0186
12444SOL    HW140352   6.833   2.174   6.524  1.2297 -1.3186 -0.0631
12444SOL    HW240353   6.699   2.117   6.484  1.6870 -1.4118 -1.4664
12445SOL     OW40354   7.785   4.856   6.170  1.0064 -0.2550 -0.2672
12445SOL    HW140355   7.731   4.932   6.190  2.2598  0.7035 -0.4725
12445SOL    HW240356   7.795   4.811   6.254 -0.9575 -1.0232 -0.4219
12446SOL     OW40357   3.218   8.685   6.731  0.3565  0.2105 -0.7538
12446SOL    HW140358   3.284   8.747   6.763  2.0419 -0.5288 -2.6806
12446SOL    HW240359   3.142   8.740   6.711  0.4018  1.0932  1.4077
12447SOL     OW40360   0.563   8.441   4.201  0.2603  0.0255 -0.5088
12447SOL    HW140361   0.569   8.534   4.176 -0.3656  0.2893  0.2784
12447SOL    HW240362   0.526   8.398   4.124 -0.0191  0.5377 -0.6673
12448SOL     OW40363   1.510   7.744   1.938  0.2666  0.4119  0.0487
12448SOL    HW140364   1.458   7.786   2.006  0.0910  0.5091 -0.1464
12448SOL    HW240365   1.486   7.651   1.944  0.5704  0.3549  0.4035
12449SOL     OW40366   7.283   1.485   0.952  0.0569 -0.1105  0.2575
12449SOL    HW140367   7.352   1.476   1.017  1.5110 -0.1722 -1.2810
12449SOL    HW240368   7.287   1.404   0.901 -2.1209 -0.7635  1.0543
12450SOL     OW40369   0.205   4.986   8.322  0.0015  0.0341 -0.1271
12450SOL    HW140370   0.221   5.004   8.415  1.5231 -1.3110 -0.1167
12450SOL    HW240371   0.127   4.930   8.321 -1.6620  2.2309  0.1347
12451SOL     OW40372   7.336   2.137   3.247 -0.0436 -0.2848 -0.0912
12451SOL    HW140373   7.388   2.060   3.224  0.1385 -0.4601  0.9159
12451SOL    HW240374   7.350   2.198   3.174  0.0989 -1.0584 -0.7078
12452SOL     OW40375   6.770   5.342   8.847  0.0799  0.0281 -0.2685
12452SOL    HW140376   6.744   5.288   8.772 -1.8859  1.2441 -0.4874
12452SOL    HW240377   6.753   5.432   8.820  0.4502  0.5625  1.2164
12453SOL     OW40378   8.343   8.531   9.089  0.5447  0.0446  0.0271
12453SOL    HW140379   8.289   8.453   9.095 -0.1890  0.2297 -3.2833
12453SOL    HW240380   8.422   8.502   9.042 -0.8958  1.7495 -3.6680
12454SOL     OW40381   3.195   7.662   2.188  0.1248  0.1745  0.0019
12454SOL    HW140382   3.201   7.629   2.278 -0.5083  0.8140  0.2856
12454SOL    HW240383   3.121   7.722   2.190  0.9138  1.1843 -0.6285
12455SOL     OW40384   8.152   7.213   1.119 -0.6866 -0.9445 -0.4573
12455SOL    HW140385   8.061   7.192   1.099 -0.8091  0.7738 -1.8214
12455SOL    HW240386   8.153   7.228   1.214 -2.4921  2.0684 -0.8565
12456SOL     OW40387   9.423   2.619   2.094  0.1334  0.2630 -0.1269
12456SOL    HW140388   9.408   2.672   2.172  0.1227 -0.3948  0.3266
12456SOL    HW240389   9.510   2.581   2.107  0.0227 -0.0584 -0.3093
12457SOL     OW40390   2.436   1.747   7.393  0.2257  0.6538  0.2090
12457SOL    HW140391   2.349   1.742   7.434 -0.1023  2.7987 -0.1677
12457SOL    HW240392   2.440   1.670   7.337 -0.4052 -0.8552  2.1782
12458SOL     OW40393   3.793   7.334   5.017 -0.1066  0.0785 -0.1166
12458SOL    HW140394   3.788   7.412   5.073  1.3798 -1.1011  1.7417
12458SOL    HW240395   3.882   7.301   5.031 -0.1216 -0.9440 -2.2931
12459SOL     OW40396   3.181   9.045   4.703  0.2685 -0.1719  0.6559
12459SOL    HW140397   3.271   9.041   4.669 -0.0425 -0.1351 -0.1849
12459SOL    HW240398   3.128   9.003   4.635 -0.5067  0.8780  0.5968
12460SOL     OW40399   4.712   2.420   3.289  0.3535 -0.3711 -0.2764
12460SOL    HW140400   4.743   2.445   3.377 -2.1249  1.9981  0.0011
12460SOL    HW240401   4.785   2.444   3.231  1.7267 -1.2777  1.0355
12461SOL     OW40402   2.446   0.030   4.866 -0.3857 -0.0069 -0.4188
12461SOL    HW140403   2.382   0.096   4.841  0.2910  0.1472 -1.8312
12461SOL    HW240404   2.529   0.064   4.834  0.4472 -0.0932  1.6153
12462SOL     OW40405   4.012   4.688   9.278 -0.2159 -0.1277  0.2373
12462SOL    HW140406   3.998   4.595   9.296  0.7008 -0.4657 -0.7322
12462SOL    HW240407   4.070   4.689   9.202 -1.5514  1.2455 -0.8041
12463SOL     OW40408   1.111   8.754   8.335 -0.2540 -0.5065 -0.5528
12463SOL    HW140409   1.125   8.698   8.259 -1.3022  1.3719 -2.1760
12463SOL    HW240410   1.199   8.770   8.370  0.2525 -1.1658 -1.5230
12464SOL     OW40411   1.810   0.912   0.198 -0.2299  0.1979 -0.1982
12464SOL    HW140412   1.743   0.849   0.223  0.6145 -0.1814  1.1790
12464SOL    HW240413   1.762   0.993   0.181 -1.1152 -0.2851 -0.0109
12465SOL     OW40414   6.455   8.795   1.349 -0.2406 -0.1284 -0.0720
12465SOL    HW140415   6.481   8.887   1.358  3.0448 -1.0947  0.6134
12465SOL    HW240416   6.454   8.761   1.438  0.9816 -1.4100 -0.5454
12466SOL     OW40417   6.233   3.144   2.628 -0.2458  0.4228  0.1055
12466SOL    HW140418   6.166   3.211   2.613  0.2836  0.7475 -0.8535
12466SOL    HW240419   6.289   3.180   2.696  0.5170  1.3180 -0.9869
12467SOL     OW40420   6.752   5.916   1.937 -0.0594 -0.1922  0.0287
12467SOL    HW140421   6.831   5.927   1.885 -0.6560  1.0155 -0.6228
12467SOL    HW240422   6.693   5.985   1.907 -0.1587  0.9681  2.7576
12468SOL     OW40423   6.375   5.783   6.144 -0.0501 -0.2780 -0.2717
12468SOL    HW140424   6.426   5.779   6.225  0.2985  0.5803 -0.4430
12468SOL    HW240425   6.291   5.819   6.170 -0.0596 -0.3220 -0.2390
12469SOL     OW40426   4.916   1.295   4.384  0.1444 -0.3028  0.2169
12469SOL    HW140427   4.877   1.364   4.331  1.4094 -0.3320 -0.7738
12469SOL    HW240428   4.999   1.332   4.415 -0.0201 -0.7180  1.1961
12470SOL     OW40429   0.491   0.082   1.955 -0.0524  0.4420  0.0803
12470SOL    HW140430   0.536   0.051   1.876  0.6319  1.2772  0.1310
12470SOL    HW240431   0.402   0.048   1.946  0.5120 -0.9823 -0.1582
12471SOL     OW40432   1.632   5.830   8.356 -0.0340  0.5638  0.1976
12471SOL    HW140433   1.634   5.780   8.274  0.0424 -0.5413  0.8728
12471SOL    HW240434   1.553   5.883   8.349 -0.9816 -0.8273  0.1682
12472SOL     OW40435   0.123   4.678   3.107  0.3831  0.1303  0.2020
12472SOL    HW140436   0.162   4.691   3.021  0.7615 -4.3632 -0.4366
12472SOL    HW240437   0.195   4.648   3.162 -0.0589  2.0480  1.8837
12473SOL     OW40438   8.425   6.779   2.491 -0.7800  0.1199 -0.5321
12473SOL    HW140439   8.500   6.806   2.544 -1.7727 -0.1712  1.0687
12473SOL    HW240440   8.349   6.804   2.544 -1.7750 -1.3142 -1.2579
12474SOL     OW40441   8.756   0.951   5.300  0.2756  0.7013  0.0222
12474SOL    HW140442   8.795   0.884   5.243 -0.2439 -1.2809  1.9394
12474SOL    HW240443   8.831   0.994   5.341  0.6103 -2.0841  2.5371
12475SOL     OW40444   9.113   0.270   7.189  0.3466  0.4549  0.3721
12475SOL    HW140445   9.187   0.287   7.247  1.3746 -0.5676 -0.6050
12475SOL    HW240446   9.118   0.339   7.123  0.4811  0.3568  0.2773
12476SOL     OW40447   8.970   7.933   7.782  0.5437 -0.8859  0.5073
12476SOL    HW140448   8.954   8.027   7.795 -0.4160 -1.0720  0.7105
12476SOL    HW240449   9.013   7.928   7.697 -0.5044 -0.3597 -0.0680
12477SOL     OW40450   7.950   4.272   6.871 -0.0438 -0.3704 -0.4726
12477SOL    HW140451   7.962   4.282   6.777  2.6815  0.1649 -0.1219
12477SOL    HW240452   7.975   4.181   6.889  0.3515 -0.2054 -0.1653
12478SOL     OW40453   5.227   3.881   1.728 -0.3265 -0.1506 -0.0372
12478SOL    HW140454   5.297   3.856   1.667 -0.1407 -1.3266  0.6546
12478SOL    HW240455   5.147   3.875   1.676  0.1177  1.7324 -0.9888
12479SOL     OW40456   2.428   4.032   7.721 -0.3853 -0.0739  0.6509
12479SOL    HW140457   2.409   4.023   7.628 -0.4649  0.9729  0.5559
12479SOL    HW240458   2.517   3.996   7.732 -0.9816 -1.6442  0.4620
12480SOL     OW40459   3.217   1.841   5.521  1.0519 -0.0838 -0.3538
12480SOL    HW140460   3.273   1.764   5.515  3.9556  1.8886  0.5218
12480SOL    HW240461   3.191   1.844   5.613  0.9204 -0.0315 -0.3930
12481SOL     OW40462   6.898   4.868   8.046 -0.7144  0.3537 -0.2072
12481SOL    HW140463   6.853   4.827   8.119 -1.6076  1.7881  0.0759
12481SOL    HW240464   6.976   4.907   8.085  0.0807 -0.9506 -0.4560
12482SOL     OW40465   3.382   2.850   3.188 -0.0168 -0.0937 -0.9211
12482SOL    HW140466   3.303   2.882   3.231  0.7955  1.8209 -0.7908
12482SOL    HW240467   3.374   2.755   3.190 -0.2238 -0.0620  3.0224
12483SOL     OW40468   5.313   7.940   3.643 -0.2942  0.2667  0.0108
12483SOL    HW140469   5.316   7.986   3.560 -0.8332  0.7806  0.2757
12483SOL    HW240470   5.317   7.847   3.619  0.4394  0.4340 -0.5358
12484SOL     OW40471   2.450   2.004   5.680 -0.2896 -0.1547  0.1174
12484SOL    HW140472   2.392   2.066   5.724  0.0564 -1.6426  2.7911
12484SOL    HW240473   2.396   1.962   5.613 -1.2832  1.0396  0.1685
12485SOL     OW40474   8.114   4.925   6.234  0.3554  0.2383 -0.2561
12485SOL    HW140475   8.092   5.018   6.237  1.5767  0.5722 -1.2497
12485SOL    HW240476   8.068   4.891   6.158 -0.1581  0.0035  0.1542
12486SOL     OW40477   2.472   6.760   3.242 -0.1870 -0.1197 -0.3903
12486SOL    HW140478   2.514   6.845   3.239  0.9209 -0.6671 -0.9223
12486SOL    HW240479   2.535   6.701   3.200 -0.5678 -1.3462  0.7055
12487SOL     OW40480   3.657   2.455   0.501 -0.1284  0.1575 -0.2269
12487SOL    HW140481   3.630   2.536   0.545  1.8804 -0.3953  2.1095
12487SOL    HW240482   3.591   2.443   0.433 -2.1685  2.1817  1.2761
12488SOL     OW40483   2.603   6.715   5.925 -0.7470  0.1425  0.1536
12488SOL    HW140484   2.524   6.685   5.878 -0.3836 -0.7987  0.1210
12488SOL    HW240485   2.673   6.706   5.861 -0.5774  0.8023  0.2441
12489SOL     OW40486   0.999   9.064   6.637 -0.5514 -0.2197 -0.7232
12489SOL    HW140487   0.986   8.972   6.612  0.7714 -0.4167 -0.7072
12489SOL    HW240488   1.030   9.106   6.557 -3.3195  0.7097 -1.3454
12490SOL     OW40489   6.674   6.225   4.083 -0.2428 -0.8908  0.2841
12490SOL    HW140490   6.718   6.142   4.101 -0.5012 -1.4898 -1.6599
12490SOL    HW240491   6.671   6.230   3.987  0.2887  1.6353  0.3572
12491SOL     OW40492   6.106   6.473   5.637  0.4577 -0.0089 -0.2719
12491SOL    HW140493   6.201   6.465   5.632  0.5001 -0.1451  0.6705
12491SOL    HW240494   6.075   6.384   5.654  0.0952 -0.1187 -1.4711
12492SOL     OW40495   8.245   0.430   2.364  0.2188  0.5886  0.2462
12492SOL    HW140496   8.333   0.419   2.328  0.5820  0.4079  1.1647
12492SOL    HW240497   8.199   0.350   2.339 -0.7268  2.1066 -3.1189
12493SOL     OW40498   4.793   6.793   4.910 -0.3875 -0.0190 -0.4967
12493SOL    HW140499   4.706   6.790   4.949 -0.5189  0.6075 -0.7321
12493SOL    HW240500   4.781   6.759   4.822 -0.6374  1.2451 -0.9564
12494SOL     OW40501   7.584   8.862   4.468  0.6347 -0.8274  0.2908
12494SOL    HW140502   7.496   8.873   4.433  1.4543  0.6516 -1.4047
12494SOL    HW240503   7.637   8.925   4.419  2.5374 -1.3312  1.6416
12495SOL     OW40504   9.106   4.542   2.139  0.1983 -0.2659  0.8971
12495SOL    HW140505   9.043   4.600   2.096  0.6875 -0.1045  0.3914
12495SOL    HW240506   9.058   4.505   2.213 -0.5119 -0.1930  0.4761
12496SOL     OW40507   5.371   4.723   6.917  0.0204 -0.3056 -0.3908
12496SOL    HW140508   5.356   4.631   6.940 -2.7582  0.3236  0.4493
12496SOL    HW240509   5.402   4.763   6.999 -0.3256 -0.1439 -0.3411
12497SOL     OW40510   1.851   1.181   9.151  0.1804 -0.0682  0.3374
12497SOL    HW140511   1.933   1.208   9.193 -0.0005 -1.1203  1.3630
12497SOL    HW240512   1.787   1.246   9.179  0.0762 -0.7185  1.6453
12498SOL     OW40513   8.184   2.023   5.685 -0.1987 -0.0216 -0.0770
12498SOL    HW140514   8.096   2.055   5.703 -1.0017 -1.6687 -0.8710
12498SOL    HW240515   8.193   1.944   5.739 -0.5633 -1.8396 -2.5501
12499SOL     OW40516   3.107   3.911   0.880 -0.2872  0.3847  0.2929
12499SOL    HW140517   3.168   3.841   0.902  0.5119  0.9409 -0.1709
12499SOL    HW240518   3.035   3.900   0.943 -0.5387 -1.3258 -0.2822
12500SOL     OW40519   6.390   4.334   5.193  0.6709 -0.6136 -0.8350
12500SOL    HW140520   6.306   4.342   5.239  1.1223 -3.1124  0.5024
12500SOL    HW240521   6.367   4.336   5.101 -0.5341  1.6904 -0.5362
12501SOL     OW40522   1.069   0.992   8.556 -0.1085 -0.5908 -0.1548
12501SOL    HW140523   0.986   1.007   8.510  0.3433 -0.8108 -1.0594
12501SOL    HW240524   1.115   1.075   8.548 -0.9005  0.0484  1.7485
12502SOL     OW40525   8.151   4.864   8.508 -0.7555  0.1968 -0.2631
12502SOL    HW140526   8.114   4.799   8.448 -1.0455 -0.1038  0.2376
12502SOL    HW240527   8.223   4.904   8.458 -1.0292 -0.0090 -0.8285
12503SOL     OW40528   3.314   9.120   3.862  0.4944 -0.2635 -0.1952
12503SOL    HW140529   3.293   9.046   3.806 -0.1184  0.8447 -1.4467
12503SOL    HW240530   3.377   9.171   3.812  1.7443 -0.4884  1.1130
12504SOL     OW40531   7.234   6.416   5.213  0.2135 -0.2639 -0.0709
12504SOL    HW140532   7.247   6.491   5.271 -1.9714 -0.1199  0.2887
12504SOL    HW240533   7.139   6.406   5.208  0.2282  0.7229 -4.8484
12505SOL     OW40534   5.833   6.685   3.963  0.3329 -0.0556  0.3611
12505SOL    HW140535   5.846   6.700   4.057  0.1722  1.8054  0.1098
12505SOL    HW240536   5.893   6.614   3.942  0.9126  0.0046  1.7384
12506SOL     OW40537   0.512   3.923   6.964  0.0299 -0.3049 -0.0875
12506SOL    HW140538   0.477   3.840   6.931  1.1099 -0.6672 -0.3310
12506SOL    HW240539   0.572   3.899   7.034  0.5831  0.2528 -0.3629
12507SOL     OW40540   7.046   0.487   8.082  0.2338 -0.4859 -0.1575
12507SOL    HW140541   6.966   0.436   8.069 -0.6777  1.1446 -1.1508
12507SOL    HW240542   7.019   0.562   8.135  0.8702  0.5809 -1.3023
12508SOL     OW40543   1.708   1.507   2.872 -0.4472  0.1579  0.6428
12508SOL    HW140544   1.721   1.585   2.926 -0.3062 -0.8980  2.1609
12508SOL    HW240545   1.673   1.442   2.933 -1.5325 -0.6526 -0.8394
12509SOL     OW40546   0.362   2.442   4.579  0.2003  0.1264  0.4189
12509SOL    HW140547   0.337   2.493   4.656  0.3017 -0.1610  0.6451
12509SOL    HW240548   0.291   2.378   4.569 -0.9308  1.5871 -1.0502
12510SOL     OW40549   8.844   8.700   3.613 -0.2994  0.4806 -0.7881
12510SOL    HW140550   8.840   8.606   3.595 -0.3034  0.5769 -1.3180
12510SOL    HW240551   8.813   8.709   3.703 -1.7892  0.1242 -1.2483
12511SOL     OW40552   9.094   1.600   7.470 -0.1463 -0.5280  0.2586
12511SOL    HW140553   9.107   1.514   7.509  1.8621 -0.6373 -0.5961
12511SOL    HW240554   9.005   1.598   7.435 -0.3042 -2.0346  0.7362
12512SOL     OW40555   8.082   6.717   7.682 -0.1708 -0.5989 -0.3785
12512SOL    HW140556   8.076   6.812   7.669 -0.3138 -0.4323  0.7917
12512SOL    HW240557   7.992   6.690   7.700 -0.0706 -0.9008 -0.3280
12513SOL     OW40558   7.634   6.177   1.959 -0.1440 -0.0334  0.1341
12513SOL    HW140559   7.585   6.097   1.943  0.7719 -1.1470  2.5627
12513SOL    HW240560   7.604   6.238   1.892 -2.3023 -1.7679 -0.5313
12514SOL     OW40561   2.814   3.743   2.295 -0.4123  0.4088  0.0241
12514SOL    HW140562   2.841   3.772   2.208  0.3443  0.8651  0.4101
12514SOL    HW240563   2.777   3.821   2.336  0.5362  0.5430  0.6331
12515SOL     OW40564   2.469   7.944   4.732  0.3742  0.3086  0.1074
12515SOL    HW140565   2.550   7.899   4.756  0.3588 -1.0441 -2.1672
12515SOL    HW240566   2.483   8.035   4.755  1.6682 -0.3164  1.8308
12516SOL     OW40567   6.212   8.865   7.105 -0.0059 -0.3105 -0.3150
12516SOL    HW140568   6.186   8.954   7.129  0.4479  0.0302 -1.0701
12516SOL    HW240569   6.154   8.808   7.157 -0.5040  0.4211 -0.0633
12517SOL     OW40570   8.948   6.866   3.054 -0.2508 -0.0229  0.0112
12517SOL    HW140571   8.985   6.918   3.125 -0.9691  1.4610 -0.6707
12517SOL    HW240572   8.871   6.824   3.092  1.0827 -1.6848  0.9358
12518SOL     OW40573   3.781   1.595   6.915 -0.6788  0.2746  0.4178
12518SOL    HW140574   3.786   1.544   6.996 -2.7407 -1.3140 -0.3926
12518SOL    HW240575   3.864   1.579   6.871  0.1568  0.5473  1.8626
12519SOL     OW40576   3.465   4.949   4.787 -0.1754 -0.0063 -0.5984
12519SOL    HW140577   3.438   4.929   4.877  0.0819  1.3557 -0.2072
12519SOL    HW240578   3.503   4.867   4.755  0.8822 -0.1601  0.9759
12520SOL     OW40579   6.688   6.726   2.507 -0.6181 -0.2871  0.0485
12520SOL    HW140580   6.783   6.721   2.513 -0.4936 -0.7669 -1.8225
12520SOL    HW240581   6.669   6.700   2.416 -2.5044  0.0692  0.3268
12521SOL     OW40582   6.693   1.922   9.064  0.1809 -0.0979  0.6170
12521SOL    HW140583   6.787   1.922   9.082  0.1436  1.1106  0.8185
12521SOL    HW240584   6.676   1.834   9.029  1.7844  0.3998 -1.5140
12522SOL     OW40585   8.032   4.487   4.292  0.0990  0.2718 -0.8433
12522SOL    HW140586   8.125   4.479   4.273  0.3457 -1.5548  1.0051
12522SOL    HW240587   8.022   4.575   4.327  0.6421  1.4726 -3.5807
12523SOL     OW40588   2.215   2.839   3.914 -0.7758  0.1033  0.6032
12523SOL    HW140589   2.119   2.832   3.908 -0.6427 -0.9143 -0.6292
12523SOL    HW240590   2.246   2.748   3.910  0.3252  0.5213 -1.0973
12524SOL     OW40591   2.129   0.812   6.400 -0.0700  0.2731  0.3223
12524SOL    HW140592   2.179   0.871   6.344  0.1513  0.5945  0.8599
12524SOL    HW240593   2.056   0.783   6.345  1.0877 -0.7537 -0.7090
12525SOL     OW40594   1.591   1.373   5.051 -0.2453  0.2901 -0.4221
12525SOL    HW140595   1.533   1.425   4.996 -0.1285  0.2087 -0.6245
12525SOL    HW240596   1.646   1.325   4.989  0.6790  1.0853 -0.2236
12526SOL     OW40597   0.730   0.469   4.993 -0.5391  0.3693 -0.2571
12526SOL    HW140598   0.810   0.459   5.044 -0.4858 -1.1733 -0.6222
12526SOL    HW240599   0.738   0.405   4.922 -1.9849  0.3615 -0.4360
12527SOL     OW40600   6.725   5.804   4.358  0.0221 -0.0022  0.1609
12527SOL    HW140601   6.670   5.734   4.322  0.7281 -0.1041 -0.7383
12527SOL    HW240602   6.663   5.863   4.402 -0.7278 -0.4537 -0.2755
12528SOL     OW40603   0.107   0.707   6.597  0.5801 -0.3254 -0.4865
12528SOL    HW140604   0.145   0.779   6.647  2.0706 -0.9563 -0.6881
12528SOL    HW240605   0.016   0.733   6.584  1.0591  1.4727 -0.4609
12529SOL     OW40606   1.218   3.571   0.365  0.0173 -0.2089  0.3515
12529SOL    HW140607   1.292   3.572   0.304  1.9340  2.7874  2.6094
12529SOL    HW240608   1.177   3.657   0.354 -1.8173 -1.0300  0.6938
12530SOL     OW40609   2.796   1.020   1.571 -0.1368 -0.4375  0.1455
12530SOL    HW140610   2.853   1.063   1.634 -1.0145  0.8659  0.0547
12530SOL    HW240611   2.856   0.989   1.503  0.4417  1.3707 -0.2053
12531SOL     OW40612   1.829   8.150   4.494  0.2216 -0.5163  0.4936
12531SOL    HW140613   1.863   8.192   4.415  1.6515 -1.6570  0.4954
12531SOL    HW240614   1.819   8.222   4.557 -1.8339  0.5594 -0.9760
12532SOL     OW40615   2.823   1.444   2.537 -0.0203  0.4794 -0.3429
12532SOL    HW140616   2.794   1.467   2.449 -1.0153  0.7688  0.0471
12532SOL    HW240617   2.762   1.490   2.595  0.8530  0.5997  0.5048
12533SOL     OW40618   8.579   5.342   2.807 -0.6563 -0.2067 -0.5346
12533SOL    HW140619   8.642   5.320   2.738 -0.1761 -0.9534  0.1292
12533SOL    HW240620   8.614   5.300   2.885 -1.3807  0.3435  0.0952
12534SOL     OW40621   4.651   7.578   9.048  0.8694 -0.4209 -0.1906
12534SOL    HW140622   4.578   7.615   9.099  1.4597  0.4417  0.0444
12534SOL    HW240623   4.645   7.622   8.964  0.2725 -1.3928 -0.6672
12535SOL     OW40624   7.641   6.302   0.254 -0.5077  0.2345  0.2271
12535SOL    HW140625   7.553   6.277   0.226 -0.4131  1.2004 -1.0037
12535SOL    HW240626   7.685   6.219   0.273 -1.4554 -0.2933  0.1639
12536SOL     OW40627   0.236   6.932   3.835 -0.1461 -0.0414  0.3878
12536SOL    HW140628   0.312   6.968   3.880 -0.5200 -1.2331  2.0165
12536SOL    HW240629   0.162   6.983   3.870 -0.4078 -0.7961  0.9380
12537SOL     OW40630   8.359   6.876   9.252  0.1787 -0.0680 -0.1035
12537SOL    HW140631   8.428   6.871   9.186 -0.0509 -0.6872 -0.3030
12537SOL    HW240632   8.390   6.821   9.324 -0.6677 -1.3863 -0.7248
12538SOL     OW40633   8.891   1.956   5.405  0.0480  0.1538 -0.5778
12538SOL    HW140634   8.887   1.970   5.499  1.4136  1.7798 -0.7340
12538SOL    HW240635   8.880   1.862   5.394 -0.9228  0.0500  1.1426
12539SOL     OW40636   8.253   6.422   1.143 -0.2936 -0.3852 -0.1308
12539SOL    HW140637   8.254   6.330   1.168 -1.5701 -0.8252 -1.6805
12539SOL    HW240638   8.283   6.468   1.222 -0.8141 -2.0255  1.0497
12540SOL     OW40639   3.825   0.516   8.239 -0.9589 -0.1295  0.0031
12540SOL    HW140640   3.776   0.578   8.186 -0.9471  1.1896  1.4917
12540SOL    HW240641   3.917   0.533   8.217 -0.9509  0.4471  0.4893
12541SOL     OW40642   3.580   5.352   5.056  0.2551  0.1569  0.5255
12541SOL    HW140643   3.661   5.383   5.015 -1.2129  0.9724 -1.8455
12541SOL    HW240644   3.603   5.266   5.091  2.6947  1.2442  1.6835
12542SOL     OW40645   4.814   3.695   2.543 -0.1964  0.0446  0.0755
12542SOL    HW140646   4.812   3.778   2.495 -1.6677  0.8801  1.5448
12542SOL    HW240647   4.847   3.718   2.630 -1.3465 -0.7583  0.7379
12543SOL     OW40648   6.512   3.174   6.116 -0.2938  0.7205 -0.1542
12543SOL    HW140649   6.502   3.128   6.032  0.3659  1.7057 -0.7833
12543SOL    HW240650   6.465   3.256   6.104  1.5749  1.7943 -0.3053
12544SOL     OW40651   1.366   6.536   3.434 -0.7157 -0.3986  0.3419
12544SOL    HW140652   1.395   6.466   3.492 -1.9612  0.1221  1.6138
12544SOL    HW240653   1.424   6.609   3.453  0.2399 -0.9029 -0.6020
12545SOL     OW40654   5.252   0.510   6.891  0.5628 -0.2488  0.2477
12545SOL    HW140655   5.203   0.461   6.824  0.6646  1.6060 -1.1991
12545SOL    HW240656   5.343   0.502   6.864  0.4587  2.0230 -0.9034
12546SOL     OW40657   8.969   8.407   8.051  0.2360 -0.5299 -0.4859
12546SOL    HW140658   9.031   8.454   7.996  0.0404 -0.5588 -0.7324
12546SOL    HW240659   9.010   8.322   8.068  0.6264 -0.2401  0.0246
12547SOL     OW40660   8.429   3.263   7.330 -0.2389  0.2305  0.1532
12547SOL    HW140661   8.471   3.185   7.367  0.4060  0.3414 -0.3270
12547SOL    HW240662   8.360   3.285   7.392 -0.6051 -0.8879  0.1546
12548SOL     OW40663   0.108   6.883   6.635  0.1118  0.2373  0.0809
12548SOL    HW140664   0.119   6.788   6.631 -1.9742 -0.0790  1.1030
12548SOL    HW240665   0.013   6.896   6.635  0.3635  2.2365  1.6756
12549SOL     OW40666   1.457   6.388   2.104 -0.0178 -0.5948  0.3422
12549SOL    HW140667   1.474   6.306   2.150 -1.0613 -1.6887 -1.1505
12549SOL    HW240668   1.371   6.415   2.136 -1.9440 -2.7151 -2.7523
12550SOL     OW40669   6.719   8.860   0.339  0.0319 -0.0805 -0.1391
12550SOL    HW140670   6.787   8.886   0.277 -0.9082  1.6529 -0.4770
12550SOL    HW240671   6.637   8.866   0.290 -0.5194 -0.7885  0.6626
12551SOL     OW40672   9.262   2.928   1.476 -0.0414  0.0129 -0.0732
12551SOL    HW140673   9.351   2.907   1.505 -1.0012 -1.7739  1.7177
12551SOL    HW240674   9.261   2.905   1.383  1.1874 -0.4871  0.0265
12552SOL     OW40675   2.796   9.343   5.185  0.1676 -0.1336  0.0898
12552SOL    HW140676   2.804   9.250   5.207  0.5431 -0.5766 -1.8183
12552SOL    HW240677   2.886   9.374   5.182  0.1515 -0.1717 -1.1137
12553SOL     OW40678   1.063   5.214   8.946  0.1263 -0.8060  1.1648
12553SOL    HW140679   1.023   5.286   8.995  0.3161 -0.5997  1.0145
12553SOL    HW240680   1.156   5.236   8.944 -0.1451  0.2301 -1.0645
12554SOL     OW40681   4.116   9.358   5.076 -0.2653  0.3538 -0.0928
12554SOL    HW140682   4.041   9.304   5.053  0.2742  0.2617 -1.6994
12554SOL    HW240683   4.186   9.327   5.019  0.9580  0.5556  1.2623
12555SOL     OW40684   8.087   9.020   5.231  0.2954 -0.6647  0.0047
12555SOL    HW140685   8.002   9.064   5.233  1.7666  2.3340 -0.5687
12555SOL    HW240686   8.113   9.014   5.323  0.8154  1.2719  0.0186
12556SOL     OW40687   7.263   3.257   0.196 -0.0120 -0.7178  0.3563
12556SOL    HW140688   7.319   3.190   0.236  0.9630  0.6610  1.3323
12556SOL    HW240689   7.305   3.340   0.217 -2.8885  0.4296  1.8446
12557SOL     OW40690   8.099   9.025   3.388 -0.0647  0.5921 -0.0874
12557SOL    HW140691   8.075   9.060   3.474 -0.1355 -0.0984  0.1775
12557SOL    HW240692   8.182   9.067   3.367 -0.6260  1.6475 -0.2062
12558SOL     OW40693   5.276   8.266   2.133  0.2485  0.5770  0.1480
12558SOL    HW140694   5.353   8.275   2.077  0.1695  1.3352  0.1590
12558SOL    HW240695   5.219   8.205   2.085 -0.8304  2.9872 -1.7404
12559SOL     OW40696   2.904   1.997   1.144 -0.9527  0.6900 -0.1362
12559SOL    HW140697   2.968   1.966   1.080 -0.4421  1.8984 -0.2293
12559SOL    HW240698   2.822   2.004   1.095 -1.0158 -0.2190 -0.1785
12560SOL     OW40699   4.297   7.585   2.359  0.0880 -0.1861  0.3428
12560SOL    HW140700   4.359   7.514   2.345 -0.6243 -0.6847 -0.4083
12560SOL    HW240701   4.341   7.645   2.419 -0.3844 -2.6434  3.2808
12561SOL     OW40702   1.769   7.312   4.098  0.4082 -0.0062  0.4171
12561SOL    HW140703   1.782   7.378   4.031  0.9221  1.2273  1.7010
12561SOL    HW240704   1.788   7.229   4.055 -1.6091  0.5301 -1.6097
12562SOL     OW40705   6.332   4.653   6.592  0.3389 -0.3297 -0.0535
12562SOL    HW140706   6.254   4.697   6.559  0.0380 -0.1907  0.8523
12562SOL    HW240707   6.378   4.720   6.643  1.4193 -0.1977 -1.1514
12563SOL     OW40708   5.418   3.016   3.432 -0.1854  0.1777 -0.4978
12563SOL    HW140709   5.359   3.072   3.381 -0.2273  0.3090 -0.3072
12563SOL    HW240710   5.363   2.944   3.462 -0.1426  0.0569 -0.7073
12564SOL     OW40711   0.066   6.282   9.203 -0.6196  0.3892  0.2049
12564SOL    HW140712   0.097   6.193   9.221  1.3632  0.8924 -0.6095
12564SOL    HW240713  -0.029   6.275   9.206 -0.4825 -1.6855  0.5146
12565SOL     OW40714   4.927   8.635   1.539 -0.2731 -0.5164  0.2584
12565SOL    HW140715   4.991   8.582   1.491 -0.2160  0.3164 -0.6102
12565SOL    HW240716   4.979   8.681   1.605 -0.3943 -1.8867  1.3242
12566SOL     OW40717   7.326   3.912   7.174  0.0456 -0.2441 -0.3522
12566SOL    HW140718   7.376   3.867   7.106  1.6449 -0.5183  1.0073
12566SOL    HW240719   7.325   3.853   7.248  0.2920  1.0325  0.6910
12567SOL     OW40720   0.542   2.843   8.014 -0.1588 -0.1661  0.1441
12567SOL    HW140721   0.454   2.880   8.011  0.0727  0.2636 -2.2478
12567SOL    HW240722   0.528   2.748   8.013 -0.6262 -0.1053  1.0212
12568SOL     OW40723   8.281   6.799   5.705 -0.5106 -0.1425 -0.1647
12568SOL    HW140724   8.197   6.754   5.699 -0.2615 -0.6865  0.4533
12568SOL    HW240725   8.344   6.738   5.666 -0.4774  0.4953 -1.1570
12569SOL     OW40726   7.876   0.681   4.410  0.1742 -0.4327  0.3229
12569SOL    HW140727   7.911   0.662   4.323 -1.0934 -0.3632 -0.2226
12569SOL    HW240728   7.864   0.594   4.450  1.6990 -0.4229  0.8229
12570SOL     OW40729   0.619   2.818   5.513 -0.3169 -0.3476 -0.2425
12570SOL    HW140730   0.691   2.881   5.509  0.6575 -1.5436 -2.2210
12570SOL    HW240731   0.540   2.871   5.508  0.4490  0.8781  0.4969
12571SOL     OW40732   2.708   3.038   0.294 -0.7724 -0.1953  0.7030
12571SOL    HW140733   2.650   3.103   0.254  2.0285  1.6953 -0.4375
12571SOL    HW240734   2.755   3.000   0.220 -0.7992 -1.9509  1.5755
12572SOL     OW40735   0.404   8.737   0.034  0.0574  0.0251 -0.2671
12572SOL    HW140736   0.356   8.656   0.054  2.6269 -1.3308  0.5802
12572SOL    HW240737   0.370   8.765  -0.051 -2.5200 -0.6586  0.4899
12573SOL     OW40738   7.555   1.500   7.204  0.4638  0.6394 -0.0237
12573SOL    HW140739   7.468   1.535   7.186  0.9101  1.1590 -1.2326
12573SOL    HW240740   7.559   1.418   7.155 -0.3275 -0.7875  2.2480
12574SOL     OW40741   1.714   7.798   1.374  0.0682 -0.2577  0.2587
12574SOL    HW140742   1.695   7.704   1.378  0.8735 -0.4392 -0.1567
12574SOL    HW240743   1.738   7.821   1.464  1.1449 -0.7278  0.0967
12575SOL     OW40744   0.573   3.586   6.199 -0.5206 -0.3893  0.7751
12575SOL    HW140745   0.618   3.650   6.253  1.3706 -1.2992  0.3357
12575SOL    HW240746   0.481   3.596   6.221 -0.1232  1.6401  1.5830
12576SOL     OW40747   8.679   4.769   7.464  0.4036  0.1000 -0.2171
12576SOL    HW140748   8.610   4.755   7.400 -0.4976 -0.6313  0.8954
12576SOL    HW240749   8.693   4.683   7.504 -0.0973  0.8368  1.6063
12577SOL     OW40750   0.462   1.331   1.694  0.2567  0.1144  0.0128
12577SOL    HW140751   0.470   1.359   1.785 -1.1243  0.0640  0.1549
12577SOL    HW240752   0.378   1.285   1.690  0.4552 -0.1596 -1.2118
12578SOL     OW40753   9.230   4.745   8.515  0.0856  0.1104  0.1245
12578SOL    HW140754   9.190   4.768   8.599 -2.2656  3.9484 -1.8901
12578SOL    HW240755   9.180   4.795   8.451  3.9589 -0.1334 -3.2517
12579SOL     OW40756   4.692   2.757   0.773 -0.3696 -0.6698  0.0302
12579SOL    HW140757   4.766   2.789   0.825 -2.4484  1.8272  1.5529
12579SOL    HW240758   4.668   2.674   0.815  0.2517 -0.4607  0.8100
12580SOL     OW40759   7.151   2.950   2.340  0.4116  0.2976 -0.2159
12580SOL    HW140760   7.075   2.931   2.396  1.4822 -0.7576  0.9031
12580SOL    HW240761   7.197   3.021   2.386  1.2095 -0.4684  0.1816
12581SOL     OW40762   6.693   3.112   0.443  0.0732  0.4426  0.9722
12581SOL    HW140763   6.613   3.153   0.477  1.2031  1.5046  2.3773
12581SOL    HW240764   6.692   3.023   0.479 -0.6002  0.3625  0.7669
12582SOL     OW40765   6.182   8.083   2.209 -0.1952 -0.1818 -0.0702
12582SOL    HW140766   6.092   8.049   2.208 -0.4466  0.2911  2.8441
12582SOL    HW240767   6.206   8.086   2.302  1.9108  2.1568 -0.6312
12583SOL     OW40768   8.522   2.305   0.999  0.0255 -0.0951  0.4802
12583SOL    HW140769   8.502   2.212   0.988 -1.0246  0.2939 -1.0752
12583SOL    HW240770   8.559   2.331   0.914  0.6716  0.8183  1.0384
12584SOL     OW40771   7.113   4.637   6.662  0.2316  0.8330  0.2217
12584SOL    HW140772   7.170   4.664   6.734 -1.1906  0.6377  1.4508
12584SOL    HW240773   7.051   4.575   6.702 -0.8687  1.0622 -1.0658
12585SOL     OW40774   6.168   4.731   8.256 -0.0803 -0.4284  0.2199
12585SOL    HW140775   6.163   4.823   8.229 -1.3785 -0.6709 -0.3962
12585SOL    HW240776   6.262   4.715   8.266  0.1121  1.1995  1.1846
12586SOL     OW40777   8.576   8.299   1.149 -0.0379 -0.1577  0.3240
12586SOL    HW140778   8.642   8.366   1.135 -1.0235  0.5248 -1.2505
12586SOL    HW240779   8.515   8.337   1.212  0.1955 -0.1543  0.5466
12587SOL     OW40780   5.329   2.208   1.077  0.1574  0.1122  0.2646
12587SOL    HW140781   5.380   2.246   1.149 -1.0215  0.7145  0.7962
12587SOL    HW240782   5.291   2.283   1.032  1.6408 -0.2127 -1.5857
12588SOL     OW40783   4.751   8.758   3.310  0.9498  0.1597 -0.0977
12588SOL    HW140784   4.659   8.744   3.288  1.1440  1.2050 -1.6098
12588SOL    HW240785   4.760   8.853   3.314  2.2672  0.0891 -1.2817
12589SOL     OW40786   6.989   1.133   3.267 -0.5739 -0.0902 -0.5916
12589SOL    HW140787   6.976   1.066   3.334 -1.1165  0.7757  0.1799
12589SOL    HW240788   6.901   1.168   3.251 -0.1361  1.2185 -0.1697
12590SOL     OW40789   9.227   1.658   1.300  0.3321 -0.5438  0.4533
12590SOL    HW140790   9.168   1.611   1.359  1.1742 -1.9847  0.1819
12590SOL    HW240791   9.281   1.590   1.260  1.1453  0.5990 -0.4612
12591SOL     OW40792   0.746   2.954   0.997  0.5115  0.4978  0.4646
12591SOL    HW140793   0.715   2.898   0.925 -1.0205  1.1780  0.5779
12591SOL    HW240794   0.842   2.952   0.990  0.4667 -1.9622  0.3429
12592SOL     OW40795   6.527   6.944   2.588 -0.4353  0.1867 -0.7860
12592SOL    HW140796   6.512   6.990   2.506 -1.3065 -0.3914 -0.9620
12592SOL    HW240797   6.581   6.869   2.563  1.5620  1.4562 -0.3910
12593SOL     OW40798   3.474   1.822   7.098  0.3094 -0.7581  0.3691
12593SOL    HW140799   3.526   1.850   7.173  2.1889 -2.2329 -0.3080
12593SOL    HW240800   3.526   1.849   7.022 -0.9056 -0.4702 -0.3630
12594SOL     OW40801   3.669   5.116   4.713 -0.7888  0.1704  0.4686
12594SOL    HW140802   3.742   5.063   4.681 -2.4336 -0.1403 -3.0190
12594SOL    HW240803   3.605   5.052   4.745 -1.4731  0.1390 -0.8927
12595SOL     OW40804   2.795   1.125   5.597  0.1615 -0.3719  0.1793
12595SOL    HW140805   2.701   1.107   5.606 -0.1362  1.2627  0.3414
12595SOL    HW240806   2.812   1.111   5.503 -0.5137  0.5856 -0.0920
12596SOL     OW40807   3.910   5.381   3.616  0.4335  0.0660  0.0483
12596SOL    HW140808   3.897   5.287   3.610  0.4962  0.0456  0.2204
12596SOL    HW240809   3.824   5.418   3.595  0.2621 -0.0467  0.5457
12597SOL     OW40810   8.582   6.970   4.123  0.0401 -0.2484 -0.9248
12597SOL    HW140811   8.657   7.001   4.175  0.8295  0.7209 -2.6079
12597SOL    HW240812   8.534   7.050   4.101 -0.1086 -0.6164 -1.9441
12598SOL     OW40813   9.401   8.574   7.373 -0.2301 -0.0337  0.5004
12598SOL    HW140814   9.462   8.645   7.353  0.9254 -1.1113  0.1774
12598SOL    HW240815   9.421   8.549   7.463 -0.2210 -0.3610  0.4098
12599SOL     OW40816   6.398   8.835   0.562 -0.5541  0.1133 -0.5320
12599SOL    HW140817   6.335   8.906   0.575  0.0597  0.7843 -1.1489
12599SOL    HW240818   6.344   8.758   0.545 -1.2487  0.1108  1.6360
12600SOL     OW40819   6.768   0.969   5.662 -0.2776 -0.2920  0.0392
12600SOL    HW140820   6.711   0.905   5.705  0.2692 -0.3249  0.7237
12600SOL    HW240821   6.714   1.048   5.654 -0.0945  0.0249  1.6637
12601SOL     OW40822   7.519   6.448   4.962 -0.1049 -0.3562 -0.4991
12601SOL    HW140823   7.430   6.482   4.961  0.4481  1.1466 -0.9185
12601SOL    HW240824   7.546   6.453   5.054  0.2916  1.2883 -0.6795
12602SOL     OW40825   7.312   3.405   4.415 -0.2757  0.0770 -0.1576
12602SOL    HW140826   7.324   3.453   4.497  0.6933  0.3438 -0.4447
12602SOL    HW240827   7.323   3.313   4.439  0.6969  0.2051 -0.1127
12603SOL     OW40828   9.110   3.074   8.859  0.0345 -1.0879  0.4306
12603SOL    HW140829   9.061   3.140   8.909  1.0479  0.2716 -0.3103
12603SOL    HW240830   9.183   3.051   8.916  0.5440 -0.4071  0.0530
12604SOL     OW40831   6.383   6.320   1.252  0.4101 -0.7131 -0.0534
12604SOL    HW140832   6.329   6.369   1.189  0.1583 -0.4408  0.3735
12604SOL    HW240833   6.439   6.265   1.197  0.2570 -0.4086 -0.5220
12605SOL     OW40834   3.005   1.072   3.877 -0.4814  0.3394 -0.2831
12605SOL    HW140835   3.055   1.046   3.954 -1.9317 -1.4512  0.0963
12605SOL    HW240836   2.947   1.142   3.908  0.1980  0.8641 -0.1919
12606SOL     OW40837   2.359   6.387   1.892 -0.2829 -0.0212 -0.3444
12606SOL    HW140838   2.276   6.347   1.866  0.3728  0.2329 -2.9120
12606SOL    HW240839   2.333   6.463   1.945 -1.6016 -1.6053  1.3429
12607SOL     OW40840   8.201   6.565   1.839 -0.0756 -0.0069 -0.5997
12607SOL    HW140841   8.296   6.562   1.848  0.0656  1.1937 -1.5744
12607SOL    HW240842   8.170   6.487   1.884  1.3957 -0.5667 -0.5434
12608SOL     OW40843   7.824   6.198   6.602  0.4719  0.0129 -0.0086
12608SOL    HW140844   7.897   6.160   6.651 -0.1203 -0.7298  0.3189
12608SOL    HW240845   7.787   6.263   6.661  0.8334  0.3578 -0.1573
12609SOL     OW40846   0.105   3.639   5.902 -0.3604 -0.1559  0.2230
12609SOL    HW140847   0.011   3.623   5.906 -0.4140 -0.1205 -0.6898
12609SOL    HW240848   0.113   3.734   5.907 -0.3731 -0.1585  0.2978
12610SOL     OW40849   8.576   6.055   2.586 -0.1160 -0.0773 -0.4602
12610SOL    HW140850   8.650   6.113   2.602 -0.4391  0.2264 -0.0392
12610SOL    HW240851   8.577   5.993   2.659 -0.8287  0.5154  0.0715
12611SOL     OW40852   7.252   0.448   6.287 -0.3968 -0.3995 -0.9891
12611SOL    HW140853   7.238   0.501   6.208  0.3674  1.6679  0.2281
12611SOL    HW240854   7.345   0.426   6.284 -0.0192  0.9907  0.1084
12612SOL     OW40855   3.841   1.465   4.384 -0.8660  0.0767  0.5783
12612SOL    HW140856   3.855   1.403   4.455  1.3878  0.0667  0.1677
12612SOL    HW240857   3.828   1.411   4.306 -0.1634  0.1196  0.4348
12613SOL     OW40858   4.789   7.367   4.679  0.2253  0.2902  0.1562
12613SOL    HW140859   4.720   7.415   4.725  0.8053  0.0658  1.2901
12613SOL    HW240860   4.749   7.342   4.596 -0.8936  0.6153  0.5780
12614SOL     OW40861   6.787   4.731   1.639  0.0878 -0.0775  0.2381
12614SOL    HW140862   6.714   4.774   1.595  0.8784  0.3469 -0.6747
12614SOL    HW240863   6.773   4.638   1.622 -0.2595 -0.0050  0.1110
12615SOL     OW40864   3.556   2.627   6.394 -0.6323 -0.2845  0.5382
12615SOL    HW140865   3.500   2.693   6.354 -2.4869 -1.2041  1.5171
12615SOL    HW240866   3.636   2.673   6.418 -0.9325  1.0418 -0.9973
12616SOL     OW40867   3.630   2.472   5.684  0.1697 -0.4050  0.2306
12616SOL    HW140868   3.570   2.543   5.661  0.7088  0.0293  0.1772
12616SOL    HW240869   3.647   2.427   5.601  0.5497 -0.0461  0.1180
12617SOL     OW40870   5.846   5.287   5.750 -0.0384  0.0309  0.4794
12617SOL    HW140871   5.797   5.214   5.788  0.7792 -1.2954 -0.9471
12617SOL    HW240872   5.794   5.314   5.674 -0.4950  1.1347  1.1864
12618SOL     OW40873   5.106   4.429   7.040 -0.2139  0.5063 -0.4604
12618SOL    HW140874   5.201   4.425   7.054 -0.3662 -2.7482 -0.1293
12618SOL    HW240875   5.097   4.446   6.946  0.6593  3.0913 -0.1310
12619SOL     OW40876   8.709   0.180   2.489  0.2136 -0.7969 -0.5170
12619SOL    HW140877   8.790   0.153   2.532  1.3533  0.5566 -1.7561
12619SOL    HW240878   8.731   0.182   2.396 -1.0029  0.3340 -0.8005
12620SOL     OW40879   7.027   5.408   8.923  0.0977 -0.3583  0.4214
12620SOL    HW140880   6.962   5.349   8.885 -2.2581  0.2545  3.2497
12620SOL    HW240881   7.001   5.495   8.891  1.2231 -0.4041 -0.6429
12621SOL     OW40882   6.722   4.204   2.678  0.1434 -0.3223  0.6332
12621SOL    HW140883   6.675   4.285   2.694  0.7360  0.0686  0.4235
12621SOL    HW240884   6.766   4.184   2.761 -1.5222 -1.4569  1.2796
12622SOL     OW40885   0.230   3.904   0.964 -0.2808 -0.2548  0.0333
12622SOL    HW140886   0.146   3.915   1.008  0.0806 -1.1456  0.9492
12622SOL    HW240887   0.241   3.984   0.914 -1.7095 -0.1501 -0.1479
12623SOL     OW40888   8.271   1.087   1.109  0.1004 -0.1406 -0.0752
12623SOL    HW140889   8.356   1.116   1.077 -0.3484 -1.7463 -2.9285
12623SOL    HW240890   8.218   1.078   1.029 -2.5508  0.2194  1.5904
12624SOL     OW40891   6.112   0.181   1.781 -0.1560 -0.4902  0.3055
12624SOL    HW140892   6.022   0.212   1.770 -0.5815 -1.4199  1.1019
12624SOL    HW240893   6.138   0.214   1.867 -0.4032 -1.8041  0.9012
12625SOL     OW40894   1.568   6.822   1.631  0.1057  0.3398 -0.2963
12625SOL    HW140895   1.538   6.895   1.577  0.0821  0.1582 -0.5262
12625SOL    HW240896   1.660   6.841   1.649  0.0488  0.5220 -0.2018
12626SOL     OW40897   7.565   1.888   3.447 -0.0357  0.4019  0.2324
12626SOL    HW140898   7.619   1.856   3.518 -0.1714  1.6748  0.9318
12626SOL    HW240899   7.543   1.978   3.472 -1.2400  0.3972 -0.7438
12627SOL     OW40900   4.644   4.652   3.999  0.2773  0.3807 -0.6678
12627SOL    HW140901   4.719   4.654   4.059  1.0169  0.2832 -1.5727
12627SOL    HW240902   4.590   4.580   4.031  0.7179  0.2578 -0.1841
12628SOL     OW40903   6.426   0.360   5.669  0.2476 -0.1084 -0.2582
12628SOL    HW140904   6.425   0.301   5.593  0.1549 -0.9650  0.3993
12628SOL    HW240905   6.346   0.339   5.717  1.3493 -1.0633  1.2002
12629SOL     OW40906   1.077   7.796   2.479 -0.1489  0.0569 -0.2802
12629SOL    HW140907   1.042   7.876   2.440  0.1877  0.2991 -0.0940
12629SOL    HW240908   1.119   7.825   2.560 -0.1177 -0.3227 -0.1597
12630SOL     OW40909   7.252   8.885   5.310  0.1638  0.2402 -1.1618
12630SOL    HW140910   7.231   8.793   5.325  0.8359  0.3089  0.3711
12630SOL    HW240911   7.256   8.923   5.398 -0.9718  1.9360 -1.8259
12631SOL     OW40912   6.803   4.517   1.032 -0.0571  0.2367  0.4700
12631SOL    HW140913   6.852   4.448   0.988  0.3619  0.8008  0.0463
12631SOL    HW240914   6.758   4.564   0.960  0.8064  1.3032  0.6106
12632SOL     OW40915   7.613   1.879   1.910  0.4014 -0.1710  0.2694
12632SOL    HW140916   7.625   1.844   1.999  1.0861 -0.3291  0.1193
12632SOL    HW240917   7.616   1.801   1.854  0.1968 -0.0459  0.0857
12633SOL     OW40918   9.378   4.052   8.320 -0.3998 -0.2749  0.3557
12633SOL    HW140919   9.444   3.996   8.362  1.0002  0.1804 -1.1724
12633SOL    HW240920   9.317   3.992   8.278  0.8436 -0.6854 -0.8940
12634SOL     OW40921   9.357   5.184   1.284 -0.2124  0.3454 -0.2249
12634SOL    HW140922   9.271   5.224   1.296 -0.8589 -0.8835 -0.6906
12634SOL    HW240923   9.418   5.258   1.282 -1.1287  1.1634  1.1957
12635SOL     OW40924   8.976   5.206   6.948 -0.4262 -0.2974 -0.3453
12635SOL    HW140925   8.972   5.125   6.998 -1.0941 -0.6130 -0.9135
12635SOL    HW240926   9.062   5.204   6.906  0.1655 -0.0023  0.8217
12636SOL     OW40927   6.449   0.338   0.307  0.1159 -0.2014 -0.2213
12636SOL    HW140928   6.528   0.346   0.361 -0.8658  0.7637  1.0955
12636SOL    HW240929   6.423   0.428   0.290 -2.1153 -0.4744  1.4791
12637SOL     OW40930   3.130   8.277   7.347 -0.1122 -0.5411 -0.5124
12637SOL    HW140931   3.224   8.279   7.329  0.1591 -2.4368  0.5663
12637SOL    HW240932   3.123   8.291   7.442 -0.9128 -0.6386 -0.5501
12638SOL     OW40933   8.823   0.811   7.780  0.0748 -0.0776 -0.4819
12638SOL    HW140934   8.918   0.809   7.779  0.0516 -2.0122 -1.2250
12638SOL    HW240935   8.797   0.729   7.739 -1.9012 -0.9410  2.3548
12639SOL     OW40936   5.694   1.400   8.466  0.3361 -0.2596 -0.2365
12639SOL    HW140937   5.788   1.419   8.465  0.5039 -1.0120  0.3938
12639SOL    HW240938   5.688   1.309   8.495 -0.6316  0.1440  0.8826
12640SOL     OW40939   4.507   8.387   4.413  0.0713  0.0760  0.0320
12640SOL    HW140940   4.428   8.360   4.460  0.2066 -0.0248  0.2053
12640SOL    HW240941   4.485   8.374   4.321  0.3024 -1.1088  0.1389
12641SOL     OW40942   7.388   0.780   0.855  0.0054 -0.4588  0.5143
12641SOL    HW140943   7.379   0.723   0.779  0.1014  0.6589 -0.3535
12641SOL    HW240944   7.299   0.802   0.881 -0.0107  0.2487 -0.1231
12642SOL     OW40945   9.297   0.410   5.336  0.2510 -0.6426 -0.2742
12642SOL    HW140946   9.389   0.404   5.311  0.9339  0.5476  1.8504
12642SOL    HW240947   9.285   0.500   5.365 -1.9088 -0.4406 -1.6222
12643SOL     OW40948   5.425   8.344   3.611  0.2053 -0.5510 -0.1670
12643SOL    HW140949   5.342   8.332   3.565 -0.3272  1.5522  0.2010
12643SOL    HW240950   5.404   8.328   3.703  0.5911 -1.6853 -0.2688
12644SOL     OW40951   2.901   0.194   8.062 -0.7929  0.8099 -0.4868
12644SOL    HW140952   2.977   0.172   8.008 -1.2832  1.4978 -1.4684
12644SOL    HW240953   2.896   0.290   8.059 -1.1903  0.8222  0.2948
12645SOL     OW40954   8.615   5.147   6.245  0.9590 -0.6326  0.1064
12645SOL    HW140955   8.588   5.133   6.154  0.4349  0.4273  0.0958
12645SOL    HW240956   8.547   5.104   6.296  1.1795 -1.1090  0.0033
12646SOL     OW40957   7.777   7.253   4.143  0.5962 -0.5294 -0.4098
12646SOL    HW140958   7.704   7.301   4.183  0.9987  0.1280 -0.4592
12646SOL    HW240959   7.834   7.231   4.216  0.9207 -0.0456 -0.5177
12647SOL     OW40960   0.983   3.686   7.049 -0.2107 -0.4441 -0.6453
12647SOL    HW140961   1.012   3.683   6.958  1.6561  0.7285 -0.0944
12647SOL    HW240962   1.034   3.618   7.093  1.1616  1.0693  0.1501
12648SOL     OW40963   6.002   4.472   0.535  0.2813  0.0323 -0.0240
12648SOL    HW140964   5.950   4.490   0.457  0.8089 -0.0871 -0.4070
12648SOL    HW240965   5.969   4.533   0.601 -1.3485 -1.0416  0.1784
12649SOL     OW40966   7.302   3.917   3.397  0.4987 -0.5177  0.5425
12649SOL    HW140967   7.305   4.012   3.395 -0.5801 -0.4693  0.4825
12649SOL    HW240968   7.322   3.890   3.307  0.2062 -0.3206  0.4170
12650SOL     OW40969   3.424   8.162   3.270 -0.0578  0.1304  0.4990
12650SOL    HW140970   3.446   8.071   3.248  1.6352  1.0344 -1.6646
12650SOL    HW240971   3.468   8.177   3.354  1.1128 -0.4974  0.0049
12651SOL     OW40972   7.881   6.450   4.638  0.3611 -0.0725 -0.3645
12651SOL    HW140973   7.800   6.485   4.675 -0.4910 -0.1179 -2.1403
12651SOL    HW240974   7.901   6.373   4.692 -0.4446  0.2914  0.4579
12652SOL     OW40975   3.812   7.828   5.919 -0.8179 -0.1116 -0.3571
12652SOL    HW140976   3.742   7.774   5.955 -0.1777 -0.0049  1.1172
12652SOL    HW240977   3.768   7.906   5.884 -1.4710 -0.2207  0.2173
12653SOL     OW40978   1.203   0.131   9.244  0.8901 -0.0046  0.1669
12653SOL    HW140979   1.159   0.047   9.229  1.5881 -0.7159  1.9386
12653SOL    HW240980   1.277   0.130   9.184  0.1868 -0.0957 -0.7138
12654SOL     OW40981   8.015   1.021   6.212 -0.0835  0.0312 -0.0879
12654SOL    HW140982   8.017   1.116   6.221 -2.4232  0.0277  0.7857
12654SOL    HW240983   7.993   1.005   6.121  1.2241  0.2989 -0.4600
12655SOL     OW40984   6.759   7.807   2.594  0.3814 -0.0061  0.0775
12655SOL    HW140985   6.812   7.799   2.674 -0.9199 -1.0370  0.8564
12655SOL    HW240986   6.824   7.807   2.523  1.5990  1.6162  1.1469
12656SOL     OW40987   5.619   8.313   6.362  0.1144  0.4573 -0.3307
12656SOL    HW140988   5.640   8.220   6.347 -1.1210  0.4723 -2.3585
12656SOL    HW240989   5.587   8.344   6.277 -0.3161  2.5285  0.5648
12657SOL     OW40990   1.566   2.609   2.346  0.2512  0.1559  0.2639
12657SOL    HW140991   1.562   2.557   2.427 -1.0526 -1.0400 -0.5489
12657SOL    HW240992   1.653   2.651   2.349  0.4972 -0.4190  1.9359
12658SOL     OW40993   1.764   0.363   4.270  0.3630  0.7139 -0.1011
12658SOL    HW140994   1.728   0.387   4.185 -0.9904  1.6313  0.7106
12658SOL    HW240995   1.804   0.277   4.256  2.1010  1.8034 -2.1811
12659SOL     OW40996   4.398   7.928   2.380  0.0848  0.0261 -0.2740
12659SOL    HW140997   4.432   7.993   2.442  0.0253 -0.3837  0.1952
12659SOL    HW240998   4.468   7.862   2.373  0.1966  0.2015 -0.8438
12660SOL     OW40999   9.360   0.804   3.757  0.3038  0.0097  0.5087
12660SOL    HW141000   9.274   0.763   3.749 -1.0486  2.6810  0.8512
12660SOL    HW241001   9.346   0.879   3.814  2.5780  1.2877 -0.5509
12661SOL     OW41002   2.756   2.844   3.201  0.2901 -0.1729 -0.0287
12661SOL    HW141003   2.829   2.786   3.178 -0.7439 -1.0183 -1.1791
12661SOL    HW241004   2.750   2.906   3.128 -1.3100 -1.2302 -0.7968
12662SOL     OW41005   3.840   5.685   6.728  0.7140 -0.3254 -0.6328
12662SOL    HW141006   3.923   5.733   6.726 -0.2758  1.5107  1.2354
12662SOL    HW241007   3.865   5.595   6.751  2.3192 -0.1710 -1.6540
12663SOL     OW41008   4.453   0.213   0.962 -0.3550  0.1294 -0.5205
12663SOL    HW141009   4.487   0.150   1.025 -0.9791  2.6106  2.4034
12663SOL    HW241010   4.459   0.168   0.878  1.5041 -2.8810  1.1297
12664SOL     OW41011   7.652   6.745   4.445  0.0758  0.4518 -0.0380
12664SOL    HW141012   7.696   6.823   4.413  1.3318  0.3696  1.4380
12664SOL    HW241013   7.559   6.770   4.449  0.2899  1.4148 -0.8322
12665SOL     OW41014   8.004   3.982   6.912 -0.4513  0.3525 -0.2800
12665SOL    HW141015   8.007   3.982   7.007 -0.2080  1.5490 -0.2782
12665SOL    HW241016   8.096   3.978   6.885 -0.3066  3.1961 -0.4235
12666SOL     OW41017   5.203   2.947   1.869  0.0909  0.1081  0.1903
12666SOL    HW141018   5.252   3.030   1.878 -0.6083  0.5887 -0.3622
12666SOL    HW241019   5.255   2.884   1.918  2.5712  0.0894 -2.3144
12667SOL     OW41020   4.695   9.119   1.218  0.3428  0.2774 -0.3426
12667SOL    HW141021   4.636   9.190   1.243 -0.3262 -0.0975 -0.8601
12667SOL    HW241022   4.639   9.052   1.180  1.0426 -0.2892 -0.3981
12668SOL     OW41023   0.434   7.064   3.988 -0.0294  0.8774  0.8273
12668SOL    HW141024   0.523   7.054   4.023  0.1961  0.1846  0.0684
12668SOL    HW241025   0.411   7.154   4.007  0.9277  1.1283  0.8289
12669SOL     OW41026   7.810   0.740   5.417 -0.2595 -0.5614  0.4054
12669SOL    HW141027   7.824   0.750   5.511  0.8361  0.9591  0.1133
12669SOL    HW241028   7.898   0.727   5.381 -0.5050  0.2675 -0.5450
12670SOL     OW41029   2.401   4.125   6.833  0.4893 -0.2108 -0.4301
12670SOL    HW141030   2.426   4.202   6.885  2.2911  0.1924 -1.8373
12670SOL    HW241031   2.307   4.135   6.818  0.8475  2.1842 -1.2909
12671SOL     OW41032   2.668   7.026   1.037  0.1434  0.6719 -0.3498
12671SOL    HW141033   2.742   7.082   1.014  1.3837 -0.9756 -0.4755
12671SOL    HW241034   2.706   6.958   1.094 -1.5209  0.5769  0.6769
12672SOL     OW41035   4.906   8.136   5.954  0.0889 -0.3537  1.1399
12672SOL    HW141036   4.851   8.078   5.901 -1.2200  0.7871  1.2398
12672SOL    HW241037   4.954   8.077   6.011 -1.1021 -1.3626  1.1246
12673SOL     OW41038   6.481   0.140   3.930  0.9055 -0.3158 -0.2159
12673SOL    HW141039   6.454   0.076   3.995  2.5493 -0.0795  0.7231
12673SOL    HW241040   6.399   0.180   3.900  0.1750  0.2202  2.3854
12674SOL     OW41041   1.690   3.833   0.758  0.0418 -0.2271  0.2961
12674SOL    HW141042   1.605   3.870   0.736  0.1944  0.5457  0.9656
12674SOL    HW241043   1.716   3.878   0.838  1.7510  0.6392 -0.7049
12675SOL     OW41044   4.577   2.077   6.537 -0.6323  0.1859  0.1610
12675SOL    HW141045   4.576   2.017   6.612  0.3086 -0.9738 -0.7286
12675SOL    HW241046   4.662   2.120   6.540  0.1737 -1.2405 -1.2719
12676SOL     OW41047   4.494   0.586   3.991 -0.0412  0.0228  0.2342
12676SOL    HW141048   4.572   0.598   3.937 -0.8094  1.9818 -0.4816
12676SOL    HW241049   4.423   0.623   3.939 -0.8681  1.6067  2.3978
12677SOL     OW41050   6.986   5.536   7.620  0.2961  0.4362  0.4445
12677SOL    HW141051   7.037   5.616   7.607 -0.0048  0.4339 -0.8524
12677SOL    HW241052   7.052   5.468   7.632  0.6155  0.5028 -0.8084
12678SOL     OW41053   8.515   3.189   6.829  0.3308 -0.2601 -0.1911
12678SOL    HW141054   8.529   3.183   6.923  0.9513 -1.7131 -0.3540
12678SOL    HW241055   8.443   3.250   6.819 -0.0336 -0.4333  1.2566
12679SOL     OW41056   7.067   6.944   1.667 -0.2368  0.0283  0.2334
12679SOL    HW141057   7.151   6.898   1.668 -0.6472 -0.7896 -1.0787
12679SOL    HW241058   7.080   7.017   1.607 -0.6937 -0.5701 -0.6038
12680SOL     OW41059   4.120   8.009   8.696  0.1266 -0.0049  0.3514
12680SOL    HW141060   4.206   8.052   8.693  0.2250 -0.2951 -2.0566
12680SOL    HW241061   4.090   8.021   8.787  0.8023  3.7983  0.1423
12681SOL     OW41062   3.791   1.478   7.166  0.3808  0.0225  0.0548
12681SOL    HW141063   3.787   1.382   7.175 -0.1864  0.1517  1.1506
12681SOL    HW241064   3.700   1.506   7.171  0.4236  0.5230 -1.5483
12682SOL     OW41065   8.521   5.040   5.638  0.3584  0.5892  0.0345
12682SOL    HW141066   8.435   5.061   5.674  0.6843 -1.7436  2.2472
12682SOL    HW241067   8.503   4.973   5.572  0.3762  0.8571 -0.2442
12683SOL     OW41068   5.660   0.366   3.601  0.4054 -0.3822  0.1473
12683SOL    HW141069   5.644   0.397   3.512 -0.1371 -1.1657 -0.0323
12683SOL    HW241070   5.596   0.411   3.654 -0.7093 -1.5391 -0.1868
12684SOL     OW41071   6.098   6.022   1.609 -0.1503  0.0598  0.0301
12684SOL    HW141072   6.067   6.029   1.700 -0.6605  0.2528 -0.1572
12684SOL    HW241073   6.193   6.021   1.616 -0.1805 -3.0999  0.8378
12685SOL     OW41074   5.994   5.591   2.009 -0.3484 -0.0847  0.0471
12685SOL    HW141075   5.979   5.504   1.973 -0.9459  0.0187  0.0389
12685SOL    HW241076   5.929   5.600   2.079 -1.3621  0.9618 -1.0088
12686SOL     OW41077   1.276   4.487   2.560 -0.2340 -0.3131 -0.0838
12686SOL    HW141078   1.321   4.447   2.634 -1.6054 -1.4435  0.1674
12686SOL    HW241079   1.225   4.559   2.599 -0.5541 -0.5819 -0.0057
12687SOL     OW41080   6.095   8.808   3.191 -0.2442  0.1376 -0.0017
12687SOL    HW141081   6.111   8.847   3.277  1.2312 -1.4147  0.4611
12687SOL    HW241082   6.050   8.726   3.211 -2.0231  0.8806 -0.8706
12688SOL     OW41083   2.348   8.382   5.639 -0.2467 -0.2045 -0.9326
12688SOL    HW141084   2.338   8.411   5.730 -1.7047 -0.0884 -1.1257
12688SOL    HW241085   2.442   8.393   5.621 -0.0527  0.3502  0.3576
12689SOL     OW41086   2.047   3.234   4.350 -1.0203  0.2404 -0.1378
12689SOL    HW141087   2.047   3.285   4.431  1.0068  1.6015 -0.9375
12689SOL    HW241088   2.013   3.295   4.284  0.3240  0.1985 -0.8863
12690SOL     OW41089   5.737   9.211   6.998 -0.6027  0.1792 -0.1990
12690SOL    HW141090   5.747   9.142   6.933 -1.0594 -0.1761  0.1105
12690SOL    HW241091   5.725   9.165   7.081  0.6232  0.6357  0.2371
12691SOL     OW41092   6.221   4.171   5.984 -0.0392  0.1596  0.2961
12691SOL    HW141093   6.129   4.148   5.982  0.2110 -1.1576  2.6215
12691SOL    HW241094   6.257   4.121   6.057  1.7602  3.4207  1.7481
12692SOL     OW41095   9.301   7.769   6.417  0.2934  0.4598 -0.1714
12692SOL    HW141096   9.338   7.852   6.447  0.6263  0.9900 -1.9851
12692SOL    HW241097   9.376   7.724   6.377 -0.1453 -0.2321 -0.2121
12693SOL     OW41098   0.557   4.112   4.589 -0.0527  0.2629 -0.5486
12693SOL    HW141099   0.513   4.078   4.667 -0.5474  1.9683 -0.0533
12693SOL    HW241100   0.508   4.074   4.515 -0.3263 -0.4141 -0.0219
12694SOL     OW41101   0.279   6.928   3.470 -0.1451 -1.0576  0.2866
12694SOL    HW141102   0.224   6.967   3.538 -0.8003 -0.7166 -0.4434
12694SOL    HW241103   0.366   6.966   3.485 -0.0079 -1.9064  1.6907
12695SOL     OW41104   6.415   1.451   4.983  0.3224  0.2149  0.3849
12695SOL    HW141105   6.433   1.360   5.005 -0.9418  0.1323  1.0652
12695SOL    HW241106   6.341   1.448   4.922  1.1163  0.7156 -0.6428
12696SOL     OW41107   7.338   0.613   2.025  0.2800  0.0322  0.2419
12696SOL    HW141108   7.365   0.532   2.069 -0.7340 -0.7842 -0.6220
12696SOL    HW241109   7.337   0.679   2.095 -1.0983 -1.2070  1.4215
12697SOL     OW41110   4.646   6.690   1.870  0.0577 -0.0325  0.3610
12697SOL    HW141111   4.707   6.678   1.797 -0.7918 -1.7171 -0.0842
12697SOL    HW241112   4.668   6.621   1.932 -1.9507 -1.1964 -0.1867
12698SOL     OW41113   4.150   3.617   1.938  0.9973 -0.1913 -0.3439
12698SOL    HW141114   4.054   3.619   1.938  0.9877 -0.2329  1.1031
12698SOL    HW241115   4.173   3.570   1.858 -0.2306 -1.7651  0.2105
12699SOL     OW41116   1.559   5.376   2.219 -0.3269 -0.3812  0.0994
12699SOL    HW141117   1.505   5.328   2.282 -1.5899 -0.9187 -1.3866
12699SOL    HW241118   1.611   5.309   2.175  0.7077  0.0183  0.6820
12700SOL     OW41119   1.609   1.211   6.145 -0.4197 -0.5136  0.4810
12700SOL    HW141120   1.675   1.197   6.078 -0.7563 -1.0241  0.2608
12700SOL    HW241121   1.525   1.210   6.099 -0.6163 -0.2714  0.8190
12701SOL     OW41122   5.854   8.424   7.245 -0.3077 -0.1103 -0.0495
12701SOL    HW141123   5.891   8.487   7.183 -1.4675 -0.1785 -0.8237
12701SOL    HW241124   5.857   8.340   7.198 -0.5532 -0.2810  0.2386
12702SOL     OW41125   3.442   7.505   4.460 -0.4541 -0.7249  0.1616
12702SOL    HW141126   3.536   7.518   4.455 -0.5622  0.8475  1.8660
12702SOL    HW241127   3.406   7.554   4.386  0.0260 -1.0736 -0.3069
12703SOL     OW41128   5.741   4.749   0.301 -0.4392 -0.5412  0.2665
12703SOL    HW141129   5.738   4.838   0.336 -3.1000 -0.8284  0.8496
12703SOL    HW241130   5.748   4.760   0.206  0.8304  0.2477  0.4335
12704SOL     OW41131   6.790   8.533   4.949  0.1676  0.0729 -0.4267
12704SOL    HW141132   6.700   8.536   4.918 -0.2882 -0.6023  0.7769
12704SOL    HW241133   6.826   8.619   4.927 -0.9211  0.5222 -0.4778
12705SOL     OW41134   1.072   3.857   2.534 -0.3827 -0.3735  0.0104
12705SOL    HW141135   1.113   3.940   2.513  2.5565 -1.5596  0.8786
12705SOL    HW241136   1.011   3.841   2.461 -2.3602  3.3347  0.7222
12706SOL     OW41137   6.569   0.560   1.487 -0.0997  0.5865 -0.0316
12706SOL    HW141138   6.564   0.639   1.433 -1.3563  1.1474  0.9007
12706SOL    HW241139   6.485   0.516   1.473 -0.2272  0.4747  1.0808
12707SOL     OW41140   9.424   7.214   2.973 -0.4319  0.2841 -0.2280
12707SOL    HW141141   9.388   7.132   3.007 -0.6709  0.6624  0.4273
12707SOL    HW241142   9.494   7.186   2.914 -0.5673 -0.3965 -0.0720
12708SOL     OW41143   5.738   2.990   5.453  0.2582  0.2304 -0.7489
12708SOL    HW141144   5.655   2.950   5.479  1.0021 -0.6006  0.3847
12708SOL    HW241145   5.783   3.008   5.535  1.0129  1.0973 -1.3400
12709SOL     OW41146   4.905   0.471   0.947  0.1416 -0.2580 -0.3342
12709SOL    HW141147   4.966   0.528   0.900  0.9304 -0.0776  0.8717
12709SOL    HW241148   4.961   0.419   1.005 -1.0440  1.9479  2.9209
12710SOL     OW41149   3.497   8.888   7.170 -0.1140  0.2616 -0.3706
12710SOL    HW141150   3.498   8.798   7.201  0.4468  1.1476  2.2770
12710SOL    HW241151   3.562   8.890   7.100  1.0020 -1.0147  0.6221
12711SOL     OW41152   8.106   6.359   5.288  0.3435 -0.1622  0.1319
12711SOL    HW141153   8.058   6.276   5.289 -0.6095  0.3850 -0.2909
12711SOL    HW241154   8.040   6.426   5.301  0.8728  0.6508 -1.2070
12712SOL     OW41155   8.920   6.503   8.910 -0.2977 -0.3267  0.6100
12712SOL    HW141156   8.930   6.579   8.853 -0.3842  1.3312  2.7594
12712SOL    HW241157   9.009   6.482   8.938 -0.5004  0.5102  1.9329
12713SOL     OW41158   9.318   7.864   9.215 -0.4201  0.0290  0.4403
12713SOL    HW141159   9.237   7.819   9.190  0.6406 -1.6189 -0.1226
12713SOL    HW241160   9.306   7.886   9.307 -1.3205 -0.6086  0.4818
12714SOL     OW41161   3.778   6.007   6.241 -0.3133 -0.2447  0.2504
12714SOL    HW141162   3.831   5.955   6.303  1.1935  0.3616 -0.5148
12714SOL    HW241163   3.809   5.979   6.155 -0.8538  0.5287 -0.1923
12715SOL     OW41164   2.817   1.437   4.777 -0.3493  0.2615 -0.1301
12715SOL    HW141165   2.803   1.532   4.780 -1.5782  0.0726  0.5299
12715SOL    HW241166   2.740   1.400   4.820  0.8709 -0.9735  1.0281
12716SOL     OW41167   1.782   8.682   0.218 -0.4871  0.6161 -0.1060
12716SOL    HW141168   1.756   8.769   0.189  0.0947  0.5296 -0.8823
12716SOL    HW241169   1.808   8.694   0.309  0.0890  1.3524 -0.3651
12717SOL     OW41170   4.059   3.423   6.328 -0.2620  0.1728 -0.0297
12717SOL    HW141171   4.046   3.377   6.245  0.1932 -0.0226  0.0022
12717SOL    HW241172   4.149   3.454   6.324 -0.5370  0.9844 -0.0064
12718SOL     OW41173   0.426   4.447   9.195  0.1452  0.0174  0.1951
12718SOL    HW141174   0.435   4.515   9.128 -0.9293 -0.7974 -0.7908
12718SOL    HW241175   0.495   4.384   9.174 -0.5784 -0.5402 -0.5105
12719SOL     OW41176   4.000   3.152   3.107 -0.2944 -0.1123 -0.2121
12719SOL    HW141177   4.001   3.159   3.203  1.2530  0.2655 -0.2384
12719SOL    HW241178   4.083   3.110   3.085 -1.6118 -2.2277 -1.2666
12720SOL     OW41179   4.417   2.229   2.271 -0.1993  0.0845  0.1836
12720SOL    HW141180   4.471   2.292   2.319 -0.0289  0.5185 -0.5776
12720SOL    HW241181   4.457   2.224   2.185 -0.2238 -1.0521  0.2332
12721SOL     OW41182   4.047   4.222   6.937  0.0795 -0.2892 -0.4172
12721SOL    HW141183   4.099   4.163   6.884  2.1338  0.8259  0.2933
12721SOL    HW241184   4.009   4.283   6.874  1.8091  0.5052 -0.7249
12722SOL     OW41185   1.273   2.753   7.645  0.3386  0.1161 -0.3376
12722SOL    HW141186   1.305   2.829   7.693  0.8553  0.5783 -1.3838
12722SOL    HW241187   1.295   2.772   7.553  1.5409 -1.8245 -0.4799
12723SOL     OW41188   0.070   5.466   6.927 -0.3172  0.1133 -0.1454
12723SOL    HW141189   0.123   5.403   6.878 -2.3119 -0.3059 -1.8291
12723SOL    HW241190   0.067   5.544   6.870 -1.3533  0.1967  0.0280
12724SOL     OW41191   2.823   3.616   3.502 -0.1484  0.2000 -0.4119
12724SOL    HW141192   2.885   3.631   3.573  0.6266  3.8278 -1.7338
12724SOL    HW241193   2.758   3.686   3.512 -3.2601 -2.6355  0.0390
12725SOL     OW41194   4.931   8.273   9.304 -0.2587 -0.5163 -0.2635
12725SOL    HW141195   4.994   8.201   9.295  1.9434  1.6384 -2.8154
12725SOL    HW241196   4.870   8.260   9.231  0.6745  0.7059 -1.2685
12726SOL     OW41197   4.373   2.322   8.250 -0.1516  0.1451  0.0430
12726SOL    HW141198   4.283   2.337   8.278 -0.0949  0.4933  0.0441
12726SOL    HW241199   4.426   2.376   8.308 -0.1378  1.9684 -1.6190
12727SOL     OW41200   1.137   8.978   0.755  0.1458 -0.0081 -0.1693
12727SOL    HW141201   1.044   8.968   0.778 -0.4761 -0.2274 -2.6952
12727SOL    HW241202   1.168   9.048   0.812 -1.8636  0.8555 -0.0873
12728SOL     OW41203   2.932   1.742   6.599  0.3554  0.5301  0.2042
12728SOL    HW141204   2.878   1.724   6.676  0.7598  0.3959  0.4597
12728SOL    HW241205   2.948   1.837   6.602 -0.3177  0.6528 -0.1722
12729SOL     OW41206   0.508   0.180   5.707 -0.2038 -0.7408  0.0540
12729SOL    HW141207   0.603   0.183   5.712 -0.2836 -0.7379  1.9061
12729SOL    HW241208   0.488   0.196   5.614  1.6796 -3.0724 -0.8127
12730SOL     OW41209   5.845   2.826   6.327  0.1100 -0.2965 -0.1546
12730SOL    HW141210   5.928   2.815   6.280  0.5963  0.8149  0.4231
12730SOL    HW241211   5.781   2.848   6.259  1.3317  3.9489 -0.1067
12731SOL     OW41212   2.637   2.211   1.069  0.2434 -0.3395 -0.6064
12731SOL    HW141213   2.555   2.184   1.112 -0.1768  2.5753  0.5382
12731SOL    HW241214   2.613   2.290   1.020  2.3593  0.4952 -0.3265
12732SOL     OW41215   7.556   2.538   1.100  0.5786 -0.2104 -0.2268
12732SOL    HW141216   7.646   2.512   1.119  1.2201  0.9550 -1.6086
12732SOL    HW241217   7.548   2.530   1.005 -0.8007 -0.3833 -0.1057
12733SOL     OW41218   8.428   0.369   5.386 -0.1984 -0.0034  0.0379
12733SOL    HW141219   8.513   0.358   5.429 -0.2654  2.2125  0.8257
12733SOL    HW241220   8.382   0.287   5.402  1.2448 -0.6636  0.8866
12734SOL     OW41221   5.144   1.507   4.902  0.0215 -0.3833  0.0580
12734SOL    HW141222   5.080   1.448   4.863 -1.0864  0.3453  0.7440
12734SOL    HW241223   5.133   1.589   4.854  1.3918 -0.6459 -0.7368
12735SOL     OW41224   2.606   5.068   2.064 -0.1994 -0.0733 -0.1567
12735SOL    HW141225   2.579   4.999   2.002  2.0535  0.4711 -1.8181
12735SOL    HW241226   2.604   5.025   2.149  0.0064 -1.8836 -1.0201
12736SOL     OW41227   6.927   9.228   8.939 -0.1813 -0.4023  0.3345
12736SOL    HW141228   6.901   9.156   8.997 -0.2221 -0.5795  0.0982
12736SOL    HW241229   6.890   9.306   8.980 -0.3970 -0.5549  0.4325
12737SOL     OW41230   7.593   0.603   5.996 -0.4551  0.4175 -0.2018
12737SOL    HW141231   7.638   0.664   6.055  0.5415 -1.1791  0.7202
12737SOL    HW241232   7.528   0.658   5.951 -0.6364  1.8596  1.7177
12738SOL     OW41233   2.772   2.278   3.368 -0.1957 -0.4190  0.2509
12738SOL    HW141234   2.834   2.256   3.299 -0.8291  1.4871 -0.9690
12738SOL    HW241235   2.764   2.198   3.420 -0.8329 -2.4045 -2.7373
12739SOL     OW41236   3.424   0.517   2.181 -0.8898 -0.3487  0.0477
12739SOL    HW141237   3.402   0.466   2.103 -1.1804 -1.6025  0.9456
12739SOL    HW241238   3.479   0.459   2.234 -1.0029  0.3585  0.9537
12740SOL     OW41239   8.253   9.407   2.154  0.0610  0.0193 -0.1013
12740SOL    HW141240   8.257   9.314   2.177  0.0371 -0.5249 -2.2307
12740SOL    HW241241   8.174   9.414   2.100 -1.3319  1.7550  2.0753
12741SOL     OW41242   4.555   4.108   0.353 -0.3109 -0.6093  0.5624
12741SOL    HW141243   4.561   4.098   0.448 -1.6940 -2.2248  0.4958
12741SOL    HW241244   4.623   4.173   0.331  1.6773 -2.0253  2.3440
12742SOL     OW41245   5.409   0.466   2.453 -0.1774 -0.0323  0.8638
12742SOL    HW141246   5.320   0.433   2.440 -0.4444  0.5316  1.2382
12742SOL    HW241247   5.433   0.437   2.541  0.7363 -1.8157  0.0507
12743SOL     OW41248   0.418   3.467   4.037 -0.2357 -0.2815 -0.4617
12743SOL    HW141249   0.356   3.465   4.110 -0.9619 -2.3337 -1.0779
12743SOL    HW241250   0.371   3.511   3.966 -0.0920  0.3403 -0.1714
12744SOL     OW41251   6.213   0.921   3.454 -0.5391 -0.2874 -0.2525
12744SOL    HW141252   6.158   0.940   3.530 -0.7664 -0.0585 -0.4716
12744SOL    HW241253   6.152   0.894   3.386 -0.4679  0.8142 -0.7668
12745SOL     OW41254   5.036   4.265   6.581  0.0182 -0.3510 -0.5081
12745SOL    HW141255   5.027   4.176   6.614 -0.9677 -0.3813 -0.8516
12745SOL    HW241256   4.983   4.268   6.502  0.3615  0.4285 -0.7192
12746SOL     OW41257   9.237   1.347   8.970 -0.3329 -0.4347  0.1355
12746SOL    HW141258   9.327   1.358   9.002 -0.9208  1.5612  1.1787
12746SOL    HW241259   9.239   1.388   8.883 -1.0243  2.7887  1.5568
12747SOL     OW41260   2.609   3.587   9.305 -0.0075  0.0753 -0.3611
12747SOL    HW141261   2.583   3.672   9.342 -0.5673 -0.7765  1.2669
12747SOL    HW241262   2.704   3.589   9.307 -0.0187  0.3489  0.4592
12748SOL     OW41263   2.363   8.684   8.817  0.3627  0.2139  0.1408
12748SOL    HW141264   2.415   8.718   8.744  0.7682  1.6139  1.0647
12748SOL    HW241265   2.298   8.753   8.834 -0.5193 -0.6437  0.3051
12749SOL     OW41266   9.054   2.405   1.372  0.2593 -0.2673  0.0576
12749SOL    HW141267   9.052   2.434   1.280  1.5017  0.0389  0.1167
12749SOL    HW241268   9.035   2.311   1.368 -1.0969  0.0042 -0.3760
12750SOL     OW41269   0.764   4.385   1.835 -0.1782  0.0092 -0.5301
12750SOL    HW141270   0.855   4.362   1.820 -0.4940 -0.8185 -1.1842
12750SOL    HW241271   0.768   4.471   1.878  0.9207 -0.3306  0.0563
12751SOL     OW41272   4.862   3.669   8.031 -0.4402 -0.0129  0.3322
12751SOL    HW141273   4.863   3.732   7.959 -1.8617 -1.3333 -0.8831
12751SOL    HW241274   4.771   3.664   8.058 -0.0318 -0.1050  1.7243
12752SOL     OW41275   8.327   6.774   3.999  0.3842 -0.1315 -0.2973
12752SOL    HW141276   8.358   6.795   4.087 -0.5645 -0.4720  0.1275
12752SOL    HW241277   8.286   6.855   3.968 -0.6035 -0.4364  0.1687
12753SOL     OW41278   4.513   3.415   7.150  0.2787 -0.4235  0.4974
12753SOL    HW141279   4.471   3.439   7.233 -0.8363  0.1390 -0.2162
12753SOL    HW241280   4.444   3.371   7.101  0.1532  1.6026 -1.1957
12754SOL     OW41281   3.553   4.189   8.341  0.1483  0.2690 -0.7890
12754SOL    HW141282   3.499   4.130   8.394  1.6351 -0.5548 -0.1591
12754SOL    HW241283   3.497   4.212   8.267 -0.1335 -2.7529 -1.5900
12755SOL     OW41284   7.671   2.691   7.345 -0.1141 -0.2117 -0.3286
12755SOL    HW141285   7.729   2.754   7.386 -0.2485 -1.2723  1.5381
12755SOL    HW241286   7.584   2.714   7.377 -0.1964 -1.1537  0.1406
12756SOL     OW41287   8.154   7.364   2.543 -0.9190 -0.0298  0.0178
12756SOL    HW141288   8.121   7.445   2.581 -0.3625 -0.8726  2.3834
12756SOL    HW241289   8.141   7.298   2.611  2.5456 -1.0792 -0.2253
12757SOL     OW41290   0.148   5.794   2.918 -0.2300 -0.2222  0.1616
12757SOL    HW141291   0.059   5.828   2.925 -1.2465 -2.1519 -2.4250
12757SOL    HW241292   0.143   5.705   2.951  0.5063 -0.6495 -0.8235
12758SOL     OW41293   8.804   2.793   0.383  0.5958 -0.6813  0.0077
12758SOL    HW141294   8.812   2.812   0.290  2.0349 -0.7638  0.1121
12758SOL    HW241295   8.741   2.721   0.388  0.2020 -0.3954 -0.8666
12759SOL     OW41296   6.739   9.120   1.894 -0.2464 -0.2037 -0.8139
12759SOL    HW141297   6.658   9.081   1.861 -0.1509  0.0432 -1.3513
12759SOL    HW241298   6.711   9.180   1.963 -0.4310 -0.8793 -0.2967
12760SOL     OW41299   7.560   2.000   5.962 -0.6718 -0.0356 -0.0266
12760SOL    HW141300   7.501   1.963   6.028  0.4617 -0.7202  0.6147
12760SOL    HW241301   7.505   2.011   5.884 -1.4506 -1.4634  0.3081
12761SOL     OW41302   2.750   1.129   0.690 -0.1149  0.0356 -0.0610
12761SOL    HW141303   2.690   1.079   0.635 -0.2551  0.0071  0.1195
12761SOL    HW241304   2.817   1.160   0.629  0.8074 -1.6235  0.0643
12762SOL     OW41305   2.977   3.305   1.993 -0.2272 -0.5250 -0.2635
12762SOL    HW141306   3.042   3.355   2.042  1.5530 -0.0737 -2.9775
12762SOL    HW241307   2.969   3.223   2.042  1.4372 -0.0605  0.8439
12763SOL     OW41308   4.504   3.713   6.908 -0.7015  0.5207 -0.3128
12763SOL    HW141309   4.524   3.771   6.835 -0.9935  1.3632  0.2742
12763SOL    HW241310   4.559   3.636   6.893  1.7215  2.0873  0.3737
12764SOL     OW41311   6.900   8.323   3.823 -0.3534  0.2201 -0.1011
12764SOL    HW141312   6.862   8.338   3.910 -0.3097 -0.9323  0.1264
12764SOL    HW241313   6.994   8.316   3.840 -0.1758  1.5688 -0.4612
12765SOL     OW41314   3.180   4.908   8.033 -0.1023 -0.2942  0.2864
12765SOL    HW141315   3.242   4.980   8.036  0.8698 -1.1015 -0.0629
12765SOL    HW241316   3.181   4.872   8.122 -0.7430  0.2461  0.5162
12766SOL     OW41317   1.082   6.568   3.392 -0.1367  0.0541 -0.0195
12766SOL    HW141318   1.072   6.483   3.435 -2.0400 -0.4561 -1.4095
12766SOL    HW241319   1.176   6.584   3.393  0.1492 -1.5670  1.2277
12767SOL     OW41320   7.558   0.587   4.776 -0.6064 -0.1691 -0.1624
12767SOL    HW141321   7.578   0.525   4.706  0.3754 -2.6539  2.2231
12767SOL    HW241322   7.465   0.572   4.795 -0.5991 -0.2620 -0.2017
12768SOL     OW41323   2.354   2.209   7.446 -0.0307 -0.0091  0.3644
12768SOL    HW141324   2.412   2.133   7.451 -0.9342 -0.7710 -0.5219
12768SOL    HW241325   2.270   2.178   7.481 -0.1361  0.8534  0.8945
12769SOL     OW41326   4.833   8.065   1.139 -0.3293 -0.3440 -0.6047
12769SOL    HW141327   4.890   8.124   1.188  0.4125 -2.5971  1.3543
12769SOL    HW241328   4.745   8.082   1.174  0.2216 -2.0815  1.7442
12770SOL     OW41329   6.766   0.586   5.750  0.0251 -0.0816  0.1029
12770SOL    HW141330   6.697   0.539   5.796  0.6989  1.3014  2.6199
12770SOL    HW241331   6.722   0.625   5.674 -1.4649 -1.0908  0.4360
12771SOL     OW41332   4.892   2.499   7.527 -0.1687 -0.3248  0.1333
12771SOL    HW141333   4.841   2.576   7.506 -0.6575 -0.2657  1.4545
12771SOL    HW241334   4.921   2.513   7.618  0.3616 -1.3426  0.1397
12772SOL     OW41335   8.546   7.748   8.044 -0.5031  0.4393  0.2966
12772SOL    HW141336   8.458   7.783   8.029  0.2940  2.3351  0.0109
12772SOL    HW241337   8.531   7.656   8.068 -2.5871  0.8604  0.6955
12773SOL     OW41338   0.344   7.357   8.707 -0.8604  0.2885  0.8108
12773SOL    HW141339   0.329   7.302   8.631  0.8041 -0.3435  0.9089
12773SOL    HW241340   0.313   7.444   8.681  1.2448  0.4842 -1.2418
12774SOL     OW41341   3.198   6.731   1.988  0.6126  0.4157  0.5524
12774SOL    HW141342   3.153   6.659   2.031  0.0730 -0.2566 -1.1084
12774SOL    HW241343   3.128   6.788   1.957  0.8080 -1.1559 -2.9517
12775SOL     OW41344   9.148   8.638   5.017 -0.2342  0.1257 -0.4063
12775SOL    HW141345   9.230   8.626   5.065 -0.5778  0.0475  0.1721
12775SOL    HW241346   9.157   8.723   4.974  0.3274 -0.0801 -0.7084
12776SOL     OW41347   7.592   4.077   7.772 -0.2739 -0.4021  0.5448
12776SOL    HW141348   7.548   3.998   7.742  0.4159 -0.2098 -1.0607
12776SOL    HW241349   7.530   4.119   7.831 -3.1146  0.8401 -3.1113
12777SOL     OW41350   9.178   7.112   5.020  0.2258  0.1089 -0.4008
12777SOL    HW141351   9.135   7.149   4.943 -0.8497  0.7576  0.4884
12777SOL    HW241352   9.197   7.187   5.076 -0.4711 -0.5033  0.6847
12778SOL     OW41353   1.467   8.984   1.139  0.3410  0.1906  0.1407
12778SOL    HW141354   1.539   8.922   1.132 -1.2679 -2.0649  2.4740
12778SOL    HW241355   1.411   8.964   1.064 -0.9505 -2.3336  1.7042
12779SOL     OW41356   1.857   0.512   7.170  0.0830  0.4707  0.2580
12779SOL    HW141357   1.861   0.607   7.178 -0.6211  0.5640 -0.4168
12779SOL    HW241358   1.786   0.496   7.108  0.5088 -0.4773  0.0038
12780SOL     OW41359   5.682   7.458   5.635 -0.2115 -0.2212  0.0062
12780SOL    HW141360   5.614   7.399   5.667  1.5030 -1.8180  0.7860
12780SOL    HW241361   5.728   7.408   5.568  2.2036 -0.3447  1.7031
12781SOL     OW41362   3.069   4.056   1.702 -0.8505  0.9366 -0.8139
12781SOL    HW141363   2.978   4.066   1.730 -1.2237 -1.2000 -1.1919
12781SOL    HW241364   3.063   4.024   1.612  0.2517 -0.1843 -0.5054
12782SOL     OW41365   8.465   9.213   5.111 -0.5039 -0.5821 -0.1708
12782SOL    HW141366   8.425   9.295   5.141  0.2777  0.4055 -1.7174
12782SOL    HW241367   8.558   9.224   5.126 -0.5101 -1.6667  0.6808
12783SOL     OW41368   3.018   1.924   5.373  0.3476 -0.2523  0.5453
12783SOL    HW141369   3.092   1.884   5.417  1.5207  1.2127 -0.0523
12783SOL    HW241370   2.957   1.946   5.443  2.5518  2.8019  1.5957
12784SOL     OW41371   7.196   7.447   0.652  0.0119  0.4691 -0.1275
12784SOL    HW141372   7.266   7.511   0.640 -0.6161  1.2691  0.3876
12784SOL    HW241373   7.116   7.499   0.658 -0.2044 -0.1243  3.1792
12785SOL     OW41374   2.079   3.893   6.925  0.2639 -0.1759  0.1622
12785SOL    HW141375   2.148   3.831   6.901  1.3617  1.2554 -0.4700
12785SOL    HW241376   2.012   3.882   6.858  2.3706  2.3050 -2.5285
12786SOL     OW41377   4.614   2.464   5.188  0.3106  0.0970 -0.3633
12786SOL    HW141378   4.534   2.494   5.232  0.1528 -0.1502 -0.4818
12786SOL    HW241379   4.583   2.420   5.109  0.5151 -0.6663 -0.0293
12787SOL     OW41380   8.920   1.100   8.187 -0.0211  0.2173 -0.1841
12787SOL    HW141381   8.873   1.049   8.121 -0.0197  0.5014 -0.4102
12787SOL    HW241382   9.002   1.125   8.143  0.2609 -0.1348  0.1495
12788SOL     OW41383   2.063   2.940   6.505 -0.3204  0.5056  0.2007
12788SOL    HW141384   2.150   2.981   6.512  1.1297 -2.3040 -0.4711
12788SOL    HW241385   2.054   2.889   6.586 -1.5913  1.2029  0.5077
12789SOL     OW41386   7.297   2.626   7.125 -0.5052 -0.2877  0.3800
12789SOL    HW141387   7.201   2.625   7.120 -0.5486 -0.1705  1.2245
12789SOL    HW241388   7.317   2.650   7.215  0.3250 -0.2191  0.1857
12790SOL     OW41389   1.738   1.950   6.331  0.8215 -0.2850  0.2613
12790SOL    HW141390   1.793   1.889   6.281  0.7606  0.1074 -0.2801
12790SOL    HW241391   1.801   2.006   6.377  0.8720 -0.0156 -0.1395
12791SOL     OW41392   3.638   3.517   5.319  0.5123 -0.7132  0.4809
12791SOL    HW141393   3.624   3.609   5.343  0.0140 -0.8756  0.7921
12791SOL    HW241394   3.670   3.522   5.229 -0.6042 -0.2949  0.0946
12792SOL     OW41395   0.136   7.370   0.379 -0.4566 -0.7282  0.0767
12792SOL    HW141396   0.202   7.315   0.338  0.6958  0.4460  0.3180
12792SOL    HW241397   0.184   7.425   0.440 -1.5514  0.5901 -0.1961
12793SOL     OW41398   2.629   3.934   2.375 -0.1882 -0.3831  0.2417
12793SOL    HW141399   2.667   3.995   2.437 -1.3655 -1.2138  1.8090
12793SOL    HW241400   2.544   3.973   2.353  0.6305  0.4089 -1.6294
12794SOL     OW41401   3.293   3.726   1.029  0.3935  0.8850  0.2064
12794SOL    HW141402   3.266   3.685   1.111  0.5596 -2.6270 -1.4062
12794SOL    HW241403   3.387   3.737   1.037  0.6606 -1.0352 -0.1518
12795SOL     OW41404   3.955   7.852   6.157  0.1135 -0.1552  0.0599
12795SOL    HW141405   3.898   7.866   6.081 -0.3833  1.2173  0.6670
12795SOL    HW241406   3.896   7.816   6.224  0.3544 -0.4913  0.0899
12796SOL     OW41407   4.402   5.850   5.967  0.1926  0.2379 -0.1138
12796SOL    HW141408   4.348   5.811   5.898 -0.2745  0.1555  0.2887
12796SOL    HW241409   4.363   5.817   6.049  1.4960 -0.6634  0.1579
12797SOL     OW41410   4.180   4.725   8.014 -0.3870 -0.0184 -0.1826
12797SOL    HW141411   4.196   4.817   8.034  0.6951  0.0378 -1.2061
12797SOL    HW241412   4.098   4.704   8.057  1.1988  0.4273  3.1673
12798SOL     OW41413   7.205   8.566   7.835 -0.3768  0.1007 -0.1477
12798SOL    HW141414   7.217   8.660   7.853 -2.4797  0.5249 -0.9129
12798SOL    HW241415   7.172   8.530   7.918  2.2823 -0.3626  0.7614
12799SOL     OW41416   8.453   0.564   6.734  0.0462 -0.3687 -0.4305
12799SOL    HW141417   8.419   0.502   6.669 -3.0115 -0.3383  1.0476
12799SOL    HW241418   8.485   0.509   6.805 -3.1591 -0.3617  1.1206
12800SOL     OW41419   6.051   1.009   8.011  0.0301 -0.0285  0.3547
12800SOL    HW141420   6.055   0.947   8.084 -0.3441  1.4167  1.6163
12800SOL    HW241421   5.968   0.990   7.968 -0.7661  0.5619  1.6147
12801SOL     OW41422   0.271   2.176   3.957 -0.1318 -0.0731  0.7037
12801SOL    HW141423   0.234   2.245   4.013 -0.0260 -0.0068  0.6923
12801SOL    HW241424   0.221   2.098   3.979 -1.2862  0.3439 -0.3766
12802SOL     OW41425   2.496   3.867   7.152  0.2795 -0.0367 -0.8325
12802SOL    HW141426   2.566   3.807   7.128  2.4242  1.0707  2.3795
12802SOL    HW241427   2.537   3.954   7.154 -1.4757  0.8139 -0.2125
12803SOL     OW41428   7.723   5.337   0.218 -0.5926  0.2786  0.7707
12803SOL    HW141429   7.808   5.322   0.176 -1.6006 -1.8900 -0.6341
12803SOL    HW241430   7.725   5.282   0.296 -0.5545  0.5192  0.9382
12804SOL     OW41431   3.083   9.225   1.118  0.3129  0.0035 -0.1532
12804SOL    HW141432   3.010   9.205   1.059  0.1168  2.6154 -0.8880
12804SOL    HW241433   3.161   9.214   1.063  0.2695  0.1492 -0.2464
12805SOL     OW41434   9.252   7.158   8.966 -0.1079  0.1074 -0.1440
12805SOL    HW141435   9.306   7.231   8.936 -1.3468  1.4778  0.8445
12805SOL    HW241436   9.308   7.110   9.027  0.6790  0.2837 -0.7209
12806SOL     OW41437   0.998   5.106   1.249  0.4696  0.9874  0.1545
12806SOL    HW141438   1.004   5.016   1.283  0.5104  0.5067 -1.1088
12806SOL    HW241439   0.942   5.098   1.172  1.7053  1.8070 -0.8252
12807SOL     OW41440   4.206   7.420   9.116 -0.6630 -0.0144 -0.0502
12807SOL    HW141441   4.134   7.470   9.078 -0.3098  0.9079  0.4683
12807SOL    HW241442   4.228   7.355   9.049 -0.5032  1.1498 -1.1441
12808SOL     OW41443   5.072   2.106   1.310  0.3809 -0.2956 -0.1463
12808SOL    HW141444   5.057   2.013   1.324 -1.6202  0.0952  0.3932
12808SOL    HW241445   5.167   2.114   1.303  0.4803 -2.6120 -2.0305
12809SOL     OW41446   8.447   1.250   9.320 -0.2735  0.1107 -0.1041
12809SOL    HW141447   8.536   1.217   9.301  0.0586  0.2859  1.1237
12809SOL    HW241448   8.461   1.336   9.358 -1.0972  1.1504 -2.0881
12810SOL     OW41449   0.511   2.757   5.878  0.6665  0.2564  0.6990
12810SOL    HW141450   0.450   2.820   5.841  0.4829 -0.1534  0.2864
12810SOL    HW241451   0.598   2.789   5.853  0.6683  1.2944  2.0084
12811SOL     OW41452   5.682   7.470   2.167 -0.0336  0.7071  0.0938
12811SOL    HW141453   5.661   7.504   2.254  0.6530 -0.2040  0.6259
12811SOL    HW241454   5.769   7.506   2.148  0.1746  0.2355  0.1432
12812SOL     OW41455   3.205   0.396   3.191 -0.0424  0.4319 -0.4043
12812SOL    HW141456   3.146   0.331   3.228  1.3205 -0.4646  0.2485
12812SOL    HW241457   3.292   0.365   3.215  0.6894  1.7589 -1.2968
12813SOL     OW41458   4.087   2.401   4.183  0.5145 -0.0450 -0.1151
12813SOL    HW141459   4.071   2.366   4.096  1.3538 -0.9730  0.0929
12813SOL    HW241460   4.040   2.485   4.185  0.7795  0.1425 -1.5743
12814SOL     OW41461   4.896   5.476   8.736  0.5682 -0.4118  0.2406
12814SOL    HW141462   4.935   5.536   8.673  1.0749 -0.2728  0.6808
12814SOL    HW241463   4.913   5.389   8.700 -0.0235 -0.2976 -0.3161
12815SOL     OW41464   3.624   3.889   5.965  0.4140  0.2570 -0.4145
12815SOL    HW141465   3.555   3.829   5.994 -1.3417  1.1994 -2.5211
12815SOL    HW241466   3.670   3.841   5.895  0.6065  0.4169 -0.3997
12816SOL     OW41467   8.118   2.151   1.574  0.1992  0.4061  0.3885
12816SOL    HW141468   8.195   2.191   1.614  0.7211  0.4583 -0.6502
12816SOL    HW241469   8.077   2.222   1.524  0.6065 -0.1047 -0.6955
12817SOL     OW41470   0.858   0.783   9.189 -0.3554 -0.2185 -0.3725
12817SOL    HW141471   0.874   0.702   9.140  0.6021 -0.0245 -0.3809
12817SOL    HW241472   0.926   0.784   9.256  0.0522  0.9233 -0.8054
12818SOL     OW41473   0.071   2.603   8.672 -0.4227 -0.0859  0.0900
12818SOL    HW141474   0.045   2.627   8.583 -2.2338  2.1049  1.1555
12818SOL    HW241475   0.137   2.667   8.697  0.9676 -1.4254 -0.0909
12819SOL     OW41476   6.180   9.400   1.014  0.3957 -0.0025 -0.6813
12819SOL    HW141477   6.180   9.305   1.021  1.4348  0.0791  0.8466
12819SOL    HW241478   6.091   9.423   0.988  0.7468 -1.5233 -3.3566
12820SOL     OW41479   7.741   1.695   4.595 -0.4399 -0.4094 -0.1610
12820SOL    HW141480   7.756   1.760   4.526 -0.1986  0.1000  0.3585
12820SOL    HW241481   7.809   1.714   4.660 -1.5253  0.0271  0.8655
12821SOL     OW41482   5.378   1.116   1.956  0.2282 -0.2869 -0.2595
12821SOL    HW141483   5.317   1.167   1.902  0.5784  0.5552  0.1400
12821SOL    HW241484   5.462   1.163   1.948  0.6235 -0.9644 -0.1275
12822SOL     OW41485   7.636   9.432   9.087 -0.1639  0.0884  0.3661
12822SOL    HW141486   7.695   9.507   9.092 -1.6656  1.3040 -0.0549
12822SOL    HW241487   7.550   9.469   9.071 -0.8830 -1.7453 -0.1724
12823SOL     OW41488   4.249   5.370   2.482 -0.3666  0.1549 -0.3506
12823SOL    HW141489   4.283   5.423   2.554 -0.4229 -0.5537  0.2068
12823SOL    HW241490   4.281   5.413   2.403 -1.0014  1.4212  0.0696
12824SOL     OW41491   9.027   6.990   4.506 -0.2481 -0.0121 -0.0726
12824SOL    HW141492   9.095   6.925   4.526  0.1145  0.9833  2.0506
12824SOL    HW241493   9.063   7.041   4.433  0.2364 -1.0054 -0.5451
12825SOL     OW41494   0.531   6.029   0.654  0.6166 -0.2724  0.0824
12825SOL    HW141495   0.475   5.983   0.592 -0.7494  2.0452 -0.4420
12825SOL    HW241496   0.505   5.997   0.739 -0.5142 -0.2816 -0.2641
12826SOL     OW41497   3.415   9.144   3.604  0.1102  0.3162 -0.1691
12826SOL    HW141498   3.508   9.121   3.603 -0.0634 -0.4573  1.2836
12826SOL    HW241499   3.382   9.114   3.519  1.5514  2.2114 -1.4684
12827SOL     OW41500   6.317   3.916   4.273 -0.3500 -0.2019 -0.1597
12827SOL    HW141501   6.396   3.913   4.219 -1.9662 -0.1029 -2.5706
12827SOL    HW241502   6.250   3.875   4.219 -2.2686  0.8904  1.3582
12828SOL     OW41503   8.666   7.531   5.030  0.2039  0.3611  0.6662
12828SOL    HW141504   8.730   7.467   4.998 -0.6990 -1.9708  3.3019
12828SOL    HW241505   8.686   7.611   4.982  0.0767 -2.3831 -4.3013
12829SOL     OW41506   1.248   3.557   4.911 -0.1981 -0.0875 -0.0356
12829SOL    HW141507   1.203   3.524   4.989 -0.3899  0.3012  0.0190
12829SOL    HW241508   1.225   3.495   4.842  1.6678 -1.6390  0.6771
12830SOL     OW41509   7.516   5.532   6.882  0.0474  0.1213 -0.1296
12830SOL    HW141510   7.541   5.455   6.932 -0.8273  0.6867  1.2136
12830SOL    HW241511   7.430   5.556   6.916 -1.4687 -0.6012 -3.2159
12831SOL     OW41512   7.685   7.092   2.750  0.1061 -0.2971  0.6200
12831SOL    HW141513   7.670   7.031   2.822 -2.5595  0.4868  0.7827
12831SOL    HW241514   7.611   7.078   2.690  0.3083  1.6229 -0.1399
12832SOL     OW41515   3.468   3.196   9.038  0.2577 -0.1611  0.2458
12832SOL    HW141516   3.505   3.163   9.121 -1.1933 -1.2844  0.4637
12832SOL    HW241517   3.375   3.210   9.057  0.4422  2.2185 -0.4239
12833SOL     OW41518   1.615   5.460   6.265  0.4583  0.5570 -0.2903
12833SOL    HW141519   1.563   5.523   6.316  1.1621  1.0642 -0.1912
12833SOL    HW241520   1.698   5.505   6.250  0.5836  0.0498 -1.1151
12834SOL     OW41521   7.477   7.959   1.673 -0.1479 -0.1491  0.0851
12834SOL    HW141522   7.529   7.934   1.749 -0.9020 -0.4427  0.5164
12834SOL    HW241523   7.440   8.045   1.696 -0.1028 -0.0828 -0.0886
12835SOL     OW41524   8.439   7.995   8.272 -0.6693  0.1880  0.1911
12835SOL    HW141525   8.499   7.931   8.310 -1.2276  0.4084  1.4638
12835SOL    HW241526   8.495   8.069   8.248 -0.5775  0.8863  2.4696
12836SOL     OW41527   0.551   8.057   6.607  0.2648  0.0925  0.3234
12836SOL    HW141528   0.610   8.106   6.550  0.2734  0.7662  0.9125
12836SOL    HW241529   0.463   8.080   6.574  0.3241 -1.1047 -0.7119
12837SOL     OW41530   6.493   7.658   2.828 -0.2400 -0.0395  0.2936
12837SOL    HW141531   6.583   7.634   2.852 -0.8476 -2.5519  0.1303
12837SOL    HW241532   6.438   7.596   2.875 -1.6919 -1.5351 -3.1855
12838SOL     OW41533   3.015   8.444   4.612 -0.1605  0.0778 -0.3581
12838SOL    HW141534   2.998   8.489   4.529  0.3827 -0.2328 -0.6393
12838SOL    HW241535   3.110   8.450   4.623 -0.1102 -0.7657 -0.2687
12839SOL     OW41536   9.271   1.007   5.508 -0.3111  0.1242  0.0581
12839SOL    HW141537   9.225   1.091   5.516  0.1100  0.4214 -0.5438
12839SOL    HW241538   9.275   0.973   5.597 -0.9920  0.4720  0.2287
12840SOL     OW41539   2.769   1.778   2.554  0.2466  0.4060  0.0307
12840SOL    HW141540   2.759   1.850   2.615  0.8653 -0.9398  1.7738
12840SOL    HW241541   2.711   1.709   2.588  1.5011 -0.7894 -0.1822
12841SOL     OW41542   5.103   8.193   4.739  0.4790  0.4442 -0.2607
12841SOL    HW141543   5.098   8.278   4.782  0.3155 -0.0872  0.7949
12841SOL    HW241544   5.014   8.175   4.711  0.2757  0.0822  0.5961
12842SOL     OW41545   3.855   8.314   8.053 -0.2341  0.2414  0.6192
12842SOL    HW141546   3.779   8.296   7.997  0.3294  0.8085 -0.3205
12842SOL    HW241547   3.821   8.303   8.142 -1.2350 -0.2488  0.1863
12843SOL     OW41548   2.995   3.330   8.652 -0.2380 -0.9060 -0.2839
12843SOL    HW141549   3.073   3.386   8.655 -0.3445 -0.7896  0.3091
12843SOL    HW241550   2.994   3.296   8.562 -0.3403  0.2877 -0.7488
12844SOL     OW41551   5.044   3.969   6.544 -0.1977  0.3464 -0.3512
12844SOL    HW141552   4.953   3.964   6.516 -0.0763  1.4316 -0.9854
12844SOL    HW241553   5.066   3.881   6.574 -0.3173 -0.8782 -3.7396
12845SOL     OW41554   8.439   7.023   3.174  0.0500  0.6953 -0.0873
12845SOL    HW141555   8.502   6.969   3.223 -0.6132  1.8042  2.0250
12845SOL    HW241556   8.366   6.965   3.156  0.0196  0.4609  0.8010
12846SOL     OW41557   8.738   7.778   0.767 -0.1592 -0.6585 -0.1237
12846SOL    HW141558   8.786   7.695   0.770 -1.6932 -1.5581  0.0012
12846SOL    HW241559   8.717   7.797   0.858  0.1739 -0.1235 -0.1524
12847SOL     OW41560   7.959   2.318   4.283 -0.3262  0.0519  0.1129
12847SOL    HW141561   8.002   2.240   4.246 -1.4770 -0.3086 -0.4712
12847SOL    HW241562   7.979   2.313   4.376 -0.3493 -0.9231  0.0772
12848SOL     OW41563   2.223   4.369   1.809 -0.2964 -0.1821  0.5974
12848SOL    HW141564   2.138   4.371   1.852 -0.9908 -2.9149 -0.5459
12848SOL    HW241565   2.262   4.285   1.836  0.1893 -0.9300 -2.2717
12849SOL     OW41566   4.209   8.694   1.284  0.2215 -0.3153  0.1577
12849SOL    HW141567   4.157   8.615   1.299  0.2524 -0.4329 -0.3294
12849SOL    HW241568   4.250   8.713   1.368 -1.8148  0.6465  0.9817
12850SOL     OW41569   5.040   7.917   9.279 -0.6375  0.7117 -0.2702
12850SOL    HW141570   5.053   7.830   9.318 -0.7493  1.6720  1.9067
12850SOL    HW241571   5.093   7.914   9.199 -0.6931 -1.3930 -0.2652
12851SOL     OW41572   5.625   4.684   7.659  0.0330 -0.1417  0.1647
12851SOL    HW141573   5.661   4.721   7.740 -3.5974  0.6138  1.5004
12851SOL    HW241574   5.574   4.608   7.687 -0.2502 -0.6323 -1.5799
12852SOL     OW41575   3.659   0.759   4.815 -0.3507 -0.1011 -0.7662
12852SOL    HW141576   3.613   0.774   4.733  0.3223  2.5346 -0.7132
12852SOL    HW241577   3.643   0.838   4.866  0.1873 -1.2254  1.1869
12853SOL     OW41578   2.807   5.514   0.912  0.3062 -0.2538  0.6026
12853SOL    HW141579   2.835   5.562   0.990  1.0367  2.7539 -1.4430
12853SOL    HW241580   2.876   5.530   0.847 -0.8608 -1.7282 -1.0764
12854SOL     OW41581   7.341   6.290   7.429  0.5800  0.0456  0.0249
12854SOL    HW141582   7.345   6.338   7.512  0.7383  0.4302 -0.2065
12854SOL    HW241583   7.332   6.198   7.456  0.7624  0.1545  0.4702
12855SOL     OW41584   5.616   3.670   8.569  0.0326 -0.1243 -0.5692
12855SOL    HW141585   5.548   3.736   8.552 -0.2196 -0.7404 -1.9386
12855SOL    HW241586   5.611   3.610   8.495  1.4289 -0.7223 -0.1897
12856SOL     OW41587   9.208   2.430   6.494 -0.1231  0.1949 -0.0980
12856SOL    HW141588   9.226   2.467   6.407  0.0941  0.4882  0.0692
12856SOL    HW241589   9.118   2.399   6.489  0.1524 -0.5192 -0.6844
12857SOL     OW41590   2.056   5.293   5.371  0.3294 -0.1733  0.2761
12857SOL    HW141591   2.121   5.316   5.438  0.5040 -0.6526  0.2719
12857SOL    HW241592   1.977   5.270   5.421  0.1522  0.4345  0.2801
12858SOL     OW41593   3.975   8.005   2.203  1.1394 -0.3267 -0.0544
12858SOL    HW141594   3.922   8.070   2.157  0.9694 -2.2259 -2.6575
12858SOL    HW241595   4.065   8.029   2.183  1.1200 -0.1451  0.0728
12859SOL     OW41596   1.898   8.495   5.937  0.3693 -0.1006 -0.0957
12859SOL    HW141597   1.914   8.565   6.001 -0.0207 -1.2768  1.3258
12859SOL    HW241598   1.844   8.432   5.985 -2.1290  0.2120 -2.4107
12860SOL     OW41599   0.845   6.311   1.863  0.0304 -0.3934  0.2161
12860SOL    HW141600   0.896   6.391   1.856 -0.5832  0.3458  3.4154
12860SOL    HW241601   0.878   6.268   1.941 -2.0080 -1.5291  0.4865
12861SOL     OW41602   1.364   1.865   7.878  0.1170  0.1625 -0.4397
12861SOL    HW141603   1.335   1.862   7.787 -0.8906  0.0707 -0.1161
12861SOL    HW241604   1.401   1.953   7.888 -1.6054  0.9005 -0.3868
12862SOL     OW41605   7.872   1.933   2.781 -0.8584  0.1581  0.3674
12862SOL    HW141606   7.877   2.004   2.717 -2.3617 -1.6129 -1.7445
12862SOL    HW241607   7.829   1.973   2.857  0.9880  2.2889  0.3463
12863SOL     OW41608   1.771   0.625   1.355  0.4172 -0.3206  0.4142
12863SOL    HW141609   1.707   0.661   1.293 -1.8842 -1.4047  2.1149
12863SOL    HW241610   1.793   0.539   1.319 -0.1864 -0.5459  0.5760
12864SOL     OW41611   0.102   3.613   8.505 -0.3519  0.6291  0.2932
12864SOL    HW141612   0.041   3.628   8.577  1.0944  1.4563  1.3764
12864SOL    HW241613   0.099   3.519   8.490 -2.1464  0.7034  0.0889
12865SOL     OW41614   8.600   0.227   8.956  0.0137  0.2967  0.4303
12865SOL    HW141615   8.537   0.176   9.007  0.7222  0.0105  1.0321
12865SOL    HW241616   8.549   0.300   8.921 -0.8459 -0.4087  0.1839
12866SOL     OW41617   4.728   2.045   4.830  0.5987  0.4139 -0.5578
12866SOL    HW141618   4.789   1.981   4.865 -1.0507 -0.0837  1.5302
12866SOL    HW241619   4.769   2.130   4.847  0.0711  0.1571  2.1756
12867SOL     OW41620   6.839   5.990   4.172  0.1676 -0.6700 -0.0395
12867SOL    HW141621   6.915   5.991   4.231  0.5877 -1.3926 -0.5636
12867SOL    HW241622   6.775   5.935   4.217 -1.1044  2.0713  1.6776
12868SOL     OW41623   1.425   3.377   1.459 -0.0838 -0.3673  0.2574
12868SOL    HW141624   1.499   3.324   1.487  0.1611 -1.1556 -1.8188
12868SOL    HW241625   1.409   3.436   1.533  1.8395 -0.9858  1.2071
12869SOL     OW41626   4.961   2.542   4.477  0.0283  0.4067  0.1973
12869SOL    HW141627   4.890   2.496   4.432  0.9050  0.6086 -1.4419
12869SOL    HW241628   4.916   2.606   4.533 -1.1218 -0.7098  0.5650
12870SOL     OW41629   1.686   1.050   8.825  0.3178  0.1715  0.2662
12870SOL    HW141630   1.736   0.969   8.834 -0.1249 -0.1966 -0.5915
12870SOL    HW241631   1.607   1.025   8.778 -0.1340  0.9813  0.5797
12871SOL     OW41632   3.557   3.462   4.744 -0.5409 -0.1369  0.0086
12871SOL    HW141633   3.622   3.418   4.798 -1.3299 -0.3883  0.7650
12871SOL    HW241634   3.495   3.500   4.806  0.0258  1.9041 -0.6513
12872SOL     OW41635   0.923   7.225   8.062 -0.2795  0.5483 -0.2897
12872SOL    HW141636   0.983   7.284   8.015 -1.0591  2.2453  0.7993
12872SOL    HW241637   0.928   7.142   8.013  2.2101  0.9459 -0.7698
12873SOL     OW41638   6.196   3.933   9.402 -0.1594 -0.3102  0.0710
12873SOL    HW141639   6.116   3.941   9.351 -0.7233 -0.0738  0.9848
12873SOL    HW241640   6.172   3.960   9.490  0.6997 -1.1089  0.5705
12874SOL     OW41641   3.863   4.530   6.920  0.6446  0.0291 -0.0805
12874SOL    HW141642   3.897   4.619   6.920  0.4850  0.0955 -0.7408
12874SOL    HW241643   3.786   4.533   6.977 -0.9570  0.9532 -2.2222
12875SOL     OW41644   0.317   6.926   8.214  0.0778 -0.0004 -0.9206
12875SOL    HW141645   0.237   6.875   8.206 -0.3284  0.2781  1.1185
12875SOL    HW241646   0.371   6.898   8.139 -1.7253 -0.4977 -2.0635
12876SOL     OW41647   1.027   7.760   1.687  0.1255 -0.7320 -0.3411
12876SOL    HW141648   1.042   7.854   1.675 -1.4665 -0.2345  1.3230
12876SOL    HW241649   1.010   7.751   1.781  2.0912 -2.9563 -0.1572
12877SOL     OW41650   2.099   8.915   1.581 -0.2546 -0.6607 -0.4194
12877SOL    HW141651   2.038   8.894   1.511 -0.9368 -0.0213 -0.0291
12877SOL    HW241652   2.114   9.009   1.572  1.2873 -0.9574 -0.9978
12878SOL     OW41653   2.534   2.641   5.952 -0.3213  0.3524  0.6330
12878SOL    HW141654   2.514   2.599   6.036 -0.5901  0.8549  0.8193
12878SOL    HW241655   2.622   2.676   5.962  0.4164 -1.2613  0.0469
12879SOL     OW41656   7.252   8.229   0.436 -0.2273 -0.0374  0.5177
12879SOL    HW141657   7.344   8.214   0.458 -0.2117  1.2517  1.4177
12879SOL    HW241658   7.233   8.167   0.366  1.6922  0.5821 -0.5843
12880SOL     OW41659   5.235   1.062   4.385 -0.5480 -0.2957 -0.2257
12880SOL    HW141660   5.319   1.072   4.429  0.0824 -0.4730 -1.3651
12880SOL    HW241661   5.226   1.142   4.333 -1.2194 -0.1482  0.1180
12881SOL     OW41662   8.351   8.525   8.164 -0.7549  0.5623 -0.6657
12881SOL    HW141663   8.431   8.546   8.116 -0.3369 -2.9311 -1.6943
12881SOL    HW241664   8.381   8.473   8.239 -2.1148 -2.7098 -2.2757
12882SOL     OW41665   8.070   5.060   2.311  0.2144  0.3094  0.2131
12882SOL    HW141666   8.085   5.132   2.249  0.8855  0.0839  0.1136
12882SOL    HW241667   8.120   5.085   2.389 -0.0868  0.2657  0.4223
12883SOL     OW41668   7.502   7.121   3.514  0.5900 -0.0594  0.2863
12883SOL    HW141669   7.506   7.097   3.422 -0.2178  0.3085  0.1561
12883SOL    HW241670   7.449   7.201   3.517  0.6875 -0.0120  1.0566
12884SOL     OW41671   5.839   2.188   7.700  0.1907 -0.1381  0.2311
12884SOL    HW141672   5.823   2.259   7.638 -0.8894 -0.1356  0.4961
12884SOL    HW241673   5.861   2.112   7.645 -0.0780  0.0370 -0.1179
12885SOL     OW41674   4.021   0.964   0.699  0.1969 -0.0940 -0.0899
12885SOL    HW141675   3.985   0.886   0.741  2.0585 -2.1136 -2.0722
12885SOL    HW241676   4.099   0.985   0.750 -0.5283  0.7361  0.6879
12886SOL     OW41677   4.536   0.811   1.178 -0.5427 -0.4431 -0.2072
12886SOL    HW141678   4.444   0.798   1.158 -1.0177  2.4324 -0.1120
12886SOL    HW241679   4.563   0.884   1.121  1.0439  0.3146  1.4562
12887SOL     OW41680   2.102   2.505   4.569  0.5919  0.5803  0.3303
12887SOL    HW141681   2.088   2.591   4.609  1.6169  0.9811 -0.1548
12887SOL    HW241682   2.172   2.520   4.505 -0.2948 -0.2883 -0.8456
12888SOL     OW41683   8.272   7.388   2.261  0.5471  0.3764  0.0620
12888SOL    HW141684   8.332   7.323   2.226 -0.2635 -0.3599  0.0277
12888SOL    HW241685   8.320   7.430   2.333  0.2443 -1.8399  1.5896
12889SOL     OW41686   0.399   8.018   9.111  0.2172  0.1460  0.6237
12889SOL    HW141687   0.471   7.986   9.166  1.9345  1.0756 -1.0250
12889SOL    HW241688   0.326   8.031   9.172  1.4811 -0.6434  2.3570
12890SOL     OW41689   6.558   0.580   3.025 -0.1993  0.4319  0.2771
12890SOL    HW141690   6.557   0.628   3.107  0.9300  1.5049 -0.3224
12890SOL    HW241691   6.650   0.579   2.999 -0.1872 -1.9925  0.2309
12891SOL     OW41692   4.441   7.859   7.599  0.3794 -0.3559  0.5797
12891SOL    HW141693   4.471   7.949   7.604 -1.7922  0.4184 -0.0248
12891SOL    HW241694   4.347   7.863   7.617 -0.4383 -2.0549 -2.8768
12892SOL     OW41695   9.089   6.251   0.419 -0.0364 -0.6791 -0.2025
12892SOL    HW141696   9.131   6.170   0.391  1.1557  0.2645 -1.1600
12892SOL    HW241697   9.101   6.252   0.514 -1.4377 -2.3864  0.0148
12893SOL     OW41698   4.023   2.681   2.815 -0.1286  0.0721 -0.4281
12893SOL    HW141699   4.040   2.592   2.847  3.0845  0.8427  0.1389
12893SOL    HW241700   4.078   2.689   2.737 -0.6867  1.4287 -0.6884
12894SOL     OW41701   6.182   5.276   3.475  0.3039 -0.5066 -0.7167
12894SOL    HW141702   6.146   5.362   3.496  0.0923 -1.4566  3.2266
12894SOL    HW241703   6.274   5.280   3.503  0.6029 -1.2173 -1.5549
12895SOL     OW41704   7.706   3.819   7.001  0.3729 -0.1661 -0.7355
12895SOL    HW141705   7.767   3.794   6.932  1.3204  0.2086 -0.0377
12895SOL    HW241706   7.703   3.914   6.998  1.1867 -0.0996  0.3973
12896SOL     OW41707   5.839   2.200   2.387 -0.4774  0.4572  0.5931
12896SOL    HW141708   5.886   2.254   2.323  3.3035 -0.3198  2.5536
12896SOL    HW241709   5.840   2.112   2.349  1.5617  0.0407  1.5497
12897SOL     OW41710   0.063   9.081   0.959  0.1653  0.3183  0.0607
12897SOL    HW141711   0.034   9.170   0.980 -0.0495  0.7611 -2.0352
12897SOL    HW241712   0.033   9.029   1.033  0.3840  2.0062  1.3721
12898SOL     OW41713   0.350   9.254   6.631 -0.2116  0.3803  0.3348
12898SOL    HW141714   0.439   9.252   6.597 -0.5150  1.5905 -0.5695
12898SOL    HW241715   0.356   9.215   6.718  0.4666 -3.3455 -1.3320
12899SOL     OW41716   5.939   4.412   9.006  0.3231 -0.3197  0.1156
12899SOL    HW141717   5.983   4.448   8.929 -1.6152 -0.1499 -0.9404
12899SOL    HW241718   5.987   4.449   9.080  0.5818  1.6278 -0.9814
12900SOL     OW41719   7.249   0.882   6.590  0.0948  0.2699  0.6786
12900SOL    HW141720   7.291   0.836   6.662  3.7566  1.2539 -0.7421
12900SOL    HW241721   7.281   0.839   6.511 -2.1724  0.5996 -0.4772
12901SOL     OW41722   8.809   5.997   1.449 -0.2096  0.5720 -0.1002
12901SOL    HW141723   8.768   5.958   1.527 -1.4938  0.0541 -1.0081
12901SOL    HW241724   8.820   5.923   1.389  0.8371  0.9571 -0.3903
12902SOL     OW41725   2.242   1.654   3.187  0.0135  0.2995 -0.2269
12902SOL    HW141726   2.194   1.695   3.114 -0.2464  2.1065  0.9191
12902SOL    HW241727   2.188   1.580   3.213  0.1179 -0.3950 -1.8665
12903SOL     OW41728   5.413   7.116   3.783  0.3691  0.6955  0.3499
12903SOL    HW141729   5.351   7.045   3.800 -1.0946  1.4084 -1.7220
12903SOL    HW241730   5.420   7.162   3.867 -1.4686  0.2523  0.7667
12904SOL     OW41731   5.494   1.627   6.730 -0.1428 -0.2590 -0.1080
12904SOL    HW141732   5.433   1.605   6.799 -0.3292  0.2988 -0.0876
12904SOL    HW241733   5.475   1.719   6.709  1.0744  0.1095  0.3111
12905SOL     OW41734   4.417   2.024   5.583  0.1244  1.2753 -0.1198
12905SOL    HW141735   4.386   2.039   5.494  0.9369  1.6703 -0.3460
12905SOL    HW241736   4.444   1.931   5.584  1.7241  1.7114 -0.8033
12906SOL     OW41737   6.954   5.163   4.147  0.2219 -0.2480 -0.2270
12906SOL    HW141738   6.902   5.083   4.160  0.0762 -0.5113 -2.3156
12906SOL    HW241739   6.978   5.162   4.054  0.3729  2.0459 -0.2464
12907SOL     OW41740   8.356   1.700   0.423 -0.6470 -0.3031 -0.0480
12907SOL    HW141741   8.271   1.744   0.428 -0.4487  0.2103 -1.0815
12907SOL    HW241742   8.357   1.661   0.335  0.1913 -0.2953 -0.0426
12908SOL     OW41743   8.831   7.603   8.958  0.5429  0.6193  0.3862
12908SOL    HW141744   8.872   7.596   9.045  1.2076  1.2312  0.1320
12908SOL    HW241745   8.783   7.521   8.947  1.1539  0.1752  0.9817
12909SOL     OW41746   0.954   4.154   2.507  0.2002 -0.0936  0.2864
12909SOL    HW141747   0.942   4.192   2.420  1.4567  0.6411  0.4047
12909SOL    HW241748   1.049   4.161   2.523  0.0465 -0.6352  1.5182
12910SOL     OW41749   3.868   6.264   4.643 -0.1286  0.2050  0.0228
12910SOL    HW141750   3.891   6.212   4.565  2.4029 -0.6327  1.2701
12910SOL    HW241751   3.806   6.329   4.611  1.2338  0.1850 -2.8255
12911SOL     OW41752   6.039   0.629   0.324 -0.0686  0.0850 -0.7221
12911SOL    HW141753   6.083   0.709   0.294  1.9240 -0.3771  0.8113
12911SOL    HW241754   5.947   0.643   0.304  0.4368  2.1894 -1.7330
12912SOL     OW41755   6.194   4.503   3.916 -0.8504 -0.0970 -0.1190
12912SOL    HW141756   6.156   4.443   3.852  1.4202 -1.9242  0.1413
12912SOL    HW241757   6.198   4.587   3.871  1.5730 -1.5424 -2.8367
12913SOL     OW41758   4.657   1.853   6.739  0.1959  0.5907 -0.3048
12913SOL    HW141759   4.688   1.782   6.795 -2.6186 -0.7513 -0.3883
12913SOL    HW241760   4.683   1.828   6.651  0.2912  0.2767 -0.1883
12914SOL     OW41761   5.933   9.417   7.790 -0.5957 -0.2359  0.0004
12914SOL    HW141762   5.968   9.502   7.763  0.5705 -0.0634  1.9656
12914SOL    HW241763   5.950   9.359   7.716 -0.4310  0.9940 -0.9265
12915SOL     OW41764   8.647   5.196   9.113  0.0338 -0.1723 -0.3451
12915SOL    HW141765   8.577   5.216   9.051  0.7095  2.4167 -0.3442
12915SOL    HW241766   8.698   5.127   9.070 -1.1852 -0.4376 -1.3679
12916SOL     OW41767   4.145   5.480   5.034 -0.1797 -0.3211  0.4985
12916SOL    HW141768   4.132   5.574   5.017 -2.3001 -0.6775 -0.0441
12916SOL    HW241769   4.236   5.473   5.063  1.0063  1.4522 -2.5962
12917SOL     OW41770   1.707   2.006   2.493  0.0880 -0.3263 -0.2660
12917SOL    HW141771   1.618   1.982   2.468  0.0013 -0.4121  0.1112
12917SOL    HW241772   1.730   2.079   2.435 -0.1963 -0.3609 -0.4230
12918SOL     OW41773   4.959   6.644   0.784 -0.3372 -0.0029 -0.4766
12918SOL    HW141774   5.037   6.644   0.840 -0.3534  1.4539 -0.4473
12918SOL    HW241775   4.940   6.551   0.771  0.5390 -0.3695  0.7201
12919SOL     OW41776   2.358   0.941   0.371  0.8090 -0.1036 -0.3114
12919SOL    HW141777   2.420   0.936   0.298  0.6401 -0.5099 -0.4242
12919SOL    HW241778   2.410   0.916   0.448  0.8445 -0.2071 -0.3698
12920SOL     OW41779   0.263   4.567   2.087  0.5820 -0.6188  0.5891
12920SOL    HW141780   0.315   4.642   2.117  1.3432 -0.2816 -1.4291
12920SOL    HW241781   0.292   4.494   2.141  1.3064  0.1316  1.2221
12921SOL     OW41782   0.341   8.858   4.561 -1.0095 -0.4007 -0.4339
12921SOL    HW141783   0.337   8.944   4.604 -0.2136 -0.5532 -0.0509
12921SOL    HW241784   0.307   8.875   4.473 -0.4165  0.4210 -0.5217
12922SOL     OW41785   0.955   7.021   3.134 -0.2499 -0.7487 -0.0680
12922SOL    HW141786   0.863   7.018   3.160 -0.6022  0.3707 -1.1195
12922SOL    HW241787   0.958   6.975   3.050  0.4080 -2.0504  0.6656
12923SOL     OW41788   6.314   7.973   6.545 -0.4212 -0.0650 -0.4107
12923SOL    HW141789   6.397   7.962   6.590  0.1939 -0.9606 -1.7285
12923SOL    HW241790   6.311   8.065   6.521  0.2101 -0.0428 -0.3953
12924SOL     OW41791   0.822   1.255   8.360 -0.1379  0.0220  0.7820
12924SOL    HW141792   0.790   1.324   8.418 -0.1769 -1.2063  2.2482
12924SOL    HW241793   0.907   1.231   8.396  0.4557  0.1858 -0.4817
12925SOL     OW41794   2.772   1.133   2.097  0.1180 -0.9206  0.1515
12925SOL    HW141795   2.748   1.193   2.026  0.2353 -0.3883  0.5588
12925SOL    HW241796   2.688   1.105   2.133  0.0660 -0.8227  0.1080
12926SOL     OW41797   0.317   9.271   5.381 -0.7997 -0.7163  0.0979
12926SOL    HW141798   0.368   9.276   5.461 -1.7642 -1.2452  0.7546
12926SOL    HW241799   0.342   9.187   5.342 -0.7143 -0.6974  0.1143
12927SOL     OW41800   3.022   9.265   6.188 -0.5292  0.5844  0.4983
12927SOL    HW141801   3.004   9.284   6.280  1.8869 -0.0029  1.1163
12927SOL    HW241802   3.006   9.171   6.179  0.9414  0.3118  0.7352
12928SOL     OW41803   4.121   2.892   4.652 -0.1629  0.2549 -0.1943
12928SOL    HW141804   4.099   2.984   4.638 -2.0448 -0.1074  0.2735
12928SOL    HW241805   4.178   2.870   4.578  2.0734  2.3484  0.8202
12929SOL     OW41806   8.833   1.318   1.553  0.0167  0.8296  0.0437
12929SOL    HW141807   8.771   1.366   1.498 -0.4581  0.3956  0.1985
12929SOL    HW241808   8.845   1.374   1.629 -2.7091 -0.5386  1.5636
12930SOL     OW41809   2.584   4.368   4.774  0.5946  0.5538 -0.1946
12930SOL    HW141810   2.554   4.393   4.862  1.4304 -0.3834  0.3639
12930SOL    HW241811   2.528   4.294   4.751 -0.0551  1.2074 -0.7220
12931SOL     OW41812   6.254   7.187   4.496  0.3593 -0.3749  0.3368
12931SOL    HW141813   6.168   7.190   4.454  0.6205  1.0148 -0.1336
12931SOL    HW241814   6.237   7.208   4.588  0.3023  0.9056  0.0444
12932SOL     OW41815   2.450   7.612   4.056  0.3147 -0.5703 -0.0655
12932SOL    HW141816   2.356   7.596   4.046 -0.4592  2.1509  2.1652
12932SOL    HW241817   2.479   7.641   3.969 -1.0768 -0.6520 -0.5703
12933SOL     OW41818   6.764   8.797   6.954  0.0948 -0.5090  0.3162
12933SOL    HW141819   6.686   8.786   7.008  0.2973 -0.0986  0.7019
12933SOL    HW241820   6.781   8.710   6.917 -1.8735 -0.1063 -1.6427
12934SOL     OW41821   1.503   0.484   8.927  1.0638  0.4955  0.4495
12934SOL    HW141822   1.565   0.534   8.979 -0.1101  2.3427  0.1310
12934SOL    HW241823   1.435   0.547   8.904  0.5645 -0.7584 -1.6725
12935SOL     OW41824   0.359   1.646   0.064  0.3042  0.4666  0.3573
12935SOL    HW141825   0.382   1.555   0.081 -0.1604  0.3882  0.5570
12935SOL    HW241826   0.304   1.643  -0.014  0.8954  0.6470 -0.0685
12936SOL     OW41827   5.057   7.390   2.068  0.0789 -0.7007 -0.4235
12936SOL    HW141828   5.020   7.357   1.986  0.7481  0.4750 -1.2177
12936SOL    HW241829   5.019   7.335   2.136 -1.9153 -0.5234 -1.3686
12937SOL     OW41830   7.146   8.003   4.128 -0.4708  0.2607  0.5245
12937SOL    HW141831   7.111   8.025   4.215  0.1362 -2.1575  1.4372
12937SOL    HW241832   7.080   7.946   4.089  0.9731 -1.8195  1.0133
12938SOL     OW41833   0.511   1.958   3.145 -0.0648 -0.4612 -0.4002
12938SOL    HW141834   0.510   1.908   3.063 -2.4632 -1.0443 -0.0841
12938SOL    HW241835   0.428   1.934   3.187  0.7722  0.4483  1.8170
12939SOL     OW41836   0.810   8.874   5.600  0.1464 -0.6227 -0.2685
12939SOL    HW141837   0.797   8.795   5.547  0.7415 -2.9077  2.8718
12939SOL    HW241838   0.731   8.879   5.654  0.3240  0.6928 -0.1282
12940SOL     OW41839   4.815   1.566   3.112 -0.3369 -0.5271 -0.4197
12940SOL    HW141840   4.804   1.661   3.119  0.3913 -0.3722 -1.2819
12940SOL    HW241841   4.867   1.542   3.189  0.5225 -0.0457 -0.8417
12941SOL     OW41842   2.640   2.406   4.295 -0.5525  0.2823  0.0756
12941SOL    HW141843   2.662   2.499   4.303 -0.0871  0.1389  0.4582
12941SOL    HW241844   2.549   2.406   4.265 -1.1680  0.8543  1.8773
12942SOL     OW41845   1.406   3.513   1.929 -0.3050  0.9024 -0.4567
12942SOL    HW141846   1.422   3.421   1.908 -0.9365  0.7233 -0.1616
12942SOL    HW241847   1.312   3.517   1.948 -0.3075  1.6411 -0.6412
12943SOL     OW41848   2.653   9.077   5.132  0.4052  0.1368 -0.6365
12943SOL    HW141849   2.629   9.135   5.060  0.8603  1.1098 -0.0085
12943SOL    HW241850   2.675   8.994   5.090  1.4290  0.9324 -1.6957
12944SOL     OW41851   3.800   6.397   3.186 -0.5717  0.0938 -0.0702
12944SOL    HW141852   3.712   6.429   3.168 -0.1506  1.2525 -0.1792
12944SOL    HW241853   3.839   6.384   3.099 -0.3913  0.3330 -0.0282
12945SOL     OW41854   3.000   6.715   1.139 -0.2101  0.1716  0.0564
12945SOL    HW141855   2.933   6.775   1.175 -0.4625 -0.4105  0.5662
12945SOL    HW241856   2.974   6.629   1.172  0.3118 -0.1759 -0.4576
12946SOL     OW41857   2.907   7.681   6.395 -0.3674  0.6816  0.0152
12946SOL    HW141858   2.858   7.691   6.313 -1.0516 -0.8936  0.2151
12946SOL    HW241859   2.984   7.628   6.371 -0.9451 -0.4055  0.5206
12947SOL     OW41860   8.162   9.266   7.128 -0.6594 -0.5854  0.3206
12947SOL    HW141861   8.231   9.220   7.079 -1.1995 -3.2575  1.9262
12947SOL    HW241862   8.197   9.353   7.143  0.0428 -0.0937 -3.6544
12948SOL     OW41863   3.241   2.451   2.586  0.1621 -0.1796 -0.0481
12948SOL    HW141864   3.154   2.489   2.571  0.7329  1.2158  0.1108
12948SOL    HW241865   3.227   2.387   2.657 -0.6945  0.1531  0.0922
12949SOL     OW41866   9.054   1.368   2.782  0.2219  0.1108 -0.3145
12949SOL    HW141867   9.000   1.424   2.725 -2.3882 -0.8889  1.1118
12949SOL    HW241868   9.103   1.312   2.721 -0.3455  1.0120 -1.6313
12950SOL     OW41869   0.533   5.172   2.668  0.1845  0.1995  1.0675
12950SOL    HW141870   0.584   5.251   2.680 -0.6514  1.0441 -0.7628
12950SOL    HW241871   0.443   5.203   2.656 -0.0684 -0.9865 -0.1700
12951SOL     OW41872   0.598   4.570   2.667  0.2018  0.2967  0.1426
12951SOL    HW141873   0.636   4.626   2.600  0.4235 -1.0572 -0.8944
12951SOL    HW241874   0.670   4.550   2.726 -0.0638  1.7426  0.9821
12952SOL     OW41875   1.746   1.942   4.450 -0.0763 -0.1509  0.0814
12952SOL    HW141876   1.744   1.998   4.527 -0.0613 -0.6252  0.4324
12952SOL    HW241877   1.771   2.000   4.378 -0.7381  0.4307  0.3149
12953SOL     OW41878   4.605   4.743   5.002 -0.7497  0.4639 -0.6945
12953SOL    HW141879   4.590   4.796   5.081  2.1048 -2.9817  2.3298
12953SOL    HW241880   4.697   4.757   4.981 -0.7603 -0.8887 -1.6962
12954SOL     OW41881   7.316   0.737   6.353  0.1901 -0.3199  0.1796
12954SOL    HW141882   7.334   0.655   6.398  0.3967 -0.4023 -0.0459
12954SOL    HW241883   7.280   0.710   6.268  2.6021 -0.2551 -0.9126
12955SOL     OW41884   3.718   5.318   0.168 -0.0072 -0.5123 -0.3338
12955SOL    HW141885   3.704   5.342   0.260 -2.2694 -1.7782 -0.3051
12955SOL    HW241886   3.800   5.269   0.168  1.8774  2.5032  0.4335
12956SOL     OW41887   3.705   6.983   8.346  0.0044  0.2328 -0.3830
12956SOL    HW141888   3.609   6.977   8.340 -0.1088  0.8731  0.6325
12956SOL    HW241889   3.730   6.912   8.405  0.2597 -0.5640 -1.4350
12957SOL     OW41890   0.307   9.305   6.996  0.3761  0.6621 -0.2084
12957SOL    HW141891   0.306   9.212   6.977 -0.0342  0.7389 -0.5594
12957SOL    HW241892   0.295   9.310   7.091 -5.1347  0.5280 -0.7620
12958SOL     OW41893   3.340   3.230   8.144  0.3886  0.0124  0.2207
12958SOL    HW141894   3.403   3.184   8.087 -1.1683  0.8340 -2.2126
12958SOL    HW241895   3.377   3.317   8.154 -1.2775  1.1704 -2.9118
12959SOL     OW41896   4.993   1.113   8.699 -0.2477  0.6584  0.3727
12959SOL    HW141897   5.012   1.066   8.780 -1.5547 -2.0216 -0.8252
12959SOL    HW241898   4.899   1.131   8.702 -0.6619 -1.0749 -1.3381
12960SOL     OW41899   8.803   7.154   0.234  0.1816  0.1919 -0.4295
12960SOL    HW141900   8.779   7.242   0.205  3.6705  2.0648  2.0286
12960SOL    HW241901   8.749   7.139   0.312  2.0060  1.6235  1.1543
12961SOL     OW41902   6.236   4.206   0.345  0.2893 -0.5106  0.2734
12961SOL    HW141903   6.303   4.199   0.277  1.3165 -2.7137  1.4208
12961SOL    HW241904   6.246   4.294   0.381  1.2030 -0.1101 -0.9529
12962SOL     OW41905   7.277   5.261   4.411  0.9391  0.3353  0.0096
12962SOL    HW141906   7.241   5.245   4.324 -1.4509  1.6743  0.7087
12962SOL    HW241907   7.241   5.191   4.465 -0.3591  1.4658  0.6371
12963SOL     OW41908   5.854   5.164   5.190  0.5088 -0.3111  0.1580
12963SOL    HW141909   5.818   5.113   5.262  2.1913 -0.1514  1.1416
12963SOL    HW241910   5.778   5.203   5.147 -0.6362 -1.8200  0.7676
12964SOL     OW41911   7.765   7.566   4.233  0.3533  0.0020  0.2673
12964SOL    HW141912   7.728   7.613   4.158 -0.2066 -0.7117  0.0944
12964SOL    HW241913   7.741   7.619   4.309  0.7651  0.6328 -0.0341
12965SOL     OW41914   1.189   3.394   8.617 -0.3559  0.1414  0.1194
12965SOL    HW141915   1.145   3.381   8.700  0.1980 -0.8644  0.2643
12965SOL    HW241916   1.271   3.438   8.640 -0.7712  0.9901 -0.0274
12966SOL     OW41917   7.329   5.755   0.636  0.3896 -0.1747  0.1713
12966SOL    HW141918   7.370   5.785   0.556  0.5221  1.5160  0.8329
12966SOL    HW241919   7.238   5.736   0.611 -0.0244  1.9310 -0.0897
12967SOL     OW41920   7.840   2.093   5.436 -0.3010  0.4634 -0.1270
12967SOL    HW141921   7.873   2.092   5.526 -1.7364  1.9766  0.4541
12967SOL    HW241922   7.917   2.074   5.382 -0.0292 -3.6323  1.5225
12968SOL     OW41923   0.654   7.093   7.752 -0.0377  0.3500 -0.2072
12968SOL    HW141924   0.715   7.121   7.684 -1.1789  1.3615 -0.8277
12968SOL    HW241925   0.710   7.063   7.824  1.2011  2.3967 -0.2940
12969SOL     OW41926   1.146   3.840   6.121 -0.4642  0.7130  0.2631
12969SOL    HW141927   1.238   3.823   6.102 -0.1743  2.2718  0.1745
12969SOL    HW241928   1.106   3.754   6.128  1.7840 -0.1271  4.2234
12970SOL     OW41929   5.413   3.482   5.054  0.3706  0.1108  0.1208
12970SOL    HW141930   5.415   3.564   5.006  0.8537  0.8293  1.3343
12970SOL    HW241931   5.342   3.432   5.014 -0.7071  1.5923  0.1249
12971SOL     OW41932   3.530   7.441   8.238 -0.3459 -0.3081 -0.4402
12971SOL    HW141933   3.497   7.354   8.263 -1.1161 -0.4745 -1.9240
12971SOL    HW241934   3.480   7.502   8.292  0.0282 -0.7757  0.4416
12972SOL     OW41935   7.501   2.978   0.622 -0.4436 -0.3623  0.3671
12972SOL    HW141936   7.455   2.901   0.591  1.1662 -0.9484 -0.6027
12972SOL    HW241937   7.529   2.955   0.711  0.1656 -0.9594  0.0252
12973SOL     OW41938   1.206   0.272   2.390  0.2088 -0.1788  0.1336
12973SOL    HW141939   1.167   0.352   2.426 -1.1908 -0.9506  0.3580
12973SOL    HW241940   1.132   0.216   2.370  1.2511 -2.1921  1.7311
12974SOL     OW41941   3.416   0.495   0.462 -0.1317  0.2254 -0.2597
12974SOL    HW141942   3.497   0.449   0.438 -1.8086 -2.5437 -0.8426
12974SOL    HW241943   3.378   0.441   0.532 -1.8299  1.1234 -0.4653
12975SOL     OW41944   2.014   4.925   2.796  0.6806  0.1465 -0.1229
12975SOL    HW141945   2.045   4.967   2.715 -0.2983  0.2511 -0.4436
12975SOL    HW241946   1.931   4.969   2.815  0.9194  0.1249  0.9480
12976SOL     OW41947   8.153   1.060   6.812 -0.0430  0.2424  0.7284
12976SOL    HW141948   8.106   1.141   6.790 -0.2066 -0.0644 -0.0453
12976SOL    HW241949   8.169   1.017   6.728 -0.0183 -0.5725  1.1436
12977SOL     OW41950   1.096   1.002   4.206  0.3873  0.3131 -0.5946
12977SOL    HW141951   1.071   0.984   4.297 -0.2809 -1.4331 -1.1011
12977SOL    HW241952   1.026   0.963   4.154  0.0684  2.4734 -1.8558
12978SOL     OW41953   5.314   9.223   0.203 -0.1318  0.2836 -0.0040
12978SOL    HW141954   5.343   9.132   0.212  0.5880  0.2936 -1.9869
12978SOL    HW241955   5.390   9.275   0.229  0.4756  0.3018 -1.7439
12979SOL     OW41956   3.990   8.167   5.108 -0.5765  0.6381 -0.0273
12979SOL    HW141957   3.915   8.167   5.049 -0.4821  0.8747 -0.1504
12979SOL    HW241958   3.952   8.167   5.196 -0.7750  3.7371 -0.0495
12980SOL     OW41959   4.521   5.669   5.648 -0.0064 -0.7421  0.0688
12980SOL    HW141960   4.610   5.703   5.659  0.1437 -1.0723 -0.1146
12980SOL    HW241961   4.504   5.618   5.727 -0.7474  0.8757  0.9821
12981SOL     OW41962   2.283   1.709   5.816  0.3195  0.3556 -0.1688
12981SOL    HW141963   2.366   1.701   5.864  0.3490  0.3283 -0.2250
12981SOL    HW241964   2.239   1.626   5.829  0.2657  0.3987 -0.0742
12982SOL     OW41965   4.719   3.033   4.376 -0.2635  0.4406 -0.0084
12982SOL    HW141966   4.705   3.072   4.462  1.0602  2.8478 -0.8358
12982SOL    HW241967   4.638   3.049   4.329 -0.1967  1.0627  0.0835
12983SOL     OW41968   1.588   8.872   5.488  0.1116  0.3030  0.0183
12983SOL    HW141969   1.519   8.923   5.531 -0.5597 -0.5797  0.0063
12983SOL    HW241970   1.576   8.783   5.521  0.0774 -0.2287 -1.3929
12984SOL     OW41971   7.857   1.011   3.575  0.5106  0.0735 -0.2872
12984SOL    HW141972   7.848   1.040   3.485  2.0982  0.3399 -0.3796
12984SOL    HW241973   7.778   0.960   3.592 -0.7514  1.6530 -1.1895
12985SOL     OW41974   8.568   3.530   7.896  0.6655  0.1545 -0.0003
12985SOL    HW141975   8.650   3.565   7.862  0.6266 -0.5465 -0.8342
12985SOL    HW241976   8.519   3.505   7.818 -0.8036  1.5682  0.4473
12986SOL     OW41977   1.170   8.942   1.577  0.1913 -0.0470  0.0509
12986SOL    HW141978   1.092   8.909   1.531  0.2090 -1.7519  1.2228
12986SOL    HW241979   1.242   8.925   1.516 -0.3727  2.0516 -1.2852
12987SOL     OW41980   2.100   7.653   5.436 -0.3407  0.2235 -0.1647
12987SOL    HW141981   2.099   7.674   5.343  1.2107 -0.8286 -0.4315
12987SOL    HW241982   2.079   7.560   5.441 -0.3302  0.2531  0.5388
12988SOL     OW41983   8.626   0.387   1.100  0.2562 -0.6626  0.3707
12988SOL    HW141984   8.632   0.310   1.158  2.2014 -0.3679  0.6017
12988SOL    HW241985   8.583   0.354   1.021 -2.8150 -0.9790  2.0931
12989SOL     OW41986   7.703   9.152   5.673  0.1788 -0.5913 -0.0277
12989SOL    HW141987   7.693   9.235   5.721  0.5548  0.1173 -1.1472
12989SOL    HW241988   7.734   9.090   5.738  0.4025  0.2896  0.7178
12990SOL     OW41989   5.108   4.994   3.014  0.6240 -0.3413 -0.0486
12990SOL    HW141990   5.177   5.029   3.070 -0.6836  0.0573  1.3292
12990SOL    HW241991   5.065   4.928   3.067 -0.0421 -0.5990 -0.9066
12991SOL     OW41992   0.137   0.294   4.706 -0.3301  0.4577 -0.0725
12991SOL    HW141993   0.054   0.251   4.728 -0.9415  0.8031 -1.6003
12991SOL    HW241994   0.179   0.233   4.645  0.9878 -0.1534  1.4177
12992SOL     OW41995   7.722   9.052   0.171 -0.0433 -0.2731 -0.1046
12992SOL    HW141996   7.699   9.079   0.260 -1.0829 -1.4085 -0.0140
12992SOL    HW241997   7.797   8.994   0.182  2.4551  2.8244 -0.3338
12993SOL     OW41998   1.787   8.762   6.706  0.0963  0.3033  1.2373
12993SOL    HW141999   1.754   8.849   6.728 -0.4265 -0.0455  1.8878
12993SOL    HW242000   1.728   8.731   6.638  1.7247  1.3877 -0.7002
12994SOL     OW42001   0.670   7.791   1.696 -0.5443  0.1025 -0.5275
12994SOL    HW142002   0.663   7.817   1.605 -1.5774  0.8541 -0.2485
12994SOL    HW242003   0.579   7.789   1.727 -0.3419 -1.8740  0.0065
12995SOL     OW42004   0.732   6.874   1.595  0.0399 -0.2225  0.4929
12995SOL    HW142005   0.677   6.842   1.667 -1.7514  0.7289 -0.4034
12995SOL    HW242006   0.689   6.840   1.516 -0.3513  2.0912 -0.3297
12996SOL     OW42007   6.610   6.035   4.507  0.9710  0.6965  0.3152
12996SOL    HW142008   6.557   6.015   4.584 -0.2282 -1.0130 -0.9116
12996SOL    HW242009   6.698   6.047   4.541  0.5496 -0.5394  1.9085
12997SOL     OW42010   0.280   0.331   0.910 -0.4019 -0.1587  0.5169
12997SOL    HW142011   0.314   0.304   0.825 -0.4748  0.2625  0.3517
12997SOL    HW242012   0.350   0.385   0.948 -1.2549  1.5263 -0.2443
12998SOL     OW42013   3.576   4.701   2.526  0.1536 -0.0860  0.3997
12998SOL    HW142014   3.613   4.613   2.514  0.0315 -0.4046  2.1180
12998SOL    HW242015   3.645   4.761   2.498  0.2163 -0.7368 -0.8451
12999SOL     OW42016   4.356   7.615   5.194  0.2017 -0.0558  0.2781
12999SOL    HW142017   4.321   7.534   5.156  0.2469  0.2583 -0.4368
12999SOL    HW242018   4.283   7.652   5.244  0.7097 -1.4546  2.1109
13000SOL     OW42019   3.353   9.211   1.657  0.3412  0.5473 -0.2099
13000SOL    HW142020   3.444   9.239   1.670  0.8094  0.2704 -2.6508
13000SOL    HW242021   3.361   9.130   1.606 -1.2963  0.8581 -0.9632
13001SOL     OW42022   9.200   7.321   5.208  0.2265  0.3557  0.3464
13001SOL    HW142023   9.171   7.411   5.191  0.2424  0.3708  0.3984
13001SOL    HW242024   9.140   7.288   5.275 -0.5608 -0.1045 -0.5793
13002SOL     OW42025   6.515   1.748   8.826 -0.0251 -0.3439  0.2930
13002SOL    HW142026   6.460   1.726   8.751  0.3936 -1.9966  0.4510
13002SOL    HW242027   6.597   1.777   8.786 -0.1705 -0.2094  0.0898
13003SOL     OW42028   1.020   2.976   5.877 -0.3587  0.0364 -0.4404
13003SOL    HW142029   0.992   2.938   5.794 -0.2375  0.0978 -0.5103
13003SOL    HW242030   1.109   3.007   5.860 -0.8298  1.2578 -0.6747
13004SOL     OW42031   5.508   0.246   4.179 -0.1034  0.5725  0.5095
13004SOL    HW142032   5.450   0.267   4.106  0.1514  1.7895  0.6439
13004SOL    HW242033   5.487   0.311   4.247  0.3994  0.1209  1.1114
13005SOL     OW42034   0.627   5.409   6.413  1.0207 -0.1372  0.3712
13005SOL    HW142035   0.582   5.423   6.496  2.7128  0.4306  1.2211
13005SOL    HW242036   0.557   5.400   6.348 -0.3014  0.1485  1.7431
13006SOL     OW42037   0.119   2.520   4.330 -0.0476 -0.1073  0.1530
13006SOL    HW142038   0.121   2.587   4.262  1.4507 -0.4216 -0.1192
13006SOL    HW242039   0.097   2.568   4.410 -1.2962  0.3423 -0.4436
13007SOL     OW42040   6.521   1.954   4.266  0.0635  0.1670 -0.5118
13007SOL    HW142041   6.586   2.021   4.242  1.8261 -1.3007  0.0248
13007SOL    HW242042   6.545   1.929   4.355 -0.9420 -0.7586 -0.5002
13008SOL     OW42043   4.465   0.454   7.581 -0.0178 -0.5004  0.0263
13008SOL    HW142044   4.534   0.388   7.596  0.8634  0.0645 -1.3516
13008SOL    HW242045   4.436   0.436   7.491  1.8759  2.4380 -1.2403
13009SOL     OW42046   1.070   0.466   1.873 -0.8873  0.6244  0.2220
13009SOL    HW142047   1.138   0.427   1.818 -0.0160  1.5574  0.6125
13009SOL    HW242048   0.994   0.476   1.816 -0.9149 -1.0155 -0.0557
13010SOL     OW42049   4.587   3.607   1.734  0.0223 -0.2217  0.0271
13010SOL    HW142050   4.511   3.656   1.702 -1.7151 -2.1091  1.0998
13010SOL    HW242051   4.652   3.674   1.756 -1.0061  1.3889 -1.7015
13011SOL     OW42052   1.765   1.874   6.587  0.3540 -0.9766  0.1804
13011SOL    HW142053   1.783   1.966   6.606 -1.0783 -0.5757 -0.3527
13011SOL    HW242054   1.718   1.876   6.504  1.8310 -2.3213 -0.7093
13012SOL     OW42055   0.042   0.236   0.985  0.4725 -0.3898 -0.0548
13012SOL    HW142056   0.054   0.144   0.962  1.0808 -0.3759  0.2091
13012SOL    HW242057   0.114   0.281   0.942  0.5190 -0.1170  0.3069
13013SOL     OW42058   3.782   8.392   4.802 -0.5368 -0.1251  0.4213
13013SOL    HW142059   3.736   8.387   4.886 -1.1640  1.7708  0.2191
13013SOL    HW242060   3.856   8.333   4.811 -1.8719 -1.6770  1.4939
13014SOL     OW42061   7.531   6.437   7.813 -0.4293  0.1516  0.2889
13014SOL    HW142062   7.517   6.524   7.852 -1.1693 -0.0673  0.5112
13014SOL    HW242063   7.625   6.421   7.825 -0.8562 -0.4142  3.0279
13015SOL     OW42064   2.657   2.960   1.492 -0.4271 -0.0496 -0.1969
13015SOL    HW142065   2.741   2.942   1.449 -0.2774 -0.4516  0.2605
13015SOL    HW242066   2.592   2.920   1.434 -0.2246 -0.5928 -0.0525
13016SOL     OW42067   3.344   4.742   0.928 -0.0229 -0.2631 -0.6758
13016SOL    HW142068   3.367   4.657   0.890  0.0994  0.3852 -2.0771
13016SOL    HW242069   3.251   4.753   0.908  0.2867  0.5415 -1.7084
13017SOL     OW42070   8.393   4.960   4.697 -0.1574  0.7317 -0.5909
13017SOL    HW142071   8.381   4.865   4.701 -1.6320  0.9297 -0.2932
13017SOL    HW242072   8.479   4.971   4.655  0.0435 -0.7270 -0.5853
13018SOL     OW42073   2.309   7.861   0.540  0.1053  0.4669 -0.2119
13018SOL    HW142074   2.382   7.814   0.499 -0.3965  0.7768 -1.4787
13018SOL    HW242075   2.326   7.854   0.634  0.2057 -2.0109 -0.3760
13019SOL     OW42076   8.405   1.646   2.810  0.4302 -0.1832  0.3676
13019SOL    HW142077   8.316   1.654   2.777  0.7934  0.9584 -0.3649
13019SOL    HW242078   8.400   1.578   2.877 -0.6132 -1.4495 -0.9835
13020SOL     OW42079   0.887   9.091   1.763  0.0840 -0.1993 -0.1412
13020SOL    HW142080   0.971   9.093   1.809  0.6967 -0.1691 -1.2391
13020SOL    HW242081   0.836   9.162   1.803  0.1293 -1.0015  1.3532
13021SOL     OW42082   7.431   8.039   3.471  0.2828  0.1344 -0.6285
13021SOL    HW142083   7.425   8.121   3.519 -0.4314  0.9129 -1.9986
13021SOL    HW242084   7.450   7.973   3.537  1.1246  1.4429  0.4567
13022SOL     OW42085   6.839   1.377   8.801 -0.2860 -0.1516 -0.5091
13022SOL    HW142086   6.837   1.282   8.811  0.2389  0.0995  2.4028
13022SOL    HW242087   6.924   1.396   8.763  0.7244 -0.6758  1.4244
13023SOL     OW42088   9.141   0.710   6.864  0.4115  0.1488 -0.3952
13023SOL    HW142089   9.088   0.772   6.915  0.6236 -0.3369  0.4139
13023SOL    HW242090   9.081   0.679   6.796 -0.4032 -0.5162  0.6078
13024SOL     OW42091   8.078   3.239   6.023  0.2723 -0.1977  0.6315
13024SOL    HW142092   8.036   3.172   6.076 -0.5986  0.0294  0.2325
13024SOL    HW242093   8.146   3.276   6.080 -0.1814 -0.4421  1.3337
13025SOL     OW42094   8.468   1.543   8.484  0.9041 -0.1680 -0.7824
13025SOL    HW142095   8.441   1.599   8.411 -0.6545 -1.5956 -1.3345
13025SOL    HW242096   8.541   1.491   8.449  2.5538  1.7065 -0.1720
13026SOL     OW42097   0.977   3.664   5.931 -0.1879  0.3341 -0.1302
13026SOL    HW142098   0.939   3.666   6.018  0.8415 -0.7342  0.3617
13026SOL    HW242099   0.976   3.571   5.906 -0.6917  0.6578 -1.3535
13027SOL     OW42100   0.118   1.253   4.067  0.3335  0.3628 -0.4867
13027SOL    HW142101   0.087   1.341   4.048  0.6180  0.0976 -2.3013
13027SOL    HW242102   0.038   1.200   4.070  0.2469  0.4937 -0.4763
13028SOL     OW42103   1.968   2.223   3.351  0.0932 -0.1378  0.2025
13028SOL    HW142104   1.991   2.316   3.361  0.6880 -0.3161  0.4785
13028SOL    HW242105   1.889   2.212   3.404 -0.5145  0.4244 -0.5737
13029SOL     OW42106   0.070   5.065   5.041 -0.3361 -0.6571 -0.4165
13029SOL    HW142107   0.133   5.012   5.090 -0.9933 -0.2879  0.8432
13029SOL    HW242108   0.083   5.039   4.950  1.1166 -1.1282 -0.0897
13030SOL     OW42109   2.817   5.909   7.272 -0.2419 -0.1176  0.0264
13030SOL    HW142110   2.849   5.983   7.324 -0.4339 -0.2815  0.3795
13030SOL    HW242111   2.770   5.950   7.199  0.6456  0.1228 -0.4254
13031SOL     OW42112   8.990   4.234   3.712 -0.4956  0.3627 -0.0165
13031SOL    HW142113   8.933   4.165   3.678 -0.5982  0.4973 -0.1148
13031SOL    HW242114   9.047   4.258   3.639 -0.3441  0.2626  0.0680
13032SOL     OW42115   7.142   9.167   1.333 -0.3172 -0.0860 -0.1740
13032SOL    HW142116   7.171   9.245   1.285 -1.4495  2.0686  2.4982
13032SOL    HW242117   7.216   9.145   1.390 -0.5660 -0.0204  0.1778
13033SOL     OW42118   1.694   8.526   7.874 -0.2297 -0.0740 -0.1264
13033SOL    HW142119   1.783   8.510   7.906  0.0529  0.1130 -0.8209
13033SOL    HW242120   1.706   8.563   7.787 -1.0339 -1.4885 -0.8499
13034SOL     OW42121   2.794   5.843   8.506 -0.4597 -0.0240 -0.5520
13034SOL    HW142122   2.744   5.852   8.587 -0.1501  1.6013 -0.5376
13034SOL    HW242123   2.869   5.789   8.531 -1.5608 -1.4651 -0.3025
13035SOL     OW42124   6.817   3.160   1.009 -0.3772 -0.5440 -0.0388
13035SOL    HW142125   6.768   3.099   0.954  1.2354 -2.4058  0.5214
13035SOL    HW242126   6.757   3.183   1.080 -0.4508 -2.7638  0.6294
13036SOL     OW42127   4.259   6.553   4.348 -0.6139  0.6508 -0.0596
13036SOL    HW142128   4.231   6.504   4.424  0.3440  1.1300  0.6096
13036SOL    HW242129   4.217   6.639   4.358  0.0731  0.9489  0.2965
13037SOL     OW42130   5.356   6.394   1.555  0.2946 -0.0854  0.1494
13037SOL    HW142131   5.449   6.383   1.576  0.4197  0.0524 -0.3205
13037SOL    HW242132   5.351   6.481   1.515  0.2872 -0.8806 -1.6265
13038SOL     OW42133   1.475   5.705   3.562 -0.2556  0.6842 -0.1641
13038SOL    HW142134   1.403   5.733   3.618 -1.0463 -0.1430 -0.7585
13038SOL    HW242135   1.552   5.748   3.599 -0.8206  0.4321  1.3490
13039SOL     OW42136   7.143   7.118   1.434 -0.0420  0.2823 -0.5216
13039SOL    HW142137   7.120   7.191   1.377  1.3493  1.9342  0.9484
13039SOL    HW242138   7.238   7.112   1.429  0.0554  0.0506  1.1071
13040SOL     OW42139   1.366   4.733   8.891  0.1616  0.1421 -0.7965
13040SOL    HW142140   1.317   4.747   8.810  1.3482 -1.2126 -1.7614
13040SOL    HW242141   1.299   4.733   8.959 -0.7131  2.5009 -1.6205
13041SOL     OW42142   3.707   1.141   1.282  0.0689 -0.0888  0.4696
13041SOL    HW142143   3.759   1.117   1.358  1.1212  0.2045 -0.1563
13041SOL    HW242144   3.749   1.098   1.208 -0.9120 -0.3200  0.0328
13042SOL     OW42145   2.437   8.464   1.778 -0.1576  0.2436  0.6375
13042SOL    HW142146   2.397   8.549   1.797  0.3993  0.5204  0.5706
13042SOL    HW242147   2.446   8.463   1.683 -0.6339 -0.1018  0.5969
13043SOL     OW42148   2.553   7.688   3.281 -0.1742 -0.2037  0.3669
13043SOL    HW142149   2.493   7.625   3.241  0.5486 -0.8327  0.2780
13043SOL    HW242150   2.501   7.768   3.288 -1.7052 -1.3102  2.2026
13044SOL     OW42151   1.619   9.107   6.926 -0.2922 -0.9036  0.2664
13044SOL    HW142152   1.586   9.084   7.013 -0.5288  1.2617  0.7742
13044SOL    HW242153   1.702   9.152   6.943 -0.3382 -0.4732 -0.6276
13045SOL     OW42154   6.666   6.187   7.433  0.1206 -0.1302 -0.5821
13045SOL    HW142155   6.638   6.275   7.409 -0.8987 -0.0498  0.8406
13045SOL    HW242156   6.738   6.201   7.495 -0.4977 -0.2772  0.1826
13046SOL     OW42157   2.075   0.688   1.070  0.2199 -1.0225  0.1746
13046SOL    HW142158   2.107   0.696   0.980 -1.1740 -1.4227 -0.3611
13046SOL    HW242159   2.093   0.774   1.109 -2.5285  0.4259 -1.6018
13047SOL     OW42160   8.084   8.690   4.145  0.3840 -0.3613  1.0990
13047SOL    HW142161   8.116   8.742   4.072  1.5201 -0.5240  1.4705
13047SOL    HW242162   8.094   8.599   4.117  0.0392 -0.4158  1.1389
13048SOL     OW42163   7.174   4.278   8.582  0.0898 -0.7978 -0.2123
13048SOL    HW142164   7.113   4.300   8.512 -1.2734 -0.3745  1.1009
13048SOL    HW242165   7.121   4.274   8.661  1.5587 -1.5856  0.7697
13049SOL     OW42166   1.847   4.307   4.736  0.4280 -0.1168 -0.4941
13049SOL    HW142167   1.795   4.388   4.729  0.7550  0.0179 -1.3544
13049SOL    HW242168   1.889   4.298   4.651  0.5793 -1.0751 -0.3203
13050SOL     OW42169   6.174   7.801   6.997 -0.0867  0.6010  0.1328
13050SOL    HW142170   6.253   7.809   7.051 -1.4643  3.1863  1.8594
13050SOL    HW242171   6.207   7.803   6.907  1.6808  4.5978  0.7607
13051SOL     OW42172   4.496   6.226   2.390  0.3649 -0.5125 -0.0308
13051SOL    HW142173   4.586   6.260   2.388 -0.1111  1.0043  2.1689
13051SOL    HW242174   4.450   6.276   2.323  1.1297 -1.2510 -1.1246
13052SOL     OW42175   4.389   2.045   5.321  0.0103 -0.2417  0.3860
13052SOL    HW142176   4.330   2.052   5.246  1.0323 -0.3733 -0.4373
13052SOL    HW242177   4.458   1.987   5.292  0.4161 -0.2984  1.4424
13053SOL     OW42178   8.449   2.848   1.052 -0.7418  0.4651 -0.1536
13053SOL    HW142179   8.524   2.808   1.007  0.8404 -0.1611  2.9338
13053SOL    HW242180   8.485   2.923   1.098 -2.2016  0.7160  0.6199
13054SOL     OW42181   2.815   8.013   8.529 -0.2708  0.2544  0.1819
13054SOL    HW142182   2.826   7.953   8.456 -0.1071  0.5522 -0.0366
13054SOL    HW242183   2.902   8.050   8.544 -0.9486  2.7897 -1.7148
13055SOL     OW42184   5.928   8.583   3.718  0.0497 -0.0975 -0.4670
13055SOL    HW142185   5.998   8.522   3.739 -0.7803 -0.5222  1.1773
13055SOL    HW242186   5.963   8.637   3.647  3.6682  2.4860  3.0860
13056SOL     OW42187   6.894   8.991   5.579 -0.3549 -0.5616  0.4036
13056SOL    HW142188   6.871   9.049   5.652 -1.3375 -1.5962  0.9262
13056SOL    HW242189   6.856   8.906   5.602 -4.1914  0.0067 -3.0733
13057SOL     OW42190   9.095   3.582   0.189  0.9571  0.1856  0.1618
13057SOL    HW142191   9.079   3.676   0.184  0.1487  0.1443  1.6788
13057SOL    HW242192   9.103   3.554   0.098 -0.6750  1.4124 -0.3778
13058SOL     OW42193   9.391   0.207   4.003 -0.5215  0.5031 -0.3686
13058SOL    HW142194   9.375   0.112   4.001 -1.7723  0.7138 -1.3895
13058SOL    HW242195   9.374   0.232   4.093 -1.3687 -0.0648 -0.3606
13059SOL     OW42196   2.138   7.698   0.198  0.2227  0.2879  0.5038
13059SOL    HW142197   2.103   7.613   0.226 -2.6164  1.4547  0.6237
13059SOL    HW242198   2.187   7.678   0.118  0.0998 -1.5501  0.8502
13060SOL     OW42199   7.108   8.082   8.480  0.7401 -0.5724 -0.1922
13060SOL    HW142200   7.059   8.031   8.415 -0.9086  0.2948  0.3443
13060SOL    HW242201   7.134   8.019   8.546 -1.0562 -0.7914  0.3330
13061SOL     OW42202   0.187   6.714   7.849 -0.1054  0.2631 -0.6642
13061SOL    HW142203   0.107   6.710   7.797  0.4801  1.4653 -1.6886
13061SOL    HW242204   0.257   6.700   7.786  0.4742 -1.6728  0.3702
13062SOL     OW42205   0.186   6.956   0.204 -0.2624 -0.5937 -0.2255
13062SOL    HW142206   0.091   6.944   0.203 -0.3345 -0.1042 -1.8008
13062SOL    HW242207   0.208   6.978   0.113  1.3079 -0.3316  0.1991
13063SOL     OW42208   1.691   2.893   5.392  0.5633  0.0724  0.0586
13063SOL    HW142209   1.684   2.918   5.300 -0.8720 -1.0939 -0.1801
13063SOL    HW242210   1.657   2.804   5.395 -0.0421  0.3378  1.8217
13064SOL     OW42211   3.992   1.118   3.378 -0.1337  0.1339 -0.3466
13064SOL    HW142212   3.982   1.025   3.355 -1.9192  0.3796 -0.6244
13064SOL    HW242213   3.935   1.164   3.316  0.9576  1.4464 -0.3879
13065SOL     OW42214   8.394   5.809   3.892  0.2311  0.1800 -0.3314
13065SOL    HW142215   8.454   5.735   3.904 -1.2024 -1.1584 -1.2574
13065SOL    HW242216   8.373   5.837   3.981  0.1549 -1.0428  0.0511
13066SOL     OW42217   9.104   7.374   4.246 -0.2098 -0.4098  0.0194
13066SOL    HW142218   9.151   7.291   4.256 -1.5898 -1.3034 -0.7131
13066SOL    HW242219   9.017   7.348   4.215 -0.8842  1.2726  0.4769
13067SOL     OW42220   4.628   1.847   7.786  0.0126  0.3646 -0.5965
13067SOL    HW142221   4.603   1.939   7.784  1.5532  0.7702 -1.8287
13067SOL    HW242222   4.706   1.842   7.731  0.4196 -1.5392  0.1223
13068SOL     OW42223   1.837   4.994   1.365 -0.2116  0.2419  0.9761
13068SOL    HW142224   1.749   5.023   1.388 -0.0153  0.0131  2.0389
13068SOL    HW242225   1.862   4.934   1.435  0.5692 -0.1373  0.3830
13069SOL     OW42226   4.001   4.289   4.282  0.2356  0.4580 -0.2516
13069SOL    HW142227   4.008   4.329   4.196  0.2283 -1.0085 -0.9529
13069SOL    HW242228   3.950   4.209   4.268  0.6801 -0.0765  1.0135
13070SOL     OW42229   1.843   6.135   4.729 -0.0910  0.2218  0.7736
13070SOL    HW142230   1.870   6.211   4.780  0.9174  0.4806 -0.1256
13070SOL    HW242231   1.921   6.079   4.725  0.1504  0.6491 -1.2728
13071SOL     OW42232   3.208   0.061   3.452 -0.0102  0.2077  0.6886
13071SOL    HW142233   3.199   0.107   3.535 -1.4053  0.9077  0.1671
13071SOL    HW242234   3.303   0.058   3.437  0.2316  0.3979  2.1112
13072SOL     OW42235   6.278   8.779   2.678 -0.0445  0.3099 -0.4308
13072SOL    HW142236   6.253   8.805   2.766 -1.4721  1.5624 -1.1820
13072SOL    HW242237   6.332   8.851   2.646  1.4369 -0.6659 -0.1814
13073SOL     OW42238   1.688   9.094   9.390  0.0347 -0.5233  0.4289
13073SOL    HW142239   1.710   9.028   9.455 -2.5877 -0.9278  0.9515
13073SOL    HW242240   1.598   9.074   9.364  0.4672  0.6012 -2.1555
13074SOL     OW42241   6.034   9.347   6.171 -0.3454 -0.6609  0.4679
13074SOL    HW142242   6.116   9.385   6.140  0.1591 -1.2289  1.0857
13074SOL    HW242243   5.973   9.421   6.175 -0.1902 -0.4377 -1.0766
13075SOL     OW42244   7.606   7.626   7.905  0.2990 -0.2926  0.1067
13075SOL    HW142245   7.619   7.533   7.887  0.0825 -0.2568 -0.2313
13075SOL    HW242246   7.694   7.663   7.905  0.2180 -0.0075 -2.4225
13076SOL     OW42247   6.991   6.064   3.117  0.1016  0.1939 -0.1948
13076SOL    HW142248   7.085   6.066   3.133  0.0089  3.1229  0.2963
13076SOL    HW242249   6.982   6.054   3.022  0.9067 -0.4065 -0.2070
13077SOL     OW42250   5.960   7.845   4.902 -0.5085 -0.2278  0.2233
13077SOL    HW142251   5.901   7.826   4.829 -1.7573 -1.7394  1.6021
13077SOL    HW242252   5.914   7.912   4.953  0.0198  0.2623  0.0664
13078SOL     OW42253   9.267   6.799   8.137 -0.7939  0.4283 -0.0156
13078SOL    HW142254   9.349   6.755   8.163 -0.3776 -0.0533 -2.0585
13078SOL    HW242255   9.274   6.886   8.176  0.0846 -0.0553  0.9538
13079SOL     OW42256   6.460   3.963   1.851  0.0026  0.3093  0.4105
13079SOL    HW142257   6.417   3.878   1.860  1.7056 -0.6624 -0.4174
13079SOL    HW242258   6.526   3.963   1.921  0.9072  0.3778 -0.4364
13080SOL     OW42259   5.394   3.193   2.570 -0.5788 -0.6583  0.0203
13080SOL    HW142260   5.417   3.199   2.663 -1.0527 -0.5712  0.1346
13080SOL    HW242261   5.347   3.275   2.552  1.0428  0.1325 -0.7432
13081SOL     OW42262   2.247   8.692   1.569  0.4931 -0.0389 -1.1161
13081SOL    HW142263   2.326   8.744   1.555  0.5095  0.5652  0.9478
13081SOL    HW242264   2.178   8.757   1.580  0.3265 -0.4588  0.4363
13082SOL     OW42265   9.223   3.771   2.856  0.0320 -0.3177  0.0710
13082SOL    HW142266   9.309   3.813   2.856  0.0258 -0.2685 -1.8926
13082SOL    HW242267   9.171   3.823   2.917  1.2377 -0.0462  0.8841
13083SOL     OW42268   2.332   2.808   3.313 -0.0968 -0.2800 -0.5044
13083SOL    HW142269   2.391   2.882   3.328  0.0788 -0.8680  1.8035
13083SOL    HW242270   2.365   2.768   3.233  2.6148 -0.5343  0.6965
13084SOL     OW42271   2.153   3.031   0.364  0.0405  0.1625  0.0890
13084SOL    HW142272   2.248   3.025   0.373 -0.1156 -3.8877  0.1839
13084SOL    HW242273   2.121   3.049   0.453  0.7081  1.4516  0.0679
13085SOL     OW42274   4.240   6.249   1.774  0.3990  0.7125  0.4637
13085SOL    HW142275   4.333   6.250   1.796  0.2538  1.2242  1.0773
13085SOL    HW242276   4.198   6.208   1.850  0.1974 -0.1585 -0.1108
13086SOL     OW42277   2.507   2.444   7.423 -0.3256 -0.0148  0.4195
13086SOL    HW142278   2.441   2.376   7.434 -0.7925  0.4596  0.5418
13086SOL    HW242279   2.590   2.400   7.442 -0.5609 -0.7280 -0.1791
13087SOL     OW42280   2.310   6.579   2.127  0.8793  0.1528 -0.0425
13087SOL    HW142281   2.239   6.544   2.182  1.9184 -0.9329  0.6501
13087SOL    HW242282   2.299   6.674   2.132 -1.8241 -0.0209 -1.7151
13088SOL     OW42283   6.208   3.695   2.843  0.1237 -0.1802  0.4481
13088SOL    HW142284   6.282   3.720   2.788 -0.0468 -2.0677 -0.6712
13088SOL    HW242285   6.247   3.645   2.915  0.2008  1.1568  1.3639
13089SOL     OW42286   8.438   7.267   0.439  0.2889 -0.4240  0.1624
13089SOL    HW142287   8.389   7.185   0.442  1.5254 -1.3137 -2.4811
13089SOL    HW242288   8.387   7.323   0.380 -1.1848  1.2008  2.8715
13090SOL     OW42289   2.342   8.842   7.021  0.3454 -0.0218  0.1205
13090SOL    HW142290   2.416   8.818   6.965 -0.8275 -1.3032 -0.9382
13090SOL    HW242291   2.270   8.858   6.960 -0.7622 -0.7162  1.2084
13091SOL     OW42292   0.872   1.870   2.362  0.0391  0.4326 -0.5595
13091SOL    HW142293   0.871   1.872   2.458 -1.7861 -1.6575 -0.5076
13091SOL    HW242294   0.808   1.937   2.337 -0.2201  0.2883 -0.2945
13092SOL     OW42295   6.895   4.378   1.862 -0.1612  0.2163  0.1222
13092SOL    HW142296   6.864   4.455   1.910 -2.7995 -1.5675  1.4330
13092SOL    HW242297   6.861   4.391   1.773  1.6954  1.8138 -0.3856
13093SOL     OW42298   4.597   7.949   2.854  0.6429  0.1380  0.7025
13093SOL    HW142299   4.566   7.862   2.828 -0.0238  0.3100  0.9077
13093SOL    HW242300   4.618   7.940   2.947  0.2491  0.2893  0.8043
13094SOL     OW42301   4.619   3.979   8.816 -0.6170 -0.0348  0.4355
13094SOL    HW142302   4.584   3.892   8.797  1.0910 -0.8794  1.0217
13094SOL    HW242303   4.683   3.964   8.886 -0.0793  1.6436  0.3235
13095SOL     OW42304   1.161   3.864   4.998  0.2098 -0.0259 -0.5977
13095SOL    HW142305   1.247   3.822   5.001 -0.0309 -0.4410  0.7560
13095SOL    HW242306   1.101   3.799   5.035 -0.7325  0.1959 -1.6841
13096SOL     OW42307   6.338   2.630   9.236  0.0708 -0.5791 -0.2324
13096SOL    HW142308   6.369   2.589   9.317  0.5559 -1.5369 -0.8902
13096SOL    HW242309   6.418   2.644   9.185 -0.5086 -2.6081 -1.7449
13097SOL     OW42310   6.983   0.089   0.369 -0.4691 -0.0317  0.3937
13097SOL    HW142311   7.013   0.134   0.448 -0.3237  1.3031 -0.3963
13097SOL    HW242312   6.919   0.025   0.400 -1.1252  1.1328  1.4983
13098SOL     OW42313   5.427   5.600   4.368  0.3133 -0.5365 -0.2358
13098SOL    HW142314   5.432   5.696   4.372 -0.9120 -0.4845  0.4822
13098SOL    HW242315   5.512   5.570   4.401  1.0379  0.3129 -1.3172
13099SOL     OW42316   7.312   7.148   3.311 -0.0796  0.1460 -0.2889
13099SOL    HW142317   7.350   7.168   3.225 -0.8357  0.5671 -0.5274
13099SOL    HW242318   7.218   7.157   3.299 -0.2017  0.0506  0.5457
13100SOL     OW42319   7.545   6.486   4.458 -0.0044 -0.4495  0.2811
13100SOL    HW142320   7.597   6.567   4.460 -0.5189 -0.0906 -0.4158
13100SOL    HW242321   7.505   6.482   4.544  1.8262 -1.1651  1.1063
13101SOL     OW42322   2.338   8.970   5.673  0.3825  0.1277  0.2247
13101SOL    HW142323   2.252   9.001   5.646  0.1139 -1.0384 -0.3047
13101SOL    HW242324   2.322   8.922   5.754  0.3419 -1.1132 -0.5063
13102SOL     OW42325   2.964   1.683   5.235  0.2226 -0.1340 -0.3316
13102SOL    HW142326   3.047   1.644   5.261  0.4426  0.2402 -0.4762
13102SOL    HW242327   2.951   1.757   5.294 -0.3664 -0.6316  0.1706
13103SOL     OW42328   6.400   1.484   0.673  0.0428 -0.3948  0.0840
13103SOL    HW142329   6.389   1.394   0.705  0.0846 -0.2458  0.5135
13103SOL    HW242330   6.392   1.539   0.751  0.1679 -0.0349 -0.1556
13104SOL     OW42331   3.515   1.820   7.601 -0.0259 -0.0842  0.2400
13104SOL    HW142332   3.580   1.875   7.645 -0.5646 -0.1607  1.1301
13104SOL    HW242333   3.430   1.854   7.628 -0.3998  0.9783 -2.1260
13105SOL     OW42334   8.504   5.899   5.068  0.2907  0.1001  0.3856
13105SOL    HW142335   8.591   5.925   5.098  0.8235 -0.6367 -0.4973
13105SOL    HW242336   8.517   5.877   4.976 -0.9138  0.3796  0.1496
13106SOL     OW42337   5.854   3.617   6.762  0.2513  0.0388 -0.2390
13106SOL    HW142338   5.924   3.678   6.739  1.0420 -1.0938 -0.8812
13106SOL    HW242339   5.834   3.636   6.853 -0.0341  1.7733 -0.6522
13107SOL     OW42340   0.835   2.569   6.852 -0.3815 -0.0002  0.6374
13107SOL    HW142341   0.822   2.617   6.770 -0.3035  0.7385  1.0528
13107SOL    HW242342   0.925   2.537   6.848 -0.2833  0.2843  0.5612
13108SOL     OW42343   4.156   8.721   5.968  0.7122  0.0137  0.1608
13108SOL    HW142344   4.150   8.641   5.915  1.6104  0.2828 -0.3624
13108SOL    HW242345   4.213   8.697   6.041  2.1439  0.5634 -0.7536
13109SOL     OW42346   7.543   8.461   4.081  0.7219 -0.0024 -0.1116
13109SOL    HW142347   7.455   8.493   4.060  0.6721 -0.3179 -0.3821
13109SOL    HW242348   7.598   8.540   4.080  0.6004  0.0815 -0.7928
13110SOL     OW42349   6.356   4.912   0.762  0.1049  0.5063 -0.0103
13110SOL    HW142350   6.307   4.878   0.688 -1.2870  0.8524  0.7264
13110SOL    HW242351   6.336   4.851   0.834  0.8368  0.5935  0.2703
13111SOL     OW42352   7.326   3.013   4.682 -0.1864  0.3016  0.1763
13111SOL    HW142353   7.299   3.067   4.608  1.4128 -0.8493 -1.2877
13111SOL    HW242354   7.351   2.929   4.643 -0.4157 -0.7106  2.1524
13112SOL     OW42355   0.350   3.898   2.107  0.2323 -0.5761 -0.0885
13112SOL    HW142356   0.393   3.849   2.037  1.1268  1.1053 -0.7377
13112SOL    HW242357   0.371   3.850   2.187  0.5934 -1.5817 -0.7835
13113SOL     OW42358   8.659   2.403   3.989 -0.1864 -0.5397  0.3631
13113SOL    HW142359   8.708   2.477   4.024 -1.6783  0.7656 -0.2643
13113SOL    HW242360   8.706   2.377   3.910  0.3502 -0.2876  0.6002
13114SOL     OW42361   4.904   9.077   6.552 -0.0142 -0.2287  0.6702
13114SOL    HW142362   4.993   9.100   6.524 -0.1909 -0.8748 -0.4442
13114SOL    HW242363   4.911   8.986   6.582 -0.2489 -0.2067  0.7896
13115SOL     OW42364   6.234   9.428   9.272 -0.7107 -0.2135  0.0116
13115SOL    HW142365   6.294   9.414   9.345 -0.3693  1.8004  0.1664
13115SOL    HW242366   6.180   9.349   9.269 -0.5557 -0.4388  2.2780
13116SOL     OW42367   2.791   7.718   3.174  0.0690  0.2530  0.2189
13116SOL    HW142368   2.767   7.768   3.096  0.3210  1.8977  1.1953
13116SOL    HW242369   2.708   7.706   3.221  0.0523 -0.0183  0.1205
13117SOL     OW42370   1.000   4.734   5.638  0.5630 -0.1627 -0.1725
13117SOL    HW142371   1.010   4.823   5.603  2.0638 -0.4646 -0.5057
13117SOL    HW242372   1.012   4.745   5.733  0.3117  0.0444 -0.1616
13118SOL     OW42373   2.192   3.599   4.313  0.1886 -0.3430  0.1256
13118SOL    HW142374   2.168   3.685   4.347 -0.7103 -0.8263  0.7550
13118SOL    HW242375   2.212   3.548   4.392 -0.2663 -0.9918 -0.1768
13119SOL     OW42376   8.072   5.022   0.383 -0.4081 -0.0189 -0.2645
13119SOL    HW142377   8.135   4.982   0.323 -1.0049 -0.0971 -0.8528
13119SOL    HW242378   8.125   5.073   0.443  0.2488 -0.4270 -0.4900
13120SOL     OW42379   7.105   8.030   3.371 -0.5434 -0.5420  0.1279
13120SOL    HW142380   7.100   8.009   3.464  1.4189 -1.4098  0.0728
13120SOL    HW242381   7.188   8.077   3.362  0.8182 -3.1768 -1.6563
13121SOL     OW42382   6.299   1.445   8.731  0.0373  0.0849 -0.4672
13121SOL    HW142383   6.337   1.517   8.681 -0.5229  0.2710 -0.6267
13121SOL    HW242384   6.205   1.465   8.734 -0.0665 -0.4383 -0.1846
13122SOL     OW42385   2.074   5.601   6.990 -0.4036  0.3749 -0.4489
13122SOL    HW142386   2.138   5.627   6.924 -0.6067 -0.0640 -0.8129
13122SOL    HW242387   2.026   5.529   6.951 -0.8471  0.4301 -0.0118
13123SOL     OW42388   8.269   4.534   3.717  0.3271  0.0319 -0.4171
13123SOL    HW142389   8.275   4.469   3.646  1.4948 -1.6817  1.1856
13123SOL    HW242390   8.182   4.573   3.707  0.1300 -0.8178 -2.2354
13124SOL     OW42391   7.857   2.311   0.886 -0.4231  0.1266  0.4707
13124SOL    HW142392   7.952   2.309   0.899 -0.5739  0.8868  1.7447
13124SOL    HW242393   7.827   2.381   0.943 -1.8907 -0.8731  0.9543
13125SOL     OW42394   9.443   0.056   7.256 -0.7015  0.1193  0.2164
13125SOL    HW142395   9.420   0.123   7.192  0.7466 -0.3047 -0.7792
13125SOL    HW242396   9.535   0.036   7.238 -0.5881 -0.8080  1.7070
13126SOL     OW42397   3.398   7.001   2.612  0.2908  0.1738 -0.3152
13126SOL    HW142398   3.453   6.948   2.554  1.3821 -0.4690  1.2734
13126SOL    HW242399   3.379   7.080   2.562  2.4986  0.3197 -0.9758
13127SOL     OW42400   3.082   3.747   5.878 -0.3487 -0.2331 -0.2151
13127SOL    HW142401   3.075   3.782   5.789 -0.3988  0.4915  0.0690
13127SOL    HW242402   3.007   3.687   5.887  0.2743 -1.1362 -1.0261
13128SOL     OW42403   9.364   2.224   1.514  0.5732  0.8563 -0.3577
13128SOL    HW142404   9.280   2.262   1.542  0.9797  0.8142  0.9493
13128SOL    HW242405   9.375   2.147   1.569  2.0353  1.5177  0.3110
13129SOL     OW42406   2.053   8.721   6.765  0.0228 -0.4214 -0.2421
13129SOL    HW142407   2.072   8.794   6.824  1.3510 -0.4647 -0.6105
13129SOL    HW242408   1.964   8.739   6.734  0.2560  0.9445 -0.1797
13130SOL     OW42409   0.885   7.783   8.009  0.2535 -0.0050  0.0745
13130SOL    HW142410   0.966   7.798   7.959 -0.1402  0.6243 -0.3881
13130SOL    HW242411   0.816   7.790   7.943 -0.3053  1.2708  0.7780
13131SOL     OW42412   5.435   1.561   8.086 -0.2833  0.0088  0.2691
13131SOL    HW142413   5.356   1.514   8.059  0.5466 -0.8650 -0.6977
13131SOL    HW242414   5.408   1.609   8.164 -1.3600 -1.5064  0.8808
13132SOL     OW42415   6.122   3.879   2.356 -0.3353 -0.1690  0.0408
13132SOL    HW142416   6.201   3.873   2.409 -0.2198 -1.0276 -0.2283
13132SOL    HW242417   6.059   3.925   2.412 -0.4026 -1.5755  1.1437
13133SOL     OW42418   3.393   0.131   0.236 -0.4537  0.1037  0.5253
13133SOL    HW142419   3.361   0.126   0.326  0.5036  0.7677  0.9167
13133SOL    HW242420   3.478   0.087   0.238  0.5855  2.0332  0.4557
13134SOL     OW42421   4.867   1.505   6.832 -0.3971  0.7382  0.1458
13134SOL    HW142422   4.873   1.546   6.918  0.8165  1.2908 -0.1828
13134SOL    HW242423   4.878   1.412   6.849  0.9978  0.9502  0.4829
13135SOL     OW42424   0.612   0.862   9.356 -0.6604  0.2805 -0.4471
13135SOL    HW142425   0.701   0.826   9.351 -0.9718 -0.2339 -2.7882
13135SOL    HW242426   0.561   0.809   9.295 -2.1948  1.6241 -0.3551
13136SOL     OW42427   2.673   8.197   8.365 -0.0238 -0.2139 -0.3129
13136SOL    HW142428   2.712   8.164   8.446 -1.7152  0.5134  0.8285
13136SOL    HW242429   2.607   8.132   8.342 -0.4272  0.2288 -0.4023
13137SOL     OW42430   0.796   1.136   4.669 -0.1550  0.2882  0.3350
13137SOL    HW142431   0.718   1.123   4.616  0.5251  1.7465 -1.0744
13137SOL    HW242432   0.852   1.192   4.616  0.2897  2.3473  2.8702
13138SOL     OW42433   4.087   4.071   4.900 -0.2371  0.3585  0.2355
13138SOL    HW142434   4.180   4.051   4.915  0.5721  1.3988 -3.0192
13138SOL    HW242435   4.053   3.996   4.851 -0.6328  0.8256 -0.2104
13139SOL     OW42436   1.761   2.388   8.940 -0.2231 -0.2732 -0.2572
13139SOL    HW142437   1.821   2.351   8.875 -1.2814 -0.2289 -1.2877
13139SOL    HW242438   1.792   2.353   9.024  2.2080  1.0524 -0.5626
13140SOL     OW42439   1.799   4.134   8.796  0.2558 -0.3281  0.4673
13140SOL    HW142440   1.729   4.177   8.746 -0.5207  0.2635  2.0096
13140SOL    HW242441   1.793   4.042   8.772 -0.2431 -0.0781 -0.3719
13141SOL     OW42442   7.671   0.829   3.683 -0.1992  0.6470 -0.3142
13141SOL    HW142443   7.619   0.905   3.710  0.0506  0.3653  1.0433
13141SOL    HW242444   7.611   0.755   3.690  0.5553  0.1930  2.1015
13142SOL     OW42445   7.413   7.976   4.449  0.3321  0.0913  0.0476
13142SOL    HW142446   7.369   7.947   4.529  0.2870  0.7967  0.2779
13142SOL    HW242447   7.361   8.050   4.418  0.2972 -0.2322 -0.6882
13143SOL     OW42448   1.346   3.140   0.044  0.6870  0.1863  0.5807
13143SOL    HW142449   1.343   3.058  -0.006  0.3156 -0.3113  1.4140
13143SOL    HW242450   1.281   3.196   0.001 -0.1870 -0.5140  0.9536
13144SOL     OW42451   5.986   5.804   3.031 -0.1411  0.6045 -0.0917
13144SOL    HW142452   6.057   5.818   2.968 -0.5344 -0.0259 -0.6824
13144SOL    HW242453   5.939   5.887   3.033 -0.5286  0.4131 -1.1306
13145SOL     OW42454   4.460   0.948   3.733 -0.0623  0.1224  0.3213
13145SOL    HW142455   4.377   0.955   3.685  0.3005 -3.2320 -0.9500
13145SOL    HW242456   4.520   1.007   3.687 -1.0172  0.5675 -0.3716
13146SOL     OW42457   4.612   4.934   0.004 -0.3744  0.7200  0.0757
13146SOL    HW142458   4.559   4.859   0.032  0.6443  0.8455  2.5486
13146SOL    HW242459   4.569   4.967  -0.074 -0.6660 -2.6453 -1.2606
13147SOL     OW42460   1.486   1.944   3.906 -0.5197  0.4135  0.2136
13147SOL    HW142461   1.451   1.855   3.915 -1.3029  0.6963 -0.0363
13147SOL    HW242462   1.416   1.994   3.864  0.2704  0.9195 -0.5471
13148SOL     OW42463   5.409   3.432   8.639  0.2059 -0.4380  0.0664
13148SOL    HW142464   5.331   3.414   8.587  1.4595 -0.9194 -1.6923
13148SOL    HW242465   5.381   3.417   8.730 -2.5579  2.2802 -0.2322
13149SOL     OW42466   0.457   7.021   2.412 -0.3968  0.4757  0.2077
13149SOL    HW142467   0.457   7.005   2.317 -0.2248  1.2534  0.0715
13149SOL    HW242468   0.371   6.992   2.441 -0.1268 -0.5802 -0.0508
13150SOL     OW42469   3.799   2.952   6.778  0.0006 -0.2378  0.2586
13150SOL    HW142470   3.886   2.941   6.818 -0.0255  1.5049  0.8827
13150SOL    HW242471   3.818   2.978   6.688  0.1306 -0.4045  0.2379
13151SOL     OW42472   1.398   7.630   4.443  0.7116  0.0293  0.0050
13151SOL    HW142473   1.460   7.563   4.414  1.3775 -0.0659  1.5507
13151SOL    HW242474   1.452   7.691   4.493  0.1394  1.8081 -1.4842
13152SOL     OW42475   7.091   2.806   2.137 -0.3429  0.5246  0.1295
13152SOL    HW142476   7.034   2.748   2.187  1.0705 -1.0382 -0.0476
13152SOL    HW242477   7.126   2.867   2.201  0.4025 -0.6189  0.8100
13153SOL     OW42478   6.566   6.238   8.979 -0.5447  0.2932  0.3686
13153SOL    HW142479   6.603   6.154   8.949  0.5309  0.2915  1.6370
13153SOL    HW242480   6.552   6.288   8.899 -0.1870 -0.7011 -0.3303
13154SOL     OW42481   3.403   8.075   5.437 -0.6870  0.2834  0.3291
13154SOL    HW142482   3.399   7.987   5.474 -0.6246  0.6882  1.3151
13154SOL    HW242483   3.337   8.124   5.486 -1.6825  0.4533 -1.1406
13155SOL     OW42484   7.357   3.833   2.862  0.6904  0.1748  0.0481
13155SOL    HW142485   7.304   3.754   2.855  0.0745  0.6191 -0.3596
13155SOL    HW242486   7.438   3.812   2.815  1.1400 -0.7192  1.2045
13156SOL     OW42487   7.567   5.406   9.228 -0.2331  0.5514 -0.1405
13156SOL    HW142488   7.657   5.408   9.197  0.6146  2.1664  2.2374
13156SOL    HW242489   7.529   5.487   9.194 -0.3263  0.6085  0.0967
13157SOL     OW42490   7.526   4.687   1.963 -0.3846 -0.1441  0.4854
13157SOL    HW142491   7.435   4.687   1.991 -1.1618 -0.8612 -1.9267
13157SOL    HW242492   7.573   4.733   2.033 -2.6251  0.5088  1.6004
13158SOL     OW42493   0.828   7.108   3.619 -0.0883  0.4384  0.3291
13158SOL    HW142494   0.894   7.174   3.640 -1.9358  2.5025 -0.1187
13158SOL    HW242495   0.878   7.032   3.589  2.0139  2.5529 -1.6754
13159SOL     OW42496   4.057   8.915   6.351 -0.8511  0.7575 -0.4826
13159SOL    HW142497   4.037   9.002   6.387  2.9991  1.6582 -0.3201
13159SOL    HW242498   4.041   8.924   6.257  1.3115  2.2554 -0.7419
13160SOL     OW42499   4.750   7.285   5.519 -0.1273 -0.3540  0.1124
13160SOL    HW142500   4.818   7.254   5.460 -0.7149 -2.1446  0.3211
13160SOL    HW242501   4.677   7.225   5.504 -1.3969  1.0783  0.4206
13161SOL     OW42502   7.274   8.411   1.596 -0.0217 -0.3905  0.0929
13161SOL    HW142503   7.207   8.453   1.649 -0.0944 -0.0703 -0.2524
13161SOL    HW242504   7.357   8.446   1.629 -0.1433  1.0549 -1.0788
13162SOL     OW42505   0.471   5.405   6.907  0.5613 -0.2295 -0.4035
13162SOL    HW142506   0.556   5.440   6.933  0.9461  0.1401 -2.0960
13162SOL    HW242507   0.481   5.385   6.814 -1.4843  0.7093 -0.8463
13163SOL     OW42508   5.727   4.947   5.756 -0.0248 -0.0134  0.0395
13163SOL    HW142509   5.674   4.876   5.791  0.0686 -0.3094 -0.4094
13163SOL    HW242510   5.765   4.910   5.676  1.2439  0.0247  0.6161
13164SOL     OW42511   6.683   0.621   3.484  0.2743  0.0398 -0.0819
13164SOL    HW142512   6.668   0.547   3.542 -0.8197  0.3390  0.0229
13164SOL    HW242513   6.698   0.695   3.544  1.2861 -0.0687 -0.1853
13165SOL     OW42514   5.206   4.396   8.789  0.2772  0.3528  0.6862
13165SOL    HW142515   5.209   4.354   8.875 -0.1725  1.5930  1.3343
13165SOL    HW242516   5.187   4.488   8.809 -0.8337  0.4619 -0.8093
13166SOL     OW42517   7.996   3.612   3.322 -0.2452  0.3262  0.3379
13166SOL    HW142518   7.990   3.526   3.363  1.0243 -1.2764 -2.6705
13166SOL    HW242519   7.905   3.639   3.310 -0.6404  0.3286  3.0532
13167SOL     OW42520   1.108   9.125   6.323  0.0760 -0.4059 -0.5904
13167SOL    HW142521   1.168   9.139   6.395 -2.5616 -2.1155  2.0450
13167SOL    HW242522   1.163   9.092   6.252  2.4397 -0.5368  1.2440
13168SOL     OW42523   0.472   2.310   2.003  0.7393 -0.2189  0.3548
13168SOL    HW142524   0.547   2.362   2.033  1.6240 -0.5622 -1.1947
13168SOL    HW242525   0.498   2.220   2.020  1.8006 -0.5199 -2.4521
13169SOL     OW42526   6.486   7.662   2.161  0.3343 -0.1654 -0.3645
13169SOL    HW142527   6.575   7.663   2.125  1.2362 -0.1156  1.8297
13169SOL    HW242528   6.470   7.571   2.183  0.2120 -0.0228  0.1404
13170SOL     OW42529   7.762   6.727   3.427  0.1379 -0.2361 -0.3469
13170SOL    HW142530   7.831   6.736   3.494  0.5393  0.1548 -0.8129
13170SOL    HW242531   7.780   6.643   3.385  1.1810  0.5053 -1.4201
13171SOL     OW42532   8.427   6.892   2.231 -0.0953  0.3115 -0.2068
13171SOL    HW142533   8.352   6.851   2.189 -0.9434  0.7628  0.8386
13171SOL    HW242534   8.433   6.850   2.317  0.1847  1.0306  0.1331
13172SOL     OW42535   3.366   3.947   7.615 -0.3859  0.1969  0.2124
13172SOL    HW142536   3.436   3.893   7.579  1.1731  1.5224  1.2175
13172SOL    HW242537   3.301   3.884   7.645  0.3133 -1.0448 -0.8062
13173SOL     OW42538   1.075   5.054   4.598  0.6890 -0.2543 -0.7264
13173SOL    HW142539   1.027   5.075   4.677  1.0903 -0.3950 -0.4432
13173SOL    HW242540   1.167   5.049   4.626  1.2227  2.6824 -1.7567
13174SOL     OW42541   2.481   1.245   2.108 -0.7878 -0.0846  0.2653
13174SOL    HW142542   2.512   1.268   2.020 -1.1872  0.1893  0.1933
13174SOL    HW242543   2.453   1.329   2.145  1.0195  0.0833  1.3165
13175SOL     OW42544   5.286   8.980   9.317  0.1889  0.3121  0.0100
13175SOL    HW142545   5.272   9.001   9.225 -0.5975  0.0747  0.0758
13175SOL    HW242546   5.206   9.007   9.362  0.2056 -0.3893  0.4855
13176SOL     OW42547   1.325   8.793   5.283  0.3283  0.0080  0.1809
13176SOL    HW142548   1.241   8.759   5.313  0.8842 -0.5783  1.0963
13176SOL    HW242549   1.363   8.835   5.360  1.1541 -0.2803 -0.0663
13177SOL     OW42550   4.855   1.439   7.544  0.4708 -0.3512  0.6687
13177SOL    HW142551   4.873   1.486   7.462 -0.9938  2.1847  1.7192
13177SOL    HW242552   4.769   1.400   7.530  0.2658 -0.0031  0.9647
13178SOL     OW42553   2.327   4.706   0.504 -0.7011  0.6450  0.3740
13178SOL    HW142554   2.325   4.656   0.586 -0.7402 -0.1615 -0.1159
13178SOL    HW242555   2.420   4.715   0.484 -0.7415 -1.6240 -0.9769
13179SOL     OW42556   0.418   6.059   7.480 -0.2581  0.0335  0.0529
13179SOL    HW142557   0.452   6.056   7.570 -0.2032  0.1332  0.0356
13179SOL    HW242558   0.323   6.050   7.490 -0.2338 -0.1503  0.1090
13180SOL     OW42559   1.696   4.768   1.187 -0.4762 -0.3728 -0.8375
13180SOL    HW142560   1.673   4.858   1.212 -0.0417 -0.1350 -1.2925
13180SOL    HW242561   1.692   4.768   1.092  0.8073 -0.4879 -0.8940
13181SOL     OW42562   6.845   8.187   5.601  0.4685 -0.9223  0.1858
13181SOL    HW142563   6.916   8.218   5.656 -0.4334 -1.2245  1.5421
13181SOL    HW242564   6.837   8.094   5.621  0.9048 -1.2942 -1.3287
13182SOL     OW42565   5.811   6.601   3.598 -0.0010  0.4045 -0.0379
13182SOL    HW142566   5.895   6.633   3.565  0.0813 -1.8457 -2.2549
13182SOL    HW242567   5.749   6.671   3.579  0.4848  0.1027 -3.0905
13183SOL     OW42568   6.460   0.361   1.260  0.0416 -0.1113 -0.3009
13183SOL    HW142569   6.483   0.351   1.352  0.5828  1.2457 -0.2757
13183SOL    HW242570   6.417   0.446   1.255 -0.3310 -0.3454 -1.2483
13184SOL     OW42571   8.432   7.414   2.529 -0.1212  0.0358 -0.0532
13184SOL    HW142572   8.424   7.509   2.533 -1.3118 -0.0628 -0.0417
13184SOL    HW242573   8.346   7.381   2.554 -0.6164 -1.0023 -2.9562
13185SOL     OW42574   3.253   3.818   4.455  0.4142  0.9353 -0.2264
13185SOL    HW142575   3.197   3.895   4.453 -0.6443  0.3011  2.6850
13185SOL    HW242576   3.328   3.844   4.508 -0.3374 -0.2596  1.4605
13186SOL     OW42577   9.381   2.572   6.622  0.5909  0.8096 -0.4997
13186SOL    HW142578   9.324   2.525   6.560  1.4577  0.5757 -1.1390
13186SOL    HW242579   9.367   2.664   6.601 -0.4213  0.8109  0.1323
13187SOL     OW42580   8.662   4.610   5.074 -0.2536  0.4763  0.6394
13187SOL    HW142581   8.711   4.690   5.054  0.3005 -0.1224 -0.4855
13187SOL    HW242582   8.576   4.624   5.036 -0.4420  0.8791  1.2048
13188SOL     OW42583   3.201   8.045   2.751  0.4529 -0.4590 -0.0412
13188SOL    HW142584   3.296   8.042   2.765  0.2240 -1.2621  1.4415
13188SOL    HW242585   3.188   8.122   2.696  1.8659  0.2564  0.5763
13189SOL     OW42586   8.014   1.366   5.954 -0.1311  0.3488  0.1576
13189SOL    HW142587   8.107   1.365   5.976 -0.2959 -1.6298  0.8365
13189SOL    HW242588   7.999   1.453   5.917  1.7034  1.1427  1.2322
13190SOL     OW42589   2.862   5.012   6.882  0.0753  0.2654  0.1924
13190SOL    HW142590   2.769   5.029   6.870 -0.1986 -0.3960  1.2468
13190SOL    HW242591   2.874   4.923   6.848  0.6913  1.0399 -1.6287
13191SOL     OW42592   1.635   7.945   2.799  0.1465 -0.0774  0.0916
13191SOL    HW142593   1.611   8.014   2.736  1.0241  1.1301  1.0567
13191SOL    HW242594   1.714   7.906   2.763 -0.3019 -0.5198 -0.4134
13192SOL     OW42595   3.983   3.104   8.897 -0.7691  0.1251 -0.4508
13192SOL    HW142596   3.941   3.020   8.882  0.4770 -0.1986 -2.2324
13192SOL    HW242597   4.066   3.098   8.851 -0.4940  2.1969 -0.2702
13193SOL     OW42598   0.994   1.468   0.589 -0.1479  0.5751  0.1911
13193SOL    HW142599   0.924   1.403   0.600 -0.2276  0.1018 -2.5542
13193SOL    HW242600   0.954   1.536   0.534  1.4359  0.4826 -1.1033
13194SOL     OW42601   8.326   0.318   5.099  0.1210 -0.5320  0.8102
13194SOL    HW142602   8.348   0.284   5.186 -0.4713 -0.9089  0.8238
13194SOL    HW242603   8.324   0.413   5.109  0.3369 -0.5641  1.1438
13195SOL     OW42604   8.226   5.774   2.984 -0.7332  0.6454 -0.1270
13195SOL    HW142605   8.204   5.810   2.898  0.9533  2.5731  0.2053
13195SOL    HW242606   8.310   5.729   2.970 -0.7105  0.5240  0.3905
13196SOL     OW42607   8.657   4.612   5.360 -0.1573 -0.0089 -0.1884
13196SOL    HW142608   8.694   4.621   5.272  0.7327 -0.6269  0.1175
13196SOL    HW242609   8.733   4.620   5.419 -0.7313  0.2925  0.5171
13197SOL     OW42610   1.940   0.391   9.330  0.1618 -0.5833 -0.1910
13197SOL    HW142611   1.863   0.448   9.337 -1.7563 -3.1056  0.1226
13197SOL    HW242612   1.995   0.433   9.265 -1.6636  1.1258 -0.6766
13198SOL     OW42613   5.746   3.308   6.367 -0.4986 -0.1984 -0.3161
13198SOL    HW142614   5.673   3.285   6.425 -0.7467 -0.6532 -0.8037
13198SOL    HW242615   5.772   3.396   6.395 -0.9325 -0.2188  0.1639
13199SOL     OW42616   3.188   6.636   5.293 -0.3799 -0.1549  0.6478
13199SOL    HW142617   3.168   6.628   5.200  1.9320  3.4999 -0.2529
13199SOL    HW242618   3.274   6.595   5.303 -0.4564 -0.2050  1.1184
13200SOL     OW42619   3.443   2.885   7.559 -0.8538 -0.0139 -0.6325
13200SOL    HW142620   3.373   2.948   7.543 -1.6976 -0.7951 -0.1014
13200SOL    HW242621   3.417   2.842   7.641 -0.1956 -0.9032 -0.8891
13201SOL     OW42622   6.719   7.137   1.790  0.2438 -0.7441  0.2244
13201SOL    HW142623   6.729   7.136   1.885  0.0988  0.2369  0.2538
13201SOL    HW242624   6.788   7.196   1.759 -1.7152  1.4763 -0.0278
13202SOL     OW42625   7.835   8.868   1.306 -0.0525  0.7533 -0.4473
13202SOL    HW142626   7.879   8.952   1.292  1.1830  0.1736 -0.0748
13202SOL    HW242627   7.742   8.888   1.296  0.2299  2.1828 -0.2827
13203SOL     OW42628   8.043   2.818   7.153 -0.3595 -0.2581  0.0049
13203SOL    HW142629   7.983   2.869   7.099 -0.9662 -0.0484  0.8719
13203SOL    HW242630   7.991   2.745   7.185 -0.5227  0.6043  1.7871
13204SOL     OW42631   3.782   4.245   8.027  0.5662 -0.0049  0.4279
13204SOL    HW142632   3.861   4.291   8.055  0.7531  0.2544 -0.5022
13204SOL    HW242633   3.791   4.157   8.063  0.9200  0.2421  0.9551
13205SOL     OW42634   1.877   7.815   4.120  0.8173 -0.1688  0.4656
13205SOL    HW142635   1.932   7.876   4.168 -0.1690  1.0910  0.0399
13205SOL    HW242636   1.790   7.826   4.157  0.0386  0.8225 -1.5599
13206SOL     OW42637   8.148   6.179   0.866  0.0557 -0.6814 -0.0148
13206SOL    HW142638   8.233   6.214   0.840 -1.0959  1.1810 -1.3126
13206SOL    HW242639   8.161   6.150   0.956  2.4172 -1.6545 -0.6158
13207SOL     OW42640   3.651   2.708   1.676 -0.1006 -0.0091  0.1668
13207SOL    HW142641   3.712   2.646   1.635  2.1787  1.7338  0.7907
13207SOL    HW242642   3.607   2.656   1.744  0.6253 -1.3448 -0.3577
13208SOL     OW42643   7.115   3.635   1.943  0.9314 -0.2135  0.1552
13208SOL    HW142644   7.091   3.727   1.954  0.6941 -0.0955 -1.2358
13208SOL    HW242645   7.052   3.601   1.879  0.3578 -1.6182  1.4360
13209SOL     OW42646   2.226   7.748   5.157  0.1212  0.0217  0.6402
13209SOL    HW142647   2.269   7.775   5.075  1.4545 -0.2100  1.2530
13209SOL    HW242648   2.134   7.772   5.145  0.3276  0.1070 -0.8813
13210SOL     OW42649   1.515   5.994   4.898  0.3373  0.3070  0.3796
13210SOL    HW142650   1.456   6.059   4.936 -0.4906 -0.3053  0.1614
13210SOL    HW242651   1.518   6.016   4.805 -1.1743 -0.8759  0.0192
13211SOL     OW42652   9.024   9.111   5.609 -0.1540 -0.6223  0.1194
13211SOL    HW142653   9.108   9.118   5.563 -0.0442 -1.4892  0.1854
13211SOL    HW242654   9.030   9.029   5.658 -1.0678 -0.7250  0.0735
13212SOL     OW42655   1.197   2.063   8.458  0.3202 -0.2008  0.3152
13212SOL    HW142656   1.138   2.111   8.515  1.6920 -0.0447  1.6377
13212SOL    HW242657   1.266   2.030   8.516  1.7746  0.0054 -1.2405
13213SOL     OW42658   3.559   8.985   8.451  0.1095  0.0893 -0.0121
13213SOL    HW142659   3.560   8.937   8.534 -1.7749 -0.0038 -0.0215
13213SOL    HW242660   3.554   8.917   8.383 -1.1101  0.2331 -0.0801
13214SOL     OW42661   6.488   9.240   2.422 -0.2256 -0.1007  0.0869
13214SOL    HW142662   6.550   9.180   2.381 -0.1652 -0.5353  0.8079
13214SOL    HW242663   6.530   9.326   2.418  0.1526 -0.2907  0.0188
13215SOL     OW42664   0.652   8.685   2.621 -0.7576  0.4758 -0.2324
13215SOL    HW142665   0.606   8.603   2.605 -0.9742  1.0522 -2.7552
13215SOL    HW242666   0.584   8.752   2.622 -0.4958  0.7375  0.9766
13216SOL     OW42667   7.841   4.429   4.902  0.6335  0.0005 -0.0539
13216SOL    HW142668   7.796   4.477   4.972  0.2910  1.0383 -0.9784
13216SOL    HW242669   7.933   4.452   4.914  0.5970  0.0418  0.1631
13217SOL     OW42670   1.191   3.077   0.495  0.1096  0.0466  0.4265
13217SOL    HW142671   1.217   3.169   0.489 -1.7029  0.5741  0.5097
13217SOL    HW242672   1.197   3.057   0.588  2.5746 -0.5685  0.1873
13218SOL     OW42673   9.258   4.051   2.464  0.0259 -0.0852  0.0355
13218SOL    HW142674   9.344   4.009   2.453  0.1066  0.0859  0.0168
13218SOL    HW242675   9.195   3.980   2.451  0.1568 -0.1688 -0.1555
13219SOL     OW42676   1.897   8.488   8.865  0.4353  0.1209 -0.0554
13219SOL    HW142677   1.907   8.472   8.771 -0.9158  0.4425 -0.2686
13219SOL    HW242678   1.836   8.420   8.893  0.3835  0.3897  0.4733
13220SOL     OW42679   5.634   8.966   8.985  0.8458 -0.2156  0.0768
13220SOL    HW142680   5.567   8.956   9.053  0.4474 -2.0357 -0.5596
13220SOL    HW242681   5.710   8.919   9.019  1.0455 -0.0846 -0.1910
13221SOL     OW42682   2.303   3.431   8.478  0.2808 -0.2768 -0.0576
13221SOL    HW142683   2.253   3.511   8.465 -0.3899 -1.0785 -2.6281
13221SOL    HW242684   2.253   3.363   8.433  2.8801 -1.3803 -1.4096
13222SOL     OW42685   7.882   6.258   8.169  0.7784  0.5630  0.1457
13222SOL    HW142686   7.896   6.220   8.256  1.4368 -0.4140 -0.3851
13222SOL    HW242687   7.810   6.208   8.132 -0.2430  1.7074  0.5525
13223SOL     OW42688   7.140   8.663   3.687 -0.6088 -0.0539 -0.4558
13223SOL    HW142689   7.086   8.724   3.737 -0.7079  0.1763 -0.8402
13223SOL    HW242690   7.207   8.719   3.646  0.2121 -0.3915  0.3939
13224SOL     OW42691   4.685   8.212   5.059  0.3040  0.5021 -0.0584
13224SOL    HW142692   4.698   8.160   5.138  3.0531  0.4486 -0.4791
13224SOL    HW242693   4.761   8.191   5.004 -1.5751  0.5098 -2.7456
13225SOL     OW42694   4.371   2.233   1.831 -0.0538 -0.1512 -0.0490
13225SOL    HW142695   4.354   2.321   1.867 -1.8311 -0.4180 -0.1752
13225SOL    HW242696   4.364   2.175   1.907  0.5758 -0.2581 -0.0667
13226SOL     OW42697   5.823   2.617   8.119  0.4155  0.6494  0.1228
13226SOL    HW142698   5.774   2.649   8.043 -1.7713 -2.4373  0.1145
13226SOL    HW242699   5.758   2.615   8.189  1.8243  1.1874  1.4630
13227SOL     OW42700   8.149   5.299   0.440 -0.0791  0.5370 -0.2565
13227SOL    HW142701   8.064   5.332   0.412 -0.0772  1.0449  0.3243
13227SOL    HW242702   8.210   5.369   0.421  0.7942 -1.0674 -3.7755
13228SOL     OW42703   6.055   0.439   4.265 -0.6292 -0.0069 -0.5063
13228SOL    HW142704   6.039   0.526   4.300  0.7175 -0.5306  1.4753
13228SOL    HW242705   6.105   0.455   4.185  0.4044  1.0102  0.3243
13229SOL     OW42706   7.825   4.960   5.554 -0.3602 -0.2446  0.2205
13229SOL    HW142707   7.762   5.027   5.582  2.5521  2.8781 -0.4556
13229SOL    HW242708   7.810   4.952   5.459  0.9181  1.2702 -0.1275
13230SOL     OW42709   6.745   4.403   0.732 -0.3718 -0.4069 -0.1698
13230SOL    HW142710   6.836   4.410   0.702 -0.3576  0.6702  0.1078
13230SOL    HW242711   6.705   4.486   0.707 -1.1362 -0.6621  0.1925
13231SOL     OW42712   0.847   5.759   7.113 -0.3600  0.2954  0.2942
13231SOL    HW142713   0.929   5.709   7.116 -1.8439 -2.4063 -2.0222
13231SOL    HW242714   0.785   5.708   7.165 -1.5697  0.3294 -1.0657
13232SOL     OW42715   4.455   7.783   8.676 -0.3078  0.2522 -0.1009
13232SOL    HW142716   4.517   7.835   8.625 -0.4618  0.9460  0.4093
13232SOL    HW242717   4.492   7.784   8.765 -1.4039  1.2382  0.3516
13233SOL     OW42718   9.018   5.810   3.445 -0.0423 -0.3096 -0.2715
13233SOL    HW142719   8.966   5.754   3.502  0.3126  0.1927  0.5647
13233SOL    HW242720   8.956   5.844   3.381 -0.5847 -0.3387  0.2350
13234SOL     OW42721   2.563   9.351   7.306  0.0905  0.7302  0.1162
13234SOL    HW142722   2.470   9.374   7.315 -0.4201 -0.7519 -1.1340
13234SOL    HW242723   2.569   9.262   7.342  0.9672  0.6961 -0.1147
13235SOL     OW42724   6.298   0.623   0.492 -0.1631  0.0783  0.1633
13235SOL    HW142725   6.231   0.571   0.449 -0.1050 -0.2375  0.4521
13235SOL    HW242726   6.274   0.714   0.473 -0.7455 -0.0281  0.3776
13236SOL     OW42727   5.647   5.888   1.821 -0.1210 -0.1408 -0.2404
13236SOL    HW142728   5.739   5.911   1.806 -0.3548  1.1852  0.2561
13236SOL    HW242729   5.648   5.842   1.905 -0.2699  2.4476  1.2083
13237SOL     OW42730   7.494   3.403   1.291 -0.0957  0.0491  0.3068
13237SOL    HW142731   7.560   3.408   1.223 -0.4100  2.5303  0.1103
13237SOL    HW242732   7.530   3.455   1.363 -2.0415  1.9397 -0.0319
13238SOL     OW42733   0.194   3.730   5.347  0.7115 -0.3062  0.3378
13238SOL    HW142734   0.239   3.721   5.431  1.8776  0.3080 -0.2203
13238SOL    HW242735   0.123   3.792   5.365 -0.5962 -2.0592  1.4724
13239SOL     OW42736   9.254   0.877   5.246 -0.0338 -0.1696 -0.1885
13239SOL    HW142737   9.325   0.812   5.247  0.4432  0.3145 -1.7502
13239SOL    HW242738   9.275   0.937   5.318  0.7938 -0.3894 -0.2479
13240SOL     OW42739   8.704   4.672   2.233  0.4942  0.8755  0.1809
13240SOL    HW142740   8.665   4.747   2.277 -0.2706  2.4717 -3.0561
13240SOL    HW242741   8.762   4.633   2.298 -1.4319  2.4269  2.9081
13241SOL     OW42742   8.476   2.222   0.111 -0.7089 -0.0026  0.1296
13241SOL    HW142743   8.429   2.163   0.171  0.5956  0.1630  1.3495
13241SOL    HW242744   8.519   2.164   0.049 -0.1766 -0.3032  0.7708
13242SOL     OW42745   6.778   1.411   0.027 -0.1684 -0.1375  0.2481
13242SOL    HW142746   6.842   1.410   0.098 -1.5089  0.0547  1.5075
13242SOL    HW242747   6.725   1.332   0.041 -1.1863  0.5193  0.1990
13243SOL     OW42748   2.935   4.828   0.598  0.2533  0.1624 -0.1253
13243SOL    HW142749   2.903   4.822   0.508  0.7760 -1.0637 -0.2378
13243SOL    HW242750   2.906   4.747   0.639 -0.8881  1.1953  1.1096
13244SOL     OW42751   6.874   1.162   6.548 -0.0994 -0.3307  0.2331
13244SOL    HW142752   6.907   1.181   6.460 -1.4591 -1.3343 -0.5075
13244SOL    HW242753   6.932   1.093   6.581 -1.1535 -1.7846 -0.8984
13245SOL     OW42754   5.909   9.187   1.161 -0.7808 -0.5551  0.3188
13245SOL    HW142755   5.853   9.129   1.111 -1.0744  1.3485 -1.6559
13245SOL    HW242756   5.995   9.178   1.120 -0.4329 -0.8839  1.1143
13246SOL     OW42757   1.453   8.546   7.452  0.4109  0.5855  0.0162
13246SOL    HW142758   1.444   8.599   7.372 -1.6027  0.8114  0.3691
13246SOL    HW242759   1.422   8.459   7.427  0.1927  0.5387  0.4481
13247SOL     OW42760   2.240   6.086   1.273  0.1230 -0.2909 -0.7015
13247SOL    HW142761   2.172   6.047   1.328  0.5744  0.1185  0.1451
13247SOL    HW242762   2.302   6.014   1.256  1.4274  0.2579  1.6007
13248SOL     OW42763   0.513   7.336   0.361 -0.8318  0.3855  0.1721
13248SOL    HW142764   0.552   7.276   0.299 -0.7518 -1.3281  1.8422
13248SOL    HW242765   0.582   7.400   0.379 -0.5569  0.3698 -0.7913
13249SOL     OW42766   0.968   0.321   3.462  0.0029  0.3737 -0.6468
13249SOL    HW142767   0.964   0.255   3.392  1.6945 -0.4737  0.0311
13249SOL    HW242768   0.989   0.271   3.541 -1.3455  1.3937  0.3739
13250SOL     OW42769   2.746   4.584   4.412 -0.4973  0.3367  0.1316
13250SOL    HW142770   2.716   4.625   4.493 -0.2266 -0.1088  0.4598
13250SOL    HW242771   2.825   4.633   4.389  0.2413 -0.4443  0.9159
13251SOL     OW42772   6.704   1.050   1.005 -0.4493  0.2533  0.0521
13251SOL    HW142773   6.617   1.076   1.034 -0.7562 -0.3540 -0.3142
13251SOL    HW242774   6.699   1.050   0.909  0.4395  1.8402 -0.0020
13252SOL     OW42775   3.351   7.855   0.070 -0.0060 -0.0709  0.0933
13252SOL    HW142776   3.278   7.794   0.069 -0.6885  0.7354  0.2223
13252SOL    HW242777   3.429   7.799   0.076 -0.5689 -0.9616 -0.7012
13253SOL     OW42778   6.864   1.388   8.258 -0.4110 -0.0201  0.9845
13253SOL    HW142779   6.897   1.307   8.218 -1.4377  0.2052 -0.3346
13253SOL    HW242780   6.771   1.373   8.271 -0.8084  1.3478 -0.2461
13254SOL     OW42781   7.979   3.611   9.289  0.3339  0.1208 -0.3345
13254SOL    HW142782   8.001   3.563   9.209 -0.4159 -1.6407  0.4940
13254SOL    HW242783   7.974   3.703   9.262 -0.3633 -0.5121 -2.3888
13255SOL     OW42784   3.666   4.088   3.917 -0.0564 -0.2146  0.3066
13255SOL    HW142785   3.653   4.000   3.952  1.1051 -0.3934  0.3020
13255SOL    HW242786   3.761   4.102   3.922 -0.2573  1.1338  0.5551
13256SOL     OW42787   5.587   1.996   7.959 -0.0408 -0.1628 -0.0483
13256SOL    HW142788   5.607   1.902   7.964 -0.8527 -0.3850 -0.7688
13256SOL    HW242789   5.514   2.009   8.020 -0.6289 -0.2045 -0.7389
13257SOL     OW42790   0.242   2.534   2.139 -0.3410  0.5651 -0.2781
13257SOL    HW142791   0.237   2.495   2.051  2.1547 -1.4138  0.3980
13257SOL    HW242792   0.302   2.608   2.128  3.4714 -2.2690  0.5496
13258SOL     OW42793   6.337   2.564   2.424  0.3000  0.9137 -0.4304
13258SOL    HW142794   6.280   2.610   2.362 -1.2276  0.9168  0.9412
13258SOL    HW242795   6.290   2.568   2.507 -0.7490 -4.5375 -0.5762
13259SOL     OW42796   2.178   8.578   7.585 -0.0142 -0.0279 -0.3219
13259SOL    HW142797   2.162   8.623   7.502  0.0501  0.7366  0.0662
13259SOL    HW242798   2.230   8.641   7.636 -1.4042  0.1630  0.8931
13260SOL     OW42799   4.061   0.896   2.800  0.1488 -0.4325  0.4456
13260SOL    HW142800   4.140   0.886   2.853  0.4287 -0.8692 -0.0465
13260SOL    HW242801   4.008   0.960   2.848  0.6306 -0.4215  0.9733
13261SOL     OW42802   4.571   7.318   5.189  0.3912  0.0318  0.4859
13261SOL    HW142803   4.623   7.278   5.120 -0.4408 -0.9453  0.4211
13261SOL    HW242804   4.615   7.401   5.207  2.5076 -1.1991  1.0991
13262SOL     OW42805   6.864   3.303   1.435 -0.2406  0.0808  0.4021
13262SOL    HW142806   6.843   3.379   1.488 -0.3016  0.0234  0.4595
13262SOL    HW242807   6.892   3.339   1.351  3.3539  0.3191  1.6458
13263SOL     OW42808   4.538   2.423   3.058  0.0045 -0.2555  0.0952
13263SOL    HW142809   4.591   2.437   3.136  0.5798  0.8741 -0.4755
13263SOL    HW242810   4.479   2.499   3.056 -1.3370 -1.2728  0.4808
13264SOL     OW42811   6.790   0.246   6.020 -0.1614 -0.7026  0.5036
13264SOL    HW142812   6.812   0.202   5.938 -2.3669 -0.5043 -0.2385
13264SOL    HW242813   6.875   0.265   6.061  0.9132 -2.7413 -0.6801
13265SOL     OW42814   7.295   5.162   1.750 -0.0912  0.4531 -0.0729
13265SOL    HW142815   7.337   5.178   1.666  0.7405 -2.5087 -0.2868
13265SOL    HW242816   7.259   5.073   1.743  0.2232  0.0323  2.7420
13266SOL     OW42817   9.349   5.689   8.453  0.4145 -0.3203  0.0333
13266SOL    HW142818   9.384   5.775   8.427  0.4347 -0.9431 -2.1519
13266SOL    HW242819   9.427   5.636   8.467  0.3940 -0.3218  0.1404
13267SOL     OW42820   4.086   5.764   4.971 -0.2787 -0.2512 -1.0131
13267SOL    HW142821   4.009   5.786   4.918  0.7036  1.0979 -1.9084
13267SOL    HW242822   4.160   5.792   4.918  0.7625  0.0375  0.5852
13268SOL     OW42823   6.313   3.487   1.357  0.3764 -0.4077 -0.3679
13268SOL    HW142824   6.337   3.547   1.428  0.8076 -0.3115 -0.5946
13268SOL    HW242825   6.330   3.536   1.277  1.7320 -1.1898 -0.5825
13269SOL     OW42826   1.593   2.156   1.352  0.1589  0.0927 -0.5632
13269SOL    HW142827   1.504   2.164   1.318 -0.3917  0.5947  0.9297
13269SOL    HW242828   1.638   2.096   1.292 -1.7771 -1.7915 -0.1772
13270SOL     OW42829   7.695   6.968   6.918 -0.2878  0.7920  0.3243
13270SOL    HW142830   7.780   6.975   6.874  0.0888  0.6459  1.0176
13270SOL    HW242831   7.637   7.025   6.868  0.0967  0.5136 -0.4509
13271SOL     OW42832   5.090   9.101   3.936  0.0167 -0.4967 -0.1159
13271SOL    HW142833   5.106   9.020   3.887 -1.0259 -0.2475 -0.8894
13271SOL    HW242834   5.086   9.074   4.027  1.7979 -1.0034 -0.1731
13272SOL     OW42835   7.077   2.502   2.043 -0.0692  0.2261 -0.0217
13272SOL    HW142836   7.062   2.434   1.978 -0.9038  0.8484 -0.5030
13272SOL    HW242837   6.992   2.510   2.088 -0.4320  1.9795 -0.9859
13273SOL     OW42838   0.215   6.446   3.599  0.3598 -0.2116 -0.2568
13273SOL    HW142839   0.252   6.376   3.546  1.0413  1.3812 -1.9595
13273SOL    HW242840   0.120   6.434   3.592  0.4863 -1.4705  0.1814
13274SOL     OW42841   7.983   7.832   9.305 -0.0011  0.3668 -0.0498
13274SOL    HW142842   8.038   7.770   9.258 -0.8197 -2.5398  2.6409
13274SOL    HW242843   7.900   7.831   9.258  0.1773 -0.1843 -0.3605
13275SOL     OW42844   3.065   4.755   0.898  0.0751  0.1474 -0.2503
13275SOL    HW142845   3.006   4.718   0.832 -2.2375  2.0792  0.6483
13275SOL    HW242846   3.052   4.702   0.976  0.9228 -0.5817 -0.6060
13276SOL     OW42847   8.531   3.229   0.009  0.3238 -0.1691  0.3965
13276SOL    HW142848   8.492   3.309  -0.027  2.1233  0.0854 -1.0714
13276SOL    HW242849   8.622   3.233  -0.018  0.6859 -2.2024  1.2418
13277SOL     OW42850   2.273   0.348   3.295  0.8609  0.5128 -0.2118
13277SOL    HW142851   2.227   0.406   3.356 -0.5283 -1.1967  0.4144
13277SOL    HW242852   2.219   0.348   3.216 -0.3384 -1.5907  0.5678
13278SOL     OW42853   7.495   0.281   5.160 -0.6678 -0.4107 -0.4986
13278SOL    HW142854   7.542   0.221   5.102 -0.1957  0.1518 -0.7032
13278SOL    HW242855   7.410   0.240   5.172 -0.8503 -0.4424 -1.7564
13279SOL     OW42856   6.664   0.638   4.647  0.4502  0.6085  0.2385
13279SOL    HW142857   6.587   0.586   4.622  1.4233 -1.1488  0.7562
13279SOL    HW242858   6.659   0.717   4.594 -1.0572 -0.0456 -0.6155
13280SOL     OW42859   6.418   4.339   1.828  0.4977  0.2103 -0.1826
13280SOL    HW142860   6.348   4.286   1.791  1.0313 -0.8141  0.2452
13280SOL    HW242861   6.497   4.287   1.813  1.1269  1.2537 -0.4657
13281SOL     OW42862   2.267   3.705   2.373  0.3957 -0.2007  0.6185
13281SOL    HW142863   2.172   3.701   2.386  0.3479 -0.2477  0.2785
13281SOL    HW242864   2.295   3.614   2.373  0.2184 -0.2648 -0.8100
13282SOL     OW42865   1.355   3.157   2.502 -0.3364 -0.0594  0.3551
13282SOL    HW142866   1.433   3.105   2.484 -1.1300 -0.7669 -1.1042
13282SOL    HW242867   1.317   3.118   2.581 -0.2937 -0.9455 -0.0645
13283SOL     OW42868   4.495   8.784   8.084  0.1755 -0.0188 -0.2552
13283SOL    HW142869   4.570   8.726   8.068 -0.0041 -0.3285  0.0429
13283SOL    HW242870   4.461   8.757   8.169 -0.6147 -0.2406 -0.6441
13284SOL     OW42871   4.639   8.761   4.122  0.4651  1.1360  0.3549
13284SOL    HW142872   4.635   8.705   4.200  1.8537  1.8529  0.9711
13284SOL    HW242873   4.556   8.747   4.078  0.1966 -0.2906  1.2777
13285SOL     OW42874   9.274   5.262   9.303 -0.1445  0.1710  0.3339
13285SOL    HW142875   9.268   5.228   9.393  2.6692 -0.9427  0.1552
13285SOL    HW242876   9.189   5.245   9.265  0.0420 -3.4751  1.4085
13286SOL     OW42877   5.054   1.742   8.924  0.1527 -0.2672  0.9198
13286SOL    HW142878   5.024   1.658   8.890  1.1353 -0.7333  1.1800
13286SOL    HW242879   5.017   1.746   9.013 -0.2233 -0.2432  0.7616
13287SOL     OW42880   4.197   3.733   8.862  0.5096 -0.0105  0.2166
13287SOL    HW142881   4.187   3.828   8.870  1.5779 -0.1107  3.0635
13287SOL    HW242882   4.184   3.716   8.768 -3.4820  2.4642  0.1815
13288SOL     OW42883   0.620   4.106   5.993  0.2782 -0.4637 -0.0590
13288SOL    HW142884   0.676   4.184   5.992 -0.5505  0.1413  0.1898
13288SOL    HW242885   0.679   4.034   5.972  1.0489  0.2354 -0.3151
13289SOL     OW42886   8.641   0.528   7.199 -0.2057  0.2098 -0.0304
13289SOL    HW142887   8.568   0.558   7.254 -0.0437  1.4781 -0.4766
13289SOL    HW242888   8.695   0.474   7.257 -0.4568  0.8775  0.8397
13290SOL     OW42889   8.390   7.685   2.541 -0.4279  0.0731 -0.2724
13290SOL    HW142890   8.465   7.723   2.495 -1.0506  0.7155 -0.7781
13290SOL    HW242891   8.418   7.679   2.632  0.7121 -0.9091 -0.6662
13291SOL     OW42892   9.340   3.668   7.618 -0.4631 -0.4055  0.2153
13291SOL    HW142893   9.263   3.611   7.628 -0.7952 -0.1337 -0.6972
13291SOL    HW242894   9.335   3.698   7.527 -0.1301  0.8477  0.6044
13292SOL     OW42895   4.872   1.719   9.415  0.5108 -0.1016  0.5052
13292SOL    HW142896   4.841   1.793   9.363  1.7708  1.5512  2.0668
13292SOL    HW242897   4.967   1.721   9.405  0.5477 -1.6092  0.4390
13293SOL     OW42898   5.195   9.024   5.884  0.4667 -0.3352  0.6103
13293SOL    HW142899   5.262   8.955   5.888 -0.9720 -1.8360 -0.5905
13293SOL    HW242900   5.224   9.080   5.812  0.2581 -1.1960 -0.1604
13294SOL     OW42901   6.170   6.170   5.059  0.1469 -0.0622  0.3863
13294SOL    HW142902   6.222   6.213   5.128 -1.5331 -2.2774  3.1383
13294SOL    HW242903   6.231   6.109   5.018  1.3621  1.7750 -0.6475
13295SOL     OW42904   4.173   7.996   3.396  0.2152  0.0848  0.0025
13295SOL    HW142905   4.209   7.965   3.479 -0.2347 -1.7857 -0.4727
13295SOL    HW242906   4.161   8.090   3.409 -2.4837 -0.5854  3.0725
13296SOL     OW42907   0.677   6.122   8.790 -0.2852 -0.5881  0.0016
13296SOL    HW142908   0.646   6.049   8.843 -1.7994 -1.1698 -1.6533
13296SOL    HW242909   0.601   6.179   8.779  0.3257  0.1441 -0.5401
13297SOL     OW42910   4.032   5.315   8.623 -0.6234 -0.3726 -0.0546
13297SOL    HW142911   3.968   5.291   8.555 -0.7732 -0.9561  0.2889
13297SOL    HW242912   4.002   5.399   8.655 -1.8844 -1.1703  0.9046
13298SOL     OW42913   8.273   1.630   1.470  0.6974 -0.0419 -0.0184
13298SOL    HW142914   8.234   1.690   1.533  0.9368  0.3112 -0.2096
13298SOL    HW242915   8.361   1.613   1.503  0.5426 -0.4869  0.1716
13299SOL     OW42916   6.545   4.282   7.039  0.0824  0.0139 -0.5039
13299SOL    HW142917   6.576   4.192   7.029 -0.1471  0.0750 -1.8218
13299SOL    HW242918   6.603   4.320   7.104 -0.2932 -1.3172  0.6372
13300SOL     OW42919   3.337   0.485   0.072 -0.3610  0.4585  0.3230
13300SOL    HW142920   3.333   0.577   0.098 -1.0750  0.2753  0.8896
13300SOL    HW242921   3.286   0.480  -0.008  2.1389  1.0922 -1.3588
13301SOL     OW42922   6.793   7.934   1.079 -0.7652 -0.2647  0.3537
13301SOL    HW142923   6.711   7.898   1.112  0.4809 -0.6696  3.0987
13301SOL    HW242924   6.840   7.858   1.043 -0.6124 -0.4193  0.8784
13302SOL     OW42925   3.169   6.737   5.538  0.0081 -0.1605  0.2214
13302SOL    HW142926   3.161   6.697   5.451  1.1046  1.7102 -0.7572
13302SOL    HW242927   3.120   6.819   5.531 -0.9921 -0.6037  1.7786
13303SOL     OW42928   4.770   7.743   4.574 -0.5405  0.1208 -0.5961
13303SOL    HW142929   4.690   7.780   4.612 -0.9568 -0.2456 -1.1101
13303SOL    HW242930   4.740   7.666   4.527  0.3756 -1.1298  0.8208
13304SOL     OW42931   4.239   8.291   3.475 -0.0325  0.3010 -0.4593
13304SOL    HW142932   4.328   8.257   3.471 -0.7825 -1.7797  0.0925
13304SOL    HW242933   4.214   8.285   3.567 -1.4812 -1.1274 -0.9249
13305SOL     OW42934   4.389   2.583   8.093 -0.4092 -0.0741  0.2752
13305SOL    HW142935   4.340   2.521   8.038 -0.3943 -0.0872  0.2762
13305SOL    HW242936   4.481   2.567   8.071 -0.4793  1.1024 -0.9505
13306SOL     OW42937   4.815   0.041   5.279  0.5547 -0.4754 -0.3790
13306SOL    HW142938   4.721   0.054   5.268  0.6648  1.4417  0.8632
13306SOL    HW242939   4.823  -0.026   5.347  0.0939 -0.2760 -0.1317
13307SOL     OW42940   3.646   6.834   4.325  0.0824  0.0291  0.2157
13307SOL    HW142941   3.737   6.863   4.330  0.8803 -2.0506 -1.4297
13307SOL    HW242942   3.631   6.788   4.407  0.1868  1.2105  0.9111
13308SOL     OW42943   3.980   2.317   8.552  0.4443 -0.6451  0.0478
13308SOL    HW142944   3.972   2.314   8.647 -0.3431  0.2369  0.0050
13308SOL    HW242945   3.891   2.330   8.520  0.6516 -1.3182 -0.8358
13309SOL     OW42946   7.783   2.177   3.640  0.5908 -0.1105 -0.0641
13309SOL    HW142947   7.813   2.093   3.605  0.2425 -0.0645 -0.4802
13309SOL    HW242948   7.844   2.241   3.604  0.8674 -0.1873  0.2680
13310SOL     OW42949   6.215   8.874   5.765  0.2310  0.6962 -0.0988
13310SOL    HW142950   6.268   8.919   5.699 -0.9555 -0.4480 -1.8870
13310SOL    HW242951   6.208   8.785   5.733  1.2088 -0.3953  2.5838
13311SOL     OW42952   2.234   8.632   8.547 -0.2208  0.6111  0.0844
13311SOL    HW142953   2.220   8.718   8.586 -0.3849  0.0495  1.2758
13311SOL    HW242954   2.326   8.634   8.519 -0.4529  1.4628 -0.6599
13312SOL     OW42955   2.323   7.854   0.823  0.3701  0.2617 -0.1538
13312SOL    HW142956   2.301   7.935   0.870 -2.1048 -1.3076  1.5192
13312SOL    HW242957   2.386   7.809   0.880 -0.6768 -0.4465  0.4589
13313SOL     OW42958   2.302   2.152   5.910 -0.1628  0.4178 -0.4359
13313SOL    HW142959   2.230   2.101   5.872  0.4547 -0.4170 -0.4964
13313SOL    HW242960   2.329   2.101   5.987 -1.2243  1.9553  0.9832
13314SOL     OW42961   5.377   8.840   2.850 -0.2871  0.0738 -0.5017
13314SOL    HW142962   5.335   8.889   2.921  1.7267  1.1258 -0.0097
13314SOL    HW242963   5.407   8.759   2.892 -0.2610  0.0999 -0.4698
13315SOL     OW42964   0.660   2.505   7.062 -0.2194 -0.3573  0.7126
13315SOL    HW142965   0.740   2.495   7.114 -0.4873 -0.1726  1.1612
13315SOL    HW242966   0.691   2.537   6.977  0.1033  0.6484  1.1991
13316SOL     OW42967   9.147   0.492   7.059  0.9103  0.8907  0.6975
13316SOL    HW142968   9.100   0.556   7.112 -1.8958 -0.6523  0.1833
13316SOL    HW242969   9.146   0.528   6.970 -1.9008 -0.3998  0.1307
13317SOL     OW42970   6.402   1.067   2.190 -0.2311 -0.3673  0.0753
13317SOL    HW142971   6.466   1.100   2.253  1.3748  0.4705 -1.9136
13317SOL    HW242972   6.345   1.009   2.241  2.2406 -1.3062  1.8822
13318SOL     OW42973   0.416   0.382   7.078  0.4611  0.5985 -0.3309
13318SOL    HW142974   0.418   0.292   7.047 -1.1285  0.8714 -1.2969
13318SOL    HW242975   0.327   0.412   7.059  0.9667  2.3647 -0.0270
13319SOL     OW42976   1.703   2.893   6.604  0.1172  0.3871 -0.2235
13319SOL    HW142977   1.621   2.853   6.575  0.3176  0.0613 -0.3564
13319SOL    HW242978   1.700   2.982   6.569  0.0515  0.2112 -0.6692
13320SOL     OW42979   6.659   7.316   1.210  0.4627 -0.5652  0.6598
13320SOL    HW142980   6.678   7.225   1.234  2.4041 -0.0445  1.1458
13320SOL    HW242981   6.714   7.369   1.267  0.2124  0.9023 -0.4065
13321SOL     OW42982   7.839   0.546   1.300 -0.6403 -0.4086 -0.1731
13321SOL    HW142983   7.916   0.589   1.338  1.6373 -2.1578 -2.6149
13321SOL    HW242984   7.803   0.493   1.371  0.1749  0.7198  1.1069
13322SOL     OW42985   7.254   2.313   7.534 -0.1748 -0.1944 -0.2437
13322SOL    HW142986   7.231   2.304   7.442  1.8147  1.6406 -0.9387
13322SOL    HW242987   7.223   2.400   7.559  1.5935  0.3594  0.1057
13323SOL     OW42988   8.314   1.468   4.268 -0.7763 -0.4474 -0.2147
13323SOL    HW142989   8.382   1.449   4.203 -0.2960 -0.4445  0.2807
13323SOL    HW242990   8.281   1.382   4.294 -1.3506 -0.4287 -0.8539
13324SOL     OW42991   7.851   8.125   2.084 -0.0976  0.0659 -0.3548
13324SOL    HW142992   7.940   8.114   2.118  0.0749 -1.8480 -1.3406
13324SOL    HW242993   7.814   8.197   2.136  0.5966 -1.8431  2.9249
13325SOL     OW42994   4.779   4.424   7.376  0.4621  0.3223  0.0646
13325SOL    HW142995   4.720   4.354   7.404  1.7675 -0.7954  0.0949
13325SOL    HW242996   4.840   4.381   7.316  0.6517  1.6649 -0.7183
13326SOL     OW42997   4.213   4.339   3.907  0.7436  0.2158 -0.0981
13326SOL    HW142998   4.118   4.348   3.911  0.7150  0.4982 -1.2322
13326SOL    HW242999   4.231   4.254   3.947 -0.0838 -0.3515 -0.9249
13327SOL     OW43000   8.019   0.046   2.569 -0.3963  0.7319 -0.5331
13327SOL    HW143001   8.077   0.049   2.646 -1.2571 -1.5737  0.2485
13327SOL    HW243002   8.007   0.138   2.545  1.1340  1.4138  1.1380
13328SOL     OW43003   1.048   3.989   4.787 -0.2284 -0.4679 -0.5045
13328SOL    HW143004   0.955   3.970   4.801 -0.3519  0.4761 -0.0231
13328SOL    HW243005   1.093   3.948   4.861 -0.3066 -0.4983 -0.4750
13329SOL     OW43006   8.400   2.558   8.369  0.0361 -0.7104  0.2742
13329SOL    HW143007   8.448   2.622   8.316  1.0560 -0.8364  1.0338
13329SOL    HW243008   8.314   2.599   8.384  0.6574  0.4478  0.7148
13330SOL     OW43009   9.186   5.747   4.898 -0.0142  0.5564 -0.2694
13330SOL    HW143010   9.184   5.833   4.940 -0.3824 -0.1107  1.1023
13330SOL    HW243011   9.275   5.716   4.912 -0.1442  0.3222  0.0479
13331SOL     OW43012   4.220   8.221   4.327  0.5828 -0.2580  0.1145
13331SOL    HW143013   4.253   8.284   4.262 -0.8199 -0.6070 -0.9792
13331SOL    HW243014   4.165   8.273   4.385 -0.2949 -0.3808 -0.5822
13332SOL     OW43015   9.394   2.331   7.301  0.6599  0.7533 -0.5806
13332SOL    HW143016   9.429   2.243   7.287 -1.3665 -0.5054  1.9074
13332SOL    HW243017   9.418   2.352   7.391 -1.3447  1.5458 -0.2147
13333SOL     OW43018   9.350   4.926   2.353 -0.2458 -0.1057 -0.2158
13333SOL    HW143019   9.445   4.932   2.363 -0.1616  0.2708 -1.1571
13333SOL    HW243020   9.326   4.842   2.391  0.3051  0.3711  1.1911
13334SOL     OW43021   9.224   1.982   1.266  0.6335  0.0748 -0.2794
13334SOL    HW143022   9.248   1.896   1.299  0.9906  0.0892 -0.5058
13334SOL    HW243023   9.306   2.021   1.236  0.3436  0.1527 -0.9774
13335SOL     OW43024   8.485   1.466   6.612  0.2354 -0.2964 -0.2816
13335SOL    HW143025   8.474   1.525   6.687 -0.7608 -0.2462 -0.4584
13335SOL    HW243026   8.462   1.519   6.536  0.8738 -0.4568 -0.5853
13336SOL     OW43027   8.365   9.035   5.700  0.6525  0.1674  0.0730
13336SOL    HW143028   8.326   9.097   5.761 -0.0805 -0.4111  0.2050
13336SOL    HW243029   8.457   9.029   5.727 -0.0507 -1.3861  2.2201
13337SOL     OW43030   1.614   8.258   6.300 -0.6588  0.4260  0.3437
13337SOL    HW143031   1.624   8.186   6.362 -2.4724  0.1540  0.3516
13337SOL    HW243032   1.543   8.311   6.337 -0.4826  1.2974 -0.5445
13338SOL     OW43033   8.025   8.049   2.312  0.7897 -0.0579  0.0911
13338SOL    HW143034   7.940   8.076   2.346  1.2573 -0.1966  1.4359
13338SOL    HW243035   8.061   7.994   2.382  1.7586 -0.4168 -0.6859
13339SOL     OW43036   3.685   7.392   3.877  0.2236  0.3770 -0.6763
13339SOL    HW143037   3.621   7.349   3.820 -0.0124 -1.2292  0.7548
13339SOL    HW243038   3.766   7.393   3.826 -0.0111 -0.9377 -1.0860
13340SOL     OW43039   8.361   2.653   0.768 -0.0668 -0.1444 -0.2050
13340SOL    HW143040   8.349   2.740   0.728 -1.0622 -0.3326 -0.3197
13340SOL    HW243041   8.442   2.620   0.728  0.0312  0.5106 -0.5566
13341SOL     OW43042   0.753   7.418   2.173  0.9214  0.5378 -0.1602
13341SOL    HW143043   0.751   7.379   2.086  2.8507 -0.2373  0.1257
13341SOL    HW243044   0.767   7.512   2.158 -2.0360  0.9555 -0.7724
13342SOL     OW43045   3.296   1.678   3.329 -0.0645 -0.2815 -0.3248
13342SOL    HW143046   3.374   1.724   3.363 -0.0290  0.7851 -1.8112
13342SOL    HW243047   3.223   1.717   3.377  0.3887 -2.0097  1.8249
13343SOL     OW43048   6.670   4.006   8.095 -0.4241 -0.2002 -0.7182
13343SOL    HW143049   6.733   3.953   8.046  0.6912  1.5908 -1.2296
13343SOL    HW243050   6.679   3.976   8.186  3.7279  2.4518 -0.1539
13344SOL     OW43051   9.050   9.061   4.036 -0.5927 -0.3182  0.3680
13344SOL    HW143052   9.120   9.100   4.089 -2.8070  1.5142  2.0806
13344SOL    HW243053   8.986   9.132   4.025 -1.6756 -1.6211 -2.0945
13345SOL     OW43054   0.895   8.692   7.422 -0.7213  0.0299  0.2964
13345SOL    HW143055   0.920   8.784   7.411 -0.4219  0.1083  1.5843
13345SOL    HW243056   0.969   8.652   7.466 -0.8857 -0.8134 -0.1955
13346SOL     OW43057   6.554   7.754   0.747 -0.4413  0.1605 -0.6427
13346SOL    HW143058   6.607   7.821   0.703 -0.0021 -1.2290 -2.3008
13346SOL    HW243059   6.618   7.690   0.779 -0.7009  1.5424  2.8055
13347SOL     OW43060   8.681   3.831   2.805 -0.4709  0.6907  0.8968
13347SOL    HW143061   8.687   3.739   2.834  1.0600  1.2234  2.3425
13347SOL    HW243062   8.617   3.829   2.734 -0.4006 -1.5193  0.8445
13348SOL     OW43063   4.374   8.109   0.046 -0.8259  0.2076 -0.8273
13348SOL    HW143064   4.289   8.101   0.002 -1.3405 -0.2460  0.2276
13348SOL    HW243065   4.382   8.029   0.098 -1.7315  2.0949  2.4329
13349SOL     OW43066   8.916   1.389   1.067  0.0204 -0.0046 -0.1168
13349SOL    HW143067   8.999   1.408   1.023 -0.1966  2.1251  0.3576
13349SOL    HW243068   8.939   1.319   1.129  1.8051  1.4422  0.9403
13350SOL     OW43069   6.982   3.472   7.894 -0.2595 -0.4779 -0.7005
13350SOL    HW143070   6.913   3.450   7.956 -0.0320 -0.7926 -0.5550
13350SOL    HW243071   6.986   3.567   7.894 -1.6322 -0.4052 -1.7445
13351SOL     OW43072   1.499   9.426   1.484 -0.0735 -0.2487 -0.9311
13351SOL    HW143073   1.507   9.362   1.413  0.1046 -0.2080 -0.9502
13351SOL    HW243074   1.585   9.468   1.487 -0.3697  0.3769 -1.2879
13352SOL     OW43075   5.658   2.641   5.705 -0.3231 -0.0767 -0.5875
13352SOL    HW143076   5.746   2.627   5.670 -0.0028 -0.4491  0.3438
13352SOL    HW243077   5.618   2.554   5.703  0.4584 -0.5342  1.9759
13353SOL     OW43078   8.141   5.116   3.858  0.4770 -0.3066  0.7800
13353SOL    HW143079   8.156   5.135   3.951  0.6204  1.1864  0.4474
13353SOL    HW243080   8.137   5.201   3.816  1.5610 -1.0097 -0.7832
13354SOL     OW43081   5.441   4.964   7.414 -0.3447  0.1079 -0.1380
13354SOL    HW143082   5.432   4.890   7.354  0.1644 -0.4179  0.4146
13354SOL    HW243083   5.361   4.962   7.467  0.9281 -1.8611  1.8281
13355SOL     OW43084   4.300   8.163   7.125  0.1788 -0.3856  1.0284
13355SOL    HW143085   4.235   8.108   7.168 -0.4420 -0.6829 -0.2678
13355SOL    HW243086   4.384   8.130   7.157 -0.2297 -1.3529  1.1164
13356SOL     OW43087   6.769   4.366   8.553  0.4661  0.2708 -0.0559
13356SOL    HW143088   6.842   4.313   8.523  0.4649 -0.1154  0.6073
13356SOL    HW243089   6.691   4.317   8.525  0.4637  0.2050  0.0669
13357SOL     OW43090   8.027   2.290   4.544 -0.1619 -0.2519  0.0046
13357SOL    HW143091   7.979   2.325   4.620 -0.1200 -2.1800  0.9569
13357SOL    HW243092   7.999   2.199   4.539  1.6375 -0.7720 -0.8694
13358SOL     OW43093   0.183   5.827   5.610  0.2534 -0.1143  0.4979
13358SOL    HW143094   0.180   5.826   5.515  0.2919 -1.1406  0.5078
13358SOL    HW243095   0.137   5.907   5.635 -0.5947 -0.3385 -0.3455
13359SOL     OW43096   6.767   6.787   5.748  0.2892  0.1475  0.1884
13359SOL    HW143097   6.777   6.882   5.750 -1.2152  0.2924  1.7278
13359SOL    HW243098   6.822   6.756   5.821 -0.4170 -0.0360  0.6480
13360SOL     OW43099   2.773   7.523   9.112 -0.3152 -0.1706  0.4166
13360SOL    HW143100   2.730   7.609   9.114 -0.8185 -0.3729 -0.9585
13360SOL    HW243101   2.844   7.530   9.176 -0.7049  1.0818  0.7303
13361SOL     OW43102   7.629   6.238   5.408 -0.4633  0.3722 -0.1091
13361SOL    HW143103   7.620   6.152   5.366 -1.5833  1.0301 -1.3026
13361SOL    HW243104   7.653   6.219   5.498 -3.3122 -1.3265  0.3746
13362SOL     OW43105   7.567   4.759   7.112 -0.3845  0.6748  0.0308
13362SOL    HW143106   7.509   4.776   7.186 -1.0432  0.0236 -0.3284
13362SOL    HW243107   7.554   4.667   7.092 -1.0456  1.1056 -1.6029
13363SOL     OW43108   2.072   2.888   2.890  0.2551  0.4052  0.4948
13363SOL    HW143109   2.133   2.890   2.816 -1.1582 -0.0389 -0.6920
13363SOL    HW243110   2.065   2.796   2.913  0.3115  0.4931  0.8589
13364SOL     OW43111   1.075   7.835   7.348  0.0676  0.2221 -0.1451
13364SOL    HW143112   1.121   7.814   7.267 -0.2448  0.8547 -0.4949
13364SOL    HW243113   1.001   7.774   7.351 -0.1099  0.4194 -0.5060
13365SOL     OW43114   5.070   2.617   0.883  0.6888  0.3569 -0.2322
13365SOL    HW143115   5.028   2.678   0.944  0.1550 -1.7324  1.5601
13365SOL    HW243116   5.036   2.642   0.797 -1.8216  0.7248  0.8265
13366SOL     OW43117   6.941   1.358   0.222 -0.1366  0.0352 -0.0318
13366SOL    HW143118   6.982   1.272   0.235  1.6232  1.0902  1.6813
13366SOL    HW243119   7.016   1.417   0.208 -1.4142  0.7874 -4.6036
13367SOL     OW43120   5.607   4.562   0.990 -0.4128  0.3099 -0.7208
13367SOL    HW143121   5.670   4.539   1.058 -0.4208 -2.2544 -1.5276
13367SOL    HW243122   5.657   4.555   0.908 -0.4211  3.2854 -1.0076
13368SOL     OW43123   7.992   7.862   6.528 -0.3892  0.1206  0.2067
13368SOL    HW143124   8.042   7.868   6.609  0.8214  0.6110 -0.5587
13368SOL    HW243125   8.032   7.926   6.470 -0.6520 -0.8652 -1.0883
13369SOL     OW43126   6.178   1.969   3.995  0.2663 -0.3024  0.3458
13369SOL    HW143127   6.252   1.929   3.949  0.5561 -0.6408  1.1080
13369SOL    HW243128   6.106   1.965   3.932  1.5262  2.3523 -1.3932
13370SOL     OW43129   4.275   0.743   3.807  0.1810 -0.1240  0.2040
13370SOL    HW143130   4.281   0.695   3.725 -0.3932 -0.3543  0.2907
13370SOL    HW243131   4.333   0.818   3.795 -0.7650  0.4605 -0.8471
13371SOL     OW43132   7.898   7.756   2.137  0.2310 -0.0923 -0.8098
13371SOL    HW143133   7.893   7.806   2.056 -2.4959  0.5658 -0.2719
13371SOL    HW243134   7.820   7.700   2.136  0.5157 -0.5537  1.0464
13372SOL     OW43135   1.500   4.144   4.307  0.2653  0.8410  0.1012
13372SOL    HW143136   1.579   4.197   4.317 -0.3728  1.6667  0.7943
13372SOL    HW243137   1.444   4.170   4.380 -0.4886 -0.0206 -0.1625
13373SOL     OW43138   5.515   8.888   4.854  0.3116  0.7052 -0.1884
13373SOL    HW143139   5.570   8.953   4.809  1.5726 -0.5847 -0.5489
13373SOL    HW243140   5.546   8.889   4.945  1.4033 -0.4823 -0.5307
13374SOL     OW43141   8.428   6.391   0.345 -0.1082  0.0168 -0.1467
13374SOL    HW143142   8.350   6.431   0.308 -1.2383  0.3476  2.5179
13374SOL    HW243143   8.405   6.299   0.358  0.1397 -0.0167  0.0792
13375SOL     OW43144   2.895   1.369   2.836 -0.5414  0.4232  0.7324
13375SOL    HW143145   2.813   1.371   2.787  0.0166  2.8908 -0.1923
13375SOL    HW243146   2.888   1.442   2.898 -0.0172 -0.8251  2.3015
13376SOL     OW43147   6.418   4.917   8.165 -0.6112  0.3739  0.1523
13376SOL    HW143148   6.432   4.838   8.217 -0.3510  0.9887  1.0176
13376SOL    HW243149   6.395   4.884   8.078  2.8030 -0.6799 -0.4412
13377SOL     OW43150   7.688   2.548   3.771  1.0535 -0.3243  0.4783
13377SOL    HW143151   7.614   2.506   3.813  0.5359  0.6703  0.5805
13377SOL    HW243152   7.723   2.607   3.837 -1.0427  2.8180 -1.0533
13378SOL     OW43153   0.760   8.729   3.081  0.0117 -0.1924  0.0653
13378SOL    HW143154   0.771   8.686   3.166  1.4337 -1.4810 -0.7544
13378SOL    HW243155   0.766   8.822   3.100  0.5511 -0.4824  1.3557
13379SOL     OW43156   5.540   0.087   6.663 -0.1722  0.1974  0.2865
13379SOL    HW143157   5.554   0.174   6.702  4.2721 -0.6514  0.8010
13379SOL    HW243158   5.551   0.026   6.736  0.4476 -0.9997 -0.7825
13380SOL     OW43159   3.817   4.203   1.538  0.8024 -0.0869  0.0372
13380SOL    HW143160   3.783   4.270   1.597  0.2433  0.2974 -0.7101
13380SOL    HW243161   3.828   4.126   1.594  1.3660  0.5988  0.8763
13381SOL     OW43162   3.213   2.177   3.989  0.0452  0.0026  0.7383
13381SOL    HW143163   3.126   2.159   4.027 -0.6591  0.7398 -0.5083
13381SOL    HW243164   3.263   2.097   4.006 -1.4485 -1.1453 -0.1306
13382SOL     OW43165   2.604   1.584   4.038  0.0885 -0.3695  0.5901
13382SOL    HW143166   2.535   1.522   4.013  2.1264 -1.8105 -1.7889
13382SOL    HW243167   2.578   1.617   4.124 -3.3218 -1.1764 -0.0667
13383SOL     OW43168   2.088   0.436   6.419 -0.1775 -0.0912 -0.3019
13383SOL    HW143169   2.050   0.508   6.370 -0.6043  0.2833  0.5605
13383SOL    HW243170   2.154   0.399   6.361 -1.2463 -0.1948 -1.4719
13384SOL     OW43171   2.851   6.005   1.575  0.4733 -0.8862 -0.5757
13384SOL    HW143172   2.903   6.027   1.652 -1.6321  0.1754  0.5754
13384SOL    HW243173   2.843   5.910   1.577  2.9348 -1.1374 -1.1743
13385SOL     OW43174   1.524   8.140   1.778 -0.3924 -0.2738 -0.0059
13385SOL    HW143175   1.552   8.150   1.869  1.1590  0.4397 -0.5496
13385SOL    HW243176   1.454   8.204   1.767 -1.2769 -1.0508  0.9545
13386SOL     OW43177   1.491   9.395   5.227  0.0636  0.3584 -0.2148
13386SOL    HW143178   1.504   9.361   5.316 -2.4339  3.2479  1.3806
13386SOL    HW243179   1.579   9.408   5.192  1.0716 -1.7705  1.4506
13387SOL     OW43180   1.850   5.808   7.458 -0.1861 -0.1026  0.4723
13387SOL    HW143181   1.942   5.821   7.434 -0.1141  0.2938  0.9646
13387SOL    HW243182   1.808   5.780   7.377  0.1983  0.5586  0.0396
13388SOL     OW43183   1.933   1.592   6.442 -0.1951 -0.7771 -0.0512
13388SOL    HW143184   1.851   1.608   6.488 -0.6587 -1.1472 -0.7338
13388SOL    HW243185   1.931   1.499   6.421 -0.2960 -0.4854 -1.3921
13389SOL     OW43186   2.721   4.836   2.665  0.7740  0.3723  0.5414
13389SOL    HW143187   2.661   4.908   2.678 -0.3908 -0.4139 -0.3192
13389SOL    HW243188   2.788   4.871   2.605 -0.4274  0.4097 -0.8155
13390SOL     OW43189   4.271   0.113   9.110 -0.6561  0.5988  0.5347
13390SOL    HW143190   4.284   0.025   9.074 -0.7846  1.2799 -1.2419
13390SOL    HW243191   4.180   0.112   9.141 -1.3283  0.7095 -1.3314
13391SOL     OW43192   0.258   5.896   1.176  0.2473 -0.7329 -0.1679
13391SOL    HW143193   0.348   5.874   1.200  0.6739 -0.0156 -1.0607
13391SOL    HW243194   0.259   5.902   1.081 -0.6205 -0.1723 -0.1517
13392SOL     OW43195   5.103   6.471   5.171  0.0320  0.2975 -0.1440
13392SOL    HW143196   5.039   6.525   5.124  1.1956  0.2877 -1.7958
13392SOL    HW243197   5.136   6.528   5.241 -2.1920  0.0947  1.1093
13393SOL     OW43198   5.016   1.635   0.288  0.1994 -0.3761 -0.1035
13393SOL    HW143199   5.020   1.728   0.310  0.4516 -0.2868 -0.5207
13393SOL    HW243200   5.087   1.622   0.226 -1.5469 -0.2427 -2.2125
13394SOL     OW43201   1.360   4.006   3.812  0.2249 -0.2901  0.1333
13394SOL    HW143202   1.452   3.979   3.811  0.5096  0.5852  1.3116
13394SOL    HW243203   1.344   4.033   3.903 -1.4950 -1.4444  0.1909
13395SOL     OW43204   5.388   3.599   9.313 -0.0834  0.2567  0.3048
13395SOL    HW143205   5.393   3.525   9.373  1.0622 -1.1574 -1.4720
13395SOL    HW243206   5.391   3.559   9.226 -1.8975  2.2428 -0.7015
13396SOL     OW43207   2.062   7.857   0.422  0.2392 -0.3747 -0.8146
13396SOL    HW143208   2.085   7.817   0.339  1.4012 -0.6287 -0.3827
13396SOL    HW243209   2.144   7.861   0.470 -0.6347 -1.4255  0.8289
13397SOL     OW43210   4.238   4.689   7.700  0.1610  0.2793  0.2149
13397SOL    HW143211   4.318   4.638   7.689  1.0437  1.4991  0.8625
13397SOL    HW243212   4.261   4.756   7.765 -1.0908  1.2677 -0.3410
13398SOL     OW43213   2.480   5.555   8.344 -0.5102 -0.3755  0.2074
13398SOL    HW143214   2.454   5.610   8.270 -0.1191  0.4741  0.6899
13398SOL    HW243215   2.476   5.614   8.420  3.0541 -0.1438  0.2713
13399SOL     OW43216   9.124   5.198   1.760 -0.0690  0.0174 -0.0327
13399SOL    HW143217   9.142   5.258   1.688 -1.2267 -0.7522 -0.9756
13399SOL    HW243218   9.178   5.121   1.741 -0.8319 -0.4305 -0.4103
13400SOL     OW43219   6.592   8.315   2.130  0.0512 -0.1734  0.0909
13400SOL    HW143220   6.524   8.308   2.062  0.8780 -0.2159 -0.7471
13400SOL    HW243221   6.560   8.384   2.188 -0.9852 -0.5958  0.0288
13401SOL     OW43222   4.387   1.956   9.307 -0.1000 -0.5315  0.3225
13401SOL    HW143223   4.460   1.920   9.356 -0.6422  0.5202  1.9327
13401SOL    HW243224   4.408   2.049   9.297 -0.2266 -0.6394 -1.0181
13402SOL     OW43225   8.321   8.846   7.247  0.0641 -0.0208  0.4562
13402SOL    HW143226   8.300   8.901   7.322  2.4959 -2.1420  2.8106
13402SOL    HW243227   8.390   8.894   7.201 -0.0128  0.3615  0.7377
13403SOL     OW43228   8.010   5.989   7.206 -0.1351  0.1118  0.1314
13403SOL    HW143229   7.964   5.936   7.140  1.4013  0.3937 -1.1958
13403SOL    HW243230   8.092   6.014   7.163  0.4033  1.2050  1.7792
13404SOL     OW43231   0.250   2.634   3.906 -0.7243  0.1956 -0.0233
13404SOL    HW143232   0.234   2.631   4.000 -1.5682  0.2984 -0.1575
13404SOL    HW243233   0.208   2.555   3.871 -1.3702  0.7154 -0.4443
13405SOL     OW43234   4.981   0.173   8.225  0.4599  0.2988  0.1134
13405SOL    HW143235   4.899   0.174   8.274  0.3440  0.7729 -0.0827
13405SOL    HW243236   4.984   0.259   8.182 -0.1100 -0.6258 -1.8202
13406SOL     OW43237   5.887   2.854   0.127  0.0510 -0.2494 -0.6339
13406SOL    HW143238   5.841   2.903   0.059  2.2054 -0.0236 -1.9625
13406SOL    HW243239   5.879   2.762   0.101  0.0195 -0.2404 -0.6553
13407SOL     OW43240   2.410   7.493   6.863  0.0395 -0.0476  0.9634
13407SOL    HW143241   2.315   7.501   6.866 -0.1299 -1.6689  0.2368
13407SOL    HW243242   2.441   7.583   6.851 -1.3324  0.6427  2.3227
13408SOL     OW43243   1.065   5.554   9.265  0.3643 -0.2566 -0.2421
13408SOL    HW143244   1.137   5.498   9.233  1.6663  0.3674  1.5130
13408SOL    HW243245   1.105   5.606   9.334 -1.4816  1.0753 -0.1640
13409SOL     OW43246   7.363   5.701   3.128  0.4025  0.0424  0.2593
13409SOL    HW143247   7.411   5.632   3.082  1.6014  0.6433  0.5946
13409SOL    HW243248   7.311   5.654   3.193 -0.5153 -0.7231 -1.0093
13410SOL     OW43249   1.981   6.969   5.405  0.5555 -0.1654 -0.0435
13410SOL    HW143250   2.017   7.030   5.342  0.2918 -0.4110 -0.4362
13410SOL    HW243251   1.942   6.899   5.352 -1.8764  0.8592  0.3133
13411SOL     OW43252   8.836   3.634   5.136  0.0840  0.0187 -0.0779
13411SOL    HW143253   8.816   3.555   5.086 -1.7038  0.6367 -0.3705
13411SOL    HW243254   8.754   3.682   5.139  1.4071  2.4313 -0.9014
13412SOL     OW43255   0.507   1.862   4.689 -0.7390 -0.2554 -0.0378
13412SOL    HW143256   0.523   1.882   4.597 -0.6633  0.5851  0.1588
13412SOL    HW243257   0.456   1.936   4.721 -0.0231 -0.1285  0.8190
13413SOL     OW43258   3.340   9.406   2.373  0.2147  0.0667 -0.8409
13413SOL    HW143259   3.298   9.356   2.443 -1.6381  1.6680 -0.7556
13413SOL    HW243260   3.300   9.374   2.292 -0.5168  0.9523 -0.8362
13414SOL     OW43261   8.599   1.722   4.812 -0.2676 -0.0780  0.3294
13414SOL    HW143262   8.568   1.700   4.900  0.2635  1.5779  0.9427
13414SOL    HW243263   8.583   1.642   4.761 -0.0061 -1.2895  2.0685
13415SOL     OW43264   4.414   1.026   8.088 -0.1050 -0.0091  0.2444
13415SOL    HW143265   4.450   0.942   8.117 -1.4617 -0.8806 -0.5668
13415SOL    HW243266   4.373   1.008   8.004 -0.7620  1.3790  0.2387
13416SOL     OW43267   3.240   7.570   5.590 -0.4020 -0.3094  0.3427
13416SOL    HW143268   3.172   7.578   5.523 -0.1989 -3.1096 -0.2495
13416SOL    HW243269   3.305   7.511   5.552  0.7267 -0.3076  2.2005
13417SOL     OW43270   6.411   2.555   0.230  0.6099  0.0911 -0.2611
13417SOL    HW143271   6.400   2.505   0.311  1.3454  0.1752 -0.1032
13417SOL    HW243272   6.505   2.574   0.226  0.4624  0.7674 -0.7283
13418SOL     OW43273   2.290   9.383   9.070 -0.1198  0.1959  0.5488
13418SOL    HW143274   2.231   9.369   8.996  0.1775  1.6089  0.0361
13418SOL    HW243275   2.232   9.396   9.145 -0.4238 -0.5055  0.4435
13419SOL     OW43276   3.734   6.962   2.616 -0.4007  0.4185 -0.7144
13419SOL    HW143277   3.686   6.929   2.540 -0.3830 -0.3323 -0.4093
13419SOL    HW243278   3.762   6.883   2.662  2.2835  0.8109 -1.5804
13420SOL     OW43279   2.526   6.995   9.258 -0.3383 -1.1569  0.0264
13420SOL    HW143280   2.581   7.021   9.331 -2.2993 -1.6572  1.7407
13420SOL    HW243281   2.480   7.075   9.231  0.3935 -0.9702 -0.6773
13421SOL     OW43282   5.013   0.670   0.789  0.4088 -0.3302 -0.0987
13421SOL    HW143283   4.941   0.733   0.794  0.4724 -0.2767  0.1338
13421SOL    HW243284   5.060   0.694   0.710 -0.1311 -0.6853 -0.5381
13422SOL     OW43285   8.565   8.669   8.064  0.4277 -0.2645  0.2326
13422SOL    HW143286   8.644   8.681   8.118 -0.1353 -0.5377  1.1238
13422SOL    HW243287   8.569   8.740   8.000  1.6496 -0.5526 -0.0381
13423SOL     OW43288   5.406   4.454   7.463 -0.0293  0.0486 -0.2835
13423SOL    HW143289   5.487   4.489   7.426 -0.5721  1.1778 -0.4184
13423SOL    HW243290   5.336   4.490   7.408 -0.7107  0.1668  0.6331
13424SOL     OW43291   1.136   3.375   2.591  0.4422  0.4675  0.2182
13424SOL    HW143292   1.139   3.291   2.636  1.8765 -1.0829 -2.6401
13424SOL    HW243293   1.121   3.353   2.499 -1.1077  3.4611 -0.3375
13425SOL     OW43294   8.140   3.445   8.780  0.1476 -0.5102 -0.0230
13425SOL    HW143295   8.047   3.427   8.768 -0.0714 -0.3234  1.3118
13425SOL    HW243296   8.181   3.358   8.782  0.1781 -0.5586 -1.8440
13426SOL     OW43297   9.364   8.683   1.167 -0.5238 -0.0845 -0.0084
13426SOL    HW143298   9.348   8.637   1.250 -1.0858 -0.0042 -0.0723
13426SOL    HW243299   9.428   8.629   1.121 -0.1706 -0.1072  0.5003
13427SOL     OW43300   0.939   1.619   6.417 -0.0729 -0.0417 -0.4970
13427SOL    HW143301   0.965   1.700   6.372  1.3380  1.2211  2.4648
13427SOL    HW243302   1.021   1.574   6.433 -0.3565  0.4168  2.3953
13428SOL     OW43303   0.098   3.468   5.226  0.1413  0.2088  0.7430
13428SOL    HW143304   0.102   3.563   5.227  2.8663  0.1595 -0.5038
13428SOL    HW243305   0.163   3.440   5.290 -0.1123 -0.8146  0.5629
13429SOL     OW43306   6.242   2.952   5.180 -0.0538 -0.0510  0.8064
13429SOL    HW143307   6.190   2.948   5.261 -0.8089 -2.6315  0.2632
13429SOL    HW243308   6.272   2.862   5.167  0.1988  0.3568 -1.6768
13430SOL     OW43309   3.309   7.985   3.719  0.2647  0.1125 -0.2357
13430SOL    HW143310   3.224   7.968   3.760  0.3227 -1.3806 -0.7075
13430SOL    HW243311   3.288   8.032   3.638 -0.1545 -0.6280 -0.5627
13431SOL     OW43312   2.355   5.388   4.418 -0.2905  0.0844 -0.6784
13431SOL    HW143313   2.306   5.448   4.474 -0.2796  0.2419 -0.8397
13431SOL    HW243314   2.314   5.396   4.332  0.8347  1.1599 -1.1253
13432SOL     OW43315   8.330   1.595   5.768  0.0698  0.6580 -0.4321
13432SOL    HW143316   8.392   1.548   5.824 -1.1601  0.0061  0.4244
13432SOL    HW243317   8.304   1.531   5.702 -2.2585 -0.2194  1.2410
13433SOL     OW43318   8.608   1.319   6.118 -0.1350 -0.2395 -0.0130
13433SOL    HW143319   8.638   1.305   6.208  0.8355 -1.8434 -0.5665
13433SOL    HW243320   8.556   1.241   6.097 -0.1544  0.0076 -0.9199
13434SOL     OW43321   5.731   6.310   4.022 -0.5072  0.1977 -0.0305
13434SOL    HW143322   5.742   6.223   3.984 -0.1182  0.1183  0.2553
13434SOL    HW243323   5.673   6.356   3.962  0.1982  0.1141 -0.7750
13435SOL     OW43324   8.914   2.895   8.166  0.1850  0.2225 -0.1002
13435SOL    HW143325   8.914   2.980   8.121 -2.1681  0.4916  0.3286
13435SOL    HW243326   8.823   2.882   8.192  0.6575 -2.1164  0.4864
13436SOL     OW43327   8.665   8.801   6.549  0.7306 -0.0063 -0.2044
13436SOL    HW143328   8.608   8.808   6.625  2.0448 -0.6742  0.8781
13436SOL    HW243329   8.740   8.856   6.570  1.5033 -0.8679 -0.6262
13437SOL     OW43330   6.632   2.787   5.724  0.5131 -0.0971  0.2098
13437SOL    HW143331   6.669   2.836   5.650  1.1408  1.0277  1.2598
13437SOL    HW243332   6.546   2.758   5.691  2.4964 -3.2992 -2.4560
13438SOL     OW43333   4.482   3.190   5.982 -0.2218  0.3635 -0.4229
13438SOL    HW143334   4.509   3.099   5.996  0.4006  0.7651  1.1561
13438SOL    HW243335   4.563   3.235   5.955  0.3066  1.1400  2.2594
13439SOL     OW43336   6.640   1.457   8.627 -0.1979 -0.0510  0.1425
13439SOL    HW143337   6.732   1.454   8.650 -0.0567 -1.1966 -0.5655
13439SOL    HW243338   6.600   1.384   8.674 -0.9461  1.0684  1.2829
13440SOL     OW43339   3.398   8.801   4.584  0.0092 -0.0335 -0.2067
13440SOL    HW143340   3.331   8.777   4.648 -0.7964  1.0931 -0.6006
13440SOL    HW243341   3.429   8.887   4.613  1.4099 -0.6303  0.0680
13441SOL     OW43342   7.375   5.798   6.384  0.4342  0.7991 -0.3466
13441SOL    HW143343   7.303   5.755   6.337 -0.0192  0.4403  0.6702
13441SOL    HW243344   7.359   5.779   6.476  2.6066 -0.4848 -0.1947
13442SOL     OW43345   8.989   3.523   2.373 -0.1984  0.7887  0.1028
13442SOL    HW143346   8.953   3.538   2.460 -0.9962  0.2292 -0.1201
13442SOL    HW243347   9.005   3.610   2.338  0.2719  1.0103  0.8657
13443SOL     OW43348   5.003   2.981   0.797 -0.4202 -0.9412  0.1276
13443SOL    HW143349   5.070   2.929   0.754  0.0391 -0.3041  0.0653
13443SOL    HW243350   4.953   3.021   0.725 -0.7222 -1.2295  0.1751
13444SOL     OW43351   0.828   3.238   4.180 -0.5280  0.1185  0.4266
13444SOL    HW143352   0.814   3.154   4.224  0.7906 -0.5755 -0.4236
13444SOL    HW243353   0.920   3.259   4.199 -0.4464  0.6533 -0.5603
13445SOL     OW43354   2.644   9.010   5.403 -0.2471  0.0355  0.0903
13445SOL    HW143355   2.626   9.028   5.311  0.1087 -0.7676 -0.1483
13445SOL    HW243356   2.582   8.940   5.426  0.1827 -0.3001  0.2417
13446SOL     OW43357   8.884   2.157   3.478  0.9004 -0.1714 -0.3519
13446SOL    HW143358   8.824   2.085   3.455 -2.0967  1.7221  1.2657
13446SOL    HW243359   8.952   2.115   3.530 -1.7356 -1.6387  2.0488
13447SOL     OW43360   2.272   5.771   1.577 -0.8228 -0.2680  0.0969
13447SOL    HW143361   2.320   5.745   1.499  1.5671  0.3676  1.3180
13447SOL    HW243362   2.258   5.690   1.626  0.2612 -0.2659  0.4129
13448SOL     OW43363   4.563   1.657   8.888 -0.4356 -0.1287 -0.0029
13448SOL    HW143364   4.618   1.725   8.927  1.2985 -1.7607  0.4813
13448SOL    HW243365   4.510   1.624   8.961 -0.8550  0.2784 -0.1170
13449SOL     OW43366   8.276   4.527   6.185 -0.0870 -0.1280 -0.3597
13449SOL    HW143367   8.231   4.467   6.125  0.4661  1.0610 -1.9948
13449SOL    HW243368   8.361   4.542   6.144  1.0426 -0.7285  1.6614
13450SOL     OW43369   8.760   9.327   2.549  0.1366  0.1453 -0.4410
13450SOL    HW143370   8.673   9.355   2.520 -0.0995  0.1457  0.2762
13450SOL    HW243371   8.755   9.326   2.644  0.6489 -0.7270 -0.4200
13451SOL     OW43372   0.372   3.135   4.167 -0.4588  0.5488 -0.0136
13451SOL    HW143373   0.300   3.158   4.108  0.1421 -0.1445 -1.0421
13451SOL    HW243374   0.450   3.138   4.111  0.5037  2.5814  1.3695
13452SOL     OW43375   2.901   0.319   6.617  0.3103  0.1165 -0.5562
13452SOL    HW143376   2.933   0.368   6.694  1.6626  0.7076 -1.4748
13452SOL    HW243377   2.889   0.230   6.649  1.6038  0.1894  0.1589
13453SOL     OW43378   4.132   0.927   6.059  0.0972 -0.1818  0.5407
13453SOL    HW143379   4.081   0.847   6.074 -0.1154 -0.2262 -0.3977
13453SOL    HW243380   4.151   0.960   6.147  1.9534 -2.3669  1.0010
13454SOL     OW43381   5.553   5.978   6.473 -0.0736  0.2727 -0.4876
13454SOL    HW143382   5.513   5.993   6.387  0.2379  0.7663 -0.5452
13454SOL    HW243383   5.638   6.021   6.467  0.9286 -1.6727 -0.7429
13455SOL     OW43384   4.477   7.024   6.442 -0.3696  0.2058 -0.0339
13455SOL    HW143385   4.486   7.111   6.480  2.1501  0.2288 -0.6081
13455SOL    HW243386   4.445   6.969   6.513 -1.1344  1.4033  0.5641
13456SOL     OW43387   1.807   0.752   9.238  0.3473  0.2392  0.1774
13456SOL    HW143388   1.753   0.812   9.289  0.8713  1.7364 -0.9983
13456SOL    HW243389   1.882   0.734   9.294  0.5658  1.2837  0.2255
13457SOL     OW43390   5.094   5.551   3.192  0.0642  0.5015  0.4236
13457SOL    HW143391   5.092   5.485   3.262  1.7012 -0.5602 -0.4853
13457SOL    HW243392   5.020   5.528   3.136  0.4900 -0.4586  0.2370
13458SOL     OW43393   2.028   7.467   0.273  0.0411 -0.2930  0.2836
13458SOL    HW143394   2.061   7.405   0.337  1.2199  0.0480  0.0120
13458SOL    HW243395   1.945   7.498   0.310  0.9616  0.2772  1.8899
13459SOL     OW43396   6.330   0.333   7.934 -0.2303  0.5332 -0.1005
13459SOL    HW143397   6.375   0.339   7.849 -0.3706 -0.8092 -0.2834
13459SOL    HW243398   6.346   0.417   7.976 -0.4299  1.3378 -1.5979
13460SOL     OW43399   8.858   6.598   0.497 -0.1863 -0.2826 -0.9183
13460SOL    HW143400   8.786   6.535   0.505 -0.7442  0.6505  1.9810
13460SOL    HW243401   8.826   6.677   0.540  1.7701  0.8816 -1.5330
13461SOL     OW43402   7.552   1.181   6.246 -0.0173 -0.2513 -0.3637
13461SOL    HW143403   7.586   1.219   6.166  1.0084 -1.5705 -0.5613
13461SOL    HW243404   7.614   1.112   6.269  0.9933  1.6090  2.8426
13462SOL     OW43405   5.775   1.871   3.785  0.1653 -0.1606  0.0986
13462SOL    HW143406   5.691   1.898   3.747  0.9227  1.2329 -0.6102
13462SOL    HW243407   5.753   1.842   3.874 -1.2732 -1.1902 -0.5749
13463SOL     OW43408   5.769   7.298   0.621  0.3461  0.0989  0.5014
13463SOL    HW143409   5.794   7.388   0.598  0.9290 -0.8790 -2.9488
13463SOL    HW243410   5.848   7.261   0.660  0.3988  0.7647  1.0503
13464SOL     OW43411   8.197   2.060   3.814 -0.0675  0.1387 -0.1194
13464SOL    HW143412   8.218   2.006   3.891 -0.3547  0.7570  0.4022
13464SOL    HW243413   8.128   2.119   3.845  1.3931  1.9282 -0.1985
13465SOL     OW43414   6.794   3.090   9.376  0.2263  0.2368  0.3594
13465SOL    HW143415   6.836   3.064   9.458  0.0496  0.2405  0.4505
13465SOL    HW243416   6.781   3.184   9.384  0.2324  0.2414  0.3161
13466SOL     OW43417   0.744   1.601   2.269 -0.4431 -0.2243  0.1002
13466SOL    HW143418   0.750   1.612   2.174 -1.3065  0.3463  0.1060
13466SOL    HW243419   0.745   1.690   2.303  0.6122 -0.4547  0.6771
13467SOL     OW43420   1.039   3.704   1.022 -0.2528 -0.0969 -0.2231
13467SOL    HW143421   1.104   3.713   1.091  0.7723  0.4287 -1.2312
13467SOL    HW243422   1.068   3.765   0.954 -1.9224  0.3156 -0.5997
13468SOL     OW43423   3.758   0.814   2.601 -0.8474  0.4795  0.3598
13468SOL    HW143424   3.836   0.862   2.571  0.3852 -0.3484  2.1062
13468SOL    HW243425   3.725   0.867   2.674 -0.2773 -0.5980  1.4142
13469SOL     OW43426   0.668   2.479   1.618  0.0400 -0.0862 -0.2139
13469SOL    HW143427   0.736   2.420   1.586  0.3708 -0.1674  0.6485
13469SOL    HW243428   0.700   2.567   1.595 -0.2290 -0.1988 -1.0632
13470SOL     OW43429   1.958   4.442   0.232 -0.0184  0.0869  0.2351
13470SOL    HW143430   2.004   4.501   0.293 -0.3673  1.0740 -0.4435
13470SOL    HW243431   2.025   4.417   0.168 -0.3641  1.4255 -0.6809
13471SOL     OW43432   3.704   2.329   7.922  0.2932 -0.5710 -0.4629
13471SOL    HW143433   3.727   2.361   8.009  0.6403  1.8004 -1.3661
13471SOL    HW243434   3.609   2.335   7.918  0.4798  3.1861 -1.5607
13472SOL     OW43435   2.983   5.318   5.744  0.3286  0.0321 -0.5070
13472SOL    HW143436   2.989   5.278   5.657  1.8670 -0.8612 -0.0056
13472SOL    HW243437   2.941   5.402   5.729  2.0347  0.5872 -2.3548
13473SOL     OW43438   4.995   8.174   8.485  0.2418 -0.2082  0.0960
13473SOL    HW143439   4.964   8.085   8.501  0.8714 -0.5657 -0.6852
13473SOL    HW243440   4.965   8.224   8.561 -0.4395 -1.0048  0.3486
13474SOL     OW43441   5.910   8.539   3.260 -0.6554  0.2526  0.4745
13474SOL    HW143442   5.953   8.562   3.343 -1.7011 -0.1212  1.1341
13474SOL    HW243443   5.844   8.474   3.285 -0.1096 -0.8170 -0.8539
13475SOL     OW43444   6.985   9.214   6.480  0.9558 -0.0451  0.2737
13475SOL    HW143445   7.070   9.169   6.479  0.1052 -1.7048 -1.5267
13475SOL    HW243446   6.933   9.167   6.545  0.4606 -0.9512 -0.7553
13476SOL     OW43447   4.262   3.559   1.451  0.0073  0.1928  0.4310
13476SOL    HW143448   4.201   3.530   1.384  1.8861  1.1012 -1.7531
13476SOL    HW243449   4.342   3.508   1.434  0.4625  0.3340  2.0804
13477SOL     OW43450   2.428   6.328   6.332 -0.4219 -0.1088  0.2818
13477SOL    HW143451   2.367   6.272   6.381 -2.5698  0.9873 -1.0512
13477SOL    HW243452   2.407   6.311   6.240  1.8691 -0.2936 -0.2427
13478SOL     OW43453   8.794   0.891   8.066 -0.9439 -0.0412 -0.0951
13478SOL    HW143454   8.817   0.861   7.978  1.7933 -1.2865  0.9868
13478SOL    HW243455   8.808   0.814   8.121  0.2789  1.5420  1.8427
13479SOL     OW43456   3.842   4.523   2.023 -0.3211 -0.3427 -0.4397
13479SOL    HW143457   3.748   4.506   2.030 -0.2632 -0.8525 -0.8464
13479SOL    HW243458   3.865   4.497   1.934 -0.1078  1.3911 -0.8990
13480SOL     OW43459   1.455   8.973   9.293  0.8820  0.2508  0.2778
13480SOL    HW143460   1.496   8.887   9.290 -0.7160 -0.5982  2.2209
13480SOL    HW243461   1.361   8.955   9.292  0.5151  2.0578 -1.0421
13481SOL     OW43462   5.061   0.162   4.089 -0.4497  0.6551  0.2651
13481SOL    HW143463   5.022   0.203   4.011  0.3509  1.6283  0.3578
13481SOL    HW243464   5.109   0.087   4.055 -0.1557  1.0380 -0.1732
13482SOL     OW43465   4.406   1.119   9.411 -0.6823 -0.4527  0.1694
13482SOL    HW143466   4.467   1.179   9.368  0.5964 -1.8170  0.0412
13482SOL    HW243467   4.350   1.086   9.341 -0.0541 -0.9622 -0.0978
13483SOL     OW43468   7.199   2.188   5.540  0.3795 -0.1049 -0.2468
13483SOL    HW143469   7.156   2.115   5.495 -1.9345  2.9182 -3.0943
13483SOL    HW243470   7.262   2.222   5.477 -0.0418  1.6617  0.2515
13484SOL     OW43471   4.418   7.117   4.945  0.2506  0.1150 -0.2013
13484SOL    HW143472   4.343   7.086   4.996  0.1722 -1.3745 -1.1856
13484SOL    HW243473   4.487   7.130   5.010 -0.1667 -0.7732  0.4387
13485SOL     OW43474   6.291   6.272   2.498 -0.0765 -0.0293  0.5481
13485SOL    HW143475   6.251   6.359   2.499 -1.5300 -0.6846  0.8750
13485SOL    HW243476   6.326   6.262   2.410 -0.7067  0.5427  0.2288
13486SOL     OW43477   8.388   0.906   0.221 -0.0602  0.0464  0.1563
13486SOL    HW143478   8.333   0.908   0.143 -0.4658  1.9781  0.4699
13486SOL    HW243479   8.345   0.845   0.280 -0.9241  0.2428 -0.2727
13487SOL     OW43480   2.762   2.184   4.218  0.5591 -0.2457  0.0761
13487SOL    HW143481   2.718   2.261   4.253  0.6743 -0.5315  0.8728
13487SOL    HW243482   2.720   2.167   4.134  0.8297  0.9406 -0.3009
13488SOL     OW43483   5.968   7.203   1.632 -0.0400  0.1924  0.3998
13488SOL    HW143484   6.060   7.210   1.608 -0.1475  1.2502  0.2450
13488SOL    HW243485   5.964   7.129   1.693  1.2073  1.2525  1.8227
13489SOL     OW43486   2.510   5.883   1.205 -0.0680 -0.3937 -0.0483
13489SOL    HW143487   2.558   5.966   1.217 -1.8797  0.6732 -0.0102
13489SOL    HW243488   2.547   5.825   1.272  1.9602  0.0251 -0.7475
13490SOL     OW43489   1.110   4.080   1.788 -0.0627 -0.3875 -0.4184
13490SOL    HW143490   1.141   4.046   1.704  0.8126 -0.2509 -0.1594
13490SOL    HW243491   1.037   4.023   1.812  0.5322 -1.2434 -0.6400
13491SOL     OW43492   5.580   3.104   0.652 -0.0399  0.7966  0.4176
13491SOL    HW143493   5.540   3.033   0.702 -0.1860 -0.1991 -1.0548
13491SOL    HW243494   5.543   3.095   0.564  1.0543  1.7924 -0.1643
13492SOL     OW43495   4.152   8.743   0.337  0.3815 -0.4929  0.0329
13492SOL    HW143496   4.217   8.672   0.339  1.9274  0.9019  0.8100
13492SOL    HW243497   4.167   8.785   0.252 -0.6641 -1.1758 -0.5097
13493SOL     OW43498   5.509   0.789   1.185  0.0350  0.1520  0.3508
13493SOL    HW143499   5.551   0.855   1.130 -0.0250  1.9950  2.4802
13493SOL    HW243500   5.568   0.714   1.182  2.2608  1.8249  1.3433
13494SOL     OW43501   3.029   6.518   7.388  0.5201 -0.1112 -0.4837
13494SOL    HW143502   3.004   6.453   7.322  0.4911 -0.0495 -0.5330
13494SOL    HW243503   2.959   6.515   7.453  0.8858 -0.6486 -0.1148
13495SOL     OW43504   7.515   2.213   6.374 -0.1851 -0.1196  0.0851
13495SOL    HW143505   7.576   2.179   6.439 -0.5461 -0.2089  0.3756
13495SOL    HW243506   7.522   2.152   6.300 -0.8070 -0.8109  0.5891
13496SOL     OW43507   5.298   7.906   4.615  0.2549 -0.3509  0.3243
13496SOL    HW143508   5.389   7.884   4.596  0.1790 -2.4721  2.1708
13496SOL    HW243509   5.247   7.863   4.546  0.4214 -2.5301  1.5053
13497SOL     OW43510   4.282   4.171   4.315 -0.5435 -0.4071  0.0879
13497SOL    HW143511   4.356   4.210   4.361 -0.3191  1.5798 -1.8540
13497SOL    HW243512   4.208   4.184   4.375 -0.2423  2.0606  0.0015
13498SOL     OW43513   4.144   0.382   8.474  0.2333  0.1494 -0.3097
13498SOL    HW143514   4.103   0.385   8.387  0.5166 -1.8339 -0.5227
13498SOL    HW243515   4.073   0.404   8.534  0.0912  1.7702 -1.0383
13499SOL     OW43516   4.149   7.762   5.327 -0.0802  0.6479 -0.3913
13499SOL    HW143517   4.083   7.830   5.332 -0.5144  0.1915  0.1759
13499SOL    HW243518   4.122   7.697   5.393  1.3129  0.8010  0.3549
13500SOL     OW43519   7.137   3.679   8.612  0.3596  0.1763 -0.1876
13500SOL    HW143520   7.062   3.625   8.636  0.5831 -0.2889 -0.5421
13500SOL    HW243521   7.123   3.762   8.659  0.0437 -0.2006  0.3840
13501SOL     OW43522   2.617   5.453   6.996 -0.2042 -1.1459  0.2268
13501SOL    HW143523   2.545   5.516   7.003  1.7136  1.0278  1.1154
13501SOL    HW243524   2.580   5.370   7.026 -1.6171  0.5315  3.2621
13502SOL     OW43525   6.053   3.144   3.894  0.3825 -0.3228  0.0374
13502SOL    HW143526   5.996   3.067   3.898 -2.3101  1.5929 -0.5303
13502SOL    HW243527   6.060   3.173   3.984 -0.9619  0.4266 -0.0874
13503SOL     OW43528   3.450   3.971   5.220  0.0330 -0.0193  0.6290
13503SOL    HW143529   3.357   3.992   5.224  0.2716  0.8816  1.8341
13503SOL    HW243530   3.459   3.916   5.143 -1.1487  1.7289 -0.8136
13504SOL     OW43531   1.074   2.170   9.195  0.0674  0.0437 -0.4117
13504SOL    HW143532   1.119   2.253   9.208  0.5699 -0.0889 -1.2448
13504SOL    HW243533   1.020   2.159   9.273  0.1797  1.0360 -0.1857
13505SOL     OW43534   7.960   3.220   3.494  0.0643 -0.2463  0.1064
13505SOL    HW143535   8.023   3.203   3.564  0.9329  0.0101 -0.5986
13505SOL    HW243536   8.013   3.219   3.414 -0.5506  1.5554 -0.3525
13506SOL     OW43537   2.703   7.688   5.971  0.3633 -0.0401 -0.4554
13506SOL    HW143538   2.665   7.643   5.896 -0.9746 -1.4064  0.9866
13506SOL    HW243539   2.766   7.625   6.007 -1.2837 -0.7005  1.3901
13507SOL     OW43540   1.068   1.808   9.124  0.2282  0.3353  0.0699
13507SOL    HW143541   1.006   1.856   9.179 -0.6244 -0.3647 -0.2624
13507SOL    HW243542   1.014   1.771   9.055  0.8173 -1.4078  0.5292
13508SOL     OW43543   7.589   7.725   4.393  0.1108 -0.0510  0.0988
13508SOL    HW143544   7.658   7.740   4.458  0.1731  1.1966 -0.2536
13508SOL    HW243545   7.549   7.810   4.380 -0.4094 -0.4478 -0.9371
13509SOL     OW43546   5.067   9.387   7.301 -0.3118 -0.5990  0.5598
13509SOL    HW143547   5.041   9.350   7.217 -1.5761 -0.8119  1.0352
13509SOL    HW243548   5.091   9.312   7.355 -0.0624 -0.5035  0.5874
13510SOL     OW43549   3.986   0.072   9.129  0.9995  0.4049 -0.7045
13510SOL    HW143550   4.016  -0.014   9.158  2.3656  0.9549 -0.4407
13510SOL    HW243551   4.012   0.077   9.037  0.3341  0.2700 -0.8989
13511SOL     OW43552   6.813   1.297   4.205 -0.1964  0.3237  0.4548
13511SOL    HW143553   6.727   1.332   4.229 -1.1491 -1.0433 -0.9132
13511SOL    HW243554   6.858   1.370   4.164 -0.4181  1.2540  1.8216
13512SOL     OW43555   3.577   1.218   1.908 -0.4858 -0.3600  0.2566
13512SOL    HW143556   3.659   1.242   1.952 -0.3344 -0.2062 -0.1044
13512SOL    HW243557   3.509   1.238   1.972 -0.5723  3.3236 -0.8503
13513SOL     OW43558   5.280   6.066   5.805 -0.4191 -0.3243 -0.3621
13513SOL    HW143559   5.266   6.161   5.810  0.1371 -0.2427 -0.3984
13513SOL    HW243560   5.365   6.056   5.764 -0.2923 -0.8349  0.0241
13514SOL     OW43561   9.332   9.011   0.440  0.1664  0.3813  0.4449
13514SOL    HW143562   9.365   8.940   0.386 -0.8848 -0.5839  1.0703
13514SOL    HW243563   9.237   9.003   0.437  0.0674  0.6824  1.9312
13515SOL     OW43564   5.037   4.518   1.116 -0.0542 -0.0137  0.7121
13515SOL    HW143565   5.013   4.602   1.155  0.4456 -0.1049  1.2238
13515SOL    HW243566   5.128   4.503   1.144  0.2640 -0.1508 -0.3609
13516SOL     OW43567   2.518   4.388   1.699 -0.1240 -0.8767  0.1714
13516SOL    HW143568   2.560   4.335   1.631  0.4806  1.3734 -1.2687
13516SOL    HW243569   2.575   4.379   1.775  3.0858  2.0843 -1.7229
13517SOL     OW43570   5.434   4.770   4.217  0.4490  0.0191  0.3757
13517SOL    HW143571   5.471   4.857   4.233 -0.1996  0.3565  0.0720
13517SOL    HW243572   5.381   4.752   4.295  1.1855 -0.4301  0.7756
13518SOL     OW43573   2.965   5.036   3.977  0.5119 -0.6320  0.0405
13518SOL    HW143574   2.885   5.059   3.929  0.4143  2.7973  1.7442
13518SOL    HW243575   2.934   4.982   4.050 -0.0115 -0.9906 -0.4452
13519SOL     OW43576   5.759   7.970   5.649  0.5391 -0.2715  0.4599
13519SOL    HW143577   5.759   7.877   5.629  0.5422 -0.5556  1.7364
13519SOL    HW243578   5.725   7.976   5.738 -2.3819  1.2187 -0.7089
13520SOL     OW43579   0.665   8.121   6.211 -0.2056  0.0993  0.0723
13520SOL    HW143580   0.650   8.027   6.222  4.1959 -1.0660 -2.6957
13520SOL    HW243581   0.617   8.143   6.131  1.2874 -0.5218 -1.0130
13521SOL     OW43582   7.977   9.019   4.677  0.3614 -0.1639 -0.0300
13521SOL    HW143583   8.009   9.016   4.586 -0.1008 -0.3004 -0.1905
13521SOL    HW243584   8.023   8.947   4.721 -0.4874 -1.0209 -0.5148
13522SOL     OW43585   1.838   0.070   7.007 -0.2747 -0.2280  0.4919
13522SOL    HW143586   1.886  -0.005   7.043  1.0280 -0.4125 -1.5669
13522SOL    HW243587   1.747   0.053   7.032  0.1314 -2.0588  0.8177
13523SOL     OW43588   8.595   2.225   9.185 -0.3076 -0.0543 -0.1929
13523SOL    HW143589   8.528   2.159   9.166 -1.0521  0.3478  0.9138
13523SOL    HW243590   8.595   2.231   9.281 -1.0833  2.3514 -0.2874
13524SOL     OW43591   5.109   2.741   0.264 -0.6784 -0.2646  0.0437
13524SOL    HW143592   5.174   2.765   0.330  1.1079 -2.9469 -0.6736
13524SOL    HW243593   5.042   2.693   0.313 -1.1694  0.8300  0.4644
13525SOL     OW43594   4.147   7.709   2.143  0.3145 -0.1802 -0.3279
13525SOL    HW143595   4.198   7.650   2.087  0.3085 -0.1083 -0.4091
13525SOL    HW243596   4.176   7.688   2.232 -0.3396 -0.9322 -0.2862
13526SOL     OW43597   4.769   3.944   2.433  0.3651 -0.1406 -0.1315
13526SOL    HW143598   4.773   3.994   2.352 -0.4983  0.2694  0.0725
13526SOL    HW243599   4.729   4.003   2.496  1.0689 -0.4453  0.6110
13527SOL     OW43600   1.363   5.431   8.082 -0.1162  0.0492 -0.2577
13527SOL    HW143601   1.277   5.445   8.123  0.6768  2.0047  0.8205
13527SOL    HW243602   1.344   5.424   7.989 -1.6578 -1.5350  0.1604
13528SOL     OW43603   9.273   8.312   2.620  0.2119  0.0045 -0.3648
13528SOL    HW143604   9.190   8.277   2.654  0.5245 -0.0398  0.3552
13528SOL    HW243605   9.264   8.307   2.525 -1.2557  1.4692 -0.3379
13529SOL     OW43606   3.189   5.585   3.846 -0.4335  0.1087  0.1239
13529SOL    HW143607   3.103   5.618   3.820  0.4661  0.9973 -1.8493
13529SOL    HW243608   3.231   5.659   3.890 -0.9608 -0.5789  1.8205
13530SOL     OW43609   8.766   5.446   9.107 -0.0805 -0.3966 -0.3100
13530SOL    HW143610   8.718   5.363   9.108 -1.4763  0.4094  1.4336
13530SOL    HW243611   8.717   5.501   9.047 -1.2752  0.3823  1.3661
13531SOL     OW43612   0.565   0.637   3.087 -0.4157  0.5469  0.2204
13531SOL    HW143613   0.544   0.727   3.109 -1.9882  0.3925 -0.6050
13531SOL    HW243614   0.630   0.611   3.152 -1.1565  1.7436  1.4548
13532SOL     OW43615   3.428   6.447   5.503  0.0538 -0.0301  0.2033
13532SOL    HW143616   3.401   6.362   5.539 -0.1622  0.1149  0.3867
13532SOL    HW243617   3.478   6.488   5.574 -1.6078  0.8728  0.8876
13533SOL     OW43618   1.035   7.089   9.440  0.0958  0.3018  0.2306
13533SOL    HW143619   0.940   7.097   9.449  0.1401  1.5634 -0.3335
13533SOL    HW243620   1.057   7.148   9.368  0.9200 -2.2988 -1.7586
13534SOL     OW43621   5.942   1.814   6.151  0.6574 -0.4302 -0.2625
13534SOL    HW143622   5.855   1.793   6.117  0.4000  0.6253 -0.2523
13534SOL    HW243623   5.958   1.747   6.218  0.1633 -1.0695 -0.7801
13535SOL     OW43624   4.396   0.340   9.179 -0.3404 -0.0166  0.5953
13535SOL    HW143625   4.431   0.370   9.095  1.1548 -0.1374  1.1696
13535SOL    HW243626   4.366   0.250   9.161 -3.2984  1.1597 -0.6923
13536SOL     OW43627   2.169   7.343   1.957 -0.5983  0.4296 -0.5686
13536SOL    HW143628   2.163   7.424   2.007 -1.7380  0.8865 -1.4305
13536SOL    HW243629   2.079   7.311   1.951 -0.1931 -0.7563 -0.4649
13537SOL     OW43630   7.102   6.089   4.260  0.3795  0.4322  0.2994
13537SOL    HW143631   7.120   6.000   4.231 -1.6657 -0.1455  0.7623
13537SOL    HW243632   7.129   6.144   4.187  1.3344 -0.5661 -0.1177
13538SOL     OW43633   0.381   2.599   7.861 -0.2699 -0.3194 -0.4112
13538SOL    HW143634   0.306   2.551   7.896 -2.2835  0.6143 -3.2297
13538SOL    HW243635   0.430   2.534   7.810 -0.1358 -0.5298 -0.0168
13539SOL     OW43636   7.749   5.243   6.276 -0.0264 -0.3520  0.6775
13539SOL    HW143637   7.699   5.313   6.234  0.1854 -0.5400  0.1052
13539SOL    HW243638   7.698   5.221   6.354  0.5633  1.3250  1.5756
13540SOL     OW43639   2.869   1.506   4.065 -0.4803 -0.3295 -0.6163
13540SOL    HW143640   2.781   1.546   4.072  0.5544  2.0546 -0.5506
13540SOL    HW243641   2.922   1.557   4.126  0.9228 -1.8684 -0.5392
13541SOL     OW43642   6.194   4.533   1.470 -0.1920 -0.5807 -0.4023
13541SOL    HW143643   6.174   4.473   1.542 -1.0550  0.6685  0.4095
13541SOL    HW243644   6.176   4.482   1.391  0.6703 -1.9267  0.2574
13542SOL     OW43645   6.186   6.685   1.362 -0.5450  0.1564  0.6264
13542SOL    HW143646   6.138   6.740   1.423 -0.5188 -0.1270  0.9000
13542SOL    HW243647   6.182   6.597   1.399  1.4401  0.3780  1.4265
13543SOL     OW43648   0.680   5.693   1.460  0.3001 -0.2221 -0.0258
13543SOL    HW143649   0.698   5.786   1.476 -0.4262  0.1954 -1.6146
13543SOL    HW243650   0.763   5.658   1.428  0.2140  0.1590 -0.6611
13544SOL     OW43651   5.942   7.556   4.658  0.0579  0.3509 -0.1095
13544SOL    HW143652   5.935   7.530   4.749  1.4806  1.2721  0.2930
13544SOL    HW243653   5.882   7.498   4.611 -1.8055  0.8434  1.5830
13545SOL     OW43654   8.194   8.244   0.648  0.0868 -0.5085 -0.5156
13545SOL    HW143655   8.210   8.338   0.645 -0.1310 -0.4964 -1.6317
13545SOL    HW243656   8.205   8.215   0.557  2.0798 -1.8790  0.1294
13546SOL     OW43657   6.247   7.511   6.049 -0.2357 -0.2389 -0.1973
13546SOL    HW143658   6.189   7.442   6.082 -0.0143  0.3857  1.5355
13546SOL    HW243659   6.265   7.566   6.125  1.7858  0.1880 -0.9637
13547SOL     OW43660   5.332   1.620   6.365  0.2057 -0.5802  0.1242
13547SOL    HW143661   5.310   1.647   6.276 -0.0595 -2.3125 -0.3653
13547SOL    HW243662   5.315   1.697   6.419 -0.2546  0.2823 -1.2325
13548SOL     OW43663   5.117   5.876   4.240 -0.6733  0.3077 -0.3354
13548SOL    HW143664   5.081   5.913   4.159 -1.3536  0.4211  0.0132
13548SOL    HW243665   5.040   5.852   4.291 -0.2386 -2.7940 -1.0821
13549SOL     OW43666   2.508   5.430   1.479 -0.4905 -0.5024  0.0947
13549SOL    HW143667   2.517   5.334   1.483 -2.1067 -0.6133  1.4539
13549SOL    HW243668   2.518   5.458   1.570 -1.2922  0.5115 -0.1277
13550SOL     OW43669   7.626   2.925   3.188  0.1181  0.6714 -0.2019
13550SOL    HW143670   7.614   3.003   3.243  0.3725  0.5009  0.0951
13550SOL    HW243671   7.599   2.852   3.244 -0.6902  0.5966 -0.6778
13551SOL     OW43672   0.129   8.369   8.620  0.3711 -0.1991  0.1174
13551SOL    HW143673   0.141   8.438   8.555 -1.1524  1.0494  1.0985
13551SOL    HW243674   0.202   8.380   8.681  1.3144 -0.8207 -0.8976
13552SOL     OW43675   5.731   1.540   1.572 -0.1562 -0.5822  0.4935
13552SOL    HW143676   5.666   1.589   1.522 -0.7327 -0.7589  1.0660
13552SOL    HW243677   5.729   1.579   1.659  1.0752 -0.0658  0.2983
13553SOL     OW43678   3.884   2.802   8.607  0.0016 -0.4972  0.3343
13553SOL    HW143679   3.954   2.756   8.654 -1.2597 -0.6562  2.0947
13553SOL    HW243680   3.839   2.852   8.674  0.1706  1.8672 -1.2475
13554SOL     OW43681   8.900   1.637   4.263  0.6504  0.5060  0.4658
13554SOL    HW143682   8.840   1.591   4.204  1.1435  0.6219 -0.1182
13554SOL    HW243683   8.982   1.588   4.258  0.9192  0.9490  0.4892
13555SOL     OW43684   1.225   6.698   9.229 -0.1385 -0.4030  0.3614
13555SOL    HW143685   1.161   6.677   9.160 -0.7963  1.1804  0.4648
13555SOL    HW243686   1.174   6.696   9.310  0.5559 -1.8843  0.7865
13556SOL     OW43687   6.715   3.155   7.757  0.1964 -0.0956  0.1985
13556SOL    HW143688   6.740   3.145   7.665 -0.9872 -1.8536  0.0422
13556SOL    HW243689   6.660   3.233   7.759 -1.5782 -1.3055 -0.9751
13557SOL     OW43690   1.590   1.566   8.818  0.4982  0.5193 -0.3093
13557SOL    HW143691   1.602   1.493   8.878  2.6141  0.8245 -0.3208
13557SOL    HW243692   1.522   1.620   8.859  0.2505 -0.4768  0.6221
13558SOL     OW43693   2.999   8.786   3.490  0.1990 -0.2570 -0.2696
13558SOL    HW143694   2.951   8.722   3.542  0.9679  0.7314  1.7108
13558SOL    HW243695   3.088   8.750   3.482  0.2716 -0.0802 -0.2764
13559SOL     OW43696   5.518   0.926   8.922 -0.4532 -0.4535  0.0218
13559SOL    HW143697   5.551   0.867   8.990 -0.0340  1.5086  1.5736
13559SOL    HW243698   5.453   0.981   8.966  0.6460  1.6168 -0.8355
13560SOL     OW43699   2.270   6.194   7.665 -0.0488  0.2076  0.3351
13560SOL    HW143700   2.191   6.153   7.701 -2.2814  2.1793 -2.1050
13560SOL    HW243701   2.272   6.281   7.705  0.1591  0.6114 -0.5363
13561SOL     OW43702   8.505   3.683   5.654 -0.2555 -0.4282  0.2730
13561SOL    HW143703   8.431   3.738   5.676 -0.6248 -0.6208 -0.4878
13561SOL    HW243704   8.471   3.620   5.592  0.2176 -1.3869  0.9677
13562SOL     OW43705   7.743   6.208   1.579  0.4114 -0.4421  0.5160
13562SOL    HW143706   7.763   6.301   1.567  1.3807 -0.5760  1.0688
13562SOL    HW243707   7.724   6.176   1.491  2.2839 -0.2171  0.0088
13563SOL     OW43708   1.289   3.316   4.483  0.0683 -0.5987 -0.0843
13563SOL    HW143709   1.254   3.323   4.571  0.0583  0.8148 -0.1875
13563SOL    HW243710   1.352   3.245   4.488  1.4680  0.7087  1.5453
13564SOL     OW43711   8.351   6.103   6.771  0.5136 -0.7018  0.1745
13564SOL    HW143712   8.431   6.056   6.747  1.5368  0.7962  0.6053
13564SOL    HW243713   8.301   6.109   6.689  1.6428 -0.1163 -0.4771
13565SOL     OW43714   3.140   8.117   5.310 -0.6216  0.2479 -0.1252
13565SOL    HW143715   3.143   8.022   5.324 -0.4951  0.3526  0.6080
13565SOL    HW243716   3.230   8.141   5.291 -0.8430  0.0638 -1.4372
13566SOL     OW43717   1.744   5.992   7.083 -0.5048  0.4371 -0.5232
13566SOL    HW143718   1.740   6.041   7.001 -1.1872  0.1468 -0.6675
13566SOL    HW243719   1.758   5.901   7.057 -0.9456  0.3128 -0.3259
13567SOL     OW43720   6.538   3.235   7.056 -0.1979  0.3139 -0.0399
13567SOL    HW143721   6.447   3.208   7.044 -0.1107  0.2497 -0.5566
13567SOL    HW243722   6.532   3.326   7.086 -0.4477  0.1327  0.4549
13568SOL     OW43723   5.211   3.205   0.752 -0.4481  0.2805  0.1901
13568SOL    HW143724   5.140   3.247   0.801  0.0728  0.3924  0.8605
13568SOL    HW243725   5.276   3.182   0.819  0.3136  0.5224 -0.4539
13569SOL     OW43726   0.855   7.646   2.384 -0.6000  0.0748  0.0321
13569SOL    HW143727   0.926   7.704   2.411  0.7836 -1.2240 -0.7750
13569SOL    HW243728   0.809   7.695   2.316  0.4206  0.3388 -0.4822
13570SOL     OW43729   7.189   4.744   8.382 -0.2561 -0.0847  0.4465
13570SOL    HW143730   7.128   4.705   8.446 -0.1021 -0.0442  0.6177
13570SOL    HW243731   7.270   4.756   8.431  0.0907 -0.7423  0.0398
13571SOL     OW43732   0.053   0.669   4.347 -0.3994 -0.4356 -0.3133
13571SOL    HW143733   0.083   0.760   4.350 -3.0143  0.4508  0.5972
13571SOL    HW243734   0.059   0.644   4.255  1.4712  0.2508 -0.3864
13572SOL     OW43735   9.107   3.155   1.850 -0.1332 -0.3712  0.1072
13572SOL    HW143736   9.113   3.069   1.807 -0.3485 -0.4332  0.1991
13572SOL    HW243737   9.069   3.136   1.935  2.0485 -0.5086  1.0939
13573SOL     OW43738   8.602   7.436   8.932 -0.2640  0.1393 -0.3550
13573SOL    HW143739   8.587   7.344   8.952  4.0975 -0.3895  1.0671
13573SOL    HW243740   8.581   7.445   8.839 -1.8267 -1.9981 -0.2470
13574SOL     OW43741   1.357   2.713   2.172  0.2938  0.0135  0.1659
13574SOL    HW143742   1.415   2.680   2.240  0.8011 -0.9741 -0.7185
13574SOL    HW243743   1.273   2.725   2.215  0.5240 -0.9107  0.8843
13575SOL     OW43744   4.017   9.181   3.141 -0.5294 -0.0250 -0.0498
13575SOL    HW143745   4.096   9.174   3.196 -0.5606  0.3224  0.0431
13575SOL    HW243746   4.049   9.168   3.052 -0.4235 -0.2479  0.0205
13576SOL     OW43747   2.554   6.637   5.207 -0.3156 -0.1542 -0.3867
13576SOL    HW143748   2.573   6.694   5.281 -0.1113 -0.4748 -0.1901
13576SOL    HW243749   2.592   6.682   5.132 -1.6292  0.7995 -0.5066
13577SOL     OW43750   0.520   6.054   1.368 -0.2638 -0.1120  0.1989
13577SOL    HW143751   0.540   6.133   1.318  0.2170  0.1726  0.8283
13577SOL    HW243752   0.519   5.984   1.303 -2.2904  0.6362 -0.6013
13578SOL     OW43753   0.508   5.889   4.205 -0.3178 -0.3178  0.2666
13578SOL    HW143754   0.597   5.864   4.182 -0.2110  0.4080 -0.1521
13578SOL    HW243755   0.514   5.983   4.226 -1.1790  0.0339 -0.9553
13579SOL     OW43756   8.866   7.993   4.078  0.2780  0.2051  0.3507
13579SOL    HW143757   8.834   8.050   4.148  0.1164  1.1983 -0.5177
13579SOL    HW243758   8.958   7.978   4.099  0.2006  0.4111  0.8399
13580SOL     OW43759   0.843   3.284   7.885  0.4778 -0.5275  0.0552
13580SOL    HW143760   0.800   3.238   7.813  1.1678  0.6761 -1.1560
13580SOL    HW243761   0.841   3.376   7.859  2.8171 -0.3332  0.4753
13581SOL     OW43762   3.701   3.075   0.165 -0.3056 -0.1158 -0.4440
13581SOL    HW143763   3.673   3.060   0.256  1.6228 -0.2866  0.1516
13581SOL    HW243764   3.712   2.987   0.129 -1.1792 -0.0473 -0.8951
13582SOL     OW43765   5.046   6.949   6.359 -0.2900 -0.5921 -0.1103
13582SOL    HW143766   5.050   7.040   6.388  0.3080 -0.0729 -1.7934
13582SOL    HW243767   4.971   6.912   6.407 -0.3452  0.6873  0.8149
13583SOL     OW43768   7.461   3.406   0.792  0.2261  0.1504  0.1245
13583SOL    HW143769   7.459   3.470   0.721  1.9724  1.2440  1.0374
13583SOL    HW243770   7.457   3.458   0.872  0.2248 -0.9663  0.8678
13584SOL     OW43771   5.234   5.016   0.508 -0.0125  0.5232 -0.1436
13584SOL    HW143772   5.226   5.007   0.413  1.5633  3.0693 -0.5454
13584SOL    HW243773   5.316   4.972   0.529  0.1850  0.9079 -0.1090
13585SOL     OW43774   8.277   8.176   8.682 -0.3952  0.1504  0.3607
13585SOL    HW143775   8.192   8.152   8.645  0.5451 -2.7999 -0.0538
13585SOL    HW243776   8.339   8.160   8.612  0.6888  0.7430  1.1677
13586SOL     OW43777   1.926   8.476   1.879 -0.3685 -0.5096 -0.3946
13586SOL    HW143778   1.846   8.498   1.833  0.1743  1.3817 -0.4725
13586SOL    HW243779   1.995   8.487   1.814  0.0917 -0.7952  0.0396
13587SOL     OW43780   1.102   3.171   6.535  0.0612 -0.1033 -0.9730
13587SOL    HW143781   1.052   3.252   6.523 -0.6394 -0.5014 -0.8232
13587SOL    HW243782   1.191   3.199   6.551 -0.3810  0.6775  0.1703
13588SOL     OW43783   8.461   9.248   0.090  0.0297  0.4070 -0.2315
13588SOL    HW143784   8.380   9.294   0.071 -0.1866  1.6376  3.3484
13588SOL    HW243785   8.530   9.312   0.073 -0.2146  1.8223  3.7449
13589SOL     OW43786   1.379   5.261   2.374 -0.1142 -0.5730  0.0599
13589SOL    HW143787   1.431   5.185   2.400 -1.2736 -1.4030 -0.0003
13589SOL    HW243788   1.291   5.241   2.404 -0.5634  0.4702 -0.5273
13590SOL     OW43789   6.840   8.090   3.701  0.6220 -0.0803  0.0251
13590SOL    HW143790   6.863   8.174   3.739 -0.8172  0.6610 -0.6802
13590SOL    HW243791   6.744   8.092   3.695  0.6039 -1.5958 -0.3816
13591SOL     OW43792   4.827   4.145   3.791  0.3592 -0.0688  0.1366
13591SOL    HW143793   4.870   4.208   3.850 -1.0003 -0.7166  1.8343
13591SOL    HW243794   4.873   4.063   3.807  0.4978 -0.0809 -0.3030
13592SOL     OW43795   7.591   1.055   1.585  0.5349  0.5055 -0.1026
13592SOL    HW143796   7.665   1.000   1.607  0.0838  0.1838  0.6302
13592SOL    HW243797   7.528   0.996   1.543  0.2774  0.5722  0.1898
13593SOL     OW43798   2.197   8.624   5.531  0.3244  0.6194 -0.0828
13593SOL    HW143799   2.263   8.560   5.557  1.0652  2.2124  2.0289
13593SOL    HW243800   2.152   8.646   5.612 -1.6014  0.9260 -1.2131
13594SOL     OW43801   9.350   4.418   0.137  0.3017 -0.2176  0.3329
13594SOL    HW143802   9.368   4.362   0.062  0.0128  1.3011 -0.8990
13594SOL    HW243803   9.437   4.450   0.164  0.1473  1.6220 -1.2674
13595SOL     OW43804   3.866   1.928   1.047 -0.2686 -0.3581  0.2697
13595SOL    HW143805   3.944   1.926   0.992 -0.4275  1.4073 -0.0537
13595SOL    HW243806   3.802   1.873   1.000 -0.3425  0.9789 -1.2404
13596SOL     OW43807   2.752   3.008   6.723 -0.0756 -0.3726 -0.0201
13596SOL    HW143808   2.785   3.036   6.638  0.0320 -1.4644 -0.3374
13596SOL    HW243809   2.823   2.958   6.762 -0.6415 -1.0833  0.1128
13597SOL     OW43810   8.070   2.695   1.628  0.1652 -0.4490  0.1992
13597SOL    HW143811   8.044   2.665   1.715 -0.1762 -1.0444 -0.1054
13597SOL    HW243812   8.050   2.788   1.628 -0.2828 -0.5425  0.5958
13598SOL     OW43813   3.620   4.864   0.236  0.0419  0.4723  0.3971
13598SOL    HW143814   3.611   4.769   0.240  1.5992  0.2337 -1.0890
13598SOL    HW243815   3.586   4.888   0.150 -0.1753  1.2343  0.6939
13599SOL     OW43816   3.309   2.404   4.073  0.4672 -0.2654  0.6206
13599SOL    HW143817   3.232   2.449   4.109  1.0833 -1.1051  3.1073
13599SOL    HW243818   3.274   2.327   4.030 -0.1050 -0.8206  2.0360
13600SOL     OW43819   8.712   0.041   8.765 -0.7632 -0.0148  0.3641
13600SOL    HW143820   8.723  -0.031   8.828 -0.3197  0.4766  0.8567
13600SOL    HW243821   8.683   0.115   8.818  1.9210  1.0758  0.3761
13601SOL     OW43822   2.376   5.365   4.784 -0.3776 -0.2548  0.4419
13601SOL    HW143823   2.422   5.411   4.714 -0.6857  0.8559  0.9544
13601SOL    HW243824   2.416   5.398   4.864  0.4709 -2.0669  0.7765
13602SOL     OW43825   2.633   7.383   1.956  0.3480 -0.6137  0.1830
13602SOL    HW143826   2.626   7.311   2.018 -0.0491 -1.0709 -0.3830
13602SOL    HW243827   2.562   7.367   1.893  0.4706  0.0801 -0.1364
13603SOL     OW43828   0.253   6.202   1.353 -0.6929  0.2209 -0.2307
13603SOL    HW143829   0.298   6.226   1.272 -0.1722  0.2253  0.0642
13603SOL    HW243830   0.288   6.117   1.376 -2.3660 -0.7411 -1.1383
13604SOL     OW43831   3.016   0.572   8.546  0.4286 -0.0987  0.1875
13604SOL    HW143832   3.011   0.540   8.636  0.3734  0.9138  0.5516
13604SOL    HW243833   3.009   0.668   8.554 -0.5073 -0.0533 -0.9579
13605SOL     OW43834   4.357   7.396   3.605  0.3098 -0.3333  0.8738
13605SOL    HW143835   4.447   7.417   3.630  0.4906 -0.1638  0.1052
13605SOL    HW243836   4.323   7.477   3.566 -0.0566 -0.5054  0.8267
13606SOL     OW43837   2.470   0.058   2.935 -0.0099  0.1350  0.6207
13606SOL    HW143838   2.512   0.007   2.866 -0.7399  1.6703 -0.9763
13606SOL    HW243839   2.504   0.146   2.925 -2.6228  1.1364  0.0810
13607SOL     OW43840   5.207   4.636   2.218 -0.0664 -0.1358 -0.6141
13607SOL    HW143841   5.167   4.576   2.281 -0.0785  1.1463  0.6375
13607SOL    HW243842   5.143   4.707   2.208  0.7043  0.5579 -0.7035
13608SOL     OW43843   1.529   4.871   5.941 -0.3932 -0.1696 -0.3727
13608SOL    HW143844   1.474   4.868   5.862 -0.4087 -2.4177 -0.2944
13608SOL    HW243845   1.618   4.859   5.909 -0.3936 -1.0337 -0.0446
13609SOL     OW43846   0.592   1.072   8.318 -0.6629  0.3675 -0.2859
13609SOL    HW143847   0.571   0.984   8.289  0.9412  0.0602 -0.5185
13609SOL    HW243848   0.662   1.061   8.382 -1.3482  1.3768  0.6777
13610SOL     OW43849   0.271   7.873   6.544 -0.0960 -0.2487  0.4184
13610SOL    HW143850   0.189   7.906   6.508 -0.2314 -1.3437 -0.2993
13610SOL    HW243851   0.248   7.790   6.585  0.5932 -0.4231  0.4621
13611SOL     OW43852   6.089   1.187   5.446 -0.4741  0.1647  0.1178
13611SOL    HW143853   6.151   1.257   5.430  0.2707 -0.0065  2.1189
13611SOL    HW243854   6.089   1.135   5.365  1.5651  0.4608 -0.0775
13612SOL     OW43855   6.212   7.896   5.729  0.9155  0.7353  0.2407
13612SOL    HW143856   6.254   7.926   5.809 -0.1856 -2.1277  1.9915
13612SOL    HW243857   6.240   7.805   5.720 -1.4434  0.0910 -0.9335
13613SOL     OW43858   5.072   4.996   5.618 -0.1927 -0.0471  0.0875
13613SOL    HW143859   5.099   4.987   5.710 -0.4586 -1.9329 -0.0012
13613SOL    HW243860   5.070   5.091   5.603  0.1332  0.2781  1.9438
13614SOL     OW43861   4.904   8.720   0.466  0.7276 -0.5090 -0.4432
13614SOL    HW143862   4.992   8.739   0.432  0.1893  2.8741 -0.1364
13614SOL    HW243863   4.897   8.775   0.544 -2.1424  0.3288 -1.2530
13615SOL     OW43864   3.282   0.048   7.734 -0.1564  0.2836  0.1826
13615SOL    HW143865   3.319   0.000   7.808  0.2771  2.7440  1.6365
13615SOL    HW243866   3.358   0.083   7.688 -0.4591 -0.5641 -0.9689
13616SOL     OW43867   9.416   8.969   1.798  0.3806  0.4230 -0.0239
13616SOL    HW143868   9.462   8.995   1.878 -0.2914  0.4610  0.3458
13616SOL    HW243869   9.457   8.886   1.774  1.2571  0.8877 -0.1904
13617SOL     OW43870   2.449   7.035   4.359 -0.4753  0.2095 -0.7238
13617SOL    HW143871   2.521   7.043   4.422 -0.4074  0.5822 -0.8429
13617SOL    HW243872   2.374   7.007   4.411 -0.3552  0.2676 -0.5188
13618SOL     OW43873   0.782   2.834   5.115  0.1881  0.4336  0.3806
13618SOL    HW143874   0.703   2.820   5.167  1.2922 -0.9729  1.7329
13618SOL    HW243875   0.761   2.796   5.030 -1.4648  2.3102 -0.0675
13619SOL     OW43876   7.736   8.783   3.190 -0.4819  0.6155  0.0559
13619SOL    HW143877   7.729   8.833   3.109  0.1316  0.1089 -0.3167
13619SOL    HW243878   7.687   8.834   3.254  0.0780  1.6590 -0.3356
13620SOL     OW43879   3.197   6.242   3.390 -0.5354 -0.4639 -0.2899
13620SOL    HW143880   3.133   6.292   3.339 -2.7714 -1.1227  1.7540
13620SOL    HW243881   3.147   6.169   3.426  1.2982 -0.8209  1.6490
13621SOL     OW43882   8.391   9.113   1.804 -0.4763 -0.4547 -0.1945
13621SOL    HW143883   8.404   9.023   1.773 -0.0396 -0.0480 -1.2189
13621SOL    HW243884   8.383   9.105   1.899  0.5318 -1.4741 -0.1893
13622SOL     OW43885   4.312   0.612   3.572  0.3586  0.4987  1.0151
13622SOL    HW143886   4.333   0.672   3.500  0.1320 -0.3273  0.2501
13622SOL    HW243887   4.282   0.533   3.528  0.6209 -0.1589  2.0230
13623SOL     OW43888   0.824   9.199   4.451 -0.0153  0.1004 -0.3906
13623SOL    HW143889   0.803   9.185   4.358 -2.6579  2.1029 -0.1526
13623SOL    HW243890   0.859   9.288   4.453 -1.1042  0.5030  0.7107
13624SOL     OW43891   8.822   7.855   6.242  0.6591  0.2260 -0.0082
13624SOL    HW143892   8.851   7.861   6.333  1.5769 -1.0085 -0.2020
13624SOL    HW243893   8.772   7.774   6.238 -1.9309  1.7731  0.0559
13625SOL     OW43894   5.459   8.885   3.772 -0.0888  0.4138 -0.5552
13625SOL    HW143895   5.490   8.815   3.715  0.1439  0.0945 -0.0390
13625SOL    HW243896   5.505   8.963   3.740 -1.2475  0.5751 -1.8937
13626SOL     OW43897   5.414   6.928   5.418 -0.0642  0.1643  0.1440
13626SOL    HW143898   5.457   6.983   5.484  0.5130  0.7343 -0.6930
13626SOL    HW243899   5.486   6.885   5.372 -0.4649 -0.2332 -0.1127
13627SOL     OW43900   7.982   4.206   7.903  0.1351  0.3121 -0.1596
13627SOL    HW143901   8.058   4.182   7.851  0.6964 -0.8075  1.1588
13627SOL    HW243902   8.011   4.200   7.993 -1.8215 -1.3139  0.4182
13628SOL     OW43903   9.215   3.941   9.323  0.1426  0.2711  0.1372
13628SOL    HW143904   9.121   3.925   9.331 -0.0508  0.1898 -1.9211
13628SOL    HW243905   9.256   3.862   9.359 -0.5915 -0.0102  0.3645
13629SOL     OW43906   8.136   0.578   0.564 -0.1435 -0.2272 -0.1836
13629SOL    HW143907   8.161   0.640   0.633  0.7994 -0.7154 -0.0711
13629SOL    HW243908   8.042   0.592   0.552 -0.1071  0.6266  0.4360
13630SOL     OW43909   0.586   7.051   2.880  0.4312  0.1201  0.0370
13630SOL    HW143910   0.509   6.999   2.904 -0.0770  0.8093 -0.1252
13630SOL    HW243911   0.649   7.033   2.951 -0.1901  0.2480  0.6239
13631SOL     OW43912   3.086   6.007   3.474 -0.4412  0.6666 -0.0818
13631SOL    HW143913   3.167   5.965   3.502 -1.1874 -0.4615  0.4265
13631SOL    HW243914   3.017   5.957   3.517 -1.4622  0.8202 -1.4984
13632SOL     OW43915   6.996   2.407   8.738  0.5191  0.5042 -0.3233
13632SOL    HW143916   7.045   2.408   8.820  1.2078 -1.8981 -0.6598
13632SOL    HW243917   6.905   2.391   8.764  0.6924  0.0376  0.0037
13633SOL     OW43918   5.392   5.479   4.080  0.1376 -0.3816  0.3948
13633SOL    HW143919   5.322   5.413   4.075  0.5418 -0.8515  0.8053
13633SOL    HW243920   5.412   5.484   4.173  1.7239 -1.3987  0.1340
13634SOL     OW43921   3.879   3.155   1.871  0.0802  0.1231  0.1434
13634SOL    HW143922   3.927   3.237   1.876  0.4750 -0.1322  0.6772
13634SOL    HW243923   3.885   3.118   1.960  1.2122 -1.2057 -0.4626
13635SOL     OW43924   7.644   6.533   8.828  0.4965  0.3360  0.0640
13635SOL    HW143925   7.552   6.509   8.822  0.7565 -0.6358 -0.1771
13635SOL    HW243926   7.678   6.521   8.739  0.8415  0.7333  0.1402
13636SOL     OW43927   4.974   8.799   2.841  0.6534 -0.4935  0.4743
13636SOL    HW143928   4.984   8.707   2.819  0.8139 -0.4452  0.3446
13636SOL    HW243929   4.888   8.804   2.884 -0.7782 -0.1967 -2.3234
13637SOL     OW43930   6.691   5.148   7.494  0.1295  0.0546 -0.1590
13637SOL    HW143931   6.621   5.144   7.559  1.2660  2.3027  1.2803
13637SOL    HW243932   6.763   5.098   7.533  0.5464  0.7567 -0.0133
13638SOL     OW43933   0.272   3.306   2.586 -0.5880  0.0884 -0.2775
13638SOL    HW143934   0.288   3.280   2.495  1.1643  1.3688 -0.3604
13638SOL    HW243935   0.321   3.243   2.638 -0.2136  0.3606 -0.2962
13639SOL     OW43936   3.273   5.404   6.452  0.2743  0.1048 -0.0491
13639SOL    HW143937   3.273   5.308   6.452 -0.3333  0.0884 -2.4591
13639SOL    HW243938   3.366   5.428   6.459  0.3811 -0.6310  1.2651
13640SOL     OW43939   5.665   2.925   3.349 -0.4964  0.1854  0.0883
13640SOL    HW143940   5.587   2.978   3.365 -2.2406 -1.7444 -1.6649
13640SOL    HW243941   5.724   2.984   3.302 -1.7069  1.0940 -0.3282
13641SOL     OW43942   3.300   8.310   7.023 -0.1450  0.2378  0.6709
13641SOL    HW143943   3.354   8.242   6.983 -2.4369 -0.3952 -1.4191
13641SOL    HW243944   3.313   8.297   7.117  0.2473 -2.4532  0.3041
13642SOL     OW43945   1.520   8.560   4.086  0.5092  0.3863 -0.3195
13642SOL    HW143946   1.448   8.567   4.149 -0.1729 -0.4582 -0.9883
13642SOL    HW243947   1.477   8.538   4.003  1.7540 -3.0712 -0.1435
13643SOL     OW43948   7.681   6.658   0.469 -0.1307 -0.6124 -0.5876
13643SOL    HW143949   7.600   6.708   0.464  0.2153 -0.1508 -1.6650
13643SOL    HW243950   7.738   6.709   0.526  0.0740  0.0083 -1.3504
13644SOL     OW43951   0.402   4.179   9.361 -0.1205 -0.0585  0.7379
13644SOL    HW143952   0.359   4.197   9.278 -3.5490 -0.0164  2.4285
13644SOL    HW243953   0.403   4.083   9.368  1.9520 -0.1272 -0.2014
13645SOL     OW43954   5.474   3.896   6.256 -0.2029 -0.1483  0.1555
13645SOL    HW143955   5.436   3.809   6.269 -0.7360  0.0270 -0.2385
13645SOL    HW243956   5.414   3.956   6.299  0.0462  0.0509  0.2271
13646SOL     OW43957   2.154   7.907   7.492 -0.0188 -0.5918  0.4251
13646SOL    HW143958   2.221   7.844   7.520  1.0824 -0.7370 -2.3912
13646SOL    HW243959   2.177   7.988   7.538  1.0784 -1.1151  0.8167
13647SOL     OW43960   3.318   0.833   3.121 -0.0470  0.5119 -0.3824
13647SOL    HW143961   3.361   0.751   3.147 -0.4715  0.3329 -0.2438
13647SOL    HW243962   3.225   0.813   3.122 -0.1818  1.1386  0.1327
13648SOL     OW43963   2.408   8.196   1.250  0.2399 -0.1118 -0.5071
13648SOL    HW143964   2.478   8.150   1.296 -0.4646 -0.5796  0.1044
13648SOL    HW243965   2.357   8.127   1.208 -1.0487  0.0795  0.7324
13649SOL     OW43966   6.719   0.061   4.422  0.0399 -0.3466  0.3652
13649SOL    HW143967   6.804   0.037   4.458 -0.3607 -1.0531  0.8677
13649SOL    HW243968   6.714   0.156   4.432  1.7233  0.0021 -1.8101
13650SOL     OW43969   4.196   3.782   4.435 -0.1581  0.4128 -0.7588
13650SOL    HW143970   4.288   3.772   4.409  0.2959 -0.8720  1.2057
13650SOL    HW243971   4.196   3.857   4.495  0.1897 -1.4231  1.6405
13651SOL     OW43972   9.101   7.249   2.930  0.1821  0.0228  0.4239
13651SOL    HW143973   9.020   7.286   2.896 -1.4620 -1.2114  2.9050
13651SOL    HW243974   9.132   7.191   2.860 -0.7172  0.9605 -0.7747
13652SOL     OW43975   4.580   1.046   1.993 -0.1503 -0.4318  0.5011
13652SOL    HW143976   4.590   0.951   2.001  0.1369 -0.3275  1.5193
13652SOL    HW243977   4.596   1.079   2.082  1.4690  0.7325 -0.2147
13653SOL     OW43978   4.102   3.142   2.380  0.6067  1.0129  0.1736
13653SOL    HW143979   4.044   3.160   2.306 -0.5218  1.3046  1.1091
13653SOL    HW243980   4.135   3.054   2.364 -1.0993  0.3436  0.2489
13654SOL     OW43981   0.288   2.963   6.395  0.5549  0.4755  0.0027
13654SOL    HW143982   0.305   2.933   6.484 -0.7043 -1.8489 -0.4939
13654SOL    HW243983   0.197   2.939   6.379 -0.0507  3.2841 -1.0018
13655SOL     OW43984   9.226   2.722   1.280 -0.3088  0.2388  0.3056
13655SOL    HW143985   9.201   2.752   1.193 -0.5983  1.3555  0.7594
13655SOL    HW243986   9.289   2.651   1.265 -2.4241 -1.4550 -0.8267
13656SOL     OW43987   5.901   1.909   8.163 -0.5152 -0.1925  0.3875
13656SOL    HW143988   5.957   1.985   8.151 -1.1711 -0.1992 -3.0760
13656SOL    HW243989   5.832   1.940   8.223  0.4683  1.2528  0.8040
13657SOL     OW43990   3.765   1.174   7.506 -0.5395  0.4334 -0.1594
13657SOL    HW143991   3.684   1.202   7.549  0.0884 -1.3997  2.3062
13657SOL    HW243992   3.835   1.198   7.567  0.6683  0.7034 -1.6153
13658SOL     OW43993   1.039   2.924   4.942  0.2274 -0.2517  0.5005
13658SOL    HW143994   1.015   2.947   5.032  1.7105 -0.7391  1.0260
13658SOL    HW243995   1.033   2.828   4.940 -1.5293 -0.1456 -0.4300
13659SOL     OW43996   6.185   5.492   7.161 -0.2357 -0.0554 -0.1584
13659SOL    HW143997   6.111   5.536   7.119 -1.2790 -2.0860 -0.5133
13659SOL    HW243998   6.243   5.469   7.088 -0.2491 -0.2991 -0.0914
13660SOL     OW43999   0.020   7.342   3.723 -0.6156 -0.3127 -0.4158
13660SOL    HW144000   0.000   7.352   3.816  1.6583  0.2884  0.0243
13660SOL    HW244001  -0.045   7.396   3.678  0.5980  2.3755  1.0269
13661SOL     OW44002   5.302   1.894   2.418  0.1350 -0.2538  0.4962
13661SOL    HW144003   5.308   1.800   2.438  1.1859  0.0717  1.7672
13661SOL    HW244004   5.209   1.915   2.430 -0.3207 -1.3634 -0.9189
13662SOL     OW44005   5.561   2.801   2.693  0.1761 -0.1165  0.3977
13662SOL    HW144006   5.522   2.736   2.752 -0.8920 -0.4594 -0.6732
13662SOL    HW244007   5.487   2.834   2.642  1.2976 -0.8165 -1.7180
13663SOL     OW44008   5.453   2.400   2.014 -0.5557  0.2754  0.1704
13663SOL    HW144009   5.543   2.365   2.017 -0.2002  1.1721  0.0237
13663SOL    HW244010   5.428   2.409   2.106 -0.6708 -0.4046  0.2113
13664SOL     OW44011   2.745   1.964   6.310 -0.2049  0.0969 -0.1700
13664SOL    HW144012   2.706   1.955   6.397 -1.2151 -0.2356 -0.6441
13664SOL    HW244013   2.839   1.952   6.324 -0.2232  1.2226  1.0460
13665SOL     OW44014   0.418   1.395   3.964 -0.0595 -0.3146 -0.4952
13665SOL    HW144015   0.395   1.483   3.995  0.2923 -0.2091 -0.5388
13665SOL    HW244016   0.391   1.337   4.036 -0.0487 -0.1488 -0.3559
13666SOL     OW44017   7.742   2.107   1.568 -0.0278 -0.2548 -0.4968
13666SOL    HW144018   7.653   2.136   1.589 -0.2326 -0.1377 -1.5314
13666SOL    HW244019   7.736   2.075   1.478  1.0346 -0.0276 -0.6494
13667SOL     OW44020   8.879   1.152   4.603 -0.1516  0.1592  0.0950
13667SOL    HW144021   8.970   1.129   4.622  0.0871 -0.9377 -2.2208
13667SOL    HW244022   8.861   1.225   4.662  2.3395  0.6230  0.3736
13668SOL     OW44023   1.418   2.563   4.177 -0.1718  0.0575  0.0349
13668SOL    HW144024   1.331   2.601   4.166 -0.2872 -0.4202 -0.7379
13668SOL    HW244025   1.415   2.480   4.128 -0.0507 -1.1553  2.0262
13669SOL     OW44026   1.679   1.889   0.643 -0.2787 -0.0415  0.0708
13669SOL    HW144027   1.666   1.971   0.595 -3.1156  0.5111  1.6066
13669SOL    HW244028   1.701   1.825   0.576 -2.9550  0.9590 -1.8667
13670SOL     OW44029   8.914   2.894   4.598 -0.6987 -0.8552  0.0780
13670SOL    HW144030   8.969   2.860   4.669  0.4142 -1.4774 -1.0658
13670SOL    HW244031   8.880   2.977   4.631 -1.1847 -1.7313  1.8197
13671SOL     OW44032   8.276   6.811   2.781  0.2853 -0.4760 -0.1451
13671SOL    HW144033   8.188   6.841   2.804  0.1210 -0.0808 -1.2388
13671SOL    HW244034   8.333   6.883   2.807  0.4960 -1.4537  2.1910
13672SOL     OW44035   4.803   6.624   1.649 -0.2301  0.0974  0.3914
13672SOL    HW144036   4.869   6.555   1.648  0.7360  1.0068  0.7987
13672SOL    HW244037   4.820   6.675   1.570  0.6496  1.3458  1.3694
13673SOL     OW44038   2.088   2.301   2.616 -0.1119  0.5072  0.0673
13673SOL    HW144039   2.167   2.273   2.571  0.4194  0.0009  1.2980
13673SOL    HW244040   2.067   2.385   2.576 -0.4549 -0.5525 -2.1031
13674SOL     OW44041   6.748   8.892   3.928  0.4240  0.0386  0.1153
13674SOL    HW144042   6.763   8.892   4.022  0.9802 -1.5639  0.0485
13674SOL    HW244043   6.653   8.900   3.918  0.3323 -0.1856  0.8131
13675SOL     OW44044   8.378   5.484   4.985 -0.2853 -0.0694  0.5127
13675SOL    HW144045   8.423   5.566   5.005 -0.4493 -0.2554  1.6844
13675SOL    HW244046   8.433   5.442   4.920  0.0123  0.7871  0.1973
13676SOL     OW44047   1.504   7.121   7.959 -0.3205  0.2748  0.7566
13676SOL    HW144048   1.417   7.082   7.972  0.5594 -1.4269  1.6482
13676SOL    HW244049   1.553   7.097   8.038  1.8721 -1.2145 -1.0182
13677SOL     OW44050   7.209   2.143   1.360  0.7455  0.1073  0.1541
13677SOL    HW144051   7.154   2.193   1.419 -0.5795  0.7263 -1.5834
13677SOL    HW244052   7.285   2.199   1.345 -0.2056  1.1407 -0.8970
13678SOL     OW44053   1.351   1.495   0.712 -0.1176  0.0182  0.2026
13678SOL    HW144054   1.392   1.564   0.765  1.2555 -0.8482  0.2840
13678SOL    HW244055   1.299   1.543   0.648 -0.0958  1.1222  0.9858
13679SOL     OW44056   0.848   0.041   4.391  0.3061 -0.1189 -0.5171
13679SOL    HW144057   0.938   0.043   4.356  1.0824  1.4706  1.4508
13679SOL    HW244058   0.792   0.045   4.313  1.9576  0.3239 -1.7113
13680SOL     OW44059   5.026   5.257   1.043  0.0933 -0.1168 -0.1731
13680SOL    HW144060   4.952   5.317   1.033 -0.8597 -1.3213 -0.4366
13680SOL    HW244061   5.047   5.261   1.136 -1.3153 -0.9423  0.1903
13681SOL     OW44062   2.470   8.452   4.278 -0.1742  0.1446  0.4574
13681SOL    HW144063   2.488   8.546   4.274  1.2656 -0.1206  0.3520
13681SOL    HW244064   2.556   8.411   4.289 -0.7910 -1.1576  0.5990
13682SOL     OW44065   1.921   7.167   3.879 -0.3454 -0.4113  0.0539
13682SOL    HW144066   1.902   7.223   3.804 -1.5292 -0.9782 -0.0893
13682SOL    HW244067   1.919   7.078   3.844  3.1464 -0.4965 -0.0580
13683SOL     OW44068   4.076   1.815   8.360 -0.2307  0.9508  0.3542
13683SOL    HW144069   4.091   1.842   8.269 -3.7508  1.4282 -0.1190
13683SOL    HW244070   4.082   1.896   8.410  3.3932  0.4638  0.8532
13684SOL     OW44071   3.108   9.069   3.102  0.2297  0.0482 -0.3731
13684SOL    HW144072   3.026   9.036   3.138 -1.0695  1.4278 -1.9687
13684SOL    HW244073   3.107   9.162   3.122  1.8382 -0.0609  0.3254
13685SOL     OW44074   6.998   1.465   4.464 -0.6849 -0.3487 -0.1590
13685SOL    HW144075   6.931   1.478   4.530 -2.3128  0.6905 -1.9644
13685SOL    HW244076   6.950   1.442   4.384  1.1998 -1.2408 -1.0873
13686SOL     OW44077   0.024   8.810   7.117 -0.2238 -0.2899 -0.6065
13686SOL    HW144078   0.075   8.729   7.113  0.0220 -0.1603 -0.1338
13686SOL    HW244079  -0.033   8.806   7.041 -0.8495 -1.3349 -0.1027
13687SOL     OW44080   2.270   7.249   4.228  0.1278 -0.0658 -0.5247
13687SOL    HW144081   2.202   7.193   4.191 -1.7117  0.1480  2.3452
13687SOL    HW244082   2.331   7.189   4.270 -1.3002 -0.0506  1.6680
13688SOL     OW44083   0.749   1.400   5.280  0.2781  0.1155  0.8401
13688SOL    HW144084   0.664   1.443   5.278  0.6578  1.0376  3.2681
13688SOL    HW244085   0.808   1.461   5.236  0.1807  0.5978  1.3840
13689SOL     OW44086   4.658   2.818   7.768 -0.6281 -0.1553  0.0551
13689SOL    HW144087   4.654   2.741   7.825 -2.6689 -1.1133 -1.3051
13689SOL    HW244088   4.567   2.847   7.760 -0.3356  0.2319 -2.3112
13690SOL     OW44089   3.695   5.209   8.715  0.0627  0.6536  0.2584
13690SOL    HW144090   3.676   5.122   8.680  1.6079  0.0711  0.8375
13690SOL    HW244091   3.617   5.260   8.695 -0.8297 -0.8435 -0.1517
13691SOL     OW44092   4.450   0.811   6.718 -0.3573  0.5898  0.4572
13691SOL    HW144093   4.494   0.852   6.793 -2.8914 -1.4175  3.1523
13691SOL    HW244094   4.359   0.840   6.726 -0.4093  1.4263 -2.6767
13692SOL     OW44095   0.927   4.358   8.216 -0.0901  0.1771  0.1220
13692SOL    HW144096   0.920   4.304   8.294 -1.3999 -0.4841 -0.4307
13692SOL    HW244097   0.869   4.316   8.152  0.5728  0.9851 -1.0396
13693SOL     OW44098   3.456   6.398   1.125  0.2203  0.0434  0.6124
13693SOL    HW144099   3.468   6.366   1.035  1.5134  0.5554  0.5925
13693SOL    HW244100   3.380   6.350   1.157  0.1503 -0.6394 -0.5333
13694SOL     OW44101   0.225   3.569   2.048  0.1299  0.2198 -0.4234
13694SOL    HW144102   0.207   3.662   2.031 -0.1940  0.1085 -0.7011
13694SOL    HW244103   0.147   3.524   2.016  0.4975 -0.1924 -0.7389
13695SOL     OW44104   6.454   6.702   5.296 -0.6774  0.3243 -0.2663
13695SOL    HW144105   6.508   6.780   5.285 -1.5926  0.8944 -0.7968
13695SOL    HW244106   6.508   6.642   5.347  0.2848  1.0527 -0.4195
13696SOL     OW44107   8.431   2.019   8.245 -0.5286 -0.3544  0.6319
13696SOL    HW144108   8.379   2.018   8.165  0.5332 -2.1080 -0.0704
13696SOL    HW244109   8.437   1.927   8.272  0.1405  0.0829  2.0433
13697SOL     OW44110   7.185   7.391   3.980  0.1729 -0.2071 -0.0118
13697SOL    HW144111   7.220   7.314   4.025  0.0709  0.1055  0.6218
13697SOL    HW244112   7.090   7.379   3.982  0.1371  0.1029  0.4172
13698SOL     OW44113   1.765   0.551   7.922 -0.2781 -0.0614  0.4736
13698SOL    HW144114   1.703   0.515   7.986 -0.2600  1.0240  1.1062
13698SOL    HW244115   1.710   0.597   7.859 -0.1274  0.8035  0.9711
13699SOL     OW44116   8.116   2.746   3.650 -0.1573  0.0897  0.0798
13699SOL    HW144117   8.158   2.664   3.624 -1.9096 -0.5106 -0.9544
13699SOL    HW244118   8.187   2.810   3.651  1.3625 -1.5384  1.5105
13700SOL     OW44119   5.488   2.455   1.148  0.7649 -0.4204 -0.1827
13700SOL    HW144120   5.467   2.547   1.164  0.0129 -0.6229  0.0250
13700SOL    HW244121   5.565   2.439   1.202  0.4900 -0.0860  0.3227
13701SOL     OW44122   5.129   2.401   1.264 -0.2666 -0.7397  0.1035
13701SOL    HW144123   5.129   2.381   1.171  1.1802  0.0726 -0.0793
13701SOL    HW244124   5.081   2.328   1.304 -0.5166 -1.3074 -1.2153
13702SOL     OW44125   5.767   7.797   4.686 -0.1968 -0.6454 -0.3711
13702SOL    HW144126   5.727   7.766   4.768 -0.9639 -0.6782 -0.7555
13702SOL    HW244127   5.750   7.726   4.623  0.1613 -0.5035 -0.6248
13703SOL     OW44128   1.868   1.368   8.163 -0.7819 -0.2169 -0.2075
13703SOL    HW144129   1.837   1.369   8.254  0.7814  1.5200  0.3279
13703SOL    HW244130   1.799   1.411   8.114 -1.3975 -0.6852  0.2360
13704SOL     OW44131   1.209   5.001   6.870 -0.4371 -0.1659 -0.0104
13704SOL    HW144132   1.237   5.043   6.789  0.2645  0.7561  0.7018
13704SOL    HW244133   1.151   4.931   6.842  0.4383 -0.3716 -1.3651
13705SOL     OW44134   8.617   9.061   5.694  0.1406 -0.6192  0.2216
13705SOL    HW144135   8.639   9.029   5.606  0.0022 -1.9880  0.6651
13705SOL    HW244136   8.615   9.156   5.685 -1.4926 -0.7898 -1.6581
13706SOL     OW44137   7.646   7.163   1.674  0.5074  0.5770 -0.1502
13706SOL    HW144138   7.670   7.256   1.675 -1.0195  0.9897 -0.4821
13706SOL    HW244139   7.597   7.150   1.755  0.1302  0.2123 -0.4377
13707SOL     OW44140   8.379   2.754   8.655  0.2737 -0.4301 -0.1224
13707SOL    HW144141   8.423   2.833   8.623 -1.8970  1.8994  2.4018
13707SOL    HW244142   8.318   2.785   8.722  0.9514 -4.5109  2.5951
13708SOL     OW44143   9.174   2.661   3.212  0.7781 -0.1568  0.2666
13708SOL    HW144144   9.146   2.576   3.246  2.4253 -0.1018  1.8566
13708SOL    HW244145   9.247   2.686   3.268 -0.3718  2.8279  0.5283
13709SOL     OW44146   1.571   7.264   1.612  0.9209  0.0834  0.3417
13709SOL    HW144147   1.485   7.232   1.637  0.4877 -1.3195 -2.7759
13709SOL    HW244148   1.626   7.247   1.689 -0.8153 -2.0289  1.1699
13710SOL     OW44149   0.032   8.099   6.848  0.3994  0.0190 -0.1683
13710SOL    HW144150  -0.060   8.093   6.822  0.3500 -2.4073  0.5018
13710SOL    HW244151   0.045   8.026   6.908  2.7030  0.5161 -0.0280
13711SOL     OW44152   1.656   1.901   4.870 -0.3511  0.0584 -0.1764
13711SOL    HW144153   1.604   1.859   4.938  0.4700 -1.0684 -0.2225
13711SOL    HW244154   1.611   1.984   4.852 -1.6767 -0.5426  0.3200
13712SOL     OW44155   2.720   9.237   1.655  0.4677 -0.0382  0.2359
13712SOL    HW144156   2.697   9.154   1.613  2.0866 -0.2378 -0.2857
13712SOL    HW244157   2.681   9.304   1.599  2.0245 -0.3306 -1.2051
13713SOL     OW44158   8.810   7.102   2.099 -0.3648 -0.0853 -0.4937
13713SOL    HW144159   8.867   7.176   2.120  0.0495  0.1120 -2.3170
13713SOL    HW244160   8.870   7.030   2.079 -0.7642 -0.4646 -0.3298
13714SOL     OW44161   3.485   8.087   1.016 -0.5116 -0.2816  0.2052
13714SOL    HW144162   3.558   8.090   0.955  0.7457 -2.5048  1.5437
13714SOL    HW244163   3.494   8.003   1.061 -2.4469  0.4982  2.1569
13715SOL     OW44164   0.930   4.029   5.069  0.1485  0.0443  0.0548
13715SOL    HW144165   0.949   4.123   5.068 -0.9760  0.2984 -2.3257
13715SOL    HW244166   1.014   3.987   5.052  0.5120  0.6509  0.3333
13716SOL     OW44167   6.329   1.314   9.287 -0.3972 -0.2379 -0.1130
13716SOL    HW144168   6.330   1.366   9.206 -1.9089  1.1042  0.6773
13716SOL    HW244169   6.363   1.374   9.354 -0.4014 -0.8860  0.4759
13717SOL     OW44170   4.421   6.677   4.621 -0.7099 -0.0737  0.9164
13717SOL    HW144171   4.352   6.639   4.566 -0.3369 -0.8366  0.9696
13717SOL    HW244172   4.374   6.720   4.692 -1.2513  1.9172 -0.6024
13718SOL     OW44173   2.205   4.591   9.369  0.0494 -0.1436 -0.6886
13718SOL    HW144174   2.214   4.676   9.412  1.1987 -1.4669  1.8285
13718SOL    HW244175   2.266   4.594   9.296  0.6647  0.8903 -0.1448
13719SOL     OW44176   5.627   3.621   1.479  0.3467  0.2937  0.1379
13719SOL    HW144177   5.564   3.549   1.484  1.4256 -0.7373 -0.7496
13719SOL    HW244178   5.690   3.603   1.549 -0.4783  1.4825  1.2163
13720SOL     OW44179   2.777   0.287   7.579 -0.0488 -0.3016  0.0880
13720SOL    HW144180   2.861   0.242   7.576 -0.3294 -1.1085  2.8752
13720SOL    HW244181   2.712   0.216   7.579 -0.7567  0.3013 -1.7204
13721SOL     OW44182   7.226   8.377   4.132 -0.8838  0.2326 -0.4419
13721SOL    HW144183   7.217   8.468   4.106 -1.2674 -0.2957 -2.2288
13721SOL    HW244184   7.136   8.344   4.137 -0.6725 -0.7322 -2.4088
13722SOL     OW44185   8.996   5.263   2.805  0.2643 -0.1068  0.1633
13722SOL    HW144186   8.983   5.252   2.711 -0.8225  1.2140  0.1510
13722SOL    HW244187   9.051   5.188   2.830  0.1685 -0.7315 -1.4234
13723SOL     OW44188   5.841   5.207   2.868  0.4237  0.0861 -0.2308
13723SOL    HW144189   5.770   5.156   2.908  0.0416  0.2714 -0.6639
13723SOL    HW244190   5.849   5.285   2.923 -0.3813  0.5399 -0.7523
13724SOL     OW44191   2.885   6.743   0.529 -0.0056  0.1418 -0.6059
13724SOL    HW144192   2.917   6.831   0.507 -0.1619  0.7795  1.6161
13724SOL    HW244193   2.796   6.740   0.494  0.5736  0.2745 -2.1203
13725SOL     OW44194   7.125   0.279   4.634  0.2675  0.5039  0.5725
13725SOL    HW144195   7.040   0.322   4.629 -0.3084 -0.6848 -0.1748
13725SOL    HW244196   7.142   0.269   4.727 -0.4973  0.5896  0.7247
13726SOL     OW44197   4.185   4.113   4.069 -0.1607 -0.5395  0.1839
13726SOL    HW144198   4.239   4.035   4.058  1.8230  0.6114  1.3684
13726SOL    HW244199   4.206   4.145   4.156 -1.6306  0.8176  0.0745
13727SOL     OW44200   1.402   2.187   6.734  0.3316  0.2126 -0.5109
13727SOL    HW144201   1.409   2.106   6.683  0.0799  0.3741 -0.8057
13727SOL    HW244202   1.489   2.227   6.726  0.5521 -0.1743 -0.1086
13728SOL     OW44203   0.898   3.966   6.223  0.1258  0.4333  0.2129
13728SOL    HW144204   0.981   3.919   6.231 -0.5512 -0.8145 -0.0828
13728SOL    HW244205   0.920   4.042   6.169  1.0279 -0.0101 -0.0562
13729SOL     OW44206   6.479   7.105   3.319 -0.1869  0.3867 -0.4679
13729SOL    HW144207   6.517   7.190   3.343  2.5991 -0.9030 -0.1313
13729SOL    HW244208   6.428   7.080   3.396 -1.4009  1.9229 -0.7338
13730SOL     OW44209   3.159   0.869   9.387  0.7152  0.5383  0.0401
13730SOL    HW144210   3.194   0.917   9.312 -0.6422 -1.6431 -2.0889
13730SOL    HW244211   3.195   0.781   9.378 -1.3749 -0.4012  0.5722
13731SOL     OW44212   2.456   7.629   7.117 -0.1755  0.2118  0.5189
13731SOL    HW144213   2.478   7.556   7.058 -1.3570 -0.7711  1.2745
13731SOL    HW244214   2.503   7.608   7.198  0.9781  1.2660  0.1527
13732SOL     OW44215   7.259   7.196   3.779 -0.3222  0.0505 -0.1438
13732SOL    HW144216   7.291   7.285   3.769 -1.3980  0.3701 -0.7129
13732SOL    HW244217   7.226   7.172   3.693  0.1757 -0.9862 -0.0557
13733SOL     OW44218   3.902   7.824   3.533 -0.5287 -0.3447 -0.8264
13733SOL    HW144219   3.935   7.777   3.609  0.4068 -0.0676 -1.0610
13733SOL    HW244220   3.976   7.829   3.474 -0.6465  1.3486 -0.8451
13734SOL     OW44221   2.938   7.852   8.345 -0.3431  0.6213  0.1436
13734SOL    HW144222   2.995   7.812   8.411 -1.1834  0.7229  0.9451
13734SOL    HW244223   2.904   7.778   8.295  0.0251  0.5163  0.0512
13735SOL     OW44224   4.526   4.047   3.257  0.4386 -0.0985 -0.0206
13735SOL    HW144225   4.466   4.007   3.320 -0.1297  2.1898  0.9149
13735SOL    HW244226   4.601   4.074   3.309  0.3020  1.1118 -0.4319
13736SOL     OW44227   8.405   7.841   8.659 -0.1016 -0.1428  0.3185
13736SOL    HW144228   8.386   7.934   8.664  1.8934  0.2740  0.5929
13736SOL    HW244229   8.345   7.801   8.723  0.0744  1.1143  1.2948
13737SOL     OW44230   2.258   5.377   9.125  0.6132 -0.3140  0.0517
13737SOL    HW144231   2.206   5.330   9.190  0.1716  0.5411  0.3312
13737SOL    HW244232   2.210   5.368   9.043  1.3813 -1.7419 -0.2458
13738SOL     OW44233   6.746   8.604   5.901  0.7247 -0.2526 -0.4803
13738SOL    HW144234   6.699   8.524   5.924 -0.6152  0.8375  0.6295
13738SOL    HW244235   6.680   8.673   5.901  1.9118  0.9258 -1.1313
13739SOL     OW44236   6.443   2.997   7.930  0.0620 -0.0843 -0.3480
13739SOL    HW144237   6.538   2.997   7.917  0.1349 -0.0220  0.1451
13739SOL    HW244238   6.424   3.082   7.969 -0.1151 -0.3145  0.0832
13740SOL     OW44239   4.238   3.382   5.096 -0.4019  0.2906  0.2301
13740SOL    HW144240   4.204   3.442   5.030  0.3016  0.3940 -0.0356
13740SOL    HW244241   4.322   3.353   5.062  1.3919  2.6829  2.4586
13741SOL     OW44242   2.066   5.310   9.335 -0.3293  0.9830 -0.0636
13741SOL    HW144243   2.100   5.322   9.424 -1.4088  0.8783  0.3707
13741SOL    HW244244   2.015   5.229   9.339 -0.9044  1.3057 -0.6079
13742SOL     OW44245   6.786   7.831   3.561  0.7256  0.4283  0.2140
13742SOL    HW144246   6.693   7.844   3.543 -0.3164 -1.8160  3.4523
13742SOL    HW244247   6.813   7.910   3.608 -0.0779  0.2143  1.0377
13743SOL     OW44248   4.613   1.175   7.621 -0.4007 -0.2818 -0.4310
13743SOL    HW144249   4.540   1.153   7.679 -0.5930 -0.3831 -0.7112
13743SOL    HW244250   4.578   1.161   7.532 -0.7287  1.6920 -0.6379
13744SOL     OW44251   3.109   5.020   4.269 -0.0615  0.5245  0.0676
13744SOL    HW144252   3.164   5.098   4.269  0.5959  0.0627  0.7761
13744SOL    HW244253   3.161   4.954   4.223 -0.2401  0.2434  0.2690
13745SOL     OW44254   0.885   4.069   6.505  0.0593 -0.0263 -0.1416
13745SOL    HW144255   0.876   4.164   6.512  0.8748  0.0768 -0.4601
13745SOL    HW244256   0.966   4.056   6.456 -0.2884 -0.8834 -0.5016
13746SOL     OW44257   5.490   3.108   5.716 -0.3844 -0.1061  0.0236
13746SOL    HW144258   5.451   3.174   5.659 -0.2824  0.3391  0.4649
13746SOL    HW244259   5.557   3.066   5.662  0.3454  0.9412  0.0972
13747SOL     OW44260   0.465   5.597   8.462  0.1102 -0.0289  0.0974
13747SOL    HW144261   0.389   5.625   8.412  0.0553  0.1713  0.2903
13747SOL    HW244262   0.516   5.543   8.401 -0.3523 -0.4341  0.0696
13748SOL     OW44263   4.654   7.974   9.149  0.4555 -0.9123  0.3308
13748SOL    HW144264   4.706   7.959   9.228  1.0642  2.1192  0.5769
13748SOL    HW244265   4.578   8.024   9.180  0.5599  0.0660 -0.9648
13749SOL     OW44266   3.643   8.173   9.222 -0.6444  0.5068  0.2885
13749SOL    HW144267   3.644   8.266   9.198  0.2043  0.2146 -0.8127
13749SOL    HW244268   3.730   8.142   9.201 -1.3146 -0.8491 -0.5169
13750SOL     OW44269   6.500   8.171   2.513 -0.5586 -0.0603  0.3142
13750SOL    HW144270   6.567   8.144   2.576 -0.7939 -1.2749  0.0557
13750SOL    HW244271   6.530   8.136   2.429 -1.0848  0.1191  0.0492
13751SOL     OW44272   0.373   8.534   7.564 -0.1647 -0.0005 -0.3679
13751SOL    HW144273   0.441   8.566   7.505 -1.4476  0.1895 -1.7768
13751SOL    HW244274   0.315   8.610   7.576 -1.4668 -0.8475 -1.1622
13752SOL     OW44275   2.108   4.649   7.095 -0.0364  0.1104  0.8378
13752SOL    HW144276   2.201   4.641   7.119 -0.3709 -0.6877  1.8963
13752SOL    HW244277   2.091   4.572   7.041 -1.0513 -1.8526  3.8561
13753SOL     OW44278   6.558   3.991   4.173 -0.6458  0.1462  0.2512
13753SOL    HW144279   6.647   3.960   4.156 -1.2434 -1.9326  0.8285
13753SOL    HW244280   6.563   4.086   4.160  2.2455  0.4170  2.8700
13754SOL     OW44281   3.958   8.176   2.688  0.3928 -0.4350 -0.2102
13754SOL    HW144282   3.873   8.171   2.732 -0.3992  2.7271 -1.2936
13754SOL    HW244283   3.966   8.092   2.642 -1.9012 -0.9634  0.2981
13755SOL     OW44284   5.929   5.145   6.903  0.1520  0.3160 -0.5669
13755SOL    HW144285   5.944   5.175   6.993  0.4748 -0.7094 -0.2724
13755SOL    HW244286   5.913   5.226   6.853  2.6038  1.1035 -0.1182
13756SOL     OW44287   3.718   8.549   8.472  0.1111 -0.0474  0.2787
13756SOL    HW144288   3.675   8.551   8.386 -0.5750  0.1058  0.6166
13756SOL    HW244289   3.769   8.469   8.472  0.3855  0.1291 -0.4072
13757SOL     OW44290   3.543   3.632   8.859  0.1648 -0.0417  0.5724
13757SOL    HW144291   3.491   3.576   8.916  0.7925  0.5514  1.7588
13757SOL    HW244292   3.631   3.629   8.897  0.3732  1.1325  0.2137
13758SOL     OW44293   2.235   7.487   8.627 -0.6246  0.1890 -0.0815
13758SOL    HW144294   2.157   7.441   8.598 -0.6697  1.0623 -1.3901
13758SOL    HW244295   2.307   7.426   8.612 -1.1956 -1.1296  2.3943
13759SOL     OW44296   0.791   8.803   7.061 -0.1602  0.1386 -0.2824
13759SOL    HW144297   0.766   8.852   7.139 -0.9365 -1.3233  0.4094
13759SOL    HW244298   0.764   8.858   6.987 -2.9117 -0.1609  0.4686
13760SOL     OW44299   1.552   3.365   7.035  0.2669 -0.1218  0.0002
13760SOL    HW144300   1.548   3.278   7.075  1.5601 -0.4416 -0.5593
13760SOL    HW244301   1.556   3.348   6.941  3.5792  0.4267 -0.0115
13761SOL     OW44302   0.336   5.006   6.741 -0.3019  0.1431  0.0515
13761SOL    HW144303   0.301   4.962   6.663 -0.9616 -0.2643  0.5727
13761SOL    HW244304   0.419   5.043   6.712 -0.3747 -0.3091 -0.7575
13762SOL     OW44305   0.161   5.779   4.075 -0.4531 -0.1733 -0.4457
13762SOL    HW144306   0.204   5.852   4.030 -2.4448  0.5436 -1.2257
13762SOL    HW244307   0.233   5.719   4.096  1.0758  1.4886 -0.7559
13763SOL     OW44308   0.812   5.171   6.643  0.1129 -0.2257 -0.3857
13763SOL    HW144309   0.903   5.199   6.640 -0.5575  1.9285 -3.9273
13763SOL    HW244310   0.777   5.213   6.722  1.0748  2.7907 -1.4921
13764SOL     OW44311   7.289   6.758   7.661 -0.5440  0.1732  0.3581
13764SOL    HW144312   7.305   6.782   7.753 -2.3358  1.9330  0.2465
13764SOL    HW244313   7.347   6.815   7.611  0.2061 -0.5705  0.3705
13765SOL     OW44314   3.024   2.569   2.471  0.2502  0.1948 -0.6584
13765SOL    HW144315   2.983   2.601   2.551  0.6576 -0.2988 -0.2390
13765SOL    HW244316   3.033   2.646   2.415 -2.6482  0.0483 -1.4067
13766SOL     OW44317   5.667   5.328   7.293 -0.1186  1.0157 -0.5467
13766SOL    HW144318   5.732   5.330   7.364  1.3885  0.9286 -1.9030
13766SOL    HW244319   5.583   5.316   7.338  0.8733  0.3983  1.1810
13767SOL     OW44320   2.536   4.336   9.035 -0.2447  0.7648  0.6559
13767SOL    HW144321   2.630   4.330   9.022 -0.0265  1.5594  1.8171
13767SOL    HW244322   2.525   4.392   9.112 -1.6042 -0.4378  1.3759
13768SOL     OW44323   0.450   0.073   0.447 -0.6817  0.0462 -0.2329
13768SOL    HW144324   0.533   0.023   0.446 -0.9135 -0.3326 -0.7498
13768SOL    HW244325   0.383   0.007   0.465 -1.0329  0.1152 -1.2818
13769SOL     OW44326   5.186   8.917   3.717  0.3878 -0.3518  0.1666
13769SOL    HW144327   5.269   8.875   3.737  0.3447  0.1814  1.4380
13769SOL    HW244328   5.207   9.009   3.705 -0.2416  0.0460  1.9994
13770SOL     OW44329   5.557   4.059   4.959  0.1640  0.3830 -0.0910
13770SOL    HW144330   5.517   4.028   4.878 -1.8946 -0.9120  1.3805
13770SOL    HW244331   5.564   4.154   4.948 -0.9133  0.3239 -1.4149
13771SOL     OW44332   8.948   6.272   2.150  0.3579 -0.2764  0.1729
13771SOL    HW144333   8.879   6.208   2.167 -1.8589  1.6987 -1.1599
13771SOL    HW244334   9.005   6.229   2.086 -2.2860 -0.1691 -2.3320
13772SOL     OW44335   3.884   2.095   1.812 -0.2680  0.0019 -0.2803
13772SOL    HW144336   3.967   2.049   1.827 -0.6582 -0.2727  1.0530
13772SOL    HW244337   3.910   2.185   1.793  0.4085 -0.3891 -1.2455
13773SOL     OW44338   6.955   3.248   7.280 -0.3054 -0.5116 -0.5264
13773SOL    HW144339   6.866   3.216   7.298  0.4687 -1.6929  1.3794
13773SOL    HW244340   7.012   3.176   7.306  1.3476  1.2798  1.0459
13774SOL     OW44341   5.087   2.355   5.280  0.5976  0.6534  0.3623
13774SOL    HW144342   5.078   2.307   5.362  2.1413 -1.0689 -0.4313
13774SOL    HW244343   5.010   2.331   5.229  1.2987 -0.9217  0.0231
13775SOL     OW44344   1.394   8.459   3.857  0.3908  0.3265  0.3047
13775SOL    HW144345   1.313   8.416   3.886  0.6900 -0.4860 -0.0831
13775SOL    HW244346   1.364   8.520   3.788  0.0008  0.6053  0.7141
13776SOL     OW44347   7.403   3.580   9.209  0.1879 -0.4284 -0.2648
13776SOL    HW144348   7.398   3.488   9.185  0.9893 -0.1989 -1.3374
13776SOL    HW244349   7.490   3.608   9.183  0.3280  0.3826  1.0045
13777SOL     OW44350   0.366   8.962   6.315 -0.0537  0.2686 -0.0997
13777SOL    HW144351   0.300   8.915   6.367 -1.1553  1.3173 -0.5091
13777SOL    HW244352   0.443   8.965   6.371 -0.3063 -1.0929  0.3422
13778SOL     OW44353   9.082   8.381   1.556 -0.0910  0.4028  0.2118
13778SOL    HW144354   9.073   8.413   1.646 -2.3677 -1.4066  0.6966
13778SOL    HW244355   9.058   8.456   1.502 -1.7877  0.6371  1.2262
13779SOL     OW44356   8.945   3.444   0.533  0.3753 -0.4204 -0.2396
13779SOL    HW144357   9.040   3.448   0.519  0.3824 -0.0385 -0.0725
13779SOL    HW244358   8.907   3.462   0.447  0.4401  0.5509 -0.0665
13780SOL     OW44359   5.442   9.301   9.420  0.3025 -0.4098 -0.4172
13780SOL    HW144360   5.389   9.283   9.497  0.7687  1.7260  0.4309
13780SOL    HW244361   5.507   9.365   9.450  0.8389  0.0242 -2.4409
13781SOL     OW44362   9.283   0.205   0.679 -0.6069 -0.0627  0.6561
13781SOL    HW144363   9.368   0.244   0.696 -0.7453  1.5640 -1.9986
13781SOL    HW244364   9.222   0.255   0.734 -0.3208  1.3324 -0.2539
13782SOL     OW44365   6.091   5.761   1.825 -0.2357 -0.0843  0.2889
13782SOL    HW144366   6.056   5.848   1.846 -0.0264 -0.6659  3.3676
13782SOL    HW244367   6.043   5.702   1.883  1.7080 -1.6181  0.3652
13783SOL     OW44368   2.748   9.232   6.072  0.3180 -0.4771  0.4623
13783SOL    HW144369   2.742   9.209   5.979 -1.4308 -0.2905  0.5229
13783SOL    HW244370   2.813   9.171   6.107  1.0898 -0.4728 -0.8927
13784SOL     OW44371   8.835   2.528   6.192 -0.1706 -0.1449 -0.0767
13784SOL    HW144372   8.790   2.580   6.125  0.2341 -0.5881 -0.6934
13784SOL    HW244373   8.765   2.479   6.235 -0.3550 -0.3981 -0.6552
13785SOL     OW44374   0.739   8.351   5.024  0.3242  0.4060  0.5333
13785SOL    HW144375   0.830   8.343   4.997  0.2737  1.0550  0.1625
13785SOL    HW244376   0.741   8.335   5.118  0.4007 -2.5571  0.0667
13786SOL     OW44377   3.732   4.235   5.919  0.1847  0.0427  0.0265
13786SOL    HW144378   3.663   4.228   5.985  0.4364  0.3745  0.3276
13786SOL    HW244379   3.744   4.329   5.906  1.0669  0.0064  0.4985
13787SOL     OW44380   6.879   4.126   0.088 -0.0754 -0.1089 -0.6143
13787SOL    HW144381   6.969   4.107   0.062 -0.0015 -0.6287  0.0057
13787SOL    HW244382   6.882   4.215   0.124  0.3859 -0.4913  0.3074
13788SOL     OW44383   3.423   9.100   7.415  0.2182  0.2870  0.2623
13788SOL    HW144384   3.480   9.118   7.340  0.6778  1.4270  0.8705
13788SOL    HW244385   3.348   9.054   7.378  0.4325  0.8594 -0.9064
13789SOL     OW44386   6.689   6.431   5.158 -0.4169 -0.4388 -0.1415
13789SOL    HW144387   6.596   6.420   5.180 -0.6549  0.0117 -0.9140
13789SOL    HW244388   6.698   6.394   5.070  0.1325 -0.4805 -0.0699
13790SOL     OW44389   7.174   2.545   0.580 -0.0065  0.4835  0.1088
13790SOL    HW144390   7.135   2.604   0.515 -1.2781 -1.4488 -0.9061
13790SOL    HW244391   7.112   2.473   0.588  2.3307 -1.5656  0.0980
13791SOL     OW44392   1.361   0.722   0.567 -0.4643  0.1350 -0.4595
13791SOL    HW144393   1.298   0.707   0.637  0.6040 -0.9054  0.3199
13791SOL    HW244394   1.362   0.640   0.517  0.2788  0.1329 -0.4495
13792SOL     OW44395   8.580   0.722   6.290  0.1732 -0.1492 -0.2796
13792SOL    HW144396   8.651   0.671   6.329 -1.1212  0.0637  2.4476
13792SOL    HW244397   8.529   0.657   6.241  0.7156 -0.7893 -0.0050
13793SOL     OW44398   7.007   2.010   3.651 -0.4664 -0.5016 -0.8754
13793SOL    HW144399   7.023   2.055   3.568 -1.1537 -0.7066 -1.1227
13793SOL    HW244400   6.924   1.964   3.637 -1.3118  0.6100  0.4055
13794SOL     OW44401   1.410   1.102   7.616 -0.1904 -0.6242  0.0674
13794SOL    HW144402   1.317   1.104   7.595 -0.6081  1.4445  1.8714
13794SOL    HW244403   1.452   1.147   7.542 -0.6941 -1.0627 -0.4828
13795SOL     OW44404   1.833   4.213   4.193 -0.8618 -0.5986  0.0770
13795SOL    HW144405   1.880   4.130   4.185  0.6339  0.1420  0.9504
13795SOL    HW244406   1.806   4.217   4.285 -1.0683 -0.1964  0.0027
13796SOL     OW44407   7.703   6.328   4.050  0.2420 -0.0824 -0.1157
13796SOL    HW144408   7.737   6.284   4.129 -0.9133 -0.7459  0.0199
13796SOL    HW244409   7.631   6.381   4.082 -0.2947 -0.4316 -0.7446
13797SOL     OW44410   6.621   5.762   7.494  0.1464 -0.2209 -0.5268
13797SOL    HW144411   6.704   5.714   7.496  1.5083  1.9202 -2.9146
13797SOL    HW244412   6.615   5.797   7.405 -0.2575  4.8373  1.3074
13798SOL     OW44413   6.432   8.268   7.028  0.1862  0.0536 -0.0470
13798SOL    HW144414   6.385   8.289   6.948 -0.0658  0.7612  0.2784
13798SOL    HW244415   6.420   8.174   7.039  0.2895 -0.0578 -0.8740
13799SOL     OW44416   4.412   0.910   5.262 -0.6930  0.4797 -0.3406
13799SOL    HW144417   4.492   0.919   5.315 -0.0115 -0.7288 -1.1448
13799SOL    HW244418   4.429   0.834   5.206 -1.6752  1.3142 -1.8009
13800SOL     OW44419   7.270   3.538   4.676 -0.4470 -0.4107 -0.7739
13800SOL    HW144420   7.189   3.492   4.656 -1.1865 -0.5027  2.1599
13800SOL    HW244421   7.244   3.629   4.691  0.6576  0.5111 -4.1076
13801SOL     OW44422   1.803   3.076   7.192  0.3864  0.0265  0.2209
13801SOL    HW144423   1.830   3.047   7.279 -0.8249 -0.2536  0.5142
13801SOL    HW244424   1.836   3.165   7.186 -0.2853  0.3723  1.3412
13802SOL     OW44425   4.038   2.399   5.210 -0.6973 -0.2608  0.4278
13802SOL    HW144426   3.997   2.326   5.162  0.5900 -1.6910  1.4643
13802SOL    HW244427   4.088   2.446   5.143 -2.4363  0.3637 -0.4743
13803SOL     OW44428   6.970   1.289   7.738 -0.2156  0.8737 -0.6987
13803SOL    HW144429   6.903   1.334   7.789  0.6685 -0.4653  1.7021
13803SOL    HW244430   7.011   1.229   7.800  0.7741 -0.9242 -3.0295
13804SOL     OW44431   4.152   3.356   6.712 -0.4768 -0.0726  0.1634
13804SOL    HW144432   4.146   3.437   6.762 -1.9222  0.8219 -1.3912
13804SOL    HW244433   4.203   3.379   6.634 -0.7400 -0.6861 -0.1994
13805SOL     OW44434   2.708   9.303   2.178  0.2481  0.0556 -0.1701
13805SOL    HW144435   2.792   9.268   2.148  0.4443  1.3032 -1.1699
13805SOL    HW244436   2.656   9.311   2.097  0.3931  2.4741 -0.0535
13806SOL     OW44437   7.789   8.273   8.202  0.2518  0.0932  0.2222
13806SOL    HW144438   7.704   8.310   8.223 -0.2872 -0.9807 -0.0641
13806SOL    HW244439   7.841   8.288   8.281 -0.3909  0.1726  0.6348
13807SOL     OW44440   8.849   0.001   1.312  0.4752 -0.5895  0.1585
13807SOL    HW144441   8.939  -0.021   1.290  0.3218 -0.3970 -0.6606
13807SOL    HW244442   8.841  -0.020   1.405  2.0988  1.8528  0.8794
13808SOL     OW44443   2.583   9.130   8.812 -0.9686 -0.5523  0.0929
13808SOL    HW144444   2.597   9.037   8.794  0.0145 -0.5426  0.8313
13808SOL    HW244445   2.573   9.135   8.907  0.4476  0.2963  0.1964
13809SOL     OW44446   0.320   7.415   6.890  0.3233 -0.3742 -0.2098
13809SOL    HW144447   0.249   7.390   6.830  0.0485 -0.4954  0.1672
13809SOL    HW244448   0.287   7.492   6.936  0.5848 -0.2091 -0.2971
13810SOL     OW44449   7.540   7.404   4.264 -0.2095 -0.0020 -0.0759
13810SOL    HW144450   7.605   7.463   4.227 -1.4123  1.1885 -0.3140
13810SOL    HW244451   7.456   7.443   4.242 -0.9875 -0.2523  2.2761
13811SOL     OW44452   8.897   8.925   7.022 -0.5300  0.3848  0.2383
13811SOL    HW144453   8.925   8.834   7.007 -2.2239 -0.2292  0.7113
13811SOL    HW244454   8.968   8.963   7.075  0.1626 -0.6790  0.0945
13812SOL     OW44455   1.579   8.174   2.656  0.0247 -0.1347  0.2851
13812SOL    HW144456   1.500   8.191   2.605 -1.3562 -2.4605  1.5394
13812SOL    HW244457   1.597   8.256   2.701 -1.6080  0.4594 -0.1328
13813SOL     OW44458   3.200   1.430   5.126  0.0876 -0.0358 -0.6659
13813SOL    HW144459   3.206   1.506   5.069  2.8838  0.5318  0.2894
13813SOL    HW244460   3.183   1.466   5.213  1.9311 -0.4272 -0.1215
13814SOL     OW44461   6.030   1.637   5.754 -0.5660 -0.1221 -0.1865
13814SOL    HW144462   5.984   1.575   5.810 -0.9065  1.6733  1.5964
13814SOL    HW244463   5.971   1.650   5.680 -2.1567  0.7441  1.1745
13815SOL     OW44464   2.640   1.914   7.115 -1.0973 -0.3575 -0.4377
13815SOL    HW144465   2.574   1.848   7.134 -0.8488 -0.7851 -1.0445
13815SOL    HW244466   2.720   1.880   7.155 -1.3836  0.4754  0.8701
13816SOL     OW44467   1.550   2.478   0.123  0.4403  0.0543  0.0981
13816SOL    HW144468   1.469   2.427   0.125  0.9514 -0.8872 -1.7579
13816SOL    HW244469   1.568   2.498   0.214 -1.3866 -0.5290  0.6068
13817SOL     OW44470   4.977   4.436   8.967 -0.2699 -0.3325 -0.2470
13817SOL    HW144471   4.985   4.443   9.062 -2.7179 -2.1586  0.1341
13817SOL    HW244472   4.968   4.526   8.937  2.1902  0.3825  1.0636
13818SOL     OW44473   8.492   0.090   8.611  0.1320 -0.0394  0.1591
13818SOL    HW144474   8.501   0.180   8.580  3.0751 -0.5818 -0.6775
13818SOL    HW244475   8.572   0.073   8.662 -0.0446 -2.4014 -0.2796
13819SOL     OW44476   9.062   1.884   7.480  0.1338  0.5283 -0.3726
13819SOL    HW144477   8.970   1.910   7.480 -0.0903 -0.2313  0.6348
13819SOL    HW244478   9.060   1.790   7.500  1.1646  0.6949  0.5631
13820SOL     OW44479   5.979   1.950   0.753 -0.3189  0.2089  0.0848
13820SOL    HW144480   5.989   2.028   0.699 -1.5005  0.3645  0.0584
13820SOL    HW244481   6.018   1.880   0.702  0.0689  0.6580 -0.2315
13821SOL     OW44482   0.469   1.636   1.139 -0.0839 -0.1588 -0.3939
13821SOL    HW144483   0.553   1.592   1.151 -1.4810 -2.5691  1.1012
13821SOL    HW244484   0.473   1.711   1.199  0.8197 -0.5557  0.0576
13822SOL     OW44485   0.749   3.502   6.015 -0.7608  0.1516  0.6350
13822SOL    HW144486   0.818   3.492   6.081 -0.0039  0.8351 -0.0313
13822SOL    HW244487   0.674   3.536   6.063 -0.5732 -0.3998  1.3366
13823SOL     OW44488   1.672   8.420   6.067 -0.5800  0.4708  0.4102
13823SOL    HW144489   1.616   8.488   6.105 -2.9728 -0.7859 -0.7417
13823SOL    HW244490   1.691   8.361   6.140 -2.7604 -0.3588  0.3664
13824SOL     OW44491   5.396   6.526   2.896  0.0880 -0.0764  0.0785
13824SOL    HW144492   5.325   6.467   2.870  0.2368  0.1486 -0.8580
13824SOL    HW244493   5.362   6.571   2.974 -2.2021  2.5537 -2.3518
13825SOL     OW44494   0.802   6.694   1.338  0.2262  0.3594 -0.4232
13825SOL    HW144495   0.773   6.722   1.251  1.2626  0.1139 -0.8598
13825SOL    HW244496   0.877   6.749   1.357 -0.7511  1.2670  0.8713
13826SOL     OW44497   5.011   3.404   1.494 -0.8243 -0.1593 -0.3549
13826SOL    HW144498   5.070   3.462   1.544 -0.5521 -0.5718 -0.1969
13826SOL    HW244499   4.958   3.361   1.562 -1.0233 -0.1038 -0.4741
13827SOL     OW44500   2.075   7.914   6.441  0.2315 -0.0515 -0.0422
13827SOL    HW144501   2.049   8.002   6.416 -1.2117 -1.0568 -2.1901
13827SOL    HW244502   2.010   7.888   6.507  1.0963  0.7353  1.1442
13828SOL     OW44503   1.771   8.353   9.122 -0.0827 -0.1319  0.2236
13828SOL    HW144504   1.688   8.399   9.112 -1.5588 -2.3540  1.8884
13828SOL    HW244505   1.767   8.282   9.059  0.6238 -0.1451  0.1906
13829SOL     OW44506   2.630   3.928   8.761  0.0885  0.2197 -0.0449
13829SOL    HW144507   2.705   3.981   8.787 -0.9840  0.4657  2.6375
13829SOL    HW244508   2.651   3.840   8.794 -0.7986  0.2934  0.7147
13830SOL     OW44509   1.418   2.865   8.094  0.5222  0.3997  0.6655
13830SOL    HW144510   1.419   2.771   8.077  2.8600  0.4270  0.4530
13830SOL    HW244511   1.481   2.877   8.166 -1.3490  1.5631  2.1651
13831SOL     OW44512   6.518   6.085   7.088 -0.3091 -0.1457  0.4960
13831SOL    HW144513   6.564   6.156   7.133 -2.3894  1.4537  0.1922
13831SOL    HW244514   6.535   6.008   7.142  1.0220  0.8255  1.4966
13832SOL     OW44515   7.591   2.567   0.439 -0.1684  0.4412  0.0409
13832SOL    HW144516   7.497   2.562   0.455 -0.5979  1.6353 -1.9205
13832SOL    HW244517   7.628   2.595   0.523 -1.2838 -2.1165  1.4384
13833SOL     OW44518   7.431   7.689   6.435 -0.7301  0.4151 -0.4056
13833SOL    HW144519   7.347   7.685   6.481 -0.0012  2.6115  1.1880
13833SOL    HW244520   7.488   7.740   6.493  1.8722 -1.4506 -1.2139
13834SOL     OW44521   7.413   4.994   3.841  0.3586 -0.2736 -0.1775
13834SOL    HW144522   7.445   4.909   3.870  2.3252  0.1988 -0.8882
13834SOL    HW244523   7.345   5.018   3.904  0.3151 -2.0183  0.4478
13835SOL     OW44524   1.699   3.232   5.883 -0.5547 -0.8110 -0.1439
13835SOL    HW144525   1.641   3.162   5.853 -0.6503 -0.8370  0.0999
13835SOL    HW244526   1.750   3.192   5.953 -1.5126 -0.2609  0.8649
13836SOL     OW44527   4.554   4.988   4.822 -0.0264 -0.2737  0.2127
13836SOL    HW144528   4.607   5.027   4.752  0.3193 -0.8582  0.1510
13836SOL    HW244529   4.575   4.895   4.820  1.2194 -0.0607  2.1644
13837SOL     OW44530   1.704   1.563   2.605  0.2207 -0.6611 -0.2626
13837SOL    HW144531   1.703   1.529   2.695  0.1926  0.1420  0.0467
13837SOL    HW244532   1.708   1.658   2.616  0.6854 -0.5806 -1.1171
13838SOL     OW44533   3.633   8.369   3.409 -0.0670 -0.6073 -0.1235
13838SOL    HW144534   3.678   8.290   3.441  1.8119 -0.0076 -1.2309
13838SOL    HW244535   3.652   8.371   3.315 -3.0771 -0.7440 -0.7739
13839SOL     OW44536   7.887   8.127   4.708  0.2201  0.3621  0.2789
13839SOL    HW144537   7.873   8.035   4.685 -0.3267  0.5978 -0.3438
13839SOL    HW244538   7.834   8.140   4.786  1.5768 -0.2683  1.3382
13840SOL     OW44539   8.308   6.879   8.929  0.5452  0.8069  0.3135
13840SOL    HW144540   8.388   6.849   8.971 -0.2830  0.3501  1.5951
13840SOL    HW244541   8.296   6.969   8.959  1.4786  1.4653 -1.2353
13841SOL     OW44542   3.788   5.887   4.945 -0.5091  0.3099 -0.1808
13841SOL    HW144543   3.735   5.843   4.879 -0.5252  0.7145 -0.4412
13841SOL    HW244544   3.770   5.840   5.026 -0.5328 -0.1515 -0.4561
13842SOL     OW44545   9.423   3.715   7.109 -0.3098  0.5005  0.3768
13842SOL    HW144546   9.338   3.685   7.078 -1.1652 -0.3366  3.4089
13842SOL    HW244547   9.447   3.653   7.178  3.2074  0.1792 -1.0312
13843SOL     OW44548   1.637   3.939   9.008  0.0785  0.1065 -1.0154
13843SOL    HW144549   1.589   3.948   9.090  1.9285 -0.5295  0.1837
13843SOL    HW244550   1.688   4.020   9.001 -0.5296  0.4247 -1.8594
13844SOL     OW44551   0.619   8.831   4.507 -0.0512 -0.2222  0.1836
13844SOL    HW144552   0.529   8.821   4.539 -0.1091 -0.0860  0.0674
13844SOL    HW244553   0.655   8.743   4.508  0.0734 -0.1654  0.9860
13845SOL     OW44554   1.135   0.718   2.751  0.2032  0.2854 -0.0684
13845SOL    HW144555   1.187   0.790   2.787  1.2869 -0.4978 -0.0723
13845SOL    HW244556   1.100   0.673   2.828  1.4327 -0.5854 -0.0124
13846SOL     OW44557   7.483   7.366   9.430 -0.1116 -0.6877 -0.6372
13846SOL    HW144558   7.526   7.280   9.431 -1.4659 -1.3826  0.3443
13846SOL    HW244559   7.508   7.407   9.513 -1.8340 -1.3831  0.2639
13847SOL     OW44560   8.880   2.906   8.888 -0.1392  0.0148  0.4707
13847SOL    HW144561   8.889   2.811   8.894 -1.0432 -0.0458  0.9636
13847SOL    HW244562   8.969   2.938   8.871 -0.4144 -1.2456 -3.8948
13848SOL     OW44563   4.261   4.767   2.435  0.6268  0.5390 -0.6416
13848SOL    HW144564   4.342   4.818   2.430  1.3595 -0.5947 -0.4458
13848SOL    HW244565   4.258   4.719   2.352  0.9228 -0.5650 -0.0225
13849SOL     OW44566   8.470   3.517   2.882  0.0651 -0.6104  0.4746
13849SOL    HW144567   8.430   3.602   2.901  0.2681 -0.9134  2.3562
13849SOL    HW244568   8.462   3.468   2.964  0.3669 -2.2474 -0.4502
13850SOL     OW44569   8.851   6.913   7.764 -0.2894  0.1543  0.1590
13850SOL    HW144570   8.888   6.986   7.812  1.4189  0.5485 -1.6900
13850SOL    HW244571   8.836   6.845   7.830 -0.3509  1.5649  1.6120
13851SOL     OW44572   7.827   5.897   2.973  0.2288 -0.3705 -0.0106
13851SOL    HW144573   7.801   5.915   3.063  1.0648 -0.6610  0.2888
13851SOL    HW244574   7.763   5.832   2.942 -0.5973  0.4001  0.0758
13852SOL     OW44575   2.312   7.332   3.822  0.4271  0.1520 -0.4050
13852SOL    HW144576   2.380   7.267   3.838 -1.0896 -1.2790  0.4086
13852SOL    HW244577   2.251   7.289   3.762 -0.8145  0.6453  0.4783
13853SOL     OW44578   7.195   5.116   6.538 -0.2614 -0.4370  0.2964
13853SOL    HW144579   7.271   5.170   6.518 -1.2260  1.4083  1.4361
13853SOL    HW244580   7.227   5.026   6.530  2.4866  0.2765  2.2988
13854SOL     OW44581   2.758   7.364   3.074 -0.0502 -0.1328 -0.0522
13854SOL    HW144582   2.781   7.389   2.985  1.9096  0.5414  0.6360
13854SOL    HW244583   2.665   7.339   3.068  0.4266 -1.4175 -2.5333
13855SOL     OW44584   7.633   7.835   5.795 -1.0008  0.0586  0.1694
13855SOL    HW144585   7.574   7.911   5.793  0.8791  1.5304 -1.1357
13855SOL    HW244586   7.706   7.860   5.738  0.9298 -1.6917  1.8033
13856SOL     OW44587   3.283   6.892   6.252 -0.8030 -0.0771 -0.2423
13856SOL    HW144588   3.261   6.981   6.279  0.0541  0.2017 -0.4580
13856SOL    HW244589   3.230   6.877   6.174 -0.8622  0.2794 -0.2716
13857SOL     OW44590   6.671   2.216   7.457 -0.0042  0.2297 -0.0519
13857SOL    HW144591   6.751   2.246   7.500  1.2506  0.7786 -2.6764
13857SOL    HW244592   6.689   2.126   7.432 -0.2750  0.3091 -0.5370
13858SOL     OW44593   6.770   0.000   3.104 -0.2500 -0.4612  0.0027
13858SOL    HW144594   6.675   0.011   3.105 -0.0619  1.5203 -0.9297
13858SOL    HW244595   6.804   0.088   3.122  1.4063 -1.4720  2.0382
13859SOL     OW44596   4.936   3.251   2.011 -0.0397 -0.6764  0.1729
13859SOL    HW144597   4.860   3.301   1.982  0.0443  0.4883  1.9048
13859SOL    HW244598   4.989   3.314   2.060  0.3176 -2.3249  1.9548
13860SOL     OW44599   7.751   3.966   8.407  0.3250 -0.2325  0.0370
13860SOL    HW144600   7.830   3.913   8.395  1.0981  0.9338 -0.0568
13860SOL    HW244601   7.779   4.039   8.462  0.2174  2.1491 -2.9420
13861SOL     OW44602   1.278   0.475   3.076  0.1608 -1.2705  0.7570
13861SOL    HW144603   1.305   0.423   2.999 -0.6714 -1.5551  0.6551
13861SOL    HW244604   1.234   0.551   3.039  1.0320 -0.6720  0.9208
13862SOL     OW44605   0.602   0.876   1.058 -0.1721 -0.6119  0.1356
13862SOL    HW144606   0.640   0.961   1.036  1.2304 -1.0795  0.6706
13862SOL    HW244607   0.637   0.816   0.992 -0.6286 -0.8978  0.1501
13863SOL     OW44608   2.516   1.414   8.050 -0.4332  0.1919 -0.1784
13863SOL    HW144609   2.467   1.459   8.119  3.2264 -0.3761  2.9513
13863SOL    HW244610   2.582   1.478   8.021  0.4210 -0.8261 -0.5283
13864SOL     OW44611   3.258   2.778   5.685  0.2421 -0.2652  0.3161
13864SOL    HW144612   3.170   2.807   5.661  0.1420 -0.6806  0.1810
13864SOL    HW244613   3.311   2.858   5.682 -0.0948 -0.0431  0.2376
13865SOL     OW44614   7.842   4.710   8.963  0.3911 -0.3507  0.7664
13865SOL    HW144615   7.843   4.638   9.026  1.7378  1.2822  2.6602
13865SOL    HW244616   7.755   4.750   8.974 -0.6434 -2.0654 -0.8038
13866SOL     OW44617   8.318   1.999   2.471 -0.1347 -0.2698  0.2075
13866SOL    HW144618   8.408   2.005   2.437 -0.3445 -1.7595 -0.6663
13866SOL    HW244619   8.263   2.028   2.398 -0.4418 -0.9214  0.1731
13867SOL     OW44620   5.493   5.986   6.184 -0.1105 -0.3154 -0.3246
13867SOL    HW144621   5.413   6.026   6.219  0.5998 -0.3838  1.4232
13867SOL    HW244622   5.536   6.056   6.137 -0.4645  0.1329  0.0113
13868SOL     OW44623   8.131   7.323   0.821  0.2575  0.5259 -0.2849
13868SOL    HW144624   8.208   7.350   0.771  0.6434  2.3873  1.2886
13868SOL    HW244625   8.166   7.266   0.889  0.2148  1.2547  0.3426
13869SOL     OW44626   2.517   3.933   5.074 -0.6466 -0.2975 -0.6655
13869SOL    HW144627   2.583   3.915   5.006 -0.6933  0.6149 -0.9600
13869SOL    HW244628   2.540   3.873   5.145  1.8199  1.4479  0.1039
13870SOL     OW44629   8.778   2.183   4.882  0.2733 -0.1396  0.4256
13870SOL    HW144630   8.729   2.265   4.888  0.0039 -0.2171 -0.6387
13870SOL    HW244631   8.712   2.116   4.862  0.7448 -0.2981 -0.6691
13871SOL     OW44632   1.119   7.139   5.443 -0.9215  0.0147  0.2946
13871SOL    HW144633   1.193   7.196   5.465 -0.9405 -0.4608  1.5952
13871SOL    HW244634   1.145   7.052   5.474 -1.9335 -0.2031  0.5540
13872SOL     OW44635   1.149   8.714   4.147  0.3667  0.1195  0.1837
13872SOL    HW144636   1.134   8.723   4.242  1.6340 -1.0948  0.5094
13872SOL    HW244637   1.235   8.754   4.133 -0.0957  0.8539 -0.5604
13873SOL     OW44638   9.163   4.278   3.516  0.5439  0.1848 -0.0288
13873SOL    HW144639   9.187   4.358   3.469  0.6861 -0.4782 -1.0960
13873SOL    HW244640   9.217   4.210   3.477  0.3582 -0.4572  0.8150
13874SOL     OW44641   3.205   7.370   0.298 -0.8455 -0.0044 -0.7571
13874SOL    HW144642   3.145   7.296   0.288  0.7808 -1.2133 -1.8861
13874SOL    HW244643   3.148   7.445   0.319 -2.5799 -1.4152 -0.2919
13875SOL     OW44644   7.387   6.423   1.953 -0.1747 -1.2583  0.0857
13875SOL    HW144645   7.294   6.440   1.966  0.3685  2.0675  0.0338
13875SOL    HW244646   7.396   6.408   1.859 -0.1662  2.1693 -0.5069
13876SOL     OW44647   3.666   3.520   3.953  0.4978 -0.0240  0.7708
13876SOL    HW144648   3.635   3.529   4.043  0.4564 -1.9675  0.9684
13876SOL    HW244649   3.732   3.451   3.957 -0.5252 -1.1303 -0.9098
13877SOL     OW44650   1.197   2.333   7.908 -0.4304  0.0541 -0.2268
13877SOL    HW144651   1.225   2.424   7.897 -1.1762  0.1601 -1.3851
13877SOL    HW244652   1.185   2.323   8.002 -1.4004  1.4851 -0.1790
13878SOL     OW44653   2.624   9.368   2.420 -0.5536  0.5943  0.8633
13878SOL    HW144654   2.658   9.360   2.331 -1.5136  0.3768  0.5165
13878SOL    HW244655   2.529   9.378   2.410 -0.4767  2.5282  1.7485
13879SOL     OW44656   2.856   4.836   1.855 -0.4333 -0.0023 -0.4082
13879SOL    HW144657   2.822   4.798   1.774 -0.3596  0.5655 -0.7068
13879SOL    HW244658   2.951   4.836   1.843 -0.5415  2.8676 -1.5913
13880SOL     OW44659   3.694   1.356   6.126  0.4385  0.2499 -0.2995
13880SOL    HW144660   3.674   1.293   6.057  1.1939 -0.3382  0.0156
13880SOL    HW244661   3.629   1.425   6.115 -1.3067 -1.2836  0.2739
13881SOL     OW44662   8.613   2.735   7.777  0.3937 -0.3540 -0.1866
13881SOL    HW144663   8.703   2.755   7.803  0.7517 -3.3181  1.0226
13881SOL    HW244664   8.575   2.690   7.852 -1.7081 -0.2812 -1.1624
13882SOL     OW44665   4.397   5.534   6.720 -0.0569 -0.4863  0.4650
13882SOL    HW144666   4.410   5.606   6.781 -0.4404  0.9809 -1.1280
13882SOL    HW244667   4.462   5.469   6.745  1.3667  1.0889  0.9450
13883SOL     OW44668   4.351   4.535   0.635 -0.0197  0.3572  0.2488
13883SOL    HW144669   4.286   4.482   0.589  1.0745 -0.0199 -0.8983
13883SOL    HW244670   4.419   4.472   0.661 -0.1002  0.7463  1.4226
13884SOL     OW44671   3.653   1.587   5.772 -0.2657 -0.1222 -0.4866
13884SOL    HW144672   3.692   1.654   5.717 -0.6774  1.6474  1.3285
13884SOL    HW244673   3.591   1.634   5.827 -0.8161 -2.0409  0.5722
13885SOL     OW44674   6.891   5.909   6.786 -0.7302 -0.3613 -0.3977
13885SOL    HW144675   6.890   5.931   6.879 -0.6102 -1.0255 -0.2381
13885SOL    HW244676   6.807   5.940   6.753 -0.3957  0.7282 -0.2726
13886SOL     OW44677   2.487   7.400   5.709  0.0081 -0.5084 -0.0946
13886SOL    HW144678   2.531   7.324   5.746 -2.8052 -3.1432 -1.8388
13886SOL    HW244679   2.412   7.414   5.766 -1.2537 -1.1151 -1.5658
13887SOL     OW44680   7.910   1.656   0.538  0.3179  0.4878 -0.3435
13887SOL    HW144681   7.861   1.669   0.619  1.5510 -0.9227  0.6465
13887SOL    HW244682   7.843   1.651   0.470 -0.9092 -0.9744  0.9296
13888SOL     OW44683   2.534   0.872   2.600 -0.1167  0.0448 -0.4078
13888SOL    HW144684   2.607   0.882   2.539  0.3178 -1.4095 -0.1488
13888SOL    HW244685   2.547   0.786   2.639 -1.7733 -0.0783 -0.0824
13889SOL     OW44686   3.320   2.739   1.900  0.3070  0.0596 -0.2895
13889SOL    HW144687   3.352   2.649   1.888  0.1148 -0.2449  1.2945
13889SOL    HW244688   3.269   2.757   1.821  0.8169 -1.0212 -0.8830
13890SOL     OW44689   6.644   3.004   9.095 -0.4668  0.5814 -0.2177
13890SOL    HW144690   6.719   3.018   9.037  1.2566 -2.6848  1.0608
13890SOL    HW244691   6.568   3.021   9.041  1.1399 -0.4217 -2.8979
13891SOL     OW44692   1.060   9.427   4.748  0.3882  0.0409  0.0135
13891SOL    HW144693   1.105   9.423   4.664 -0.5134 -0.5594 -0.4541
13891SOL    HW244694   1.038   9.520   4.759  0.2185  0.0708 -0.5713
13892SOL     OW44695   8.029   6.875   2.857  0.2556  0.1308  0.0985
13892SOL    HW144696   8.005   6.844   2.770  1.5881 -0.5643 -0.0201
13892SOL    HW244697   7.988   6.813   2.918 -0.1827  0.2786 -0.0479
13893SOL     OW44698   2.950   8.916   2.126  0.0720 -0.2906  0.2448
13893SOL    HW144699   2.946   8.887   2.217 -0.2634 -0.7374  0.0874
13893SOL    HW244700   2.890   8.858   2.079 -0.8389  0.8379 -0.0164
13894SOL     OW44701   6.548   5.741   6.326 -0.2233  0.0188  0.4128
13894SOL    HW144702   6.636   5.772   6.346  0.3043 -0.9179 -0.3888
13894SOL    HW244703   6.549   5.649   6.350 -0.2953 -0.5477 -1.6287
13895SOL     OW44704   0.693   2.851   4.592 -0.2625  0.1973 -0.1214
13895SOL    HW144705   0.686   2.944   4.574  1.2169  0.6841  1.6287
13895SOL    HW244706   0.616   2.830   4.644 -0.7845  0.3486 -0.8242
13896SOL     OW44707   8.770   0.990   8.916  0.4567 -0.0492 -0.3549
13896SOL    HW144708   8.820   1.022   8.841 -0.9809  2.6172 -0.2675
13896SOL    HW244709   8.798   1.047   8.988 -0.7709 -0.2573  0.2931
13897SOL     OW44710   1.099   9.289   5.419  0.4619  0.0994  0.2930
13897SOL    HW144711   1.015   9.268   5.461  0.4610  0.8807  0.6751
13897SOL    HW244712   1.164   9.280   5.489  0.3000  2.7562  0.8384
13898SOL     OW44713   8.181   4.396   6.938 -0.6142  0.9151 -0.0751
13898SOL    HW144714   8.098   4.353   6.921  0.0996 -0.3815 -0.3606
13898SOL    HW244715   8.225   4.398   6.853  0.7405 -0.8009  0.5641
13899SOL     OW44716   6.914   1.601   7.051  0.0403 -0.5147 -0.4041
13899SOL    HW144717   6.910   1.595   7.146  1.0507 -0.4985 -0.3596
13899SOL    HW244718   6.844   1.542   7.021  0.4027 -1.3319  0.3242
13900SOL     OW44719   3.374   2.422   1.754 -0.4388  0.1510 -0.6778
13900SOL    HW144720   3.290   2.431   1.710  0.3301 -1.0950 -2.4606
13900SOL    HW244721   3.438   2.411   1.683  1.4041  2.1803  0.5828
13901SOL     OW44722   6.558   8.836   6.006  0.4981  0.1329 -0.0494
13901SOL    HW144723   6.505   8.905   5.967 -0.5395  1.0200  2.7745
13901SOL    HW244724   6.608   8.881   6.075  1.2672 -1.5927  0.5503
13902SOL     OW44725   7.027   1.995   4.651 -0.3972  0.2097 -0.9981
13902SOL    HW144726   7.024   2.084   4.616 -3.0359 -0.3742 -2.4481
13902SOL    HW244727   7.060   1.942   4.579  0.0493 -0.1426 -0.5340
13903SOL     OW44728   6.244   5.756   5.266  0.6913 -0.1729 -0.2422
13903SOL    HW144729   6.278   5.842   5.243 -1.0789  0.7374  0.3854
13903SOL    HW244730   6.149   5.766   5.260  0.5063 -2.8762 -2.9465
13904SOL     OW44731   6.375   2.685   5.638  0.0114  0.0146 -0.3594
13904SOL    HW144732   6.425   2.618   5.591  0.9696  0.1046  0.5074
13904SOL    HW244733   6.297   2.639   5.669  0.1951 -0.4663 -0.5966
13905SOL     OW44734   2.492   8.663   7.795 -0.0959  0.0134  0.4870
13905SOL    HW144735   2.482   8.568   7.798 -0.0851 -0.0014  0.0527
13905SOL    HW244736   2.480   8.691   7.886 -2.7182 -0.1492  0.2317
13906SOL     OW44737   2.063   5.751   3.807  0.4939 -0.3041  0.0855
13906SOL    HW144738   1.971   5.730   3.793  0.5016 -1.2706  1.4143
13906SOL    HW244739   2.110   5.696   3.744  0.2185 -0.5196  0.0684
13907SOL     OW44740   1.451   8.107   1.034 -0.7486 -0.0704 -0.1617
13907SOL    HW144741   1.441   8.147   0.948 -1.8515  1.0201  0.4582
13907SOL    HW244742   1.510   8.033   1.019  2.0545  2.2319 -1.2094
13908SOL     OW44743   3.398   6.331   5.813  0.0173  0.0286 -0.1204
13908SOL    HW144744   3.389   6.426   5.824 -0.7820  0.1903 -1.9480
13908SOL    HW244745   3.398   6.296   5.902  0.0225  1.7183  0.5611
13909SOL     OW44746   0.356   6.800   0.619 -0.7030 -0.4535  0.8837
13909SOL    HW144747   0.428   6.747   0.653  0.3639  0.4300  0.0321
13909SOL    HW244748   0.362   6.791   0.524 -0.9959  0.5700  0.7643
13910SOL     OW44749   5.111   3.488   4.723 -0.1029  0.2619  0.8201
13910SOL    HW144750   5.120   3.582   4.733 -0.4069  0.1475  2.3673
13910SOL    HW244751   5.021   3.475   4.694  0.8581  0.6190 -2.5531
13911SOL     OW44752   5.519   2.867   7.828 -0.5740  0.5441 -0.5080
13911SOL    HW144753   5.503   2.775   7.806 -2.1094  0.6973 -0.0568
13911SOL    HW244754   5.535   2.867   7.922  2.4848  0.3642 -0.9607
13912SOL     OW44755   2.678   5.292   0.109  0.6204  0.5419  0.0763
13912SOL    HW144756   2.689   5.327   0.198  0.8061 -0.1970  0.3416
13912SOL    HW244757   2.712   5.361   0.052  0.8500  0.8607  0.5984
13913SOL     OW44758   7.952   2.322   0.174  0.4403 -0.5706 -0.1720
13913SOL    HW144759   8.011   2.264   0.222  2.5161  0.4300 -1.4394
13913SOL    HW244760   8.004   2.352   0.098 -1.9418 -0.2521 -1.7322
13914SOL     OW44761   0.980   3.069   3.582  0.9298 -0.1619  0.1154
13914SOL    HW144762   0.903   3.023   3.616  1.0750 -0.8739 -0.4924
13914SOL    HW244763   0.947   3.120   3.508  1.0966 -0.7336 -0.3582
13915SOL     OW44764   8.062   8.507   0.351  0.0925  0.1884 -0.0564
13915SOL    HW144765   8.004   8.435   0.373  0.9670 -0.2409  0.8806
13915SOL    HW244766   8.149   8.467   0.344  0.5812  1.1316  0.4713
13916SOL     OW44767   2.504   0.491   3.379  0.4314  0.5759 -0.5986
13916SOL    HW144768   2.512   0.439   3.459 -0.7390  0.3881 -0.6044
13916SOL    HW244769   2.457   0.434   3.318 -1.7157  1.9823 -0.2877
13917SOL     OW44770   8.988   8.091   4.612  0.4439 -0.3274  0.1647
13917SOL    HW144771   8.925   8.116   4.545  0.0508 -1.4005  0.1251
13917SOL    HW244772   9.062   8.056   4.564  1.1491  1.0832  0.2060
13918SOL     OW44773   7.094   8.014   3.639  0.0527  0.3466  0.0794
13918SOL    HW144774   7.161   8.076   3.669  0.0960 -0.8575  2.5945
13918SOL    HW244775   7.011   8.057   3.661  0.0494  0.2058  0.3343
13919SOL     OW44776   0.904   7.895   9.119  0.4969 -0.1216  0.3131
13919SOL    HW144777   0.817   7.855   9.127  0.2021  0.7971  1.9375
13919SOL    HW244778   0.890   7.974   9.067  0.6520 -0.8052 -0.7864
13920SOL     OW44779   0.211   5.277   4.865  0.0690 -0.0318  0.5958
13920SOL    HW144780   0.245   5.206   4.920 -2.6776  1.0110  3.8265
13920SOL    HW244781   0.187   5.234   4.783  4.0597 -1.6816  0.1687
13921SOL     OW44782   4.596   8.097   2.526 -0.3751 -0.0525 -0.7129
13921SOL    HW144783   4.583   8.059   2.613 -0.5980 -0.4422 -0.9183
13921SOL    HW244784   4.549   8.181   2.530 -1.0326 -0.4195 -0.7052
13922SOL     OW44785   5.586   1.084   7.013  0.0411  0.6235  0.4555
13922SOL    HW144786   5.613   1.097   6.923  0.6857 -0.7551  0.4388
13922SOL    HW244787   5.522   1.013   7.009 -0.7898  1.3300  0.9531
13923SOL     OW44788   3.050   0.806   3.198 -0.0272 -0.8190 -0.2503
13923SOL    HW144789   3.013   0.718   3.199 -2.7631  0.2675  1.8375
13923SOL    HW244790   3.065   0.827   3.290 -2.5184  2.0967 -0.4329
13924SOL     OW44791   1.308   0.671   9.129 -0.5347  0.1175 -0.2443
13924SOL    HW144792   1.280   0.585   9.161  1.7493 -0.6509 -0.2542
13924SOL    HW244793   1.403   0.664   9.120 -0.6921  1.4743 -3.7040
13925SOL     OW44794   2.632   1.933   1.635  0.4606  0.0560 -0.2288
13925SOL    HW144795   2.575   1.947   1.559 -0.8052  0.7485  0.8138
13925SOL    HW244796   2.596   1.856   1.678  2.1710 -1.3098 -1.2118
13926SOL     OW44797   7.679   5.986   5.277  0.8352 -0.1019 -0.1505
13926SOL    HW144798   7.757   5.949   5.236 -0.2158 -1.3272 -1.0624
13926SOL    HW244799   7.683   5.955   5.368  0.7379 -1.2239 -0.5238
13927SOL     OW44800   4.837   4.349   1.064 -0.0759 -0.4644 -0.0183
13927SOL    HW144801   4.812   4.382   0.978 -0.1362  0.1088  0.2159
13927SOL    HW244802   4.916   4.398   1.086 -1.2749  1.0012  1.2057
13928SOL     OW44803   6.729   5.738   2.840 -0.0481  0.0085 -0.0306
13928SOL    HW144804   6.820   5.735   2.867 -0.1134 -0.1067  0.1749
13928SOL    HW244805   6.733   5.754   2.746  0.1795  0.1692  0.0054
13929SOL     OW44806   6.883   1.533   7.610 -0.0794 -0.1552 -0.0477
13929SOL    HW144807   6.913   1.451   7.649  1.8097  0.8493  0.6682
13929SOL    HW244808   6.797   1.548   7.648 -0.8762 -2.2922 -0.9207
13930SOL     OW44809   6.945   2.556   7.725  0.1136  0.3357  0.1672
13930SOL    HW144810   6.905   2.528   7.808 -0.0625  0.2245  0.0447
13930SOL    HW244811   6.878   2.540   7.659  0.6394 -0.5841 -0.1521
13931SOL     OW44812   2.830   3.429   1.735  0.2321 -0.2979  0.1129
13931SOL    HW144813   2.790   3.347   1.705  0.7821 -0.6950  0.4593
13931SOL    HW244814   2.844   3.479   1.655 -1.4937  0.0930  0.0379
13932SOL     OW44815   5.832   9.203   4.889  0.8112  0.4584 -0.2728
13932SOL    HW144816   5.906   9.145   4.907  2.2781  2.4200  0.3559
13932SOL    HW244817   5.856   9.247   4.807 -0.9182 -0.7912 -1.4784
13933SOL     OW44818   6.689   7.521   0.848  0.3063 -0.2064  0.5953
13933SOL    HW144819   6.713   7.458   0.780 -0.0757  1.0014 -0.6990
13933SOL    HW244820   6.772   7.541   0.892  0.6603 -0.5980  0.1150
13934SOL     OW44821   6.708   3.036   2.006  0.1008  0.0332  0.1222
13934SOL    HW144822   6.678   2.951   2.038 -2.1920  0.7653  0.0110
13934SOL    HW244823   6.683   3.098   2.075  2.5594  0.5179  0.6106
13935SOL     OW44824   8.335   6.613   6.406 -0.6863  0.3952  0.1454
13935SOL    HW144825   8.398   6.543   6.397 -1.6721 -0.2898 -1.9185
13935SOL    HW244826   8.372   6.672   6.472  2.1258  0.0708 -1.1001
13936SOL     OW44827   2.450   1.231   5.135 -0.4179  0.0972  0.0521
13936SOL    HW144828   2.478   1.141   5.117 -0.8923  0.2897 -1.7495
13936SOL    HW244829   2.496   1.283   5.069 -0.6932  1.1002  0.6461
13937SOL     OW44830   0.617   5.740   3.072 -0.2739  0.5359 -0.3453
13937SOL    HW144831   0.549   5.770   3.133 -1.2322 -1.7842 -0.2050
13937SOL    HW244832   0.688   5.803   3.082 -1.0291  1.0733  2.0545
13938SOL     OW44833   6.790   7.639   0.533 -0.3396  0.3319 -0.1410
13938SOL    HW144834   6.779   7.545   0.549  0.2504  0.2582 -0.1664
13938SOL    HW244835   6.882   7.656   0.551 -0.4951  0.9533  0.0714
13939SOL     OW44836   4.513   9.308   6.513 -0.1145 -0.1567  0.2988
13939SOL    HW144837   4.457   9.278   6.584  0.1264 -0.2479  0.4483
13939SOL    HW244838   4.519   9.403   6.525 -0.0662 -0.1737  0.4039
13940SOL     OW44839   0.508   0.066   2.665  0.2094  0.5310 -0.9339
13940SOL    HW144840   0.587   0.016   2.682 -0.4700 -0.4009 -0.5022
13940SOL    HW244841   0.437   0.001   2.663 -0.7663  1.5264  0.2353
13941SOL     OW44842   3.018   4.552   1.063 -0.2677 -0.2584 -0.0205
13941SOL    HW144843   3.104   4.522   1.091 -1.6018 -1.4775  3.0606
13941SOL    HW244844   2.987   4.486   1.001  1.7644  1.2124 -2.6815
13942SOL     OW44845   4.034   1.360   8.377  0.0425  0.5537 -0.2192
13942SOL    HW144846   4.125   1.357   8.407  0.3510  1.3679 -1.0497
13942SOL    HW244847   3.988   1.296   8.432  0.7761  1.3495  1.3446
13943SOL     OW44848   5.196   2.082   4.745 -0.1466  0.2639  0.0598
13943SOL    HW144849   5.251   2.147   4.701 -0.2232 -0.8283 -1.7184
13943SOL    HW244850   5.229   2.079   4.835  1.7009  0.7125 -0.5824
13944SOL     OW44851   6.902   3.908   1.057  0.4318 -0.1663 -0.7704
13944SOL    HW144852   6.881   3.997   1.085 -0.2868 -0.6949  0.4489
13944SOL    HW244853   6.985   3.888   1.100  0.3648 -0.2295 -0.6669
13945SOL     OW44854   3.612   2.009   6.452 -0.2961 -0.1421 -0.0663
13945SOL    HW144855   3.576   1.977   6.534  1.6182 -0.5153  0.6607
13945SOL    HW244856   3.597   1.938   6.390 -1.6951  0.1170 -0.0484
13946SOL     OW44857   5.516   0.794   8.670 -0.3536  0.7454 -0.0376
13946SOL    HW144858   5.543   0.828   8.755  0.0830  1.0979 -0.3139
13946SOL    HW244859   5.423   0.777   8.679 -0.2998  0.7380  0.5278
13947SOL     OW44860   0.979   6.734   0.748 -0.1262  0.0038 -0.6527
13947SOL    HW144861   0.923   6.657   0.736 -0.2789 -0.2071  1.2748
13947SOL    HW244862   0.917   6.807   0.756 -0.0413  0.0954 -0.8325
13948SOL     OW44863   4.495   1.654   3.174 -0.5718 -0.6556  0.2675
13948SOL    HW144864   4.480   1.690   3.086  0.0897 -0.3837  0.2620
13948SOL    HW244865   4.517   1.562   3.158 -1.0791 -0.7714  0.1998
13949SOL     OW44866   6.021   3.180   8.441  0.0986 -0.5123 -0.0016
13949SOL    HW144867   6.028   3.087   8.466  4.4309 -0.3086 -0.1000
13949SOL    HW244868   6.004   3.225   8.524  0.6076 -1.1386  0.4481
13950SOL     OW44869   8.072   8.761   6.391 -0.2210 -0.0412 -0.3092
13950SOL    HW144870   8.146   8.777   6.450 -1.1217  1.2938  0.4879
13950SOL    HW244871   8.006   8.718   6.445 -1.0769  1.2412 -0.3103
13951SOL     OW44872   8.045   5.171   8.325 -0.3097 -0.3630 -0.4016
13951SOL    HW144873   8.090   5.122   8.256 -0.3894  0.4546 -1.0434
13951SOL    HW244874   7.952   5.151   8.312 -0.1023 -2.3443  1.1556
13952SOL     OW44875   8.429   5.949   6.425 -0.0112 -1.0112 -0.1722
13952SOL    HW144876   8.361   6.010   6.455 -0.1731 -1.1202 -0.3124
13952SOL    HW244877   8.511   5.994   6.442 -0.0763 -1.3131  0.9634
13953SOL     OW44878   4.859   1.778   3.440 -0.8436 -0.0515  0.1229
13953SOL    HW144879   4.910   1.854   3.470  0.1227  0.5031 -2.7688
13953SOL    HW244880   4.770   1.811   3.432 -0.3533  0.9185 -1.5159
13954SOL     OW44881   4.069   1.976   4.129  0.4205 -0.1673 -0.2231
13954SOL    HW144882   4.140   1.915   4.108  1.1990  1.7746 -3.6034
13954SOL    HW244883   3.990   1.922   4.123  1.3659 -1.6735  0.5745
13955SOL     OW44884   2.751   8.365   9.312 -0.1385 -0.4427 -0.7764
13955SOL    HW144885   2.698   8.360   9.233 -1.1654 -0.7861 -0.0672
13955SOL    HW244886   2.709   8.433   9.365  0.7571  0.0432 -0.6710
13956SOL     OW44887   8.608   7.842   3.056  0.2338 -0.6053 -0.4173
13956SOL    HW144888   8.578   7.908   3.118 -0.8716 -0.9258 -0.5992
13956SOL    HW244889   8.683   7.800   3.099  0.8784  0.6899 -0.2621
13957SOL     OW44890   2.375   8.406   8.853 -0.4699  0.3480  0.2437
13957SOL    HW144891   2.366   8.366   8.767  1.1132  0.8316 -0.1638
13957SOL    HW244892   2.377   8.500   8.835  2.0676  0.3898  0.5584
13958SOL     OW44893   9.201   8.699   2.677  0.4450 -0.6406  0.5678
13958SOL    HW144894   9.128   8.637   2.680 -0.9206  0.9861  1.3401
13958SOL    HW244895   9.246   8.688   2.761 -0.4327  0.1552  1.1503
13959SOL     OW44896   2.443   4.118   4.715  0.1136 -0.1738  0.2734
13959SOL    HW144897   2.481   4.129   4.628  0.4039  0.2749  0.4601
13959SOL    HW244898   2.472   4.031   4.743  0.7056  0.0200  0.2689
13960SOL     OW44899   4.745   5.737   9.112 -0.2059  0.5242 -0.3360
13960SOL    HW144900   4.834   5.768   9.095 -0.8217  1.8414 -1.3216
13960SOL    HW244901   4.729   5.672   9.043 -0.4558  1.2325 -0.9540
13961SOL     OW44902   9.097   5.714   7.572 -0.2340  0.0996 -0.1263
13961SOL    HW144903   9.171   5.662   7.542  0.4235  1.4229 -0.8579
13961SOL    HW244904   9.043   5.653   7.623  1.2021 -0.9464  0.1600
13962SOL     OW44905   4.619   8.139   8.772 -0.3168 -0.0030 -0.4249
13962SOL    HW144906   4.669   8.149   8.691  0.1340 -0.9815 -0.2721
13962SOL    HW244907   4.661   8.067   8.817 -1.0162  0.0730  0.3563
13963SOL     OW44908   9.360   5.474   2.886 -0.4546 -0.1121 -0.1206
13963SOL    HW144909   9.277   5.453   2.844 -0.5620  0.6145 -0.2806
13963SOL    HW244910   9.381   5.562   2.855  1.2333 -0.9282 -1.4383
13964SOL     OW44911   0.932   8.732   1.766 -0.1876  0.3718  0.2486
13964SOL    HW144912   0.916   8.813   1.717 -0.0339 -0.1571 -0.6921
13964SOL    HW244913   0.861   8.674   1.740  1.6101 -1.0134 -1.8045
13965SOL     OW44914   7.776   6.076   6.184 -0.4804 -0.1280 -0.1710
13965SOL    HW144915   7.791   6.110   6.096  0.9986  1.5359  0.6957
13965SOL    HW244916   7.733   5.991   6.170 -1.8187  0.8720 -2.4321
13966SOL     OW44917   0.397   8.467   0.922  0.0403 -0.7072 -0.4903
13966SOL    HW144918   0.354   8.515   0.992 -0.4854  0.8170 -1.8288
13966SOL    HW244919   0.463   8.414   0.967 -0.2195  0.3040  1.1364
13967SOL     OW44920   8.467   8.771   1.196  0.2480  1.0210 -0.5501
13967SOL    HW144921   8.518   8.720   1.259 -3.1887  1.5635  2.8502
13967SOL    HW244922   8.473   8.720   1.115  2.9249 -0.9179  0.7543
13968SOL     OW44923   4.598   4.008   7.930 -0.2744 -0.4915  0.0359
13968SOL    HW144924   4.631   4.088   7.971  2.3430 -1.4008 -0.2202
13968SOL    HW244925   4.592   3.945   8.002 -3.3734  0.2105  0.4366
13969SOL     OW44926   7.602   7.600   3.735 -0.0026  0.4152 -0.2303
13969SOL    HW144927   7.650   7.524   3.702 -0.0517  1.3091 -2.4206
13969SOL    HW244928   7.519   7.563   3.766 -0.1528 -0.4148 -1.5556
13970SOL     OW44929   4.016   7.969   8.952  0.4537  0.8774  0.3192
13970SOL    HW144930   3.937   7.931   8.913 -0.7161  0.5147  2.9876
13970SOL    HW244931   3.986   8.052   8.990  2.2773  2.8663 -2.4044
13971SOL     OW44932   1.926   0.122   2.020 -0.5358  0.8080 -0.6603
13971SOL    HW144933   2.010   0.121   1.975 -0.1200 -0.3921  0.1101
13971SOL    HW244934   1.898   0.214   2.017 -0.5111  0.7582 -3.2786
13972SOL     OW44935   6.728   1.742   4.554  0.0127 -0.0772 -0.3930
13972SOL    HW144936   6.644   1.702   4.577 -0.9629  2.3347  0.2875
13972SOL    HW244937   6.729   1.743   4.458 -0.6274 -0.3034 -0.4042
13973SOL     OW44938   5.551   4.056   2.154  0.1020 -0.0085  0.8822
13973SOL    HW144939   5.617   4.105   2.202 -0.1570 -0.8959  2.1798
13973SOL    HW244940   5.588   4.044   2.067  0.8770  1.0330  1.0561
13974SOL     OW44941   4.979   2.888   7.256 -0.4258 -0.0744 -0.2416
13974SOL    HW144942   5.024   2.839   7.325 -1.1301  0.8032  0.8634
13974SOL    HW244943   5.016   2.854   7.174  1.8224  0.2313  0.6186
13975SOL     OW44944   1.829   4.796   7.152 -0.0331  0.2968  0.5808
13975SOL    HW144945   1.770   4.733   7.192 -1.1741  0.7470 -0.3896
13975SOL    HW244946   1.912   4.785   7.200 -0.5943 -1.0353  1.2574
13976SOL     OW44947   5.301   2.646   6.726  0.2933 -0.7297 -0.3066
13976SOL    HW144948   5.348   2.641   6.643  1.4105  0.5366  0.2328
13976SOL    HW244949   5.231   2.710   6.710  1.1802  0.3370  0.0377
13977SOL     OW44950   4.488   1.560   9.371  0.0618 -0.1598 -0.8046
13977SOL    HW144951   4.568   1.524   9.334 -1.2180 -2.0813 -1.7624
13977SOL    HW244952   4.504   1.563   9.465  1.3783 -0.1900 -1.0250
13978SOL     OW44953   7.287   2.177   8.778  0.6927  0.1795  0.0149
13978SOL    HW144954   7.316   2.244   8.716 -1.0514  1.2029  0.2677
13978SOL    HW244955   7.226   2.223   8.836 -0.1317 -1.5017  0.5240
13979SOL     OW44956   9.217   1.162   6.071 -0.0655  0.7593  0.1577
13979SOL    HW144957   9.150   1.141   6.135  0.1849  1.3837  0.6266
13979SOL    HW244958   9.296   1.119   6.104 -0.4814 -0.9547 -0.9928
13980SOL     OW44959   4.993   2.242   7.045  0.3777  0.4391 -0.5848
13980SOL    HW144960   4.996   2.163   6.991  0.3979 -0.0349  0.1024
13980SOL    HW244961   4.977   2.314   6.982  1.4824  0.0313 -1.3406
13981SOL     OW44962   1.988   1.339   2.804 -0.2011 -0.2578 -0.7311
13981SOL    HW144963   2.016   1.311   2.717 -0.8463  0.0265 -1.0284
13981SOL    HW244964   1.897   1.366   2.793  0.1931  1.3254 -0.3079
13982SOL     OW44965   0.865   1.492   3.400  0.2462 -0.1325  0.3798
13982SOL    HW144966   0.929   1.513   3.332  0.9263 -1.0389  0.7349
13982SOL    HW244967   0.869   1.566   3.461 -0.9255  1.0528 -0.9613
13983SOL     OW44968   0.272   7.345   7.693 -0.1523 -0.1548 -0.4244
13983SOL    HW144969   0.178   7.355   7.708 -0.1490 -0.5725 -0.1277
13983SOL    HW244970   0.297   7.269   7.746  0.4372  0.2294 -0.1481
13984SOL     OW44971   4.769   5.876   3.388 -0.3806  0.5124 -0.5391
13984SOL    HW144972   4.720   5.930   3.326 -0.7751  0.9546  0.1513
13984SOL    HW244973   4.855   5.864   3.347 -0.3476  1.5188 -0.7789
13985SOL     OW44974   3.345   7.788   2.431 -0.2665  0.0049  0.4331
13985SOL    HW144975   3.387   7.774   2.516 -0.9454 -2.0016  0.4610
13985SOL    HW244976   3.414   7.771   2.368 -0.0255  0.5190  0.5531
13986SOL     OW44977   3.459   2.503   2.782 -1.3372  0.7984 -0.6504
13986SOL    HW144978   3.495   2.591   2.776 -2.4795  1.3727  0.6199
13986SOL    HW244979   3.419   2.487   2.696 -1.4989  1.6739 -0.7356
13987SOL     OW44980   9.142   3.780   6.777  0.3726 -0.0859 -0.5200
13987SOL    HW144981   9.107   3.740   6.857 -1.4874  1.4214 -0.5508
13987SOL    HW244982   9.188   3.859   6.807 -0.6554  0.6889 -0.9666
13988SOL     OW44983   2.754   7.838   2.932 -0.2031 -0.6018 -0.5737
13988SOL    HW144984   2.814   7.823   2.859 -0.3804 -1.6317 -0.5205
13988SOL    HW244985   2.782   7.922   2.970  2.4600 -1.9690  0.6340
13989SOL     OW44986   8.162   2.284   0.930 -0.2073 -0.3963  0.5336
13989SOL    HW144987   8.188   2.362   0.979 -0.1138  0.0091 -0.1658
13989SOL    HW244988   8.172   2.212   0.993  1.4516 -0.0905  0.6360
13990SOL     OW44989   5.507   1.402   1.823 -0.5027  0.1830  0.1045
13990SOL    HW144990   5.457   1.426   1.901  1.0136 -1.3430  1.5781
13990SOL    HW244991   5.568   1.474   1.810 -0.9834  0.5944  0.1073
13991SOL     OW44992   2.556   3.376   3.401 -0.1529  0.3844  0.0756
13991SOL    HW144993   2.534   3.466   3.422 -2.0379 -0.1320  0.4131
13991SOL    HW244994   2.490   3.349   3.336  0.5862 -0.6488 -0.2727
13992SOL     OW44995   0.681   4.910   6.150 -0.7787  0.1574  0.0844
13992SOL    HW144996   0.663   4.830   6.201 -1.1245  0.8891  1.1289
13992SOL    HW244997   0.646   4.981   6.204  0.2055  1.0900 -0.4923
13993SOL     OW44998   5.258   4.737   0.591  0.3220  0.1224  0.3013
13993SOL    HW144999   5.188   4.775   0.538  2.0889  2.5323 -0.3763
13993SOL    HW245000   5.336   4.745   0.536  1.2724 -1.9584  1.2922
13994SOL     OW45001   8.270   7.365   8.210  0.4425 -0.3721  0.2785
13994SOL    HW145002   8.304   7.364   8.121  0.4267 -1.7990  0.2758
13994SOL    HW245003   8.337   7.320   8.262 -0.7920 -2.0002  0.5066
13995SOL     OW45004   0.054   5.472   3.608  0.0658 -0.4344 -0.1434
13995SOL    HW145005   0.030   5.475   3.701 -1.7711 -0.6906 -0.6010
13995SOL    HW245006   0.124   5.537   3.600  0.7746 -0.9451  1.5565
13996SOL     OW45007   3.507   4.583   7.806 -0.3568 -0.1881  0.3563
13996SOL    HW145008   3.478   4.622   7.724 -0.9082 -0.2559  0.5121
13996SOL    HW245009   3.595   4.618   7.820  0.4865 -1.6144 -1.2017
13997SOL     OW45010   1.863   8.686   5.412 -0.4777 -0.0682 -0.3210
13997SOL    HW145011   1.881   8.596   5.440 -0.2797 -0.0302 -0.3255
13997SOL    HW245012   1.814   8.677   5.330 -1.4096 -0.1793  0.2515
13998SOL     OW45013   1.517   5.733   4.962 -0.7399  0.4611  0.2387
13998SOL    HW145014   1.578   5.714   5.032 -0.6613  1.4805  0.4447
13998SOL    HW245015   1.549   5.814   4.922  0.0540 -0.8583 -1.9169
13999SOL     OW45016   0.575   9.248   0.769  0.2242 -0.2646  0.1251
13999SOL    HW145017   0.520   9.313   0.813 -1.5774 -1.4933 -0.2287
13999SOL    HW245018   0.512   9.186   0.731  1.8807 -1.9685  0.0966
14000SOL     OW45019   5.881   1.270   4.043  0.0150 -0.6112 -0.5748
14000SOL    HW145020   5.819   1.197   4.038 -0.0220 -0.6242  0.0470
14000SOL    HW245021   5.826   1.348   4.040  0.0337 -0.6069 -0.9038
14001SOL     OW45022   8.152   0.648   6.288  0.3499  0.0586  0.6338
14001SOL    HW145023   8.088   0.671   6.356 -2.1303 -1.3094 -1.1573
14001SOL    HW245024   8.202   0.728   6.274 -4.2815  2.7783 -1.4139
14002SOL     OW45025   1.906   0.493   5.371 -0.0308 -0.1242  0.2151
14002SOL    HW145026   1.917   0.527   5.282 -0.0435 -2.1352 -0.6023
14002SOL    HW245027   1.811   0.488   5.382 -0.0516  2.0767  1.1422
14003SOL     OW45028   5.040   7.965   6.109 -0.1175  0.0556  0.4388
14003SOL    HW145029   4.976   7.894   6.108 -0.0319 -0.0323  1.4657
14003SOL    HW245030   5.120   7.926   6.144  0.1369  0.4819  0.3401
14004SOL     OW45031   5.678   8.347   6.099  0.5578 -0.1433  0.4741
14004SOL    HW145032   5.583   8.348   6.094  0.5873 -0.2098 -0.1972
14004SOL    HW245033   5.707   8.342   6.008  1.1778 -2.4130  0.7741
14005SOL     OW45034   1.585   0.960   9.118  0.5791  0.5316  0.1780
14005SOL    HW145035   1.670   0.959   9.073  0.7912 -0.8895  0.5843
14005SOL    HW245036   1.524   0.921   9.055  0.3410  1.0027  0.1137
14006SOL     OW45037   7.554   6.430   1.471 -0.4908  0.5297 -0.4641
14006SOL    HW145038   7.577   6.417   1.379  1.1385 -2.0113  0.2450
14006SOL    HW245039   7.625   6.486   1.505 -0.5096  0.5799 -0.5077
14007SOL     OW45040   4.987   3.847   8.498 -0.5120  0.3464 -0.4458
14007SOL    HW145041   4.925   3.905   8.454  1.6952  2.9265 -0.3024
14007SOL    HW245042   4.980   3.871   8.591 -0.2610 -0.2679 -0.2697
14008SOL     OW45043   3.671   8.320   1.845  0.1667 -0.1634 -0.2228
14008SOL    HW145044   3.592   8.307   1.897 -1.3175  1.3189 -2.0285
14008SOL    HW245045   3.666   8.255   1.775  1.1429 -0.8153  0.2898
14009SOL     OW45046   5.514   4.324   4.915 -0.2520 -0.2276  0.4479
14009SOL    HW145047   5.562   4.309   4.833  2.1147 -1.3553  1.9837
14009SOL    HW245048   5.479   4.413   4.906 -0.4320 -0.4971 -1.9595
14010SOL     OW45049   2.537   8.685   5.503  0.4809  0.4618 -0.6414
14010SOL    HW145050   2.491   8.675   5.420  1.6591 -1.9378 -1.0375
14010SOL    HW245051   2.630   8.684   5.480  0.8169  0.5885  0.6327
14011SOL     OW45052   3.408   0.606   7.421 -0.1920 -0.3755 -0.0490
14011SOL    HW145053   3.491   0.611   7.373 -0.0062  1.1619  0.3717
14011SOL    HW245054   3.425   0.543   7.490  0.5247 -0.3557 -0.1927
14012SOL     OW45055   3.141   3.621   4.182 -0.1467  0.2069 -0.2432
14012SOL    HW145056   3.115   3.711   4.160 -3.4192 -0.5755  0.0939
14012SOL    HW245057   3.171   3.584   4.099 -0.7577  0.9901 -0.8274
14013SOL     OW45058   6.154   9.284   2.884  0.5450  0.3431  0.0988
14013SOL    HW145059   6.172   9.307   2.793 -1.0541  1.8649  0.1248
14013SOL    HW245060   6.101   9.204   2.878  2.6161 -1.0398 -0.1762
14014SOL     OW45061   4.143   7.290   5.306 -0.5322  0.0287  0.3118
14014SOL    HW145062   4.098   7.247   5.233 -1.0890  1.8242 -0.4264
14014SOL    HW245063   4.072   7.326   5.360 -0.0797 -0.2053  1.0726
14015SOL     OW45064   2.076   1.475   7.691 -0.4235 -0.3670  0.1558
14015SOL    HW145065   2.067   1.436   7.778 -1.7409  0.2820  0.3377
14015SOL    HW245066   2.074   1.569   7.708  1.1439 -0.2211 -0.4214
14016SOL     OW45067   2.142   9.280   6.876  0.1355  0.5577  0.1017
14016SOL    HW145068   2.111   9.370   6.890  1.7857  1.4917 -1.8409
14016SOL    HW245069   2.235   9.283   6.898  0.4226 -0.4052 -0.9206
14017SOL     OW45070   8.129   6.466   2.591 -0.2119  0.0302  0.2236
14017SOL    HW145071   8.127   6.372   2.571 -2.1390  0.0437  0.2907
14017SOL    HW245072   8.160   6.506   2.510  2.4673 -0.8004  0.8020
14018SOL     OW45073   7.690   8.810   6.127  0.4387  0.2539  1.0028
14018SOL    HW145074   7.599   8.781   6.132  0.3281  0.7062  1.6734
14018SOL    HW245075   7.742   8.731   6.139  0.1651 -0.8193 -3.9124
14019SOL     OW45076   2.950   0.207   3.869 -0.5709  0.2415 -0.1341
14019SOL    HW145077   2.925   0.115   3.873 -2.4391  0.7628  0.5347
14019SOL    HW245078   2.946   0.237   3.960 -0.0651  1.0117 -0.3564
14020SOL     OW45079   9.061   0.928   2.388 -0.6803 -0.0830  0.1584
14020SOL    HW145080   8.972   0.939   2.421 -0.9500 -2.2776  0.2413
14020SOL    HW245081   9.116   0.940   2.465 -0.7827  2.5514 -0.1285
14021SOL     OW45082   6.650   4.912   2.322  0.0883  0.1283 -0.0211
14021SOL    HW145083   6.609   4.848   2.264  1.0610  0.0406 -0.6307
14021SOL    HW245084   6.691   4.860   2.391  0.9376  0.0702 -0.5540
14022SOL     OW45085   2.297   9.126   1.042 -0.1655 -0.2062  0.5887
14022SOL    HW145086   2.328   9.180   1.115 -0.6747 -0.4270  0.9681
14022SOL    HW245087   2.220   9.173   1.009  0.1229 -0.0498  0.1195
14023SOL     OW45088   0.618   1.371   4.952 -0.1551  0.1136  0.6548
14023SOL    HW145089   0.597   1.353   4.860  0.8375  0.4010  0.3612
14023SOL    HW245090   0.538   1.349   5.000 -1.0972  1.1110 -0.4111
14024SOL     OW45091   8.875   4.982   4.526 -0.0157  0.8348 -0.6045
14024SOL    HW145092   8.909   4.973   4.438 -0.4439 -1.4787 -0.5640
14024SOL    HW245093   8.936   4.932   4.581 -0.6591  0.8850  0.1708
14025SOL     OW45094   7.812   1.886   6.282 -0.0979  0.0165  0.3720
14025SOL    HW145095   7.859   1.859   6.361 -0.4281  1.6953  1.1668
14025SOL    HW245096   7.743   1.821   6.271  0.8669 -1.0531  0.6284
14026SOL     OW45097   3.617   6.282   0.418  0.1809 -0.1426 -0.0581
14026SOL    HW145098   3.574   6.366   0.434  1.1997  0.2863  0.4811
14026SOL    HW245099   3.660   6.261   0.501  0.5675 -0.8204 -0.4262
14027SOL     OW45100   4.803   5.327   7.655  0.4109  0.0165 -0.0047
14027SOL    HW145101   4.813   5.392   7.724 -0.8500  0.4921 -0.2559
14027SOL    HW245102   4.796   5.243   7.702  0.8134  0.1955  0.3753
14028SOL     OW45103   6.246   3.981   7.781  0.3980  0.0803 -0.3772
14028SOL    HW145104   6.312   3.911   7.781 -0.9052 -1.1814 -1.5384
14028SOL    HW245105   6.292   4.058   7.749  1.8532 -0.2442  0.8820
14029SOL     OW45106   3.124   5.033   5.238 -0.6238  0.2771  0.8633
14029SOL    HW145107   3.195   5.009   5.297 -2.6732 -0.7879  2.9648
14029SOL    HW245108   3.107   5.125   5.257 -0.2332  0.3695  0.7793
14030SOL     OW45109   2.353   3.266   4.400 -0.4411  0.0155  1.0402
14030SOL    HW145110   2.425   3.217   4.442 -1.1826 -0.1431  2.1460
14030SOL    HW245111   2.295   3.199   4.366 -0.5683  0.1455  1.0011
14031SOL     OW45112   0.881   1.407   7.709  0.7094 -0.1740 -0.6085
14031SOL    HW145113   0.823   1.458   7.766  0.6822  1.8390 -2.3681
14031SOL    HW245114   0.879   1.319   7.745 -1.4217  0.4565  0.8962
14032SOL     OW45115   2.764   9.309   1.005 -0.5778 -0.2627 -0.4394
14032SOL    HW145116   2.782   9.401   1.026 -1.0469 -0.2153 -0.2264
14032SOL    HW245117   2.672   9.309   0.977 -0.9500 -0.8456  0.7191
14033SOL     OW45118   3.331   1.600   5.529 -0.1866 -0.3144  1.2684
14033SOL    HW145119   3.292   1.551   5.456 -1.6303  1.3471  0.9030
14033SOL    HW245120   3.309   1.548   5.606 -3.6853  0.8173  1.1424
14034SOL     OW45121   8.708   0.552   2.230 -0.4445 -0.4253  0.3506
14034SOL    HW145122   8.803   0.540   2.235 -0.0095  2.7675  0.8593
14034SOL    HW245123   8.684   0.592   2.314 -2.4021 -2.0554  0.6033
14035SOL     OW45124   9.022   0.959   5.964  0.1815  0.1197  0.3940
14035SOL    HW145125   8.994   0.959   5.873  0.0360  0.3571  0.4382
14035SOL    HW245126   8.974   1.032   6.004  1.8353  1.3886  0.1542
14036SOL     OW45127   4.135   7.622   3.964  0.0893 -0.3428  0.1570
14036SOL    HW145128   4.078   7.633   4.039  0.1662  0.4279  0.0987
14036SOL    HW245129   4.221   7.651   3.994  0.5260 -1.7341  0.3280
14037SOL     OW45130   5.912   7.292   5.918 -0.0859 -0.1945 -0.1310
14037SOL    HW145131   5.968   7.318   5.991 -0.1577  0.3093 -0.2512
14037SOL    HW245132   5.862   7.371   5.898 -1.3854 -0.8451  0.4702
14038SOL     OW45133   6.909   7.717   6.369  0.1637  0.1378  0.0687
14038SOL    HW145134   6.931   7.666   6.292  0.0000 -0.9419  0.7253
14038SOL    HW245135   6.813   7.725   6.366  0.0234 -1.1196  0.9032
14039SOL     OW45136   2.920   6.858   0.172 -0.2175 -0.1587 -0.2840
14039SOL    HW145137   2.985   6.869   0.242  0.7198 -0.6614 -1.0582
14039SOL    HW245138   2.955   6.909   0.099 -1.1615  0.3127 -0.4144
14040SOL     OW45139   5.130   0.044   2.735  0.5372  0.1430  0.1051
14040SOL    HW145140   5.081  -0.023   2.782 -1.0302  1.8595  0.9710
14040SOL    HW245141   5.074   0.121   2.737  1.9788  1.2794 -1.5270
14041SOL     OW45142   7.386   6.382   3.867 -0.4199  0.8162 -0.5644
14041SOL    HW145143   7.323   6.404   3.935  0.4525  3.1287 -0.4721
14041SOL    HW245144   7.455   6.448   3.875  1.2394 -0.7082 -1.6902
14042SOL     OW45145   9.398   7.029   8.224 -0.6460 -0.1498 -0.0795
14042SOL    HW145146   9.373   7.029   8.317 -1.1224  1.2265 -0.1941
14042SOL    HW245147   9.481   7.076   8.221 -0.4007 -0.5892 -0.3058
14043SOL     OW45148   7.397   6.498   2.792  0.1282  0.0037  0.4773
14043SOL    HW145149   7.441   6.554   2.856  1.1683 -1.0259  0.6762
14043SOL    HW245150   7.432   6.411   2.809 -0.4442 -0.4668 -0.7444
14044SOL     OW45151   3.232   5.648   1.034 -0.5399  0.6030  0.1206
14044SOL    HW145152   3.179   5.602   0.968  0.6107  1.9775 -1.8093
14044SOL    HW245153   3.317   5.658   0.993 -0.0143  2.1584  1.5530
14045SOL     OW45154   3.757   4.508   2.421  0.1460  0.5215  0.6579
14045SOL    HW145155   3.815   4.499   2.497 -1.6148 -0.1954  1.9538
14045SOL    HW245156   3.810   4.555   2.356  1.2837  2.3009  2.7723
14046SOL     OW45157   9.346   5.780   4.321  0.1923 -0.2408 -0.0681
14046SOL    HW145158   9.399   5.807   4.246 -1.2711 -1.2787 -1.5318
14046SOL    HW245159   9.269   5.836   4.317 -0.5799 -1.2858 -0.2481
14047SOL     OW45160   3.413   0.019   4.947  0.0609  0.0014  0.9572
14047SOL    HW145161   3.448   0.054   5.029  1.2300 -2.3456  1.5084
14047SOL    HW245162   3.433   0.086   4.882 -0.6500  1.7861  2.5017
14048SOL     OW45163   1.617   7.662   7.157 -0.2372  0.1035 -0.6859
14048SOL    HW145164   1.673   7.644   7.082  1.9781  1.2494  0.6147
14048SOL    HW245165   1.589   7.576   7.188  2.2992 -0.6243 -0.2972
14049SOL     OW45166   0.681   0.664   8.919 -0.3716  0.4584  0.1903
14049SOL    HW145167   0.758   0.720   8.920 -0.6204  0.8381 -1.1819
14049SOL    HW245168   0.711   0.583   8.876 -0.7251  0.6029 -0.3352
14050SOL     OW45169   4.041   9.298   8.023  0.3652  0.1442  0.2535
14050SOL    HW145170   4.034   9.387   8.057  0.7936 -0.5796  2.2743
14050SOL    HW245171   4.120   9.262   8.064 -0.7846 -1.7636  0.8466
14051SOL     OW45172   7.929   4.756   8.347 -0.1722  0.2534  0.2237
14051SOL    HW145173   7.834   4.746   8.344 -0.0649 -0.9423  0.8032
14051SOL    HW245174   7.954   4.770   8.256 -0.6908 -1.4608 -0.1915
14052SOL     OW45175   1.434   4.966   9.006  0.2273  0.2876 -0.5753
14052SOL    HW145176   1.438   4.944   9.099  1.2063  2.1551 -0.1410
14052SOL    HW245177   1.429   4.882   8.961  0.8424 -0.6797  1.1161
14053SOL     OW45178   6.365   2.593   7.057 -0.0376 -0.8216 -0.3405
14053SOL    HW145179   6.401   2.564   6.973  1.2326  0.6398 -0.3274
14053SOL    HW245180   6.428   2.563   7.122 -0.8594 -1.6763  0.0701
14054SOL     OW45181   5.419   1.113   8.539 -0.1055 -0.2616 -0.1500
14054SOL    HW145182   5.512   1.135   8.538 -0.0347 -0.5324  0.2583
14054SOL    HW245183   5.409   1.054   8.614 -0.9213  1.2546  0.9730
14055SOL     OW45184   4.991   4.223   0.202 -0.2825 -0.3269 -0.0596
14055SOL    HW145185   5.023   4.134   0.215 -0.8450 -0.4293  0.7172
14055SOL    HW245186   5.038   4.275   0.266  0.2450 -0.0166 -0.6994
14056SOL     OW45187   1.376   8.894   1.425 -0.3165 -0.1279  0.8502
14056SOL    HW145188   1.388   8.933   1.339 -1.3099  0.3014  0.9038
14056SOL    HW245189   1.461   8.855   1.446 -0.2731 -0.8781 -0.6382
14057SOL     OW45190   6.513   5.883   0.740  0.1744 -0.2634 -0.2000
14057SOL    HW145191   6.522   5.794   0.774 -1.2319 -0.2719  0.2039
14057SOL    HW245192   6.477   5.933   0.813 -1.4131  0.0713 -1.1844
14058SOL     OW45193   5.498   7.702   5.486  0.6039  0.2179  0.2915
14058SOL    HW145194   5.594   7.702   5.492  0.6791 -1.5244 -0.4097
14058SOL    HW245195   5.481   7.697   5.392 -0.1885  1.0435  0.3896
14059SOL     OW45196   6.892   6.234   7.566  0.1658 -0.4023 -1.3647
14059SOL    HW145197   6.948   6.298   7.522  0.0651  0.3536 -0.3910
14059SOL    HW245198   6.949   6.196   7.634 -0.4170  0.1459 -0.5740
14060SOL     OW45199   0.356   5.808   6.305 -0.4209  0.3201  0.1718
14060SOL    HW145200   0.428   5.811   6.368 -1.0981  0.2994  0.9530
14060SOL    HW245201   0.383   5.867   6.234  1.0355 -0.8588 -0.2691
14061SOL     OW45202   5.920   7.422   3.331  0.4469 -0.2597 -0.3601
14061SOL    HW145203   5.868   7.498   3.304  1.0237  0.4357  0.4243
14061SOL    HW245204   6.004   7.433   3.286  0.8221  0.0272  0.3837
14062SOL     OW45205   4.149   8.503   0.699 -0.0144 -0.6668 -0.0614
14062SOL    HW145206   4.239   8.511   0.669 -0.3404  0.4459 -0.7690
14062SOL    HW245207   4.096   8.536   0.626 -0.9576 -0.6919  0.6024
14063SOL     OW45208   6.650   2.559   3.192 -0.3337 -0.0155  0.6351
14063SOL    HW145209   6.674   2.467   3.176  1.0259  0.2134  1.2313
14063SOL    HW245210   6.731   2.607   3.176 -0.9071  1.0264  0.8396
14064SOL     OW45211   8.227   1.938   5.432  0.3967  0.2950  0.1043
14064SOL    HW145212   8.297   1.875   5.448  0.8080  0.6804 -0.1799
14064SOL    HW245213   8.198   1.964   5.520 -1.2191 -1.8766  0.2524
14065SOL     OW45214   6.689   4.933   4.948  0.0705  0.2899 -0.2089
14065SOL    HW145215   6.637   4.907   5.024  1.5480 -1.0081  0.3838
14065SOL    HW245216   6.663   5.023   4.931 -3.2822 -0.7010 -0.7027
14066SOL     OW45217   2.297   1.132   8.910 -0.2041  0.4453  0.0905
14066SOL    HW145218   2.244   1.059   8.876  0.8610 -1.0030  1.4512
14066SOL    HW245219   2.260   1.149   8.997 -0.3641  1.4699 -0.1702
14067SOL     OW45220   2.896   4.557   6.012  0.0863 -0.1122  0.0989
14067SOL    HW145221   2.963   4.609   6.056 -0.8361  1.2495 -0.0868
14067SOL    HW245222   2.815   4.607   6.023 -0.3388 -0.1882 -2.3041
14068SOL     OW45223   7.386   7.681   2.176 -0.2899 -0.2968  0.2066
14068SOL    HW145224   7.293   7.675   2.197 -0.1813  0.0164  0.8051
14068SOL    HW245225   7.416   7.759   2.224  0.1121  0.0539 -0.6090
14069SOL     OW45226   3.089   8.935   9.188  0.5717 -0.4131  0.1295
14069SOL    HW145227   3.102   9.025   9.160  1.9869 -0.7381 -0.2983
14069SOL    HW245228   3.046   8.892   9.114  0.9021 -0.3522 -0.0992
14070SOL     OW45229   0.732   1.676   6.955 -0.3458 -0.0928  0.1040
14070SOL    HW145230   0.727   1.649   7.046 -1.2185  0.4511  0.2255
14070SOL    HW245231   0.824   1.698   6.942  0.1828 -2.1189  0.2661
14071SOL     OW45232   8.612   9.377   7.824  0.5029 -0.2563  0.2049
14071SOL    HW145233   8.644   9.307   7.882 -0.6606 -0.2487  0.8627
14071SOL    HW245234   8.657   9.456   7.856 -0.3767 -0.1913  1.3269
14072SOL     OW45235   8.137   5.515   7.971  0.0850  0.5485  0.5156
14072SOL    HW145236   8.112   5.427   7.999  0.6778  0.3099  0.3064
14072SOL    HW245237   8.220   5.531   8.015 -0.1375  1.0929  0.7309
14073SOL     OW45238   8.599   5.517   8.875  0.2921  0.4174  0.0690
14073SOL    HW145239   8.598   5.602   8.832  2.2888 -0.5559 -1.9775
14073SOL    HW245240   8.530   5.467   8.831  1.4137 -0.1265 -1.0952
14074SOL     OW45241   1.120   6.795   4.456 -0.4260 -0.0101  0.2357
14074SOL    HW145242   1.087   6.715   4.415 -2.1811  1.5095 -1.4440
14074SOL    HW245243   1.049   6.823   4.514  0.7106 -0.3603  1.8160
14075SOL     OW45244   5.047   6.517   4.256 -0.1774 -0.0255 -0.0769
14075SOL    HW145245   4.992   6.438   4.250  1.0859 -0.8670 -0.8090
14075SOL    HW245246   5.061   6.529   4.350  0.1378 -1.0531  0.0190
14076SOL     OW45247   8.594   9.229   8.110  0.6958 -0.1056  0.3420
14076SOL    HW145248   8.680   9.237   8.151  0.9228 -0.0472 -0.1508
14076SOL    HW245249   8.580   9.135   8.100  0.7505 -0.1121  0.3184
14077SOL     OW45250   5.173   6.056   5.141  0.0530 -0.4264  0.2964
14077SOL    HW145251   5.204   5.965   5.134  0.8759 -0.0723 -1.0480
14077SOL    HW245252   5.253   6.108   5.148 -0.3633  0.2740 -0.0507
14078SOL     OW45253   4.096   4.134   6.255  0.2103 -0.9232  0.3205
14078SOL    HW145254   4.067   4.067   6.318  0.1135  0.4366  1.7653
14078SOL    HW245255   4.036   4.207   6.269  1.4179  0.1330  0.0154
14079SOL     OW45256   4.022   3.035   6.301 -0.3329 -0.2435 -0.3533
14079SOL    HW145257   4.019   3.115   6.250 -1.0052 -0.4208 -0.6032
14079SOL    HW245258   4.103   2.992   6.275  1.1446  1.4141  1.4094
14080SOL     OW45259   1.178   6.513   4.017 -0.2103 -0.2280 -0.0856
14080SOL    HW145260   1.160   6.607   4.009  1.3159 -0.1241 -2.8087
14080SOL    HW245261   1.226   6.505   4.100 -1.6007  1.1675  0.8827
14081SOL     OW45262   9.093   8.306   0.146 -0.6809  0.2165  0.1336
14081SOL    HW145263   9.172   8.358   0.132  0.0023 -1.0042 -0.7039
14081SOL    HW245264   9.021   8.362   0.118  0.1601  0.1868 -2.1982
14082SOL     OW45265   6.472   2.951   2.882 -0.2474  0.4496  0.3079
14082SOL    HW145266   6.471   3.046   2.869  2.1164  0.2216 -1.9655
14082SOL    HW245267   6.555   2.934   2.927 -0.8751 -0.5098  1.1162
14083SOL     OW45268   1.035   6.045   5.173  0.5673  0.5072 -0.3433
14083SOL    HW145269   0.995   5.971   5.220 -1.5852  1.3439 -0.7646
14083SOL    HW245270   1.028   6.118   5.234  0.0718  1.0084 -0.9944
14084SOL     OW45271   3.543   0.152   5.549 -0.0538  0.1267  0.5542
14084SOL    HW145272   3.588   0.156   5.465  0.3213  2.9324  0.8378
14084SOL    HW245273   3.479   0.223   5.545 -1.0571 -0.6614  2.0799
14085SOL     OW45274   9.079   8.307   2.038  0.2673 -0.2962  0.1993
14085SOL    HW145275   9.004   8.249   2.053  1.0216 -1.4186 -0.2493
14085SOL    HW245276   9.091   8.353   2.121 -0.7986 -0.2495  0.3350
14086SOL     OW45277   4.579   7.707   3.820  0.2271  0.2720  0.1016
14086SOL    HW145278   4.628   7.778   3.861  0.0202  0.8612 -0.6440
14086SOL    HW245279   4.504   7.692   3.878  0.9940 -0.2681  0.9658
14087SOL     OW45280   2.149   3.584   9.388 -0.1408  0.0558  0.0759
14087SOL    HW145281   2.169   3.661   9.442  1.7298  0.9179 -1.7647
14087SOL    HW245282   2.224   3.525   9.402 -1.0392 -0.9564  0.6351
14088SOL     OW45283   5.492   3.409   7.965 -0.5082  0.1837  0.0342
14088SOL    HW145284   5.433   3.469   8.011  1.0916  1.1545  0.8758
14088SOL    HW245285   5.539   3.363   8.035 -0.8668 -1.1992 -0.6157
14089SOL     OW45286   6.898   7.405   3.113  0.5016  0.0113 -0.5237
14089SOL    HW145287   6.981   7.401   3.160  1.9750  0.8922 -2.9657
14089SOL    HW245288   6.912   7.351   3.035 -1.9766 -1.6318  0.1171
14090SOL     OW45289   0.087   1.562   7.862  0.1080  0.1723 -0.1301
14090SOL    HW145290   0.045   1.596   7.941  0.0845  1.9885 -0.9099
14090SOL    HW245291   0.114   1.473   7.886 -1.3907  0.0928  1.3773
14091SOL     OW45292   9.217   7.418   2.399 -0.0912  0.2578 -0.0469
14091SOL    HW145293   9.130   7.378   2.397  0.3639 -0.8674  1.8694
14091SOL    HW245294   9.278   7.344   2.392  0.7792  1.1652 -3.6200
14092SOL     OW45295   4.396   6.087   5.595  0.4098  0.0751  0.0363
14092SOL    HW145296   4.407   6.178   5.569  1.3577 -0.3219 -0.9970
14092SOL    HW245297   4.352   6.091   5.680  2.2803  1.5597  0.9629
14093SOL     OW45298   2.025   7.799   4.754  0.5515  0.1650 -0.2245
14093SOL    HW145299   1.993   7.718   4.795  0.4591 -0.7026 -1.9306
14093SOL    HW245300   1.996   7.792   4.663  1.5102  1.6126 -0.6546
14094SOL     OW45301   8.456   9.336   4.416  0.4075  0.5119 -0.2494
14094SOL    HW145302   8.415   9.330   4.502 -0.3800  2.2954 -0.4708
14094SOL    HW245303   8.550   9.328   4.434  0.3449  2.1660  0.9414
14095SOL     OW45304   4.051   2.551   4.780  0.7490 -0.3656  0.4848
14095SOL    HW145305   4.075   2.625   4.836  1.5381  0.5710 -1.0257
14095SOL    HW245306   3.957   2.542   4.790  0.2270  2.5050 -1.1856
14096SOL     OW45307   7.964   2.664   0.726  0.1395 -0.4115  0.3416
14096SOL    HW145308   8.017   2.639   0.801  0.9446  0.3860  0.0478
14096SOL    HW245309   8.015   2.636   0.650  1.1945  2.2768 -0.0116
14097SOL     OW45310   3.475   7.339   6.718  0.8269  0.2455  0.2838
14097SOL    HW145311   3.566   7.342   6.747  0.9128  0.7986 -0.0267
14097SOL    HW245312   3.425   7.372   6.793  0.8724 -0.1598  0.4920
14098SOL     OW45313   7.535   0.967   9.443 -0.1972  0.1857 -0.4069
14098SOL    HW145314   7.628   0.988   9.447  0.0861 -0.8742 -1.3040
14098SOL    HW245315   7.504   0.975   9.533  0.3848  2.2214 -0.3632
14099SOL     OW45316   0.023   8.939   9.082  0.0413 -0.1279 -0.4156
14099SOL    HW145317   0.058   8.850   9.090  0.4335 -0.1471 -2.1391
14099SOL    HW245318   0.064   8.974   9.003 -0.9913  1.1799 -0.3896
14100SOL     OW45319   8.764   6.296   2.649 -0.2620 -0.1014  0.0601
14100SOL    HW145320   8.737   6.377   2.694 -0.2594  0.6365 -1.2329
14100SOL    HW245321   8.859   6.295   2.657 -0.3380 -0.4622  0.8925
14101SOL     OW45322   0.770   2.956   2.831  0.4460 -0.2374  0.6473
14101SOL    HW145323   0.710   2.971   2.905 -0.9999  0.6168 -0.6802
14101SOL    HW245324   0.824   2.882   2.859 -0.7844 -0.5970  2.1415
14102SOL     OW45325   3.873   2.927   0.955  0.2497  0.3124  0.2939
14102SOL    HW145326   3.848   2.967   0.872  1.8248  0.9627  0.1137
14102SOL    HW245327   3.895   2.837   0.933 -0.7776  0.0539  0.2720
14103SOL     OW45328   8.022   0.633   6.802 -0.6866 -0.0851 -0.0681
14103SOL    HW145329   7.937   0.657   6.839 -0.7402  0.5756 -0.6016
14103SOL    HW245330   8.069   0.593   6.874 -1.9616 -1.7153 -0.1231
14104SOL     OW45331   8.968   6.306   7.590 -0.7653  0.0985 -0.5857
14104SOL    HW145332   8.950   6.383   7.536  0.1254  0.8108  0.1277
14104SOL    HW245333   9.041   6.332   7.647 -0.0424 -1.4747 -0.7630
14105SOL     OW45334   5.161   5.674   1.991  0.0011 -0.9421  0.3905
14105SOL    HW145335   5.162   5.742   2.059 -0.8198  0.1291 -0.6563
14105SOL    HW245336   5.141   5.721   1.910  0.4144 -2.2974 -0.5049
14106SOL     OW45337   2.190   4.252   1.520  0.1523  0.0898 -0.0104
14106SOL    HW145338   2.156   4.176   1.568 -1.0390  1.0366  0.6710
14106SOL    HW245339   2.226   4.309   1.588 -1.5594  1.4506 -0.2156
14107SOL     OW45340   0.547   8.499   1.220 -0.3853  0.1438 -0.0858
14107SOL    HW145341   0.492   8.493   1.298 -1.4095  1.0098 -0.7191
14107SOL    HW245342   0.633   8.525   1.253 -0.3496 -1.2003  0.9132
14108SOL     OW45343   5.612   4.225   0.326 -0.2160  0.0633 -0.6134
14108SOL    HW145344   5.677   4.248   0.393 -0.8770  0.2410 -0.0377
14108SOL    HW245345   5.542   4.181   0.373 -0.8919  0.5850 -1.1263
14109SOL     OW45346   5.330   0.588   7.885  0.2915 -0.0086  0.0866
14109SOL    HW145347   5.421   0.557   7.888  0.3234  0.1492  0.7758
14109SOL    HW245348   5.327   0.660   7.948 -0.7482 -1.1698  1.3901
14110SOL     OW45349   8.604   0.330   3.943  0.6255 -0.2803 -0.2332
14110SOL    HW145350   8.614   0.408   3.997 -0.1223 -0.5446  0.2986
14110SOL    HW245351   8.672   0.271   3.973  0.6023 -0.1879  0.0033
14111SOL     OW45352   3.955   2.274   8.807  0.3385 -0.1700  0.0074
14111SOL    HW145353   3.889   2.316   8.863 -0.1898  0.3759 -1.0024
14111SOL    HW245354   4.034   2.271   8.861 -0.5821 -1.0756  1.3358
14112SOL     OW45355   5.722   0.075   7.241  0.0525 -0.8302 -0.0327
14112SOL    HW145356   5.731   0.153   7.186 -1.3138 -1.1801 -0.7781
14112SOL    HW245357   5.645   0.093   7.294  0.5299 -1.1108  0.7621
14113SOL     OW45358   5.843   6.183   5.964  0.5467  0.3865 -0.7056
14113SOL    HW145359   5.763   6.141   5.994  0.7807  0.0140 -0.6096
14113SOL    HW245360   5.895   6.198   6.044  0.9318 -0.1162 -0.8620
14114SOL     OW45361   2.242   5.159   8.467  0.2986  0.4530 -0.2083
14114SOL    HW145362   2.288   5.095   8.413  0.5571 -0.3243  0.9293
14114SOL    HW245363   2.311   5.215   8.502  0.2016  0.5068 -0.1035
14115SOL     OW45364   6.957   5.046   4.799 -0.0053 -0.7043 -0.2820
14115SOL    HW145365   6.984   5.118   4.855  0.8386 -0.7211 -0.6448
14115SOL    HW245366   6.943   4.973   4.859 -1.1176 -0.1685  0.1113
14116SOL     OW45367   7.808   6.904   4.883  0.2927 -0.1346 -0.0070
14116SOL    HW145368   7.771   6.882   4.968  1.8921 -0.0715  0.7382
14116SOL    HW245369   7.863   6.981   4.901 -1.0947  1.2284 -1.5353
14117SOL     OW45370   6.264   4.320   6.998  0.6850 -0.1620  0.2592
14117SOL    HW145371   6.287   4.412   6.985 -0.6774  0.3254  1.2318
14117SOL    HW245372   6.347   4.278   7.022  0.7564  1.4221  2.9818
14118SOL     OW45373   6.728   3.008   5.948  0.0177 -0.1315 -0.4012
14118SOL    HW145374   6.699   3.093   5.917  0.1130 -0.0074 -0.1478
14118SOL    HW245375   6.766   2.965   5.871  1.2087  0.5794 -0.2113
14119SOL     OW45376   5.747   3.199   8.821 -0.4367 -0.5400  0.4238
14119SOL    HW145377   5.767   3.166   8.908 -0.4244  0.6438  0.8791
14119SOL    HW245378   5.823   3.253   8.798  0.8237 -3.0299 -1.4570
14120SOL     OW45379   3.248   1.892   7.227 -0.0092  0.4076  0.2721
14120SOL    HW145380   3.266   1.985   7.210 -0.9734  0.2152 -1.9719
14120SOL    HW245381   3.326   1.847   7.196 -0.4567  0.3106 -0.7401
14121SOL     OW45382   2.416   3.102   4.846 -0.0436 -0.1212 -0.1551
14121SOL    HW145383   2.483   3.115   4.913 -0.7252  1.9658  0.1566
14121SOL    HW245384   2.333   3.104   4.895 -0.3625 -3.8913 -0.3539
14122SOL     OW45385   1.279   1.954   4.190  0.0492 -0.6021 -0.3194
14122SOL    HW145386   1.331   1.874   4.195  0.7228 -0.1570 -0.2199
14122SOL    HW245387   1.338   2.023   4.220 -0.2293  0.0715 -1.2894
14123SOL     OW45388   7.275   3.801   0.693 -0.3071 -0.2289  0.2892
14123SOL    HW145389   7.310   3.878   0.647 -0.3717 -0.3518  0.0338
14123SOL    HW245390   7.184   3.795   0.664 -1.5729  2.0598  3.4833
14124SOL     OW45391   4.190   6.094   6.426 -0.0963 -0.0776  0.1033
14124SOL    HW145392   4.166   6.042   6.349 -0.3404 -0.1874  0.2522
14124SOL    HW245393   4.164   6.183   6.404 -0.2692 -0.1284  0.1021
14125SOL     OW45394   1.578   4.463   4.336 -0.1659 -0.1781  0.9638
14125SOL    HW145395   1.508   4.522   4.363  0.3141 -0.0421  1.9196
14125SOL    HW245396   1.654   4.519   4.323 -0.1342 -0.3739  0.2817
14126SOL     OW45397   2.785   0.557   9.003 -0.1421 -0.1569  0.4285
14126SOL    HW145398   2.727   0.541   9.077 -0.8273 -0.5733 -0.1835
14126SOL    HW245399   2.733   0.610   8.943  0.2831 -0.1173  0.0936
14127SOL     OW45400   8.280   3.655   0.820  0.5169  0.7656  0.3632
14127SOL    HW145401   8.225   3.643   0.742  0.9735 -0.1082  0.1750
14127SOL    HW245402   8.272   3.749   0.840  0.1079  0.9287 -0.5171
14128SOL     OW45403   1.146   5.700   4.261 -0.3244  0.1670 -0.1139
14128SOL    HW145404   1.155   5.730   4.351 -0.6676 -0.3179  0.0824
14128SOL    HW245405   1.057   5.724   4.236 -0.0913  0.6801 -0.4678
14129SOL     OW45406   2.287   2.610   7.582 -0.4118  0.4975  0.2902
14129SOL    HW145407   2.273   2.636   7.491  0.1765 -0.6355 -0.1364
14129SOL    HW245408   2.249   2.523   7.588 -0.8580  0.7545  1.2611
14130SOL     OW45409   0.703   4.937   0.816 -0.2665 -0.2096  0.5452
14130SOL    HW145410   0.747   4.991   0.750  0.8695 -0.4874  1.0584
14130SOL    HW245411   0.707   4.849   0.780 -0.3114 -0.2504  0.6421
14131SOL     OW45412   2.110   8.370   6.139 -0.0720  0.5933 -0.1541
14131SOL    HW145413   2.195   8.329   6.160 -0.9482 -1.1506  0.1120
14131SOL    HW245414   2.120   8.402   6.050  0.0401 -1.9149 -1.0779
14132SOL     OW45415   5.780   7.226   1.891  0.3572 -0.4862 -0.2741
14132SOL    HW145416   5.692   7.258   1.912  0.2845 -1.5329  1.1175
14132SOL    HW245417   5.839   7.294   1.921  0.1642 -1.2173  1.8546
14133SOL     OW45418   4.812   8.874   6.929 -0.1496 -0.1264 -0.1387
14133SOL    HW145419   4.890   8.870   6.873  0.1304 -0.6856  0.2732
14133SOL    HW245420   4.803   8.966   6.953 -0.7952  0.2583 -1.8165
14134SOL     OW45421   7.255   3.550   5.093 -0.2148 -0.1103  0.1547
14134SOL    HW145422   7.168   3.511   5.095  0.2786 -1.2441 -0.0089
14134SOL    HW245423   7.285   3.547   5.184 -0.0361 -0.4529  0.0870
14135SOL     OW45424   1.067   0.118   8.940 -1.0541 -0.4750 -0.2847
14135SOL    HW145425   1.029   0.053   8.999 -0.3917 -1.9349 -1.4437
14135SOL    HW245426   1.151   0.080   8.913 -0.2212  1.2939 -0.2287
14136SOL     OW45427   6.408   8.321   4.801 -0.1887 -0.7406 -0.5612
14136SOL    HW145428   6.343   8.256   4.828 -0.1912 -0.9708 -1.1196
14136SOL    HW245429   6.436   8.362   4.883 -1.6765 -0.0361 -0.3873
14137SOL     OW45430   0.213   7.580   8.634 -0.3575  0.4988 -0.4150
14137SOL    HW145431   0.289   7.629   8.602  0.3986  0.5755  1.4168
14137SOL    HW245432   0.138   7.628   8.599  0.4047  1.4898 -0.7391
14138SOL     OW45433   4.822   3.463   9.259 -0.6717  0.4277  0.0908
14138SOL    HW145434   4.747   3.427   9.307  0.2942 -1.2678  0.3979
14138SOL    HW245435   4.806   3.439   9.168 -0.0146 -0.8378  0.2993
14139SOL     OW45436   1.479   8.446   0.978  0.4897  0.2955  0.1242
14139SOL    HW145437   1.553   8.401   0.936  0.7878  0.5298  0.3908
14139SOL    HW245438   1.474   8.408   1.066 -0.5296 -0.6367 -0.3327
14140SOL     OW45439   1.446   4.870   9.248  0.5833 -0.4545 -0.2959
14140SOL    HW145440   1.375   4.825   9.295 -0.8830  0.5351 -1.4914
14140SOL    HW245441   1.523   4.816   9.264 -0.7199 -2.3339 -0.1001
14141SOL     OW45442   7.604   0.082   5.009  0.3933  0.4160  0.0778
14141SOL    HW145443   7.558   0.126   4.938  1.5306  1.4632 -0.0135
14141SOL    HW245444   7.692   0.069   4.976  0.4492 -0.6938  0.6358
14142SOL     OW45445   0.634   2.522   2.123 -0.1827  0.3873  0.0713
14142SOL    HW145446   0.690   2.499   2.048 -0.5304 -0.2383  0.0060
14142SOL    HW245447   0.693   2.567   2.184  0.2392  0.3361 -0.2980
14143SOL     OW45448   7.378   3.497   0.201 -0.1287 -0.6220  0.6891
14143SOL    HW145449   7.471   3.507   0.220 -0.3843 -1.0352  2.2270
14143SOL    HW245450   7.337   3.574   0.240 -0.3631 -0.1090 -0.5557
14144SOL     OW45451   4.530   0.597   4.845  0.2293 -0.3453  1.2948
14144SOL    HW145452   4.558   0.662   4.780  1.3573  1.1549  3.2296
14144SOL    HW245453   4.500   0.523   4.793  1.6354  0.5978 -0.9453
14145SOL     OW45454   2.097   9.082   3.321  0.5441  0.5927 -0.0815
14145SOL    HW145455   2.173   9.025   3.316  0.1151  0.1477 -2.2477
14145SOL    HW245456   2.128   9.161   3.364  1.8153 -0.2301  0.5076
14146SOL     OW45457   8.127   9.013   8.374  0.2714 -0.1617  0.4735
14146SOL    HW145458   8.174   9.040   8.452 -1.2966  1.1062  1.0092
14146SOL    HW245459   8.034   9.026   8.396 -0.3493 -2.3905 -0.6055
14147SOL     OW45460   7.259   5.329   5.693  0.0266 -0.1159  0.1207
14147SOL    HW145461   7.262   5.267   5.765  1.6825 -0.9869 -0.6524
14147SOL    HW245462   7.347   5.367   5.690 -0.8598  2.0299  0.3568
14148SOL     OW45463   1.492   7.332   7.790  0.0203 -0.2071  0.1891
14148SOL    HW145464   1.557   7.322   7.720 -1.1953 -0.1381 -0.9740
14148SOL    HW245465   1.509   7.260   7.849  1.6897  0.2911  0.3324
14149SOL     OW45466   1.804   7.929   5.341 -0.7988  0.5400 -0.0628
14149SOL    HW145467   1.788   7.898   5.431 -1.6012  0.4377 -0.2350
14149SOL    HW245468   1.817   8.023   5.350 -1.2487  0.5869  0.1246
14150SOL     OW45469   9.136   0.795   2.990  0.4011 -0.1619  0.3931
14150SOL    HW145470   9.222   0.757   3.010 -0.1656 -0.8900  1.5522
14150SOL    HW245471   9.130   0.872   3.047  0.1913 -0.2495  0.4890
14151SOL     OW45472   5.529   3.037   2.084 -0.2136  0.0457 -0.2386
14151SOL    HW145473   5.570   3.006   2.164 -2.3728  0.4702  1.0662
14151SOL    HW245474   5.491   2.959   2.044  0.5764 -0.1096 -0.7149
14152SOL     OW45475   5.970   1.042   1.219  0.0230 -0.5156  0.0175
14152SOL    HW145476   5.914   0.992   1.278  0.3601 -0.3044  0.5127
14152SOL    HW245477   6.056   1.001   1.226  0.3239  0.1963  0.4977
14153SOL     OW45478   2.337   2.170   6.407 -0.4269 -0.7380  0.3259
14153SOL    HW145479   2.421   2.198   6.443  0.6717 -1.5140 -1.5496
14153SOL    HW245480   2.310   2.097   6.463  0.9585 -1.5172  0.0141
14154SOL     OW45481   1.718   1.181   0.949 -0.0050 -0.1012 -0.2672
14154SOL    HW145482   1.688   1.106   0.897  0.2087  0.2027 -0.8237
14154SOL    HW245483   1.658   1.252   0.926 -1.1661 -0.4989  1.3943
14155SOL     OW45484   4.361   8.903   7.612  0.0942  0.0990 -0.2733
14155SOL    HW145485   4.430   8.963   7.638  0.9775 -0.7095 -0.7367
14155SOL    HW245486   4.343   8.851   7.690  1.2281 -0.8649 -0.6532
14156SOL     OW45487   5.729   3.550   9.183 -0.2224  0.4741  0.4430
14156SOL    HW145488   5.685   3.538   9.099 -2.4929  0.4413  1.6127
14156SOL    HW245489   5.782   3.629   9.171  0.8121 -0.4826 -1.5462
14157SOL     OW45490   7.501   3.231   3.098  0.2939  0.8717 -0.4153
14157SOL    HW145491   7.560   3.162   3.066 -0.6082  0.2130 -0.6822
14157SOL    HW245492   7.552   3.276   3.166  1.6748  1.3178 -1.7243
14158SOL     OW45493   8.995   6.400   5.753  0.3622  0.3016 -0.3991
14158SOL    HW145494   8.914   6.414   5.802  0.9480  0.9863  0.4002
14158SOL    HW245495   8.986   6.312   5.715  0.2800 -0.6148  1.6924
14159SOL     OW45496   3.979   5.563   9.305  0.4055  0.6161 -0.5580
14159SOL    HW145497   4.047   5.595   9.246  2.6724 -0.5688  1.3242
14159SOL    HW245498   3.995   5.469   9.311 -0.5988  0.5303  0.9136
14160SOL     OW45499   4.077   4.875   2.258 -0.4720 -0.2910  0.0379
14160SOL    HW145500   4.002   4.933   2.262 -0.0589  0.2990 -0.6124
14160SOL    HW245501   4.113   4.875   2.347 -0.5077  0.3976  0.0507
14161SOL     OW45502   1.972   8.065   5.780 -0.4139 -0.3481 -0.4165
14161SOL    HW145503   1.927   8.143   5.748  1.3156  0.2384 -1.5477
14161SOL    HW245504   1.981   8.079   5.874 -2.1142 -0.2430 -0.2626
14162SOL     OW45505   7.241   8.560   9.230  0.1674  0.3457  0.3086
14162SOL    HW145506   7.317   8.579   9.285  0.6439 -1.6090  0.3717
14162SOL    HW245507   7.236   8.465   9.230 -1.1743  0.4116 -1.2285
14163SOL     OW45508   8.754   3.217   8.211  0.0244  0.3839  0.0740
14163SOL    HW145509   8.846   3.229   8.236  0.0502 -2.7375  1.7323
14163SOL    HW245510   8.705   3.264   8.279  0.3300  0.1225  0.4788
14164SOL     OW45511   0.883   6.978   7.921  0.1970 -0.3626  0.4249
14164SOL    HW145512   0.935   6.931   7.985  0.6811  0.1237  0.3944
14164SOL    HW245513   0.923   6.956   7.837  0.1442 -0.2610  0.3722
14165SOL     OW45514   0.938   0.767   8.874  0.2685 -0.5025 -0.2200
14165SOL    HW145515   0.976   0.824   8.941  1.5096  0.6976 -1.9133
14165SOL    HW245516   0.990   0.687   8.878  0.2370 -0.4967  0.3412
14166SOL     OW45517   1.340   4.138   4.902  0.2509 -0.1925 -0.1336
14166SOL    HW145518   1.367   4.082   4.974  0.7562 -1.7190 -1.4739
14166SOL    HW245519   1.395   4.111   4.828  0.1937  1.7702 -0.9337
14167SOL     OW45520   8.498   2.413   6.148  0.2635  0.2496 -0.2160
14167SOL    HW145521   8.532   2.432   6.235 -0.5457 -0.4823  0.2710
14167SOL    HW245522   8.490   2.318   6.145 -1.0444  0.3543 -0.5660
14168SOL     OW45523   5.897   8.482   7.627 -0.4245 -0.4120 -0.3174
14168SOL    HW145524   5.930   8.571   7.618 -1.0469  0.0279  1.5130
14168SOL    HW245525   5.970   8.426   7.599  0.6070  0.6236  0.2692
14169SOL     OW45526   7.893   4.145   1.105 -0.1452  0.1931  0.0460
14169SOL    HW145527   7.876   4.210   1.037 -2.5196 -0.8686 -0.4166
14169SOL    HW245528   7.988   4.147   1.117  0.1375  1.4650 -2.2086
14170SOL     OW45529   1.821   0.751   1.596  0.2667  0.0555 -0.2564
14170SOL    HW145530   1.796   0.714   1.512 -1.3235  0.3512  0.0555
14170SOL    HW245531   1.868   0.681   1.641 -0.4266 -0.6999 -0.6979
14171SOL     OW45532   8.651   8.818   1.861 -0.4881 -0.0586  0.1032
14171SOL    HW145533   8.599   8.848   1.787  0.0582 -1.7239 -0.9921
14171SOL    HW245534   8.619   8.729   1.877  0.9529 -0.5185  0.4259
14172SOL     OW45535   2.571   2.536   1.259  0.8477 -0.0709  0.0803
14172SOL    HW145536   2.529   2.519   1.174  0.2574 -0.5272  0.4625
14172SOL    HW245537   2.664   2.523   1.242  0.4773 -3.1370  0.2139
14173SOL     OW45538   3.780   6.145   2.515 -0.0530  0.2278  0.6717
14173SOL    HW145539   3.792   6.051   2.520  0.0403  0.1392 -1.0224
14173SOL    HW245540   3.745   6.169   2.601 -1.7771 -1.5945  0.5143
14174SOL     OW45541   7.295   9.099   7.162  0.2077 -0.5218  0.1768
14174SOL    HW145542   7.339   9.044   7.227 -1.2728 -0.2075  1.4884
14174SOL    HW245543   7.270   9.177   7.211  0.7259  0.5582 -1.2462
14175SOL     OW45544   9.284   6.855   4.531  0.2638  0.0421 -0.0875
14175SOL    HW145545   9.263   6.767   4.563  0.0932 -0.5428 -1.7709
14175SOL    HW245546   9.365   6.845   4.482  0.3932  0.8857 -0.0652
14176SOL     OW45547   5.718   0.422   8.864 -0.4944 -0.2269  0.1103
14176SOL    HW145548   5.693   0.446   8.774  0.6516 -0.1518 -0.1929
14176SOL    HW245549   5.654   0.355   8.889 -0.7886 -0.2965 -0.7844
14177SOL     OW45550   6.394   4.146   0.130 -0.3752  0.5490 -0.1915
14177SOL    HW145551   6.431   4.105   0.052 -1.2438 -1.1899  0.2914
14177SOL    HW245552   6.467   4.155   0.190 -0.4378 -1.5940  0.2289
14178SOL     OW45553   3.890   8.610   3.522 -0.2481 -0.6100  0.4348
14178SOL    HW145554   3.967   8.637   3.472 -1.1087 -0.5144 -0.8502
14178SOL    HW245555   3.901   8.516   3.534 -1.4855 -1.1786 -2.5153
14179SOL     OW45556   1.910   8.056   4.854  0.0123  0.0689  0.3256
14179SOL    HW145557   1.943   8.006   4.779 -0.3970 -1.3218  1.0581
14179SOL    HW245558   1.989   8.092   4.895  0.1569  1.8362 -1.4374
14180SOL     OW45559   8.340   7.028   6.859  0.3504  0.5075  0.2042
14180SOL    HW145560   8.325   7.015   6.766  1.6658 -1.9540  0.2878
14180SOL    HW245561   8.433   7.051   6.865  0.9461 -1.9861  1.0911
14181SOL     OW45562   6.839   9.004   7.378  0.0240 -0.4755 -0.0584
14181SOL    HW145563   6.923   8.970   7.346 -0.5560 -1.5163 -0.4998
14181SOL    HW245564   6.774   8.944   7.342 -0.7952 -0.5759  1.5497
14182SOL     OW45565   7.803   8.428   0.492  0.3770  0.1088  0.0590
14182SOL    HW145566   7.783   8.388   0.577  1.4313  0.3546  0.4309
14182SOL    HW245567   7.720   8.425   0.444  0.2469 -1.8200  0.3590
14183SOL     OW45568   7.372   2.640   3.795  0.5717  0.4119  0.3087
14183SOL    HW145569   7.370   2.712   3.732 -0.0048  0.3636  0.2730
14183SOL    HW245570   7.376   2.561   3.741 -2.5913  0.2386  0.2602
14184SOL     OW45571   2.839   8.556   1.467 -0.2736  0.3797 -0.2129
14184SOL    HW145572   2.826   8.574   1.560  0.7752 -0.9172  0.2055
14184SOL    HW245573   2.754   8.573   1.427 -0.4860  1.8610  0.8273
14185SOL     OW45574   6.401   0.861   5.445 -0.0959  0.1462  0.1658
14185SOL    HW145575   6.443   0.944   5.466  1.9721 -0.7615 -0.2887
14185SOL    HW245576   6.373   0.869   5.354 -0.9112  0.7456  0.4661
14186SOL     OW45577   5.500   1.035   4.474  0.5021  0.1116  0.6158
14186SOL    HW145578   5.538   1.120   4.450  1.7265 -0.4685  0.4667
14186SOL    HW245579   5.545   0.972   4.419 -2.6799 -0.3328 -1.6043
14187SOL     OW45580   5.401   4.167   2.770 -0.9213  0.0802 -0.8576
14187SOL    HW145581   5.415   4.215   2.689 -0.5722  0.6180 -0.4798
14187SOL    HW245582   5.475   4.106   2.774 -0.6065  0.4730 -0.6400
14188SOL     OW45583   8.713   6.770   5.812 -0.4235 -0.5213 -0.0884
14188SOL    HW145584   8.796   6.765   5.766  0.1231  1.3712  0.6097
14188SOL    HW245585   8.657   6.823   5.755 -1.0949 -1.6361 -0.4720
14189SOL     OW45586   7.724   8.066   6.496 -0.3391 -0.5116 -0.6683
14189SOL    HW145587   7.752   8.155   6.516 -2.0037 -0.2275  0.5646
14189SOL    HW245588   7.795   8.011   6.528 -0.1443  0.2841  0.2974
14190SOL     OW45589   7.180   5.200   2.346  0.3785 -0.3480  0.4729
14190SOL    HW145590   7.090   5.231   2.339  0.6597 -0.1587 -2.9173
14190SOL    HW245591   7.178   5.135   2.417 -1.8537  1.5139  2.1748
14191SOL     OW45592   6.252   3.078   6.909 -0.7995  0.1007  0.5220
14191SOL    HW145593   6.279   3.168   6.927  0.9857 -0.2844 -0.2103
14191SOL    HW245594   6.158   3.077   6.929 -0.8096  2.0938  0.6428
14192SOL     OW45595   5.109   0.621   4.681 -0.1682  0.2068 -0.1308
14192SOL    HW145596   5.153   0.536   4.691 -0.1104  0.0992 -1.3295
14192SOL    HW245597   5.104   0.635   4.587 -0.6366  1.3058  0.0545
14193SOL     OW45598   7.895   1.552   2.213 -0.0084  0.1507  0.0750
14193SOL    HW145599   7.916   1.619   2.278 -2.4629 -0.0300  1.0951
14193SOL    HW245600   7.827   1.499   2.254 -1.8228  0.1931 -2.7337
14194SOL     OW45601   7.100   2.075   1.131 -0.1744 -0.4580  0.3892
14194SOL    HW145602   7.133   2.108   1.214  1.6436  1.0129 -0.8756
14194SOL    HW245603   7.063   2.152   1.087 -0.1074 -0.9952 -0.6292
14195SOL     OW45604   0.542   5.785   3.846  0.0550 -0.3930 -0.1036
14195SOL    HW145605   0.594   5.710   3.875  0.3329  0.2270  1.0200
14195SOL    HW245606   0.602   5.834   3.789 -0.2879 -1.2720 -1.2442
14196SOL     OW45607   8.854   1.841   6.902  0.1935 -0.3296  0.1797
14196SOL    HW145608   8.938   1.814   6.939  0.7547  0.1067 -0.7646
14196SOL    HW245609   8.801   1.866   6.978  0.1273 -2.7494  0.9556
14197SOL     OW45610   1.525   0.616   8.418 -0.2115  0.4306 -0.1449
14197SOL    HW145611   1.545   0.564   8.496  1.6850  0.1689 -0.7790
14197SOL    HW245612   1.455   0.675   8.446 -0.4021 -0.4880  1.4014
14198SOL     OW45613   7.753   6.497   7.473  0.4393  0.0076  0.9112
14198SOL    HW145614   7.706   6.468   7.552  2.3536  0.8321  2.3718
14198SOL    HW245615   7.757   6.419   7.418  0.0979 -0.8861  2.1301
14199SOL     OW45616   8.212   1.221   0.193 -0.5581  0.0522  0.0149
14199SOL    HW145617   8.267   1.270   0.255  0.2001  1.4660 -1.7392
14199SOL    HW245618   8.268   1.150   0.162 -1.7615 -2.2074  2.7958
14200SOL     OW45619   0.230   4.969   4.755 -0.2419  0.0734  0.3135
14200SOL    HW145620   0.307   4.944   4.805 -1.0314 -0.0810  1.4796
14200SOL    HW245621   0.262   4.981   4.665  0.7984 -1.7339  0.4166
14201SOL     OW45622   7.239   5.112   5.471  0.0771 -0.0796  0.0699
14201SOL    HW145623   7.242   5.140   5.562 -0.1170 -0.1657  0.1045
14201SOL    HW245624   7.196   5.026   5.474 -1.0639  0.4741 -0.2273
14202SOL     OW45625   2.483   6.694   5.537  0.5100  0.5740 -0.4061
14202SOL    HW145626   2.504   6.613   5.582 -0.2419  1.0123  0.7560
14202SOL    HW245627   2.555   6.707   5.476  1.1014 -0.4776  0.0570
14203SOL     OW45628   7.045   4.236   4.385  0.2926 -0.2488 -0.3772
14203SOL    HW145629   7.101   4.313   4.375  1.5425 -1.1461 -0.3812
14203SOL    HW245630   6.995   4.252   4.465  0.7004  0.4720 -0.2701
14204SOL     OW45631   1.867   0.712   6.280  0.0330  0.0964 -0.5624
14204SOL    HW145632   1.794   0.701   6.218 -0.4763 -0.0558  0.0591
14204SOL    HW245633   1.842   0.659   6.355 -0.3896  2.0233  0.6775
14205SOL     OW45634   5.572   6.009   4.829  0.3047 -0.3585  1.0715
14205SOL    HW145635   5.490   6.057   4.818  1.5037  1.3336 -1.2489
14205SOL    HW245636   5.574   5.984   4.921 -2.5301  0.0740  1.2897
14206SOL     OW45637   9.100   7.733   4.549  0.1032 -0.0552 -0.1026
14206SOL    HW145638   9.071   7.721   4.640 -0.1027 -0.0161 -0.1637
14206SOL    HW245639   9.022   7.716   4.496  0.4306 -0.8969 -0.3153
14207SOL     OW45640   4.046   8.522   4.794 -0.1638 -0.0003 -0.2126
14207SOL    HW145641   4.012   8.453   4.850 -0.1701  1.8869  2.2190
14207SOL    HW245642   4.139   8.528   4.818 -0.1096  0.6483 -0.5692
14208SOL     OW45643   3.974   4.144   0.431  0.3493 -0.3777  0.2679
14208SOL    HW145644   3.883   4.171   0.420  0.4706 -0.2107 -0.3440
14208SOL    HW245645   3.984   4.132   0.526 -0.0675  0.4241  0.4132
14209SOL     OW45646   2.909   0.866   6.551 -0.1594  0.4922  0.1079
14209SOL    HW145647   2.906   0.923   6.627 -1.5631  1.5757 -0.7474
14209SOL    HW245648   2.848   0.795   6.571 -1.0019  1.1100 -0.2732
14210SOL     OW45649   5.813   3.609   6.072  0.3358  0.0127  0.3957
14210SOL    HW145650   5.741   3.656   6.029  0.1316 -0.1610  0.5496
14210SOL    HW245651   5.793   3.516   6.059  0.7381 -0.0324  0.0948
14211SOL     OW45652   3.665   7.280   5.307  0.0294  0.1321  0.3637
14211SOL    HW145653   3.680   7.223   5.231  1.9181 -2.5926  2.6709
14211SOL    HW245654   3.735   7.345   5.302  0.0764  0.0456 -0.2485
14212SOL     OW45655   8.176   1.294   6.305 -0.6700 -0.3866 -0.2189
14212SOL    HW145656   8.201   1.270   6.216 -1.7707 -2.5796  0.0192
14212SOL    HW245657   8.094   1.344   6.294 -0.3334  0.1108 -0.4864
14213SOL     OW45658   1.482   1.966   6.365 -0.6165  0.0862 -0.6236
14213SOL    HW145659   1.574   1.947   6.347 -0.6246 -1.1861  0.6003
14213SOL    HW245660   1.474   2.061   6.355  0.9883  0.2977  0.0365
14214SOL     OW45661   6.048   8.290   7.484  0.0309  0.4116  0.2195
14214SOL    HW145662   6.022   8.209   7.440  0.0744  0.5691 -0.0991
14214SOL    HW245663   6.034   8.358   7.418  0.4252  0.6053  0.3343
14215SOL     OW45664   0.553   9.001   3.059 -0.2806 -0.1419 -0.0095
14215SOL    HW145665   0.626   9.037   3.009  1.6053 -2.0759  1.2528
14215SOL    HW245666   0.483   8.990   2.995  1.3570 -0.5634 -1.7834
14216SOL     OW45667   9.252   6.455   8.442 -0.4240 -0.3758  0.1336
14216SOL    HW145668   9.201   6.526   8.403  0.8186  2.0653  2.7502
14216SOL    HW245669   9.342   6.471   8.413 -0.2799 -1.5109 -0.0887
14217SOL     OW45670   1.665   0.384   7.026 -0.0035 -0.6703 -0.1809
14217SOL    HW145671   1.605   0.323   6.984 -1.1359  0.1545  0.2216
14217SOL    HW245672   1.690   0.340   7.108 -0.8916 -0.5584  0.1547
14218SOL     OW45673   2.443   5.564   3.309  0.1462 -0.5745 -0.1380
14218SOL    HW145674   2.367   5.513   3.283 -0.4881 -0.0673  0.6918
14218SOL    HW245675   2.507   5.499   3.338 -1.2318 -0.8743  2.4242
14219SOL     OW45676   7.935   7.690   0.473 -0.0398 -0.0546 -0.2181
14219SOL    HW145677   7.914   7.726   0.559 -0.2895  0.7085 -0.5899
14219SOL    HW245678   7.994   7.618   0.491  1.1244  1.0617  0.4998
14220SOL     OW45679   8.640   8.318   3.284  0.4007  0.4277  0.1303
14220SOL    HW145680   8.722   8.277   3.257 -0.2156  0.0543 -1.2384
14220SOL    HW245681   8.642   8.316   3.380  1.3828 -0.7731  0.0938
14221SOL     OW45682   7.619   5.979   4.775  0.1128 -0.4402 -0.6268
14221SOL    HW145683   7.606   6.028   4.856  1.3076 -1.5555  0.2717
14221SOL    HW245684   7.572   6.029   4.708 -0.7675  0.5739  0.7221
14222SOL     OW45685   0.218   2.154   5.972  0.6126 -0.5657 -0.1817
14222SOL    HW145686   0.213   2.238   6.019  2.2553  0.1440 -1.1954
14222SOL    HW245687   0.219   2.088   6.041 -1.0440  0.2229  0.6285
14223SOL     OW45688   9.205   8.905   4.956  0.3617  0.0357 -0.0626
14223SOL    HW145689   9.256   8.985   4.944  0.9418 -0.2660  0.4061
14223SOL    HW245690   9.206   8.863   4.870 -0.5711  0.8927 -0.5129
14224SOL     OW45691   1.487   4.556   6.072 -0.4965 -0.0891  0.2033
14224SOL    HW145692   1.549   4.549   5.999 -0.6649 -1.5776  0.1884
14224SOL    HW245693   1.419   4.615   6.040  0.4063  0.7987 -0.1308
14225SOL     OW45694   4.689   4.508   8.712  0.2658  0.1527 -0.6415
14225SOL    HW145695   4.749   4.562   8.763  2.4261 -2.1643 -0.6346
14225SOL    HW245696   4.689   4.549   8.625  0.3954  1.2458 -0.1376
14226SOL     OW45697   3.326   5.469   5.174  0.0667 -0.3436 -0.3071
14226SOL    HW145698   3.280   5.410   5.234  1.3308 -0.4638  0.5739
14226SOL    HW245699   3.405   5.421   5.150  1.1221  0.9944  0.4341
14227SOL     OW45700   7.810   7.563   9.437 -0.4838 -0.0906 -0.6130
14227SOL    HW145701   7.852   7.560   9.523  1.3099  3.3733 -1.2825
14227SOL    HW245702   7.869   7.513   9.381 -1.3854 -1.9080  0.0139
14228SOL     OW45703   3.453   4.376   8.584 -0.4673 -0.2969 -0.2299
14228SOL    HW145704   3.534   4.353   8.629 -1.4352  0.5803  2.0008
14228SOL    HW245705   3.414   4.292   8.560 -0.1886 -0.7729  0.9809
14229SOL     OW45706   4.488   8.890   5.123 -0.1679 -0.5830  0.1596
14229SOL    HW145707   4.455   8.973   5.089 -1.8437 -0.7485  1.3278
14229SOL    HW245708   4.420   8.826   5.102  0.5564 -1.4379  0.3501
14230SOL     OW45709   3.609   3.856   0.772 -0.5598  0.1030 -0.2589
14230SOL    HW145710   3.563   3.927   0.728 -2.1811 -0.9351 -0.2536
14230SOL    HW245711   3.634   3.795   0.702  0.9440  0.7075 -0.2818
14231SOL     OW45712   0.806   3.156   1.634 -0.3976  0.0842  0.0880
14231SOL    HW145713   0.714   3.162   1.606 -0.0657  0.6595 -0.9010
14231SOL    HW245714   0.855   3.149   1.553  0.3172 -1.9793  0.6855
14232SOL     OW45715   2.135   4.521   7.888 -0.1261 -0.1903 -0.2392
14232SOL    HW145716   2.102   4.536   7.800 -0.6243  0.7104  0.1032
14232SOL    HW245717   2.065   4.550   7.946  0.0080 -1.2071  0.4596
14233SOL     OW45718   5.475   4.208   7.594  0.0809  0.2067  0.3632
14233SOL    HW145719   5.474   4.298   7.625  1.0678  0.8923 -1.4917
14233SOL    HW245720   5.460   4.215   7.499  1.7647 -1.4516 -0.0513
14234SOL     OW45721   0.345   6.441   8.220 -0.3983 -0.1527  0.0788
14234SOL    HW145722   0.266   6.489   8.194  0.0482  1.4030  1.4885
14234SOL    HW245723   0.383   6.412   8.137 -2.5812 -1.1731 -0.6063
14235SOL     OW45724   1.967   4.972   8.722  0.0945 -0.2319 -0.4454
14235SOL    HW145725   1.898   4.998   8.784  0.6825  1.1681 -0.3670
14235SOL    HW245726   1.948   4.880   8.704 -0.2568 -0.5943  1.5903
14236SOL     OW45727   5.954   9.421   2.221  0.2837  0.4796  0.1539
14236SOL    HW145728   5.917   9.352   2.277 -1.1962  0.9943 -0.1795
14236SOL    HW245729   6.042   9.390   2.201 -0.5083 -1.5345 -0.3466
14237SOL     OW45730   3.623   0.891   7.572 -0.0610 -0.1971 -0.2443
14237SOL    HW145731   3.602   0.860   7.660  0.5188 -1.1354 -0.4284
14237SOL    HW245732   3.656   0.980   7.586 -3.0352  0.8882  0.1433
14238SOL     OW45733   4.982   3.613   7.507 -0.3773  0.9454 -0.1513
14238SOL    HW145734   5.029   3.530   7.497  0.6520  1.3998  0.8009
14238SOL    HW245735   4.928   3.600   7.585 -0.6459  0.9877 -0.3269
14239SOL     OW45736   4.199   8.225   2.604  0.5234  0.1495 -0.0781
14239SOL    HW145737   4.110   8.205   2.631  0.4536  1.1352  0.4678
14239SOL    HW245738   4.252   8.214   2.684  0.6533  0.9625 -0.0414
14240SOL     OW45739   2.726   1.954   4.570  0.0460 -0.1086  0.3692
14240SOL    HW145740   2.764   1.868   4.586  0.2238 -0.3080 -1.0487
14240SOL    HW245741   2.717   1.993   4.657  0.8464 -1.1796  0.9443
14241SOL     OW45742   1.310   3.188   7.661  0.3547  0.4735  0.2747
14241SOL    HW145743   1.355   3.104   7.669 -2.1476 -1.0698 -1.0748
14241SOL    HW245744   1.305   3.203   7.567  1.1554  2.3663  0.5286
14242SOL     OW45745   7.968   1.613   2.982 -0.1151 -0.0898  0.4774
14242SOL    HW145746   8.025   1.632   2.907  1.2810 -1.6993  1.0947
14242SOL    HW245747   8.023   1.561   3.041 -2.0751 -1.2252  1.3413
14243SOL     OW45748   6.780   4.163   5.301 -0.4034  0.1194 -0.2739
14243SOL    HW145749   6.858   4.113   5.324  0.4790  0.6077 -2.0383
14243SOL    HW245750   6.744   4.116   5.225  0.6023  2.2313 -2.1390
14244SOL     OW45751   4.730   8.116   3.114  0.1574  0.1546 -0.1609
14244SOL    HW145752   4.738   8.028   3.150  1.6343 -0.0614 -0.9798
14244SOL    HW245753   4.810   8.160   3.142 -0.2554  1.0290 -0.3482
14245SOL     OW45754   2.681   9.315   0.643 -0.1731  0.0973 -0.2036
14245SOL    HW145755   2.648   9.272   0.722  0.9688 -0.8332 -0.2208
14245SOL    HW245756   2.660   9.408   0.655 -0.3473 -0.0996  1.0116
14246SOL     OW45757   2.378   6.123   6.603 -0.1364 -0.3741  0.7630
14246SOL    HW145758   2.319   6.087   6.669  0.0455 -1.9423  0.0866
14246SOL    HW245759   2.432   6.186   6.651 -1.9257  0.6253  1.5146
14247SOL     OW45760   2.769   5.517   3.209  0.2552  0.2550  0.4055
14247SOL    HW145761   2.792   5.579   3.278 -0.5881  0.0984  0.8302
14247SOL    HW245762   2.747   5.437   3.256 -0.2031  0.1112 -0.0554
14248SOL     OW45763   3.352   1.451   7.769  0.2660 -0.3851  0.1997
14248SOL    HW145764   3.425   1.476   7.712  1.4671 -0.0235  1.8662
14248SOL    HW245765   3.322   1.534   7.807  0.3916 -0.7695  1.1520
14249SOL     OW45766   2.273   7.523   2.150  0.3596 -0.6831  0.3776
14249SOL    HW145767   2.245   7.548   2.239  0.4477 -0.1661  0.2641
14249SOL    HW245768   2.303   7.433   2.159  2.6664  0.1451  1.3971
14250SOL     OW45769   3.367   3.736   3.796  0.1350 -0.2800  0.3809
14250SOL    HW145770   3.375   3.781   3.712 -0.3013  1.1321  1.0828
14250SOL    HW245771   3.401   3.798   3.860 -0.1825 -1.0743  1.3369
14251SOL     OW45772   4.970   3.488   1.844 -0.5267  0.6307  0.5536
14251SOL    HW145773   5.050   3.513   1.890 -0.7442  2.0142  0.2037
14251SOL    HW245774   4.936   3.570   1.808 -2.5545  0.1765  1.3927
14252SOL     OW45775   7.466   5.930   3.015  0.2009 -0.1571  0.3178
14252SOL    HW145776   7.527   5.901   2.947 -0.8349  1.1506 -1.1963
14252SOL    HW245777   7.435   5.848   3.054 -0.2720 -1.0099 -1.7499
14253SOL     OW45778   8.500   1.478   5.957  0.3222  0.2914  0.2856
14253SOL    HW145779   8.540   1.414   6.016 -1.3502 -1.2578 -0.2207
14253SOL    HW245780   8.518   1.563   5.998  1.4425 -0.5816  1.6500
14254SOL     OW45781   2.704   6.240   0.057  0.1411  0.5505 -0.8102
14254SOL    HW145782   2.632   6.193   0.099  0.2164  1.1825  0.0472
14254SOL    HW245783   2.661   6.294  -0.010  0.1240 -1.2309 -2.2829
14255SOL     OW45784   0.058   7.900   8.248 -0.0221 -0.2061  0.0767
14255SOL    HW145785   0.134   7.879   8.194  0.6776  2.5543 -0.0651
14255SOL    HW245786   0.002   7.952   8.191 -0.4031  0.6989  1.2601
14256SOL     OW45787   1.326   3.390   3.712 -0.3838 -0.1093 -0.4684
14256SOL    HW145788   1.339   3.374   3.619  0.3136 -1.2963 -0.1726
14256SOL    HW245789   1.242   3.349   3.732 -0.1302 -0.5943 -0.3960
14257SOL     OW45790   2.682   4.728   0.968  0.8076 -0.0383 -0.2843
14257SOL    HW145791   2.754   4.710   0.908  1.2278  1.6085 -0.3001
14257SOL    HW245792   2.639   4.806   0.933  0.1108  0.0438  0.7040
14258SOL     OW45793   0.910   6.688   2.531 -0.1084 -0.4646  0.1086
14258SOL    HW145794   0.961   6.688   2.612  0.1850 -2.7152 -0.0294
14258SOL    HW245795   0.841   6.753   2.546 -0.7332 -1.6269  2.6134
14259SOL     OW45796   8.220   0.731   4.925 -0.7152 -0.4214  0.2063
14259SOL    HW145797   8.246   0.751   5.015  0.7647 -0.3725 -0.2283
14259SOL    HW245798   8.300   0.701   4.882 -1.6282 -1.5008 -0.8073
14260SOL     OW45799   7.572   0.699   5.304  0.1781  0.1357  0.1463
14260SOL    HW145800   7.577   0.641   5.228  0.5686  0.7406 -0.2912
14260SOL    HW245801   7.663   0.708   5.333  0.0376 -0.0307  0.6344
14261SOL     OW45802   3.594   7.937   5.062 -0.0593  0.0393  0.5857
14261SOL    HW145803   3.518   7.882   5.047 -2.3967  3.1501  0.5259
14261SOL    HW245804   3.614   7.926   5.155 -0.1415 -1.3220  0.4486
14262SOL     OW45805   8.171   7.217   5.753  0.2265  0.2969 -0.4307
14262SOL    HW145806   8.081   7.190   5.769 -0.1110  0.8846 -1.3087
14262SOL    HW245807   8.175   7.307   5.784  0.3946  0.4160 -0.7894
14263SOL     OW45808   4.097   2.051   8.537  0.3329 -0.7360  0.3994
14263SOL    HW145809   4.081   2.140   8.568 -0.7488 -0.0475 -2.0084
14263SOL    HW245810   4.048   1.995   8.598 -1.9214  0.5839 -0.1228
14264SOL     OW45811   3.014   2.168   1.660  0.7677 -0.4459  0.5391
14264SOL    HW145812   3.007   2.131   1.748 -0.8328 -1.3678  0.0418
14264SOL    HW245813   3.106   2.193   1.652  1.1526 -1.2788  2.0981
14265SOL     OW45814   6.890   1.940   6.785 -0.4623  0.1378  0.2204
14265SOL    HW145815   6.887   1.974   6.875  0.1644  0.0606  0.2706
14265SOL    HW245816   6.932   2.010   6.735  3.0945 -1.4876  0.7619
14266SOL     OW45817   6.371   0.960   7.933  0.7048  0.1881 -0.4432
14266SOL    HW145818   6.453   0.934   7.890 -0.8381 -1.8772 -2.3351
14266SOL    HW245819   6.344   1.040   7.887  0.4295 -0.5243 -1.5640
14267SOL     OW45820   2.597   6.677   6.242 -0.4399 -0.2796  0.1962
14267SOL    HW145821   2.611   6.696   6.150  0.2610 -0.7765  0.1951
14267SOL    HW245822   2.681   6.643   6.273 -1.0070 -1.2127  0.7310
14268SOL     OW45823   2.639   7.513   0.762  0.1639 -0.3632 -0.0148
14268SOL    HW145824   2.645   7.583   0.827  1.5375  0.3170 -0.8481
14268SOL    HW245825   2.605   7.438   0.810 -1.6140  0.9420  0.8271
14269SOL     OW45826   1.949   6.785   6.594 -0.2400  0.5120 -0.0391
14269SOL    HW145827   1.986   6.739   6.519 -1.0563 -0.4204  0.1257
14269SOL    HW245828   2.025   6.821   6.640  0.4267 -0.8907 -0.0312
14270SOL     OW45829   6.325   0.371   6.233 -0.6075 -0.4608  0.1603
14270SOL    HW145830   6.331   0.448   6.177 -1.3764 -0.3659  0.2017
14270SOL    HW245831   6.395   0.313   6.202  1.4181  1.1459  1.5677
14271SOL     OW45832   2.194   1.398   8.911  0.0007  0.2182  0.7485
14271SOL    HW145833   2.203   1.377   9.004 -1.3610  0.8668  1.0353
14271SOL    HW245834   2.235   1.324   8.865 -0.5424 -0.7616  1.8344
14272SOL     OW45835   2.885   5.492   2.422  0.1565  0.2696 -0.4607
14272SOL    HW145836   2.972   5.533   2.429  0.1799  0.0932  0.2959
14272SOL    HW245837   2.856   5.482   2.512 -1.0391  1.1346 -0.7457
14273SOL     OW45838   0.911   3.577   4.241 -0.1359 -0.3654 -0.4185
14273SOL    HW145839   0.842   3.563   4.176  1.3859 -0.1553 -2.0974
14273SOL    HW245840   0.894   3.665   4.276 -0.2019  0.0343 -1.4534
14274SOL     OW45841   8.748   6.324   0.445 -0.0071  0.7584  0.1582
14274SOL    HW145842   8.656   6.350   0.438  0.2236  1.6700  0.4367
14274SOL    HW245843   8.761   6.304   0.537 -0.0196  0.2472  0.0532
14275SOL     OW45844   0.544   5.387   2.418 -0.1730 -0.2731  0.0062
14275SOL    HW145845   0.464   5.378   2.470 -0.6027  0.2265 -0.5630
14275SOL    HW245846   0.615   5.382   2.482 -0.7343  1.7462  0.8386
14276SOL     OW45847   4.260   4.125   7.228 -0.2585  0.4888 -0.5895
14276SOL    HW145848   4.314   4.047   7.217 -2.7875 -1.4269  0.0075
14276SOL    HW245849   4.199   4.122   7.154 -0.1734  2.0682 -0.7275
14277SOL     OW45850   5.348   1.044   6.101 -0.1920 -0.7966 -0.2341
14277SOL    HW145851   5.377   1.108   6.167 -0.7947 -0.5574 -0.1946
14277SOL    HW245852   5.309   1.097   6.032 -1.6897 -1.1843  0.3034
14278SOL     OW45853   9.167   2.833   1.020  0.6677 -0.4230  0.3431
14278SOL    HW145854   9.221   2.869   0.950  1.6346 -0.0163  1.2810
14278SOL    HW245855   9.141   2.746   0.989 -0.2596  0.3982 -1.1970
14279SOL     OW45856   3.046   0.486   8.789 -0.2591 -0.4084 -0.2494
14279SOL    HW145857   3.053   0.549   8.860 -2.3486  0.9594 -1.2067
14279SOL    HW245858   2.985   0.420   8.822  0.0224 -0.6281 -0.1674
14280SOL     OW45859   3.585   2.966   7.281  0.0990 -0.2897  0.6850
14280SOL    HW145860   3.556   2.954   7.371 -1.1261  0.3132  0.3750
14280SOL    HW245861   3.555   3.053   7.257 -1.4954 -1.2889 -1.0250
14281SOL     OW45862   7.312   3.333   2.941 -0.1728 -0.2864 -0.1682
14281SOL    HW145863   7.273   3.266   2.886  0.5766 -0.3824 -0.5962
14281SOL    HW245864   7.367   3.284   3.003 -1.4172 -0.2132  1.0067
14282SOL     OW45865   1.445   1.523   6.768  0.8739  0.4553 -0.6581
14282SOL    HW145866   1.369   1.563   6.811  1.7929 -0.8287  2.2921
14282SOL    HW245867   1.488   1.596   6.723  0.6217  2.1609  1.7774
14283SOL     OW45868   3.963   6.917   2.364 -0.2125  0.1867 -0.0705
14283SOL    HW145869   3.882   6.898   2.412 -0.9275 -2.7444 -2.2816
14283SOL    HW245870   3.933   6.956   2.282  0.7898  1.4863  0.1592
14284SOL     OW45871   0.395   1.353   0.034 -0.2825 -0.0946 -0.4342
14284SOL    HW145872   0.317   1.304   0.061  1.1548 -1.6428  1.0454
14284SOL    HW245873   0.424   1.309  -0.045 -0.7353  0.2904 -0.8153
14285SOL     OW45874   6.348   3.888   3.401 -0.0765 -0.0355  0.0776
14285SOL    HW145875   6.410   3.961   3.401  0.8096 -0.7724 -0.9986
14285SOL    HW245876   6.282   3.912   3.336 -0.4777  0.3639  0.6221
14286SOL     OW45877   3.282   7.620   1.612 -0.5506  0.1992 -0.5902
14286SOL    HW145878   3.362   7.612   1.560 -0.3411 -0.2285 -0.2068
14286SOL    HW245879   3.299   7.569   1.691 -1.6341 -0.8959 -1.0308
14287SOL     OW45880   7.188   3.806   4.579 -0.2521  0.0750 -0.4969
14287SOL    HW145881   7.278   3.805   4.546  0.0263 -1.3305  0.2470
14287SOL    HW245882   7.143   3.872   4.526  1.2365  0.8575 -0.8140
14288SOL     OW45883   7.303   0.102   1.881 -0.4830 -0.1580 -0.2422
14288SOL    HW145884   7.397   0.095   1.892 -0.4411 -0.8315 -0.9510
14288SOL    HW245885   7.267   0.037   1.941 -0.5211  0.5377  0.4856
14289SOL     OW45886   0.360   5.215   7.447  0.1029  0.5758  0.2311
14289SOL    HW145887   0.325   5.193   7.534  1.1921  0.1616  0.5780
14289SOL    HW245888   0.345   5.136   7.395  2.8655 -0.6104  1.1219
14290SOL     OW45889   0.206   8.337   4.445 -0.3482  0.2355  0.1932
14290SOL    HW145890   0.233   8.285   4.521 -0.3708  0.0005  0.0417
14290SOL    HW245891   0.117   8.365   4.466 -0.3656  0.1455  0.2393
14291SOL     OW45892   2.745   4.201   2.895  0.0911  0.2564  0.9093
14291SOL    HW145893   2.791   4.283   2.874  0.1446 -0.5517 -2.3482
14291SOL    HW245894   2.660   4.209   2.851  1.1053 -2.4879 -1.6906
14292SOL     OW45895   2.721   9.226   8.595  0.1925 -0.6528 -0.6678
14292SOL    HW145896   2.679   9.190   8.673 -0.7269 -1.5244 -1.5496
14292SOL    HW245897   2.805   9.259   8.627 -0.4316 -0.4170  0.8095
14293SOL     OW45898   4.746   1.251   0.693 -0.0187  0.6785  0.6865
14293SOL    HW145899   4.795   1.314   0.746 -0.7730  1.2807  0.6802
14293SOL    HW245900   4.811   1.212   0.635  0.4677  1.4062  0.7399
14294SOL     OW45901   7.952   6.168   4.364 -0.5543 -0.2001  0.3744
14294SOL    HW145902   7.870   6.217   4.366 -1.1494 -1.0761 -1.6901
14294SOL    HW245903   7.997   6.199   4.285 -0.3866 -2.0836 -0.2887
14295SOL     OW45904   1.858   8.297   5.740 -0.3684  0.3550 -0.8019
14295SOL    HW145905   1.778   8.275   5.693 -0.9078  2.2139 -0.7760
14295SOL    HW245906   1.829   8.355   5.810  0.9459  0.6636 -0.5061
14296SOL     OW45907   9.063   2.826   4.819 -0.4756 -0.0141  0.3289
14296SOL    HW145908   9.085   2.738   4.850 -0.7654 -0.0164  0.5277
14296SOL    HW245909   9.097   2.884   4.886  1.6529  0.1566 -0.8308
14297SOL     OW45910   8.898   0.277   9.405 -0.4635 -0.4613  0.0927
14297SOL    HW145911   8.931   0.349   9.458  0.3569 -1.3257  0.7816
14297SOL    HW245912   8.805   0.296   9.393 -0.1563  0.9173 -0.0946
14298SOL     OW45913   4.084   0.817   3.987  0.0351 -0.0063 -0.0503
14298SOL    HW145914   4.055   0.733   4.023 -0.6970  0.7223  1.0593
14298SOL    HW245915   4.167   0.796   3.943 -0.8987 -1.6010 -1.0904
14299SOL     OW45916   1.393   6.110   7.924 -0.1151 -0.0063  0.2390
14299SOL    HW145917   1.371   6.043   7.859 -1.5557  0.9183 -0.2523
14299SOL    HW245918   1.477   6.145   7.895  1.1184 -2.2067  1.0100
14300SOL     OW45919   8.874   2.189   8.223 -0.0905 -0.4195 -0.1486
14300SOL    HW145920   8.954   2.138   8.215 -0.4791 -1.0861  0.2180
14300SOL    HW245921   8.823   2.145   8.291 -0.5043  0.3502  0.0545
14301SOL     OW45922   1.462   0.811   4.362 -0.6332  0.1284  0.0391
14301SOL    HW145923   1.538   0.787   4.309  1.9041  2.7807  2.3427
14301SOL    HW245924   1.436   0.729   4.404  2.2143 -0.4853  0.7269
14302SOL     OW45925   9.116   2.453   5.277 -0.6883  0.2881 -0.3300
14302SOL    HW145926   9.199   2.410   5.256 -1.1702 -0.2478 -1.1836
14302SOL    HW245927   9.092   2.420   5.364 -0.2828  0.0338 -0.3171
14303SOL     OW45928   5.132   4.916   6.236  0.0652 -0.3262 -0.6973
14303SOL    HW145929   5.163   4.966   6.161  2.9597  1.5860  1.6166
14303SOL    HW245930   5.048   4.956   6.259 -1.1166 -1.2872 -3.1756
14304SOL     OW45931   9.413   4.911   6.737  0.3726  0.2100 -0.4632
14304SOL    HW145932   9.438   4.980   6.676  0.4370  0.2005 -0.4484
14304SOL    HW245933   9.317   4.917   6.742  0.4431  0.8860  0.2339
14305SOL     OW45934   0.940   3.587   3.741  0.0948  0.0670 -0.7422
14305SOL    HW145935   0.978   3.634   3.815 -1.7516 -1.5022  1.2768
14305SOL    HW245936   0.846   3.588   3.757 -0.3492 -0.3328 -3.0833
14306SOL     OW45937   9.168   6.745   2.595 -0.3841  0.0356  0.1074
14306SOL    HW145938   9.196   6.822   2.544  1.0244 -0.5398 -0.0037
14306SOL    HW245939   9.074   6.759   2.608 -0.2447  1.5493 -0.3106
14307SOL     OW45940   0.739   6.135   5.814  0.2484  0.3280 -0.4400
14307SOL    HW145941   0.811   6.145   5.752  0.0541  0.8111 -0.5890
14307SOL    HW245942   0.722   6.224   5.846 -0.8945  0.3584 -1.1039
14308SOL     OW45943   1.516   1.507   3.821 -0.1807 -0.0092  0.0444
14308SOL    HW145944   1.477   1.477   3.739  2.6578  2.2382 -2.2596
14308SOL    HW245945   1.560   1.429   3.856 -0.7878 -0.8227 -0.9880
14309SOL     OW45946   8.640   7.906   5.458 -0.3319  0.2595 -0.1720
14309SOL    HW145947   8.691   7.880   5.381 -2.3234 -1.0383 -1.1112
14309SOL    HW245948   8.691   7.975   5.499  2.4014 -1.3144 -0.8118
14310SOL     OW45949   4.722   7.187   6.329  0.0819 -0.1162  0.5740
14310SOL    HW145950   4.720   7.262   6.269 -0.7209 -1.0939 -0.6409
14310SOL    HW245951   4.632   7.155   6.331  0.5439 -1.4600  0.5577
14311SOL     OW45952   1.922   7.579   4.012 -0.2529 -0.1706 -0.1967
14311SOL    HW145953   1.893   7.663   4.049 -0.5035 -0.8028  1.0587
14311SOL    HW245954   1.873   7.570   3.930  2.0530  2.3823 -1.9477
14312SOL     OW45955   8.461   7.236   6.398 -0.1888 -0.4289 -0.2790
14312SOL    HW145956   8.416   7.310   6.357  0.0913  0.5218  1.1061
14312SOL    HW245957   8.392   7.187   6.442 -0.2494 -0.5233 -0.4782
14313SOL     OW45958   5.160   8.708   3.431  0.0738  0.4507  0.5316
14313SOL    HW145959   5.077   8.660   3.430  0.2015  0.2219  0.9284
14313SOL    HW245960   5.154   8.767   3.356 -0.7209  0.9074  0.9513
14314SOL     OW45961   8.485   5.460   5.439 -0.4433  0.1271 -0.3154
14314SOL    HW145962   8.564   5.486   5.391 -0.2250 -0.2158 -0.1417
14314SOL    HW245963   8.417   5.519   5.406  0.1040  1.1138  0.2618
14315SOL     OW45964   9.287   7.183   9.369 -0.0923 -0.2599  0.7869
14315SOL    HW145965   9.339   7.192   9.449 -0.3743  1.6093  0.7923
14315SOL    HW245966   9.304   7.264   9.321 -2.5413  0.1268  0.5202
14316SOL     OW45967   6.045   2.581   4.575  0.2097  0.4640 -0.1364
14316SOL    HW145968   6.075   2.650   4.516 -1.0195  1.4096  0.3049
14316SOL    HW245969   6.069   2.612   4.662  0.3632 -0.0411  0.0023
14317SOL     OW45970   9.321   8.116   2.099 -0.2582  0.3784 -0.7216
14317SOL    HW145971   9.239   8.158   2.073 -1.7515 -1.6274  0.5664
14317SOL    HW245972   9.298   8.024   2.113  2.0688 -0.0944  0.3397
14318SOL     OW45973   4.583   0.147   4.546 -0.1218  0.4582  0.0506
14318SOL    HW145974   4.624   0.199   4.614  0.4185 -0.1796  0.2108
14318SOL    HW245975   4.640   0.072   4.534 -1.6205 -0.8212  0.7918
14319SOL     OW45976   2.926   0.854   4.232  0.4313 -0.0973 -0.1649
14319SOL    HW145977   3.003   0.908   4.211 -0.0581  0.3946 -0.7487
14319SOL    HW245978   2.950   0.766   4.202  0.4503  0.2255 -1.1270
14320SOL     OW45979   6.145   1.036   6.074 -0.3597  0.0271 -0.1654
14320SOL    HW145980   6.213   1.060   6.136 -1.0514 -1.3704  1.1714
14320SOL    HW245981   6.172   1.077   5.991  0.7665  1.5749  0.9525
14321SOL     OW45982   7.775   7.507   4.567  0.4212  0.3474  0.3605
14321SOL    HW145983   7.770   7.480   4.659  0.0043  0.1013  0.2677
14321SOL    HW245984   7.707   7.456   4.523 -0.3256  1.5056  0.1563
14322SOL     OW45985   9.066   5.788   9.382 -1.0259 -0.9699 -0.4957
14322SOL    HW145986   9.077   5.704   9.426 -0.3849 -1.3282 -1.3232
14322SOL    HW245987   9.136   5.843   9.418 -0.5856 -1.2202 -0.9734
14323SOL     OW45988   7.444   4.272   2.005  0.0550  0.4732  0.3325
14323SOL    HW145989   7.389   4.340   2.044 -0.9527 -1.0913  1.6697
14323SOL    HW245990   7.514   4.258   2.069  0.0779  0.0300  0.2124
14324SOL     OW45991   3.338   0.929   3.974 -0.1541 -0.0554 -0.4095
14324SOL    HW145992   3.406   0.891   4.030  1.0313  2.0789 -0.3603
14324SOL    HW245993   3.325   0.864   3.904  0.8093 -1.1786  0.4384
14325SOL     OW45994   0.055   6.998   1.211  0.7870 -0.0892 -0.0978
14325SOL    HW145995  -0.035   7.031   1.206  0.4870 -0.9217 -0.2047
14325SOL    HW245996   0.098   7.056   1.274  0.0390 -0.0243  0.3552
14326SOL     OW45997   3.188   9.371   3.039  0.1760  0.2538  0.8300
14326SOL    HW145998   3.112   9.395   3.093 -0.8921  0.1355 -0.5886
14326SOL    HW245999   3.170   9.409   2.953  0.7912 -1.4223 -0.0775
14327SOL     OW46000   7.284   2.113   8.102  0.3934 -0.2989 -0.7406
14327SOL    HW146001   7.188   2.119   8.108  0.2807 -0.7868 -2.0389
14327SOL    HW246002   7.309   2.190   8.052  0.4060 -1.7408 -3.0001
14328SOL     OW46003   2.854   3.020   7.065  0.5053 -0.2498 -0.1145
14328SOL    HW146004   2.902   2.969   7.000 -0.1031  0.5773 -1.2301
14328SOL    HW246005   2.907   3.099   7.077  1.0476 -0.7680  1.0339
14329SOL     OW46006   6.717   4.706   6.927  0.7105 -0.8933  0.3155
14329SOL    HW146007   6.794   4.650   6.927  0.4070 -1.3234 -0.3317
14329SOL    HW246008   6.686   4.705   7.017  0.6393 -1.8717  0.2819
14330SOL     OW46009   4.164   5.765   6.341  0.2805 -0.2113 -0.6705
14330SOL    HW146010   4.077   5.799   6.361  1.2102  1.6910  0.2258
14330SOL    HW246011   4.171   5.771   6.245 -0.9035 -1.2513 -0.8393
14331SOL     OW46012   4.697   0.759   3.183 -0.2041 -0.6072 -0.0178
14331SOL    HW146013   4.665   0.672   3.206  0.0486 -0.6861  0.0405
14331SOL    HW246014   4.639   0.789   3.113  0.7624 -1.5205 -1.2377
14332SOL     OW46015   4.313   8.488   8.862  0.6352 -0.1710  0.4695
14332SOL    HW146016   4.389   8.444   8.899 -0.6263 -1.2502  1.7989
14332SOL    HW246017   4.298   8.563   8.920 -0.0426 -0.6407  0.8999
14333SOL     OW46018   6.458   7.978   2.993 -0.1315 -0.4237  0.4505
14333SOL    HW146019   6.429   8.068   3.007 -0.0448 -0.2085 -0.7224
14333SOL    HW246020   6.487   7.976   2.902  1.2123 -1.2627  0.8780
14334SOL     OW46021   8.295   9.291   5.795 -0.5629  0.4427  0.5422
14334SOL    HW146022   8.253   9.323   5.874 -1.3226  1.3533 -0.2189
14334SOL    HW246023   8.297   9.366   5.736  0.5049 -0.0722 -0.0994
14335SOL     OW46024   0.295   3.314   3.543  0.2393 -0.0698 -0.5522
14335SOL    HW146025   0.247   3.262   3.608 -0.5670  0.0697 -1.0226
14335SOL    HW246026   0.316   3.252   3.473  1.6552 -0.3621  0.1087
14336SOL     OW46027   5.143   4.102   6.332 -0.8532  0.4216 -0.2995
14336SOL    HW146028   5.066   4.160   6.336  0.6269  2.3836  1.0002
14336SOL    HW246029   5.130   4.040   6.403 -0.4543  1.8264  1.0333
14337SOL     OW46030   6.876   4.819   6.673 -0.0510 -0.1433  0.0211
14337SOL    HW146031   6.825   4.752   6.719 -2.1515  0.3351 -1.5337
14337SOL    HW246032   6.952   4.771   6.638 -0.8083 -1.4369  0.1040
14338SOL     OW46033   5.384   3.363   3.786  0.0058 -0.3328  0.0242
14338SOL    HW146034   5.422   3.343   3.701  1.0382  0.7514  0.2159
14338SOL    HW246035   5.339   3.446   3.772 -0.0904 -0.3137  0.4580
14339SOL     OW46036   1.607   4.322   4.941  0.2431  0.4384  0.1762
14339SOL    HW146037   1.660   4.248   4.910  0.8784  1.0675 -0.2497
14339SOL    HW246038   1.669   4.379   4.987 -0.4679  0.0978  1.6172
14340SOL     OW46039   8.641   4.739   5.920 -0.5429  0.0703  0.6930
14340SOL    HW146040   8.554   4.778   5.917 -0.4880  0.0651 -1.6662
14340SOL    HW246041   8.701   4.813   5.911 -0.3171 -0.0440  1.2136
14341SOL     OW46042   4.323   9.261   9.443  0.3013 -0.0168  0.0008
14341SOL    HW146043   4.347   9.346   9.406 -0.2307 -0.4854 -1.4779
14341SOL    HW246044   4.259   9.225   9.380  1.0081 -1.7831  0.2623
14342SOL     OW46045   7.157   5.799   5.292  0.4234  0.5530  0.1796
14342SOL    HW146046   7.079   5.788   5.237  0.0169  0.2512  0.8116
14342SOL    HW246047   7.188   5.710   5.306  0.1679  0.5868  0.9563
14343SOL     OW46048   5.189   8.287   3.473  0.2922  0.0823  0.0397
14343SOL    HW146049   5.099   8.297   3.443  0.1138  1.6769  1.0523
14343SOL    HW246050   5.231   8.234   3.405 -0.3705  2.7234 -2.5415
14344SOL     OW46051   6.536   0.514   4.252  0.0315 -0.5265  0.2473
14344SOL    HW146052   6.499   0.488   4.336  1.2174 -0.4692  0.8055
14344SOL    HW246053   6.546   0.609   4.257 -0.9709 -0.3754 -0.4148
14345SOL     OW46054   4.982   3.670   5.783 -0.1276  0.2233 -0.1293
14345SOL    HW146055   5.052   3.653   5.720  0.5888  0.8026  0.5111
14345SOL    HW246056   4.903   3.635   5.741  0.6668 -1.1380 -0.5258
14346SOL     OW46057   2.702   2.101   8.340  0.0524 -0.4696 -0.0571
14346SOL    HW146058   2.668   2.101   8.429 -0.9063  0.2681 -0.4119
14346SOL    HW246059   2.740   2.188   8.328  1.4534 -1.0476  0.0983
14347SOL     OW46060   6.968   2.610   4.804 -0.1526 -0.4058 -0.0152
14347SOL    HW146061   6.930   2.561   4.731 -0.4669 -1.9431  1.1375
14347SOL    HW246062   7.030   2.549   4.844  1.2489  1.0118 -0.0044
14348SOL     OW46063   1.339   1.347   5.255  0.3505 -0.2952  0.0706
14348SOL    HW146064   1.328   1.336   5.160 -1.3320 -1.1309  0.3304
14348SOL    HW246065   1.251   1.369   5.286  1.2890  1.9998  1.1843
14349SOL     OW46066   5.726   2.209   4.693 -0.2520 -0.5703 -0.2131
14349SOL    HW146067   5.710   2.124   4.653  1.6553  0.1637 -2.6427
14349SOL    HW246068   5.817   2.229   4.673 -1.0031  2.6054 -0.7969
14350SOL     OW46069   7.500   6.761   5.593  0.4780 -0.1572 -0.5442
14350SOL    HW146070   7.514   6.700   5.666  2.3724  0.5361 -0.2911
14350SOL    HW246071   7.519   6.847   5.630 -0.6724  0.4390 -1.3026
14351SOL     OW46072   2.282   1.071   8.468 -0.7528  0.0239 -0.4808
14351SOL    HW146073   2.234   1.057   8.386 -2.1664  0.2399  0.2811
14351SOL    HW246074   2.321   0.986   8.489 -1.1236 -0.2576 -0.9274
14352SOL     OW46075   6.857   4.437   8.815  0.0364  0.1296  0.2933
14352SOL    HW146076   6.837   4.432   8.721  0.9959  0.5120  0.0596
14352SOL    HW246077   6.830   4.525   8.840 -1.0081 -0.2623  0.5747
14353SOL     OW46078   4.417   1.486   7.837 -0.1142 -0.3477  0.3844
14353SOL    HW146079   4.379   1.455   7.754  1.6798  1.7742 -1.2977
14353SOL    HW246080   4.508   1.455   7.834  0.2995  0.8068  0.9967
14354SOL     OW46081   8.709   8.337   3.535 -0.1814  0.0716  0.0219
14354SOL    HW146082   8.805   8.342   3.530 -0.2251  0.2746 -0.6503
14354SOL    HW246083   8.692   8.249   3.569  0.1910 -0.9144 -2.2467
14355SOL     OW46084   3.730   3.366   9.216  0.6646 -0.1725  0.2200
14355SOL    HW146085   3.662   3.414   9.263  0.1646 -2.4030  1.8529
14355SOL    HW246086   3.753   3.423   9.142 -1.5245  1.5175  0.7868
14356SOL     OW46087   1.680   3.466   3.538 -0.2930 -0.0278 -0.5554
14356SOL    HW146088   1.605   3.407   3.528 -0.4465 -0.2843  1.7606
14356SOL    HW246089   1.744   3.417   3.589  0.7312  0.8258 -0.9808
14357SOL     OW46090   7.240   3.788   3.642 -0.1054  0.0386  0.0611
14357SOL    HW146091   7.165   3.736   3.615 -0.1716  0.7030 -1.0899
14357SOL    HW246092   7.259   3.844   3.566  0.0857  1.5418  1.1890
14358SOL     OW46093   3.936   6.401   0.990 -0.4723  0.7233  0.1953
14358SOL    HW146094   3.893   6.380   1.073 -1.6264  1.1956 -0.2848
14358SOL    HW246095   3.950   6.316   0.949  0.7365  0.4239  1.1669
14359SOL     OW46096   2.417   7.631   0.119  0.0962  0.0072 -0.0055
14359SOL    HW146097   2.390   7.722   0.118  2.1502  0.6539 -0.9872
14359SOL    HW246098   2.424   7.608   0.212 -1.3680  0.5402  0.2419
14360SOL     OW46099   0.275   0.275   1.470  0.1252  0.0476  0.3004
14360SOL    HW146100   0.312   0.189   1.451  1.1727  0.0988  1.9710
14360SOL    HW246101   0.257   0.314   1.385  2.5393 -0.6053 -0.5290
14361SOL     OW46102   9.171   0.018   4.081 -0.0459 -0.0051 -0.0102
14361SOL    HW146103   9.087   0.013   4.036 -0.1704  0.3557  0.1850
14361SOL    HW246104   9.182   0.110   4.103  0.9789  0.1369 -1.1103
14362SOL     OW46105   0.075   2.103   0.933  0.2413  0.4173  0.5053
14362SOL    HW146106   0.017   2.150   0.994 -0.5816  1.0739 -0.7641
14362SOL    HW246107   0.143   2.167   0.910  0.9916 -0.0786  1.3279
14363SOL     OW46108   6.041   8.695   7.266 -0.6402 -0.1541  0.0198
14363SOL    HW146109   6.092   8.690   7.347  1.8404  0.4590 -1.4223
14363SOL    HW246110   5.955   8.727   7.293  0.6796  1.7090  2.2353
14364SOL     OW46111   0.040   8.984   6.719  0.1045 -0.4018  0.4161
14364SOL    HW146112  -0.006   9.059   6.757  0.9241  0.7223 -0.7788
14364SOL    HW246113   0.010   8.909   6.771  0.1288  0.8908  2.3736
14365SOL     OW46114   8.606   4.119   0.446 -0.4363  0.0488  0.3022
14365SOL    HW146115   8.543   4.184   0.478 -0.8279  1.4654 -3.1317
14365SOL    HW246116   8.553   4.042   0.427 -0.9065  0.6829 -1.0166
14366SOL     OW46117   9.257   3.076   8.376  0.3575 -0.8346 -0.6044
14366SOL    HW146118   9.324   3.042   8.316 -0.5569 -2.5719 -0.6550
14366SOL    HW246119   9.201   3.001   8.394 -1.2457  0.4768 -0.0988
14367SOL     OW46120   8.036   0.561   6.557  0.1452  0.5469  0.5465
14367SOL    HW146121   8.009   0.576   6.648 -0.3641  1.4373  0.2560
14367SOL    HW246122   7.961   0.589   6.505 -0.3209 -1.7843 -0.0945
14368SOL     OW46123   3.843   1.506   5.319  0.2962 -0.1054  0.4244
14368SOL    HW146124   3.865   1.462   5.402  0.8621 -2.1895 -0.7831
14368SOL    HW246125   3.754   1.477   5.300  1.1596 -1.8888 -1.0624
14369SOL     OW46126   1.211   5.114   2.885 -0.1138  0.4603  0.0511
14369SOL    HW146127   1.215   5.189   2.826  0.6288  0.1269 -0.3375
14369SOL    HW246128   1.160   5.049   2.837 -0.6497  0.6730  0.3349
14370SOL     OW46129   9.053   5.440   6.426  0.4461 -0.4413  0.1543
14370SOL    HW146130   8.991   5.420   6.497  0.2800 -0.3734  0.0281
14370SOL    HW246131   9.029   5.379   6.357  1.4146 -1.3641  0.6206
14371SOL     OW46132   7.307   2.893   7.831  0.3152  0.5635  0.4916
14371SOL    HW146133   7.237   2.959   7.824  1.2508  1.5282  0.0541
14371SOL    HW246134   7.349   2.894   7.745 -0.3098 -1.3646  0.1443
14372SOL     OW46135   6.908   3.405   5.298 -0.4151  0.2652  0.1976
14372SOL    HW146136   6.993   3.362   5.312 -0.4065  0.6728  1.4407
14372SOL    HW246137   6.909   3.429   5.206  1.9389  2.6344  0.7632
14373SOL     OW46138   7.680   0.003   7.176 -0.2417 -0.1451  0.5892
14373SOL    HW146139   7.712   0.027   7.089  0.0140  1.4186  1.0890
14373SOL    HW246140   7.664  -0.091   7.171  0.0015 -0.1158 -1.0722
14374SOL     OW46141   8.643   4.342   0.251 -0.7478 -0.0086  0.3342
14374SOL    HW146142   8.600   4.257   0.247  0.7826 -0.8161  0.7620
14374SOL    HW246143   8.679   4.356   0.164 -0.6491  0.0160  0.3786
14375SOL     OW46144   6.823   8.181   4.467  0.3884  0.2023 -0.0222
14375SOL    HW146145   6.757   8.189   4.536  1.4044  0.6556  0.9007
14375SOL    HW246146   6.826   8.267   4.426 -0.2193 -0.0681 -0.6423
14376SOL     OW46147   7.175   4.061   2.418 -0.0329  0.2544  0.5558
14376SOL    HW146148   7.260   4.055   2.462 -0.7999 -0.4985  1.9588
14376SOL    HW246149   7.148   3.970   2.405 -0.3760  0.4845 -0.3953
14377SOL     OW46150   1.436   5.989   3.252 -0.1670  0.1415 -0.2205
14377SOL    HW146151   1.399   5.909   3.214 -0.5341 -0.1168  0.6782
14377SOL    HW246152   1.383   6.006   3.330  0.5152  0.7248  0.1226
14378SOL     OW46153   8.287   4.183   6.373 -0.1190  0.1256  0.7354
14378SOL    HW146154   8.206   4.191   6.322  0.7835 -1.3235 -0.9499
14378SOL    HW246155   8.258   4.146   6.457 -0.9104 -2.9030 -0.8039
14379SOL     OW46156   7.542   2.610   6.146  0.5466 -0.8332  0.1402
14379SOL    HW146157   7.630   2.648   6.147  0.2887 -0.2277  1.4027
14379SOL    HW246158   7.526   2.583   6.236 -1.3754  1.0341  0.4107
14380SOL     OW46159   2.377   9.101   1.547 -0.1507  0.5864  0.3190
14380SOL    HW146160   2.418   9.187   1.533 -2.2354  1.6454  0.5146
14380SOL    HW246161   2.352   9.072   1.459 -1.1904  1.0829  0.4438
14381SOL     OW46162   3.719   7.622   1.170  0.1282 -0.0792 -0.5299
14381SOL    HW146163   3.800   7.596   1.125 -0.3779  1.8284 -2.6037
14381SOL    HW246164   3.716   7.565   1.248  2.1954 -1.8548 -1.6867
14382SOL     OW46165   3.111   0.169   4.759 -0.5702 -0.2821  0.4154
14382SOL    HW146166   3.117   0.251   4.709  0.6038 -0.0287  0.9480
14382SOL    HW246167   3.017   0.151   4.763 -0.7475  0.1414 -1.1500
14383SOL     OW46168   0.684   7.152   3.203 -0.0164 -0.1478  0.1541
14383SOL    HW146169   0.615   7.114   3.259 -1.0072  0.1854 -0.8228
14383SOL    HW246170   0.643   7.229   3.164  1.7553  1.5494  1.5689
14384SOL     OW46171   4.608   3.848   1.063 -0.1664  0.4667 -0.1661
14384SOL    HW146172   4.559   3.794   1.125  0.4022  1.0624  0.8168
14384SOL    HW246173   4.595   3.938   1.095  1.7658  0.6165  0.2668
14385SOL     OW46174   5.268   0.233   7.286 -0.6819 -0.5838  0.4228
14385SOL    HW146175   5.196   0.233   7.349 -0.1072  0.8675  1.1076
14385SOL    HW246176   5.238   0.292   7.216 -0.2384 -0.0958  0.6355
14386SOL     OW46177   0.853   9.416   0.811  0.4129  0.2717 -0.1422
14386SOL    HW146178   0.924   9.395   0.749  0.7473  0.6618  0.1049
14386SOL    HW246179   0.807   9.489   0.769  1.0447  0.9762  0.3733
14387SOL     OW46180   0.733   5.686   1.083  0.4613 -0.2490  0.3200
14387SOL    HW146181   0.765   5.609   1.130 -0.3005 -0.6932  0.1253
14387SOL    HW246182   0.661   5.653   1.030  1.1077  0.3070 -0.9234
14388SOL     OW46183   3.793   4.035   4.493  0.3486  0.6290  0.1315
14388SOL    HW146184   3.721   4.098   4.486 -1.3610 -1.2262  0.2578
14388SOL    HW246185   3.802   4.001   4.404  0.3949  0.1548  0.3187
14389SOL     OW46186   7.976   5.387   1.494  0.4467 -0.4299 -0.2691
14389SOL    HW146187   7.897   5.437   1.513  2.1379  1.9681  0.7186
14389SOL    HW246188   7.950   5.327   1.425 -2.4941 -0.4079  0.7421
14390SOL     OW46189   2.674   5.522   4.055  0.0750 -0.0433  0.4408
14390SOL    HW146190   2.641   5.477   3.978  2.0538  1.2138 -1.1689
14390SOL    HW246191   2.713   5.452   4.108  0.3648 -0.6439 -0.5572
14391SOL     OW46192   9.323   2.754   3.428  0.3791  0.0909  0.1791
14391SOL    HW146193   9.313   2.717   3.516  1.1509  0.5146  0.4458
14391SOL    HW246194   9.362   2.840   3.443  0.6415  0.1038 -0.5905
14392SOL     OW46195   3.870   6.516   1.511  0.1406  0.5776  0.6913
14392SOL    HW146196   3.910   6.550   1.431  0.9808  0.0122  0.8764
14392SOL    HW246197   3.779   6.499   1.486  0.2702  0.8766 -0.0060
14393SOL     OW46198   2.593   3.278   5.267  0.1827  0.1775  0.6666
14393SOL    HW146199   2.653   3.253   5.338  0.1899 -0.0249  0.5901
14393SOL    HW246200   2.594   3.373   5.267  0.7958  0.1755  0.4227
14394SOL     OW46201   1.303   2.512   6.950 -0.0090 -0.0179 -0.2310
14394SOL    HW146202   1.290   2.475   7.037 -0.6345 -1.2593 -0.8334
14394SOL    HW246203   1.222   2.491   6.903 -0.6355  2.6198 -0.4363
14395SOL     OW46204   3.261   7.256   7.584  0.0810  0.1927 -0.5316
14395SOL    HW146205   3.323   7.308   7.636 -0.8908  0.7689  0.0652
14395SOL    HW246206   3.176   7.271   7.626 -0.7677  0.8561 -2.4425
14396SOL     OW46207   1.577   7.635   8.583 -0.0504 -0.0543  0.1973
14396SOL    HW146208   1.540   7.554   8.616  0.7439  0.1679  1.6906
14396SOL    HW246209   1.565   7.698   8.654 -0.4659  1.0889 -0.8545
14397SOL     OW46210   4.291   8.023   3.140  0.3645 -0.2616  0.2711
14397SOL    HW146211   4.332   8.107   3.158  0.4051 -0.5455  1.6197
14397SOL    HW246212   4.247   8.000   3.222 -0.2043 -1.2414 -0.2918
14398SOL     OW46213   6.240   5.380   7.822 -0.0533 -0.1284 -0.1596
14398SOL    HW146214   6.200   5.451   7.772 -1.2329  0.3750  1.4524
14398SOL    HW246215   6.165   5.328   7.854  0.6535 -0.2183  1.3894
14399SOL     OW46216   0.890   5.926   6.419 -0.2498  0.7824  0.4450
14399SOL    HW146217   0.842   5.845   6.439  1.7126 -0.4056  0.5162
14399SOL    HW246218   0.932   5.909   6.335  1.7897  0.9643  1.4051
14400SOL     OW46219   7.787   0.949   5.869 -0.6591 -0.1003 -0.2044
14400SOL    HW146220   7.701   0.986   5.850 -0.5677  0.1778 -0.0759
14400SOL    HW246221   7.842   1.025   5.889 -0.1056 -0.1798 -1.3704
14401SOL     OW46222   2.017   7.960   4.304  0.1326  0.4571  0.1866
14401SOL    HW146223   1.964   7.908   4.365  0.8613  1.0245  1.3407
14401SOL    HW246224   2.107   7.950   4.336  0.4818  1.0627 -0.5843
14402SOL     OW46225   4.278   5.865   1.535 -0.0626  0.1182  0.2485
14402SOL    HW146226   4.353   5.919   1.512 -0.1447 -0.2609 -0.9257
14402SOL    HW246227   4.315   5.794   1.588  0.6637 -0.9668 -1.6668
14403SOL     OW46228   8.241   5.490   7.653 -0.0267  0.1605  0.1361
14403SOL    HW146229   8.240   5.572   7.703 -0.9825 -0.1571  0.6491
14403SOL    HW246230   8.285   5.428   7.711  1.2239  0.4557 -0.4915
14404SOL     OW46231   6.204   6.286   6.333 -0.2272  0.1554 -0.1849
14404SOL    HW146232   6.200   6.313   6.425 -1.1655 -0.2042 -0.1095
14404SOL    HW246233   6.279   6.225   6.329 -0.7264 -0.5214  0.5376
14405SOL     OW46234   7.311   8.912   8.729  0.0539  0.7587  0.2381
14405SOL    HW146235   7.316   8.823   8.695 -0.0175  0.0968  1.8965
14405SOL    HW246236   7.317   8.968   8.652  0.3107 -0.6773 -0.8017
14406SOL     OW46237   6.240   4.484   0.367  0.2752  0.4902 -0.2994
14406SOL    HW146238   6.171   4.474   0.433 -0.6065 -2.2024 -1.5716
14406SOL    HW246239   6.205   4.549   0.306 -0.5929  0.0659 -0.2588
14407SOL     OW46240   7.866   2.797   5.467 -0.7726 -0.5048 -0.1788
14407SOL    HW146241   7.897   2.722   5.518  0.1193  0.8019  1.2266
14407SOL    HW246242   7.939   2.816   5.407 -0.6306 -0.2300  0.0750
14408SOL     OW46243   7.864   6.862   2.145 -0.0051  0.2119 -0.4595
14408SOL    HW146244   7.816   6.864   2.062  1.0160 -0.7064 -1.0775
14408SOL    HW246245   7.815   6.922   2.202 -1.4090 -0.0585 -1.3397
14409SOL     OW46246   8.213   8.272   9.116 -0.5230 -0.3124 -0.4026
14409SOL    HW146247   8.146   8.242   9.177 -0.7758  0.5644 -0.2384
14409SOL    HW246248   8.295   8.244   9.156 -0.6904  0.1741  0.2944
14410SOL     OW46249   6.564   9.280   8.507  0.2604 -0.6722 -0.0930
14410SOL    HW146250   6.606   9.280   8.592  1.5779  1.0778 -0.7037
14410SOL    HW246251   6.474   9.309   8.525  0.3027 -1.0916  0.8002
14411SOL     OW46252   1.690   2.121   8.582 -0.0853 -0.3425 -0.1215
14411SOL    HW146253   1.642   2.200   8.558  0.3802 -0.3646 -1.1282
14411SOL    HW246254   1.633   2.078   8.646 -0.6841  0.4205 -0.1215
14412SOL     OW46255   3.745   2.807   2.032 -0.0428  0.4344  0.2792
14412SOL    HW146256   3.673   2.840   1.978 -0.9151 -0.2676  1.0032
14412SOL    HW246257   3.815   2.871   2.020  0.0196 -0.0514 -2.2050
14413SOL     OW46258   9.126   7.099   6.307 -0.0858 -0.0627 -0.1058
14413SOL    HW146259   9.060   7.112   6.376 -0.6907  0.8204 -0.8384
14413SOL    HW246260   9.088   7.031   6.251  1.3422 -2.3256  1.5626
14414SOL     OW46261   0.391   2.494   8.689  0.3463  0.0534  0.0710
14414SOL    HW146262   0.466   2.457   8.642 -0.6819  0.3290 -1.8410
14414SOL    HW246263   0.429   2.565   8.741  1.3097  0.8595 -1.6534
14415SOL     OW46264   4.466   7.188   3.060 -0.5216  0.6890  0.0013
14415SOL    HW146265   4.550   7.193   3.013 -0.8403 -1.5597 -0.8737
14415SOL    HW246266   4.415   7.124   3.011 -2.4326  1.3637  1.0597
14416SOL     OW46267   7.132   6.324   3.279 -0.4619  0.2801  0.2885
14416SOL    HW146268   7.167   6.340   3.191  1.6273  1.2569  1.2568
14416SOL    HW246269   7.039   6.345   3.272 -0.5271 -0.6431 -1.9356
14417SOL     OW46270   1.647   8.809   7.946 -0.5325  0.3409  0.2464
14417SOL    HW146271   1.724   8.850   7.909 -0.2002 -1.4203 -1.0979
14417SOL    HW246272   1.671   8.717   7.956 -1.7818  0.1437  1.6730
14418SOL     OW46273   3.004   0.945   1.141 -0.0676  0.3001  0.3975
14418SOL    HW146274   3.090   0.968   1.107  0.2191 -1.2516  0.0700
14418SOL    HW246275   2.949   0.938   1.063 -0.2369  0.1914  0.5266
14419SOL     OW46276   7.859   7.235   1.901 -0.1525  0.3129  1.2364
14419SOL    HW146277   7.795   7.221   1.971 -1.3893  0.2806  0.1173
14419SOL    HW246278   7.936   7.185   1.929 -1.5043 -1.7369  1.3815
14420SOL     OW46279   3.777   7.091   1.445  0.5206 -0.2539 -0.2451
14420SOL    HW146280   3.775   7.025   1.515  1.5409 -1.8388 -1.6774
14420SOL    HW246281   3.739   7.169   1.485 -0.4351 -1.6159  1.5819
14421SOL     OW46282   2.847   5.186   4.857  0.8567 -0.1398 -0.5011
14421SOL    HW146283   2.766   5.237   4.862  1.2980  0.6774 -1.4591
14421SOL    HW246284   2.894   5.224   4.783  1.9744 -0.8229 -0.1469
14422SOL     OW46285   0.898   1.139   7.785  1.1299 -0.3900 -0.4328
14422SOL    HW146286   0.843   1.116   7.710  1.2915 -0.3996 -0.5487
14422SOL    HW246287   0.888   1.066   7.846  1.2599 -0.5398 -0.5900
14423SOL     OW46288   8.210   4.744   2.695 -0.1131  0.2613  0.1828
14423SOL    HW146289   8.229   4.796   2.773 -0.5903 -1.7973  1.6953
14423SOL    HW246290   8.250   4.794   2.623  0.7137  1.9548  1.7732
14424SOL     OW46291   8.651   2.288   8.750 -0.1649  0.3399 -0.0180
14424SOL    HW146292   8.614   2.376   8.739  0.6020  0.6015 -0.5291
14424SOL    HW246293   8.730   2.288   8.697 -0.2203 -0.7080 -0.1170
14425SOL     OW46294   2.219   7.526   6.445 -0.0039 -0.3574 -0.5931
14425SOL    HW146295   2.126   7.532   6.423 -0.1207 -1.1453 -0.3142
14425SOL    HW246296   2.228   7.443   6.490  0.1187  1.4656  2.9268
14426SOL     OW46297   6.324   9.327   8.884  0.4267 -0.3080  0.3462
14426SOL    HW146298   6.230   9.335   8.899  0.2476  1.6415 -1.5169
14426SOL    HW246299   6.362   9.403   8.928  1.0239 -0.5447  0.2476
14427SOL     OW46300   7.336   8.281   8.925 -0.0385  0.2500 -0.3200
14427SOL    HW146301   7.306   8.363   8.886  2.1407  0.6518 -1.2521
14427SOL    HW246302   7.423   8.267   8.887  0.1926 -1.7788  0.8794
14428SOL     OW46303   3.319   0.348   2.502  0.5396  0.1095 -0.2874
14428SOL    HW146304   3.380   0.351   2.428  0.1046 -1.6896 -0.7487
14428SOL    HW246305   3.338   0.264   2.544  0.2116  0.7479  1.1633
14429SOL     OW46306   0.000   5.301   7.398  0.4501  0.1927 -0.2352
14429SOL    HW146307  -0.024   5.218   7.439 -1.4321  1.8812  2.2129
14429SOL    HW246308   0.096   5.298   7.394  0.4796 -1.5299  1.0696
14430SOL     OW46309   7.958   1.590   5.838 -0.2399 -0.1730 -0.0089
14430SOL    HW146310   7.908   1.619   5.761 -1.6179  0.2592  1.0385
14430SOL    HW246311   8.022   1.660   5.852 -0.5872  0.1897 -0.2073
14431SOL     OW46312   6.171   9.157   2.335 -0.5657 -0.2004 -0.0581
14431SOL    HW146313   6.224   9.077   2.340  1.6567  1.2966  1.1108
14431SOL    HW246314   6.160   9.184   2.426 -0.0284  1.6146 -0.5073
14432SOL     OW46315   8.544   4.361   6.412 -0.1262  0.1796 -0.4690
14432SOL    HW146316   8.544   4.456   6.401 -2.5396  0.3579  0.9513
14432SOL    HW246317   8.464   4.331   6.369 -1.1206 -0.8269  1.9777
14433SOL     OW46318   4.532   5.968   8.895  0.1214 -0.1889  0.0919
14433SOL    HW146319   4.547   5.959   8.989  0.6982 -0.8799 -0.0664
14433SOL    HW246320   4.590   5.904   8.854 -0.0676  0.1568 -0.7427
14434SOL     OW46321   7.718   5.674   8.749  0.4283  0.6350  0.1617
14434SOL    HW146322   7.778   5.694   8.678  2.0393 -3.0354  0.3700
14434SOL    HW246323   7.640   5.641   8.706 -1.0098  4.0388 -0.0426
14435SOL     OW46324   3.982   4.020   0.024 -0.0246  0.3545 -0.0799
14435SOL    HW146325   4.039   3.991  -0.048 -0.1727  1.4421 -0.6367
14435SOL    HW246326   4.038   4.077   0.076 -0.3388  0.7010 -0.1252
14436SOL     OW46327   4.500   4.853   3.411  0.0962  0.6091  0.0609
14436SOL    HW146328   4.448   4.809   3.344 -0.8186  2.5285 -0.5339
14436SOL    HW246329   4.452   4.838   3.493 -0.2085  0.5072 -0.1368
14437SOL     OW46330   2.563   2.755   8.053 -0.2601 -0.3125  0.1796
14437SOL    HW146331   2.647   2.725   8.087 -0.1786  0.2656  0.4907
14437SOL    HW246332   2.551   2.707   7.971  0.5575 -0.0876 -0.0711
14438SOL     OW46333   1.085   5.251   8.489  0.1801  0.5331 -0.0006
14438SOL    HW146334   1.043   5.327   8.528 -0.1712  0.1521  0.3490
14438SOL    HW246335   1.121   5.202   8.563  1.2607  0.8626 -0.2863
14439SOL     OW46336   2.495   1.188   3.920  0.1467 -0.0555 -0.0738
14439SOL    HW146337   2.494   1.092   3.913 -0.2143 -0.1046  0.5815
14439SOL    HW246338   2.577   1.207   3.966 -0.0417 -0.0874  0.2774
14440SOL     OW46339   4.511   3.626   3.565 -0.5437 -0.2042  0.3404
14440SOL    HW146340   4.547   3.560   3.505 -0.6197  0.2545 -0.2228
14440SOL    HW246341   4.501   3.704   3.510  1.0630  0.7571  1.3890
14441SOL     OW46342   8.643   9.250   7.581 -0.0771  1.3616 -0.4328
14441SOL    HW146343   8.734   9.221   7.585 -0.2860  0.7024 -0.4907
14441SOL    HW246344   8.631   9.303   7.660  0.2505  1.1462 -0.2367
14442SOL     OW46345   2.615   5.576   8.744  0.2371 -0.4666  0.1841
14442SOL    HW146346   2.557   5.650   8.761 -0.7164 -0.6647 -2.0056
14442SOL    HW246347   2.564   5.499   8.769  1.1466 -0.4499  2.2474
14443SOL     OW46348   0.957   9.318   5.186  0.1431  0.2938  0.2253
14443SOL    HW146349   0.910   9.240   5.215 -1.4112  1.0317 -0.2185
14443SOL    HW246350   1.018   9.338   5.257  0.6371 -1.3902  0.2760
14444SOL     OW46351   7.827   1.760   7.776 -0.2834 -0.6216  0.3922
14444SOL    HW146352   7.878   1.818   7.832 -0.2367 -0.9973  0.7462
14444SOL    HW246353   7.771   1.711   7.837 -1.7789  0.4750 -0.0671
14445SOL     OW46354   8.296   2.954   7.187 -0.3552  0.0359  0.1736
14445SOL    HW146355   8.226   2.896   7.159  0.3221 -0.6021 -0.2429
14445SOL    HW246356   8.342   2.906   7.256 -0.1782  0.3401  0.2704
14446SOL     OW46357   0.686   6.443   4.340 -0.1756  0.0729  0.1698
14446SOL    HW146358   0.635   6.522   4.320 -0.6871 -0.0656  0.9032
14446SOL    HW246359   0.643   6.405   4.417 -0.8717 -1.7869 -1.1070
14447SOL     OW46360   6.017   2.933   7.255 -0.1392  1.3211 -0.3197
14447SOL    HW146361   6.050   2.852   7.216 -0.4763  0.9003  0.2627
14447SOL    HW246362   6.076   2.950   7.329  0.0943  1.7522 -0.6016
14448SOL     OW46363   4.426   6.803   8.376  0.1685  0.0860 -0.2082
14448SOL    HW146364   4.434   6.718   8.334 -0.5351  1.4377 -3.2128
14448SOL    HW246365   4.337   6.833   8.353  0.3046  1.5157  1.0200
14449SOL     OW46366   0.379   4.677   7.475  0.3424  0.2718 -0.7526
14449SOL    HW146367   0.389   4.629   7.393 -0.7452  0.0057 -0.7360
14449SOL    HW246368   0.340   4.614   7.535  0.8303  0.5638 -0.1223
14450SOL     OW46369   6.623   5.303   0.949 -0.4512  0.7503  0.0741
14450SOL    HW146370   6.543   5.287   0.898  0.2294 -0.2037 -0.6875
14450SOL    HW246371   6.625   5.398   0.959 -1.6376  0.7954  0.0168
14451SOL     OW46372   6.426   0.912   9.288  0.0062 -0.5145 -0.2957
14451SOL    HW146373   6.353   0.956   9.246  0.6186 -0.7428 -1.6483
14451SOL    HW246374   6.467   0.979   9.343  0.7779  0.5474 -2.1302
14452SOL     OW46375   5.804   1.696   0.424  0.1004  0.2014  0.2961
14452SOL    HW146376   5.712   1.676   0.435 -0.0285  1.0348  0.8116
14452SOL    HW246377   5.807   1.753   0.347  0.1774  0.1477  0.2602
14453SOL     OW46378   9.336   5.906   7.244 -0.1232  0.0279 -0.3468
14453SOL    HW146379   9.378   5.851   7.310 -0.8632 -0.5585 -0.3556
14453SOL    HW246380   9.274   5.960   7.293  1.2675  1.5566 -0.2091
14454SOL     OW46381   4.228   7.989   3.946 -0.4932  0.1931 -0.4116
14454SOL    HW146382   4.264   7.967   4.032 -0.5822 -0.5459 -0.5568
14454SOL    HW246383   4.134   7.979   3.956 -0.4891 -0.0923 -0.6475
14455SOL     OW46384   7.389   5.734   4.433 -0.0364  0.3027 -0.7485
14455SOL    HW146385   7.380   5.733   4.338  0.0899  1.0111 -0.7700
14455SOL    HW246386   7.450   5.805   4.451 -1.3806  1.3008 -0.0389
14456SOL     OW46387   2.546   3.384   7.655  0.4407  0.3193  0.0369
14456SOL    HW146388   2.586   3.329   7.588 -0.1818 -1.3508  1.0028
14456SOL    HW246389   2.610   3.386   7.726 -0.0766 -0.2600  0.5334
14457SOL     OW46390   4.092   8.091   0.119  0.2400  0.3123  0.3284
14457SOL    HW146391   4.073   8.125   0.206 -0.0474 -0.1264  0.4398
14457SOL    HW246392   4.133   8.006   0.135  0.9246  0.5922  0.0519
14458SOL     OW46393   4.515   0.936   6.482  0.1496 -1.2091  0.0587
14458SOL    HW146394   4.429   0.926   6.442 -0.9736  0.3257  1.9999
14458SOL    HW246395   4.513   0.878   6.559  0.1688  0.1638  1.1210
14459SOL     OW46396   2.003   4.990   7.855 -0.4334 -0.5175  0.2150
14459SOL    HW146397   2.052   5.052   7.910  0.2488 -0.4957 -0.4047
14459SOL    HW246398   2.027   4.904   7.889  1.8791 -0.6261 -1.5373
14460SOL     OW46399   5.697   1.579   3.576  0.4007 -0.1590  0.3343
14460SOL    HW146400   5.771   1.633   3.602 -0.6330  1.5296 -0.1167
14460SOL    HW246401   5.704   1.500   3.629  2.0841  0.3100  0.8258
14461SOL     OW46402   9.110   2.521   4.059 -0.2482  0.7017  0.6635
14461SOL    HW146403   9.133   2.530   4.152 -0.2691  0.2740  0.7158
14461SOL    HW246404   9.159   2.589   4.015  1.1904 -0.2469  0.7650
14462SOL     OW46405   2.187   6.377   7.835  0.2282 -0.2948 -0.2439
14462SOL    HW146406   2.156   6.293   7.869  3.3264  0.3546  4.7385
14462SOL    HW246407   2.152   6.442   7.896 -1.4966  2.0199 -3.6075
14463SOL     OW46408   5.875   7.855   6.242 -0.2249  0.1189  0.1080
14463SOL    HW146409   5.814   7.910   6.291  0.9600 -0.1128  1.9077
14463SOL    HW246410   5.917   7.915   6.181 -0.4504  0.7975  0.6102
14464SOL     OW46411   4.592   8.637   5.187 -0.1088  0.6127 -0.7275
14464SOL    HW146412   4.672   8.688   5.195 -0.6620  1.5559 -1.1678
14464SOL    HW246413   4.527   8.685   5.238  0.0433 -1.1140  1.1765
14465SOL     OW46414   1.104   3.986   6.862  0.0895  0.0984  0.1798
14465SOL    HW146415   1.129   4.055   6.800 -0.5239 -1.7024 -2.1228
14465SOL    HW246416   1.187   3.947   6.889  0.4385  1.6323  1.4398
14466SOL     OW46417   8.090   5.505   4.989 -0.0417 -0.1510 -0.2855
14466SOL    HW146418   8.052   5.449   5.057 -0.3405 -1.0542 -1.1817
14466SOL    HW246419   8.184   5.494   4.998 -0.1283 -1.6116 -1.1248
14467SOL     OW46420   7.634   8.743   6.558  0.4451 -0.2131  0.2068
14467SOL    HW146421   7.713   8.692   6.541  0.7574  0.2022  0.4086
14467SOL    HW246422   7.562   8.682   6.540  0.7578  0.0927 -2.2258
14468SOL     OW46423   2.261   4.671   5.587  0.9575 -0.2118  0.0519
14468SOL    HW146424   2.240   4.674   5.493  1.3285 -0.2086 -0.0296
14468SOL    HW246425   2.297   4.583   5.600 -0.0073 -0.5720  0.3842
14469SOL     OW46426   3.096   2.469   0.667  0.1304  0.1427  0.1753
14469SOL    HW146427   3.131   2.405   0.605  3.7132  0.9047  1.2960
14469SOL    HW246428   3.083   2.419   0.747  2.4255  0.6458  0.8942
14470SOL     OW46429   7.520   3.258   5.144  0.5132 -0.5039 -0.7090
14470SOL    HW146430   7.589   3.222   5.200 -0.3301 -0.6209  0.2741
14470SOL    HW246431   7.510   3.194   5.073  2.2327  0.1014 -1.5336
14471SOL     OW46432   9.269   7.345   6.232  0.5492 -0.2146 -0.4678
14471SOL    HW146433   9.245   7.416   6.174  1.4868  0.3386 -0.1869
14471SOL    HW246434   9.202   7.278   6.218 -1.8589  1.7500  1.1769
14472SOL     OW46435   2.782   6.369   3.149  0.2556 -0.3320 -0.2451
14472SOL    HW146436   2.827   6.303   3.095 -1.9313 -1.9775 -0.1262
14472SOL    HW246437   2.733   6.318   3.213  0.0424  1.5065  1.0986
14473SOL     OW46438   7.637   9.161   4.389  0.0955  0.4191  0.1479
14473SOL    HW146439   7.709   9.113   4.349 -0.9759 -0.3405 -0.9174
14473SOL    HW246440   7.632   9.242   4.338 -1.7673 -0.8846 -1.8545
14474SOL     OW46441   2.318   5.104   1.956  0.4666  0.2732  0.2866
14474SOL    HW146442   2.249   5.037   1.949 -0.1171  0.7446  1.4706
14474SOL    HW246443   2.375   5.086   1.881 -1.2567  0.2483 -1.0654
14475SOL     OW46444   2.677   5.441   0.340  0.3426 -0.1160 -0.0862
14475SOL    HW146445   2.659   5.416   0.431 -0.0010  0.6214  0.0495
14475SOL    HW246446   2.752   5.501   0.346  0.2465  0.0223 -0.2799
14476SOL     OW46447   8.216   1.918   6.427 -0.6834  0.3966  0.2083
14476SOL    HW146448   8.221   2.013   6.421 -1.1688  0.4868  1.0741
14476SOL    HW246449   8.302   1.890   6.457 -0.5524  0.5677 -0.0133
14477SOL     OW46450   0.819   7.491   4.154  0.1461 -0.2894  0.2016
14477SOL    HW146451   0.844   7.575   4.192 -0.6158  0.2624 -0.4831
14477SOL    HW246452   0.889   7.431   4.178  1.1240  0.7571 -0.0239
14478SOL     OW46453   0.224   8.309   1.506 -0.1443  0.1214 -0.2141
14478SOL    HW146454   0.253   8.278   1.592  2.5472  0.6372 -0.9109
14478SOL    HW246455   0.130   8.326   1.518  0.4341  1.4837  3.0217
14479SOL     OW46456   3.837   2.827   4.180  0.1271  0.7751  0.0946
14479SOL    HW146457   3.854   2.737   4.208  0.9692  0.8211 -0.2499
14479SOL    HW246458   3.806   2.818   4.090 -0.6085  0.7740  0.3439
14480SOL     OW46459   4.088   8.730   6.675  0.5793 -0.3439 -0.1937
14480SOL    HW146460   4.078   8.789   6.599  1.7553  0.4220  0.2266
14480SOL    HW246461   4.097   8.643   6.637 -1.4461 -0.3089 -0.8194
14481SOL     OW46462   3.569   4.196   4.479 -0.0694 -0.4965 -0.8145
14481SOL    HW146463   3.532   4.195   4.390  0.3252 -1.9543 -0.9770
14481SOL    HW246464   3.540   4.279   4.516 -4.1455 -1.8585 -0.6756
14482SOL     OW46465   1.205   5.285   5.951  0.1350 -0.0540 -0.3242
14482SOL    HW146466   1.117   5.319   5.961 -0.3597 -1.7325  1.3108
14482SOL    HW246467   1.258   5.332   6.015 -0.1853 -1.0541  0.6967
14483SOL     OW46468   0.613   3.913   5.384 -0.0229  0.2756 -0.6607
14483SOL    HW146469   0.650   3.963   5.457  0.4195 -0.4073 -0.4117
14483SOL    HW246470   0.567   3.840   5.426  0.0265  0.0172 -1.0572
14484SOL     OW46471   0.052   7.498   6.465 -0.6308  0.0303  0.0231
14484SOL    HW146472   0.072   7.554   6.391 -0.1785 -0.8787 -0.5526
14484SOL    HW246473  -0.031   7.455   6.441 -0.3408 -0.4751 -0.0909
14485SOL     OW46474   0.387   8.479   6.400  0.0380 -0.0337 -0.8251
14485SOL    HW146475   0.381   8.384   6.415 -1.4460 -0.0745 -1.7059
14485SOL    HW246476   0.479   8.493   6.375  0.1602 -1.2969 -1.1113
14486SOL     OW46477   8.326   8.227   2.718 -0.2528 -0.1435 -0.0263
14486SOL    HW146478   8.231   8.220   2.727 -0.3822 -0.4249 -1.4753
14486SOL    HW246479   8.359   8.227   2.808 -1.6160 -0.1135  0.4833
14487SOL     OW46480   8.358   7.998   3.450 -0.6435  0.3001 -0.3749
14487SOL    HW146481   8.292   7.935   3.477  0.3173  0.3037  2.0706
14487SOL    HW246482   8.343   8.075   3.505 -0.0916  1.2014 -1.4481
14488SOL     OW46483   3.868   2.176   1.150  0.2609  0.2350  0.0438
14488SOL    HW146484   3.824   2.227   1.082  0.8262 -0.4999 -0.8775
14488SOL    HW246485   3.875   2.088   1.115  0.7669 -0.1045  0.9630
14489SOL     OW46486   6.310   6.681   5.061  0.3590  0.1237 -0.2598
14489SOL    HW146487   6.344   6.692   5.150  0.6347 -0.9899 -0.2199
14489SOL    HW246488   6.218   6.710   5.066  1.4967  4.1452 -0.6065
14490SOL     OW46489   5.350   8.145   4.481  0.4367  0.1125 -0.1150
14490SOL    HW146490   5.278   8.101   4.526 -0.6390 -0.5728 -2.4351
14490SOL    HW246491   5.429   8.103   4.517 -0.4007 -0.6434  0.8829
14491SOL     OW46492   3.318   5.172   0.998  0.2564  0.0280  0.2495
14491SOL    HW146493   3.358   5.088   1.018 -0.1890  0.1697  1.8352
14491SOL    HW246494   3.320   5.220   1.081 -1.9046  0.5721  0.0280
14492SOL     OW46495   3.397   0.171   8.578  0.1872 -0.2585  0.0660
14492SOL    HW146496   3.372   0.131   8.495  0.8589  0.6150 -0.5728
14492SOL    HW246497   3.377   0.264   8.567  0.8551 -0.0359  0.6480
14493SOL     OW46498   9.393   7.599   1.607 -0.0744  0.4761 -0.1149
14493SOL    HW146499   9.466   7.553   1.566 -0.1047  0.9916 -0.7479
14493SOL    HW246500   9.385   7.559   1.694  0.0114 -0.5971 -0.5948
14494SOL     OW46501   4.431   5.621   7.560 -0.0518  0.4249 -0.3605
14494SOL    HW146502   4.431   5.716   7.548 -1.4215  0.1821 -2.6029
14494SOL    HW246503   4.486   5.588   7.489 -0.6413 -0.5485 -0.3711
14495SOL     OW46504   1.909   4.046   6.641  0.6525  0.1056  0.0843
14495SOL    HW146505   1.837   4.041   6.704 -2.1985  0.6542 -2.9958
14495SOL    HW246506   1.929   4.139   6.634  1.8868 -0.0662  1.1205
14496SOL     OW46507   1.283   3.936   9.429  0.2432  0.1686 -0.3011
14496SOL    HW146508   1.213   3.998   9.408  0.6094 -0.0288 -2.1331
14496SOL    HW246509   1.363   3.988   9.431  0.2785  0.1018  0.1515
14497SOL     OW46510   0.744   6.116   2.197  0.7686 -0.2043  0.1422
14497SOL    HW146511   0.681   6.187   2.182  1.8125  0.5447 -0.7458
14497SOL    HW246512   0.695   6.037   2.177  0.4347  0.4448 -1.6792
14498SOL     OW46513   4.663   4.792   6.158 -0.5126  0.0478 -0.5258
14498SOL    HW146514   4.666   4.830   6.246 -0.1858  0.9568 -0.9318
14498SOL    HW246515   4.723   4.844   6.106 -1.1913 -0.0735 -1.4563
14499SOL     OW46516   2.934   6.846   5.252  0.5956 -0.2306  0.2260
14499SOL    HW146517   2.970   6.766   5.214  1.2093  1.1504 -2.1758
14499SOL    HW246518   3.005   6.883   5.304  0.3709 -1.1339  1.1849
14500SOL     OW46519   4.481   0.961   4.486  0.5088  0.5515  0.2498
14500SOL    HW146520   4.448   0.879   4.448  0.2108  0.4362  0.7538
14500SOL    HW246521   4.421   1.028   4.456 -0.6517  0.2310  1.7951
14501SOL     OW46522   1.382   6.904   0.843 -0.3601 -0.0267 -0.1115
14501SOL    HW146523   1.423   6.925   0.927 -1.1589  0.6981  0.1032
14501SOL    HW246524   1.291   6.932   0.853 -0.7546 -1.0534 -0.8039
14502SOL     OW46525   7.122   5.536   0.425 -0.4790  0.6658  0.2669
14502SOL    HW146526   7.211   5.531   0.393 -0.5434  0.1655  0.1661
14502SOL    HW246527   7.070   5.489   0.360 -0.8526  1.1762  0.1909
14503SOL     OW46528   0.600   4.403   8.189  0.2957  0.0000  0.4618
14503SOL    HW146529   0.685   4.433   8.158  0.2448 -0.4151 -0.0908
14503SOL    HW246530   0.566   4.349   8.117  0.9723 -2.4608  1.9207
14504SOL     OW46531   7.232   0.466   3.370  0.1289 -0.1280  0.0636
14504SOL    HW146532   7.245   0.405   3.297  0.5202  0.6801 -0.5433
14504SOL    HW246533   7.250   0.413   3.448  1.5718 -0.5144 -0.5129
14505SOL     OW46534   6.094   4.196   3.919 -0.1021  0.6798  0.5164
14505SOL    HW146535   6.029   4.184   3.989  0.1022  1.8314  0.9123
14505SOL    HW246536   6.158   4.127   3.934  0.4272  1.4766  2.0399
14506SOL     OW46537   4.291   2.273   4.558  0.3683 -0.0491  0.1269
14506SOL    HW146538   4.228   2.321   4.613 -0.2569  0.0660 -0.6727
14506SOL    HW246539   4.271   2.181   4.573  0.3793 -0.0237  0.2991
14507SOL     OW46540   5.300   7.429   3.775  0.0081  0.5639 -0.1086
14507SOL    HW146541   5.298   7.416   3.870  1.4783  2.6779  0.2496
14507SOL    HW246542   5.387   7.399   3.749  0.2266  1.5193 -0.5165
14508SOL     OW46543   5.695   0.257   8.330 -0.6304 -0.0709  0.3247
14508SOL    HW146544   5.760   0.209   8.278 -0.5387  2.6744 -2.1977
14508SOL    HW246545   5.692   0.210   8.414 -0.6592 -4.5289 -2.0388
14509SOL     OW46546   3.086   7.025   4.171  0.0897 -0.5726 -0.1144
14509SOL    HW146547   3.080   7.012   4.265  1.8153 -0.6083  0.0167
14509SOL    HW246548   3.104   7.119   4.161 -0.2020 -0.5475 -0.4095
14510SOL     OW46549   3.977   4.392   8.184  0.2005  0.6125  0.6495
14510SOL    HW146550   4.060   4.435   8.207  0.0461  1.6192 -0.6388
14510SOL    HW246551   4.000   4.299   8.177  0.7658  0.5980  2.3866
14511SOL     OW46552   4.995   0.304   7.628 -0.7401 -0.5139  0.2414
14511SOL    HW146553   4.958   0.236   7.684  0.3243 -1.0940  0.2460
14511SOL    HW246554   4.964   0.282   7.540 -0.2717 -1.0903  0.2201
14512SOL     OW46555   2.425   2.002   7.740 -0.1956  0.1249 -0.0995
14512SOL    HW146556   2.337   1.989   7.704 -0.9124  1.9319  0.9509
14512SOL    HW246557   2.481   2.015   7.664 -1.1534  0.8012 -0.6973
14513SOL     OW46558   1.437   0.198   8.998 -0.6060  0.3105  0.3216
14513SOL    HW146559   1.480   0.278   8.968  1.1738 -1.4419 -2.0203
14513SOL    HW246560   1.473   0.182   9.085  0.7513  0.8710 -0.1240
14514SOL     OW46561   3.582   1.293   3.414 -0.1222 -0.6335 -0.0889
14514SOL    HW146562   3.576   1.247   3.497 -0.1142  3.0543  2.0375
14514SOL    HW246563   3.660   1.349   3.423 -1.0857  1.0679 -1.8861
14515SOL     OW46564   1.443   1.747   4.269 -0.0327  0.1373 -0.7337
14515SOL    HW146565   1.393   1.675   4.230  0.2711 -1.3026  1.4350
14515SOL    HW246566   1.508   1.704   4.324  0.1325  2.0664  0.6274
14516SOL     OW46567   1.966   5.365   4.862 -0.1043  0.4753 -0.9208
14516SOL    HW146568   1.929   5.423   4.796 -1.8136 -1.2882 -1.5678
14516SOL    HW246569   2.013   5.423   4.922 -2.5070  2.6030 -1.0398
14517SOL     OW46570   5.911   3.416   7.638 -0.2919  0.3345 -0.4306
14517SOL    HW146571   5.846   3.479   7.671  0.3029  0.0664  1.2827
14517SOL    HW246572   5.890   3.335   7.683 -0.3638 -0.4357 -1.8248
14518SOL     OW46573   7.920   4.806   4.306 -0.3625  0.0757  0.3460
14518SOL    HW146574   7.849   4.870   4.308 -0.3040  0.1562 -0.1055
14518SOL    HW246575   7.932   4.786   4.213  0.6854  0.6010  0.3670
14519SOL     OW46576   0.063   0.533   4.776 -0.2218 -0.0316 -0.1394
14519SOL    HW146577   0.109   0.463   4.730  0.0234 -1.2681  1.9334
14519SOL    HW246578   0.129   0.573   4.833 -0.7442  0.8674 -0.1406
14520SOL     OW46579   2.702   3.656   4.812  0.0801  0.8460  0.5025
14520SOL    HW146580   2.692   3.582   4.872  0.1159 -1.2043 -1.9604
14520SOL    HW246581   2.789   3.691   4.832  0.9466 -1.1100  0.2489
14521SOL     OW46582   9.112   1.060   8.958 -0.2669  0.1864  0.1554
14521SOL    HW146583   9.083   1.089   8.871 -1.4356  0.5523  0.6518
14521SOL    HW246584   9.044   1.091   9.018 -0.1715 -1.2276  1.0426
14522SOL     OW46585   3.368   8.042   9.312  0.1644  0.0711 -0.2046
14522SOL    HW146586   3.446   8.009   9.267 -0.2026  0.9382 -1.5235
14522SOL    HW246587   3.355   7.981   9.385  0.1545 -2.0429 -1.8999
14523SOL     OW46588   7.289   8.822   2.156  0.2111 -0.4116 -0.9862
14523SOL    HW146589   7.200   8.844   2.128 -0.4432  1.2405  2.1610
14523SOL    HW246590   7.335   8.906   2.160  1.7542 -1.1890 -2.0002
14524SOL     OW46591   7.675   8.556   2.058 -0.5259 -0.2772 -0.1727
14524SOL    HW146592   7.726   8.538   1.979  0.0272 -1.8891  0.5382
14524SOL    HW246593   7.603   8.611   2.028  0.8305  0.8525 -1.4385
14525SOL     OW46594   5.517   2.198   7.431  0.0047  0.2189 -0.4718
14525SOL    HW146595   5.525   2.142   7.509  1.7187  0.8640 -0.1648
14525SOL    HW246596   5.485   2.281   7.465  0.8310  0.5267 -0.4326
14526SOL     OW46597   5.208   4.899   3.777  0.1407  0.9495 -0.3884
14526SOL    HW146598   5.291   4.906   3.824  0.3357  1.4701 -0.7935
14526SOL    HW246599   5.165   4.983   3.791 -0.3560  0.6551 -0.1187
14527SOL     OW46600   6.340   1.586   6.846  0.5759 -0.2860  0.1527
14527SOL    HW146601   6.411   1.539   6.803  0.3893 -0.9089  0.5222
14527SOL    HW246602   6.376   1.613   6.930  0.5384 -0.1624  0.1291
14528SOL     OW46603   9.075   5.939   1.996  0.0824  0.0545 -0.2596
14528SOL    HW146604   8.987   5.901   1.997  0.1696 -0.1554 -0.7650
14528SOL    HW246605   9.118   5.900   1.920  0.5680  0.2644 -0.0978
14529SOL     OW46606   5.010   1.387   9.212  0.1927  0.1524  0.0075
14529SOL    HW146607   5.040   1.441   9.139 -0.1824 -1.0800 -1.0752
14529SOL    HW246608   4.987   1.303   9.172 -0.4076 -0.4029  1.4833
14530SOL     OW46609   6.217   3.147   3.268  0.4417  0.0122  0.2900
14530SOL    HW146610   6.303   3.123   3.236  0.4005 -0.3564  0.4523
14530SOL    HW246611   6.185   3.068   3.313 -0.3976 -0.1955 -0.6545
14531SOL     OW46612   1.686   4.446   6.536  0.3835  0.2915 -0.8207
14531SOL    HW146613   1.644   4.438   6.451 -0.9011  1.7576 -0.3571
14531SOL    HW246614   1.616   4.476   6.594  1.4262  0.0529  0.5868
14532SOL     OW46615   1.096   5.184   7.400 -0.4923  0.0072  0.2911
14532SOL    HW146616   1.070   5.091   7.396  0.0672 -0.2323  1.7825
14532SOL    HW246617   1.178   5.183   7.450 -0.5251  1.3197  0.3685
14533SOL     OW46618   1.497   5.618   8.815  0.0462 -0.2939  0.4827
14533SOL    HW146619   1.549   5.609   8.895  2.1360 -1.5625 -0.9651
14533SOL    HW246620   1.484   5.529   8.785 -0.8276  0.1760 -0.5658
14534SOL     OW46621   0.224   1.526   1.073  0.3826 -0.1703 -0.0030
14534SOL    HW146622   0.259   1.437   1.072  0.3823 -0.1820  0.7610
14534SOL    HW246623   0.297   1.580   1.104 -0.4453 -0.2765  2.2170
14535SOL     OW46624   4.748   8.905   7.571  0.2475 -0.4319 -0.5766
14535SOL    HW146625   4.681   8.939   7.630  0.2098  0.1409 -0.9534
14535SOL    HW246626   4.831   8.937   7.607  0.3053 -0.9196 -0.2637
14536SOL     OW46627   8.526   8.197   8.526 -0.3239 -0.4286  0.3065
14536SOL    HW146628   8.572   8.189   8.443  1.0218 -0.5996  1.0511
14536SOL    HW246629   8.590   8.237   8.585 -2.1560  2.3287  0.5380
14537SOL     OW46630   4.053   1.531   0.302 -0.7221  0.2470  0.7277
14537SOL    HW146631   3.976   1.573   0.264 -1.2822 -1.5737 -0.2090
14537SOL    HW246632   4.022   1.495   0.385 -0.2491  1.6508  1.5186
14538SOL     OW46633   8.058   2.213   8.565 -0.0134 -0.0660  0.4335
14538SOL    HW146634   8.036   2.288   8.510 -2.8649 -0.4844  0.9165
14538SOL    HW246635   8.024   2.235   8.652  3.9035  0.3302  1.9942
14539SOL     OW46636   7.951   0.235   4.295 -0.3366 -0.1545 -0.4935
14539SOL    HW146637   7.999   0.176   4.237 -1.2351 -0.0891 -1.3177
14539SOL    HW246638   8.014   0.260   4.361  0.2573 -1.4844 -0.5456
14540SOL     OW46639   0.586   2.928   0.356 -0.2464 -0.0651  0.5843
14540SOL    HW146640   0.530   2.950   0.282 -2.4213 -0.8088  1.9634
14540SOL    HW246641   0.663   2.886   0.316 -2.2512 -2.2376 -1.1429
14541SOL     OW46642   8.511   5.193   6.790 -0.2837 -0.1868 -0.1300
14541SOL    HW146643   8.549   5.107   6.806 -3.7343 -1.6411  0.7236
14541SOL    HW246644   8.572   5.254   6.832  2.4166 -2.1099 -1.0928
14542SOL     OW46645   8.481   0.446   8.757  0.4472 -0.1927 -0.0773
14542SOL    HW146646   8.416   0.465   8.825  1.7768 -0.0838  1.1877
14542SOL    HW246647   8.545   0.516   8.765  1.6741 -1.2905 -0.1046
14543SOL     OW46648   6.664   1.850   3.797 -0.1994 -0.2316  0.1826
14543SOL    HW146649   6.638   1.764   3.766 -0.3973  0.0974 -0.5638
14543SOL    HW246650   6.677   1.902   3.718 -0.0540  0.4199  0.6254
14544SOL     OW46651   8.787   5.775   2.256  0.1538 -0.3807  0.0701
14544SOL    HW146652   8.864   5.726   2.285  0.6078 -0.1780 -0.7825
14544SOL    HW246653   8.713   5.723   2.286  0.6305 -1.0600  0.0727
14545SOL     OW46654   2.744   5.144   1.719 -0.2254 -0.0871 -0.2988
14545SOL    HW146655   2.829   5.176   1.689 -0.1924 -1.4995 -1.7821
14545SOL    HW246656   2.760   5.114   1.808  0.7455  0.0245 -0.4240
14546SOL     OW46657   8.051   8.250   5.336 -0.1601 -0.2084 -0.2634
14546SOL    HW146658   7.990   8.213   5.272  0.5056 -1.2607 -0.2970
14546SOL    HW246659   8.132   8.262   5.288 -0.3874  1.3840 -0.2671
14547SOL     OW46660   5.359   7.451   6.247  0.3993  0.1116 -0.5865
14547SOL    HW146661   5.302   7.502   6.190 -1.0912 -0.2129  0.5711
14547SOL    HW246662   5.378   7.508   6.321 -1.2248 -0.9469  0.6854
14548SOL     OW46663   0.735   3.029   4.332  0.5499 -0.3772  0.0070
14548SOL    HW146664   0.711   2.943   4.298  0.3473 -0.2898 -0.0730
14548SOL    HW246665   0.805   3.011   4.396 -0.9032 -0.8216  1.5197
14549SOL     OW46666   0.266   7.409   3.861  0.2875 -0.6912 -0.2362
14549SOL    HW146667   0.208   7.348   3.815  1.2945 -0.4683 -1.8363
14549SOL    HW246668   0.330   7.354   3.905 -0.2508 -0.8754  0.3252
14550SOL     OW46669   1.466   3.131   3.176  0.2161  0.8193 -0.0478
14550SOL    HW146670   1.503   3.194   3.115 -0.6944  0.6477 -0.7917
14550SOL    HW246671   1.376   3.160   3.190  0.0369  0.1503  0.2338
14551SOL     OW46672   3.707   2.389   0.234 -0.1562 -0.1748 -0.9071
14551SOL    HW146673   3.778   2.324   0.236 -0.5419 -0.5856  0.2086
14551SOL    HW246674   3.729   2.449   0.306 -1.1088 -0.4961 -0.3463
14552SOL     OW46675   6.310   3.170   8.354  0.6728  0.2713 -0.2006
14552SOL    HW146676   6.332   3.261   8.374  0.3660  0.5693 -1.1795
14552SOL    HW246677   6.220   3.160   8.385 -0.2510  1.0980 -2.4753
14553SOL     OW46678   5.773   4.142   2.758  0.7957  0.2924  0.0106
14553SOL    HW146679   5.791   4.104   2.844 -0.1888 -0.4623 -0.0965
14553SOL    HW246680   5.724   4.222   2.777 -0.2863 -0.3881  0.1313
14554SOL     OW46681   7.420   2.728   6.907 -0.0550 -0.5161 -0.0293
14554SOL    HW146682   7.336   2.762   6.874  0.5396  2.2616  1.1360
14554SOL    HW246683   7.395   2.670   6.979 -1.0021 -0.2904 -0.1598
14555SOL     OW46684   3.930   5.575   1.820  0.2200 -0.0480 -0.1943
14555SOL    HW146685   3.997   5.623   1.868 -1.1151 -0.6382  2.3839
14555SOL    HW246686   3.975   5.539   1.744  2.6598  0.1143  1.1306
14556SOL     OW46687   8.215   2.472   6.068  0.1779 -0.2192  0.3574
14556SOL    HW146688   8.294   2.418   6.079  0.2324 -0.8989 -2.9503
14556SOL    HW246689   8.246   2.551   6.024 -0.6987  0.3808  0.8074
14557SOL     OW46690   7.606   5.785   4.023 -0.0158  0.1795 -0.5870
14557SOL    HW146691   7.514   5.776   4.050  0.0028 -1.6304 -1.0160
14557SOL    HW246692   7.637   5.864   4.066 -1.1785 -0.3523  1.2617
14558SOL     OW46693   3.490   6.225   8.171  0.1723  0.5555  0.3680
14558SOL    HW146694   3.496   6.162   8.243  0.5977  0.5375  0.3168
14558SOL    HW246695   3.574   6.269   8.170 -0.0113  0.9030  0.1967
14559SOL     OW46696   5.071   8.401   5.197 -0.0095  0.0713  0.2078
14559SOL    HW146697   5.032   8.370   5.278 -1.8319  0.0340 -0.6635
14559SOL    HW246698   5.163   8.417   5.219 -0.4160 -0.2308  2.1820
14560SOL     OW46699   3.669   0.397   1.426 -0.0080  0.5211 -0.1788
14560SOL    HW146700   3.726   0.430   1.357 -1.8304  1.3559 -1.3525
14560SOL    HW246701   3.720   0.405   1.507  1.3171  1.7477 -1.1215
14561SOL     OW46702   3.915   8.746   8.125  0.1885 -0.0405  0.1798
14561SOL    HW146703   3.838   8.715   8.077 -0.0344  1.6216 -0.5819
14561SOL    HW246704   3.970   8.787   8.059  1.0473  0.0841  0.9549
14562SOL     OW46705   3.071   3.205   6.981 -0.1217 -0.4640 -0.7825
14562SOL    HW146706   2.993   3.240   6.938 -0.9595 -0.9106  0.3537
14562SOL    HW246707   3.128   3.180   6.908 -1.2102 -0.5198 -1.6409
14563SOL     OW46708   7.103   1.707   6.634 -0.3713 -0.0079  0.0735
14563SOL    HW146709   7.104   1.615   6.608 -0.6821  0.1003 -0.3227
14563SOL    HW246710   7.020   1.741   6.600 -0.4506  0.3160  0.5757
14564SOL     OW46711   4.607   8.776   6.781 -0.4624  0.1114  0.4376
14564SOL    HW146712   4.690   8.793   6.826  1.2601 -0.1159 -2.4831
14564SOL    HW246713   4.601   8.681   6.778 -1.0442  0.1328  1.0516
14565SOL     OW46714   0.746   8.361   4.724 -0.6805  0.2006 -0.7496
14565SOL    HW146715   0.775   8.451   4.714  0.4084  0.0110  0.5089
14565SOL    HW246716   0.812   8.309   4.680 -0.2378 -0.1019  0.2564
14566SOL     OW46717   1.443   9.366   6.532  0.1043  0.5049 -0.0439
14566SOL    HW146718   1.440   9.352   6.626 -0.3309  0.7763 -0.0150
14566SOL    HW246719   1.508   9.435   6.520  0.2601  0.3726  0.0469
14567SOL     OW46720   8.308   7.965   7.648 -0.0649 -0.3351  0.1799
14567SOL    HW146721   8.272   8.052   7.667  0.4548 -0.0065 -0.3272
14567SOL    HW246722   8.365   7.978   7.572 -0.3172 -1.2039 -0.1682
14568SOL     OW46723   7.645   6.786   2.358  0.3760  0.2030 -0.3022
14568SOL    HW146724   7.571   6.746   2.312  0.2229  0.4592 -0.2790
14568SOL    HW246725   7.722   6.754   2.312  0.2312  0.3125 -0.6248
14569SOL     OW46726   3.909   6.947   5.165  0.2803  0.0549 -0.0481
14569SOL    HW146727   3.936   6.941   5.074  2.3000  0.2430  0.5265
14569SOL    HW246728   3.834   7.007   5.164  0.3661  0.1444 -1.5549
14570SOL     OW46729   3.539   6.218   5.120  0.0613  0.1227 -0.3030
14570SOL    HW146730   3.463   6.189   5.069 -0.8912  1.0917  0.5411
14570SOL    HW246731   3.596   6.261   5.057 -0.4822  0.1417 -0.7802
14571SOL     OW46732   1.967   1.229   5.898  0.2922  0.0327  0.0198
14571SOL    HW146733   1.923   1.146   5.882 -1.1848  0.6107  0.9254
14571SOL    HW246734   1.943   1.284   5.824 -3.2265  1.3850  2.0013
14572SOL     OW46735   4.333   4.416   3.321  0.1760  0.7156 -0.1906
14572SOL    HW146736   4.268   4.371   3.268 -0.5480  1.7298 -0.1815
14572SOL    HW246737   4.417   4.388   3.286 -0.2059 -2.1798  1.0871
14573SOL     OW46738   1.695   2.371   4.495 -0.0168 -0.6040 -0.6639
14573SOL    HW146739   1.699   2.278   4.517  0.0993 -0.7351 -1.2228
14573SOL    HW246740   1.627   2.377   4.428 -1.0452 -0.0744  0.4030
14574SOL     OW46741   1.951   5.699   0.168 -0.1557 -0.1321 -0.0608
14574SOL    HW146742   1.971   5.728   0.079 -1.4276  2.0265  0.3254
14574SOL    HW246743   2.010   5.751   0.223 -1.3198  0.5639  0.5329
14575SOL     OW46744   8.420   6.132   3.280  0.1151  0.2091 -0.0743
14575SOL    HW146745   8.432   6.117   3.187 -3.2510 -0.5172 -0.4629
14575SOL    HW246746   8.380   6.219   3.285 -2.0816 -0.8003  0.4702
14576SOL     OW46747   8.523   7.942   0.402 -0.3682  0.0871 -0.3504
14576SOL    HW146748   8.582   8.012   0.430 -0.1537 -0.3946  0.4246
14576SOL    HW246749   8.578   7.863   0.399 -0.6673 -0.1029 -0.9481
14577SOL     OW46750   0.785   9.165   1.030 -0.0324 -0.1181 -0.1513
14577SOL    HW146751   0.719   9.106   1.066  0.8007 -1.1265 -0.2698
14577SOL    HW246752   0.842   9.186   1.103  0.6271 -0.7619 -0.4803
14578SOL     OW46753   2.442   0.165   5.599 -0.0509 -0.2257  0.1356
14578SOL    HW146754   2.406   0.077   5.589 -1.4393  0.3587 -0.2261
14578SOL    HW246755   2.500   0.160   5.674  0.1245 -1.5340 -0.0876
14579SOL     OW46756   0.391   6.819   0.322 -0.4059  0.6779  0.7038
14579SOL    HW146757   0.458   6.884   0.345 -0.3179  1.1184 -0.7655
14579SOL    HW246758   0.314   6.870   0.300 -0.0904  0.3583 -1.2733
14580SOL     OW46759   4.234   9.191   3.299 -0.5456  0.0949 -0.1264
14580SOL    HW146760   4.293   9.266   3.289  1.1988 -1.2149  0.1116
14580SOL    HW246761   4.209   9.192   3.392 -0.3000  0.2268 -0.0612
14581SOL     OW46762   6.117   2.297   6.272  0.5654  0.2484  0.3170
14581SOL    HW146763   6.201   2.303   6.227  0.6391  0.1078  0.4403
14581SOL    HW246764   6.066   2.237   6.218  0.8157 -0.2911  0.6864
14582SOL     OW46765   6.376   7.771   1.641 -0.1386  0.1079 -0.1205
14582SOL    HW146766   6.342   7.852   1.678  0.2093 -0.1378  0.7782
14582SOL    HW246767   6.428   7.733   1.712  0.8038 -0.2330 -0.9790
14583SOL     OW46768   5.991   4.244   1.118  0.0339 -0.1768 -0.2046
14583SOL    HW146769   5.913   4.195   1.144  1.3455 -2.2978 -0.0990
14583SOL    HW246770   6.031   4.191   1.049  0.0771  2.1356 -2.0149
14584SOL     OW46771   5.572   4.640   6.720 -0.4384  0.5334 -0.2069
14584SOL    HW146772   5.606   4.701   6.655 -0.1202  1.0545  0.4489
14584SOL    HW246773   5.494   4.683   6.755  0.4422  1.0940  1.0886
14585SOL     OW46774   9.258   4.211   4.315  0.4383  0.1053  0.5043
14585SOL    HW146775   9.333   4.225   4.372  0.8221  2.2186 -0.4654
14585SOL    HW246776   9.293   4.216   4.227 -0.8548  1.2831  0.0315
14586SOL     OW46777   7.955   8.788   6.814 -0.3324  0.4469  0.2562
14586SOL    HW146778   8.047   8.770   6.835 -0.3817  1.3759  1.3375
14586SOL    HW246779   7.960   8.850   6.741 -0.1460 -1.6399 -1.5613
14587SOL     OW46780   4.304   2.293   8.665  0.2236 -0.2742  0.4382
14587SOL    HW146781   4.274   2.297   8.756  1.5400  1.4788  0.8338
14587SOL    HW246782   4.233   2.333   8.615 -0.5068 -1.2401  0.6832
14588SOL     OW46783   7.099   9.003   5.888 -0.3081 -0.0223 -0.7520
14588SOL    HW146784   7.067   8.967   5.970 -1.5695 -0.6814 -1.5226
14588SOL    HW246785   7.094   9.098   5.899 -0.5454 -0.1115 -0.0980
14589SOL     OW46786   7.319   7.129   2.803  0.6120 -0.5126  0.3193
14589SOL    HW146787   7.239   7.179   2.819 -0.0675 -1.1882 -0.9281
14589SOL    HW246788   7.369   7.138   2.884 -0.1905  0.8975  0.6790
14590SOL     OW46789   4.933   8.716   4.651  0.2440 -0.1024  0.0661
14590SOL    HW146790   5.007   8.744   4.706 -0.1361  0.0309  0.5099
14590SOL    HW246791   4.867   8.685   4.713  2.1839 -6.0163 -0.4268
14591SOL     OW46792   2.412   6.566   1.095  0.0419 -0.2000  0.8552
14591SOL    HW146793   2.459   6.580   1.013 -0.9457 -0.5935  0.2269
14591SOL    HW246794   2.422   6.473   1.113 -0.8563 -0.3623  0.5059
14592SOL     OW46795   0.605   7.638   3.366 -0.0280 -0.2212 -0.3090
14592SOL    HW146796   0.597   7.581   3.442  2.1675  1.6071  1.3838
14592SOL    HW246797   0.700   7.642   3.349 -0.3463  0.8259 -2.0042
14593SOL     OW46798   3.062   7.016   9.441  0.2044  0.0703 -0.0626
14593SOL    HW146799   3.018   7.090   9.399 -0.1011 -0.7766 -1.2576
14593SOL    HW246800   3.111   6.974   9.370  1.8630  0.2038  0.9850
14594SOL     OW46801   7.775   4.651   3.188 -0.1216 -0.0269 -0.3013
14594SOL    HW146802   7.834   4.603   3.246  0.3048  0.4603 -0.3366
14594SOL    HW246803   7.819   4.734   3.171 -0.0683 -0.3039 -1.6075
14595SOL     OW46804   1.941   1.502   4.392 -0.6557  0.2100 -0.2057
14595SOL    HW146805   1.940   1.598   4.391  2.4848  0.3083  1.8433
14595SOL    HW246806   2.008   1.478   4.328 -2.1706 -0.7094 -1.4990
14596SOL     OW46807   6.818   4.747   0.713 -0.0011  0.2454  0.3888
14596SOL    HW146808   6.894   4.729   0.768 -0.4119 -0.2579  0.8099
14596SOL    HW246809   6.843   4.716   0.626  0.5187  0.7004  0.3794
14597SOL     OW46810   1.625   2.307   8.264 -0.3133 -0.6741 -0.3649
14597SOL    HW146811   1.627   2.383   8.205  1.8182  0.7877  1.5115
14597SOL    HW246812   1.664   2.236   8.213  1.7413  0.6435 -0.6798
14598SOL     OW46813   2.915   3.170   5.156  0.0949  0.1959 -0.0844
14598SOL    HW146814   2.918   3.092   5.101 -1.1171 -0.2878  0.5164
14598SOL    HW246815   2.870   3.235   5.103 -0.1883  0.0387 -0.0363
14599SOL     OW46816   7.695   5.699   4.822 -0.0328 -0.3737  0.6700
14599SOL    HW146817   7.611   5.654   4.818  0.3232 -0.8873 -1.9266
14599SOL    HW246818   7.673   5.792   4.825 -0.7003 -0.5656  2.4981
14600SOL     OW46819   6.222   0.741   7.955 -0.1475  0.5693 -0.2604
14600SOL    HW146820   6.163   0.804   7.914  0.1259  2.0286  1.5388
14600SOL    HW246821   6.308   0.783   7.953  0.2917 -0.2946 -0.1825
14601SOL     OW46822   7.196   8.635   5.456 -0.3241 -0.0935  0.8550
14601SOL    HW146823   7.144   8.562   5.423  0.1048 -0.0548  0.0940
14601SOL    HW246824   7.257   8.595   5.518  1.0506 -0.6282 -0.8166
14602SOL     OW46825   6.664   0.169   8.730  0.0889 -0.1448  0.0102
14602SOL    HW146826   6.687   0.080   8.704 -0.6354 -0.1841 -0.5135
14602SOL    HW246827   6.698   0.224   8.659 -0.4178 -0.1029 -0.2014
14603SOL     OW46828   9.156   8.834   3.282 -0.2494  0.0959 -0.0752
14603SOL    HW146829   9.168   8.856   3.190 -1.1034  0.5226 -0.0826
14603SOL    HW246830   9.241   8.799   3.309 -0.2746 -0.9266 -1.2677
14604SOL     OW46831   4.974   9.364   1.642  0.4953  0.0058  0.6881
14604SOL    HW146832   4.901   9.407   1.687  1.0766  0.7222  0.9602
14604SOL    HW246833   4.948   9.361   1.550 -0.3294 -0.6954  0.9340
14605SOL     OW46834   3.043   2.032   3.735 -0.1315  0.5106  0.1163
14605SOL    HW146835   3.027   2.050   3.827  0.4891  0.5761  0.2169
14605SOL    HW246836   3.037   1.937   3.727  0.7386  0.4222  0.4157
14606SOL     OW46837   6.875   7.014   1.376  0.0207  0.3399 -0.4892
14606SOL    HW146838   6.930   6.981   1.447  0.0765  1.8449  0.1820
14606SOL    HW246839   6.788   6.980   1.396  0.3250 -0.4569 -0.5031
14607SOL     OW46840   7.598   9.402   0.182  0.2913 -0.0875  0.0244
14607SOL    HW146841   7.624   9.335   0.246 -0.1006  0.0028  0.2816
14607SOL    HW246842   7.509   9.426   0.208  0.4177  0.5037 -0.0983
14608SOL     OW46843   2.253   6.546   5.854  0.5396 -0.0036 -0.4118
14608SOL    HW146844   2.253   6.626   5.906 -0.5261  0.0502 -0.4804
14608SOL    HW246845   2.271   6.476   5.916 -0.8974  0.0403  0.0638
14609SOL     OW46846   5.144   3.808   2.019 -0.4510 -0.4310 -0.5373
14609SOL    HW146847   5.109   3.873   1.958  2.2048  1.1500 -0.4482
14609SOL    HW246848   5.069   3.781   2.072 -2.2237  0.1976 -2.6732
14610SOL     OW46849   2.120   1.579   2.689 -0.0474  0.1660 -0.2341
14610SOL    HW146850   2.090   1.499   2.733 -0.3462  1.1041  1.2850
14610SOL    HW246851   2.057   1.593   2.619 -0.2643 -0.6676 -0.2055
14611SOL     OW46852   3.085   8.056   5.045  0.3521 -0.4363  0.1218
14611SOL    HW146853   3.077   8.068   5.140  0.7771 -2.4594  0.4530
14611SOL    HW246854   2.997   8.033   5.016  0.7839 -2.8417  0.5565
14612SOL     OW46855   4.511   0.437   8.511 -0.0045  0.3051 -0.0787
14612SOL    HW146856   4.467   0.516   8.481 -0.4875  0.4385  0.9687
14612SOL    HW246857   4.459   0.407   8.585  0.0761 -1.0880 -0.5662
14613SOL     OW46858   3.770   0.296   7.598 -0.1530 -0.1538 -0.5133
14613SOL    HW146859   3.798   0.356   7.667 -1.1152  0.9761 -1.0798
14613SOL    HW246860   3.848   0.244   7.578  0.8637  1.2709 -0.3729
14614SOL     OW46861   5.075   1.681   3.871 -0.5927  0.2187  0.3782
14614SOL    HW146862   5.147   1.618   3.875 -1.3443 -0.5935  1.6830
14614SOL    HW246863   5.109   1.754   3.819  0.4175 -1.1010 -0.8519
14615SOL     OW46864   9.147   3.768   2.397 -0.0969 -0.2118 -0.1530
14615SOL    HW146865   9.101   3.803   2.473  1.2227  3.1534 -0.8169
14615SOL    HW246866   9.209   3.704   2.433  0.4705  1.3126  1.6228
14616SOL     OW46867   2.412   7.655   9.276  0.3046  0.2800 -0.2496
14616SOL    HW146868   2.420   7.617   9.364  0.7111  0.9165 -0.0051
14616SOL    HW246869   2.458   7.739   9.283 -2.0383  1.5926 -0.3065
14617SOL     OW46870   6.374   2.526   2.049 -0.0540  0.0172 -0.3560
14617SOL    HW146871   6.458   2.564   2.024  0.4134 -0.0445  1.0660
14617SOL    HW246872   6.388   2.492   2.137 -1.6576  0.2964  0.0373
14618SOL     OW46873   2.015   8.486   2.533 -0.3963 -0.0167 -0.2861
14618SOL    HW146874   2.021   8.395   2.503  2.1937  0.3736 -1.1180
14618SOL    HW246875   2.010   8.537   2.452 -0.8586  0.6403  0.1528
14619SOL     OW46876   3.611   7.229   2.619  0.8182 -0.2790  0.5672
14619SOL    HW146877   3.627   7.235   2.713 -0.4445 -0.1858  0.7821
14619SOL    HW246878   3.654   7.148   2.592 -0.4121 -1.2953  1.5741
14620SOL     OW46879   2.768   2.469   5.538 -0.3225 -0.5338 -0.1740
14620SOL    HW146880   2.792   2.548   5.490 -0.7250 -0.3008  0.0101
14620SOL    HW246881   2.684   2.489   5.578  0.0993 -0.6616  0.7941
14621SOL     OW46882   1.976   6.069   7.185 -0.2187 -0.4184 -0.6586
14621SOL    HW146883   1.887   6.047   7.157 -0.2866 -1.0179 -0.0089
14621SOL    HW246884   1.963   6.132   7.256 -0.2013 -1.8335  0.6246
14622SOL     OW46885   3.588   2.718   8.879  0.2167  0.3832  0.2359
14622SOL    HW146886   3.580   2.658   8.805  1.0041  0.3736  0.1528
14622SOL    HW246887   3.502   2.716   8.921 -0.1823  0.2595 -0.5804
14623SOL     OW46888   5.429   1.513   0.612 -0.1365 -0.3021  0.0972
14623SOL    HW146889   5.479   1.567   0.673 -0.6625 -1.6276  1.7412
14623SOL    HW246890   5.342   1.552   0.611 -0.1583 -0.3403  0.3093
14624SOL     OW46891   1.823   0.600   8.914  0.1551  0.4922  0.0014
14624SOL    HW146892   1.886   0.533   8.938 -1.7367 -1.3669 -0.0434
14624SOL    HW246893   1.828   0.665   8.984  1.8002  0.1695  0.1884
14625SOL     OW46894   0.453   2.400   1.103  0.2264  0.2727  0.2590
14625SOL    HW146895   0.538   2.358   1.100  0.1223  0.1988 -2.0894
14625SOL    HW246896   0.406   2.354   1.173  1.4222 -0.9744  0.2537
14626SOL     OW46897   5.162   7.471   5.283 -0.3510 -0.2688 -0.1003
14626SOL    HW146898   5.251   7.442   5.260 -0.0736  0.8839 -0.5449
14626SOL    HW246899   5.120   7.486   5.198 -0.7634 -0.2250  0.1151
14627SOL     OW46900   3.906   4.464   7.846 -0.1636  0.2903 -0.6579
14627SOL    HW146901   3.881   4.536   7.905  0.0473  0.8281 -1.2221
14627SOL    HW246902   3.825   4.415   7.833 -0.2534  0.2797 -0.0653
14628SOL     OW46903   1.478   9.182   0.875 -0.2442 -0.2354  0.4364
14628SOL    HW146904   1.535   9.137   0.938 -1.0762 -2.0058 -0.0376
14628SOL    HW246905   1.490   9.134   0.793  0.3315  1.6432 -0.6217
14629SOL     OW46906   3.885   6.974   5.849  0.0174  0.5012 -0.2008
14629SOL    HW146907   3.837   6.983   5.931  0.3041 -0.5410  0.0907
14629SOL    HW246908   3.961   7.031   5.859  0.5085 -0.2945  0.6059
14630SOL     OW46909   3.458   9.120   1.160  0.6285  0.0787 -0.2002
14630SOL    HW146910   3.415   9.035   1.161 -1.6379  1.2043  2.7437
14630SOL    HW246911   3.537   9.107   1.213  0.3571 -0.2446  0.1306
14631SOL     OW46912   9.162   1.473   4.017  0.0214 -0.3299 -0.4835
14631SOL    HW146913   9.233   1.535   4.005 -0.1127 -0.0524  0.1268
14631SOL    HW246914   9.154   1.464   4.112  0.8779 -2.2365 -0.5569
14632SOL     OW46915   2.021   8.343   7.640  0.1136 -0.0216 -0.3837
14632SOL    HW146916   2.069   8.423   7.617  0.5164  0.0360  0.6637
14632SOL    HW246917   2.039   8.283   7.568 -1.1297  1.2186 -1.7749
14633SOL     OW46918   0.664   0.440   7.863  0.1198 -0.9108 -0.6254
14633SOL    HW146919   0.592   0.442   7.799  0.9706  0.8032 -1.5436
14633SOL    HW246920   0.728   0.380   7.824  0.7929  0.4037 -1.5634
14634SOL     OW46921   8.233   3.862   9.443 -0.5250 -0.3641 -0.0601
14634SOL    HW146922   8.206   3.872   9.352 -1.5772 -1.7019  0.0968
14634SOL    HW246923   8.251   3.768   9.453  0.5083 -0.0793  0.8507
14635SOL     OW46924   1.941   6.404   6.558  0.5160 -0.1015  0.5437
14635SOL    HW146925   2.017   6.412   6.617  0.6841 -0.9342  0.4585
14635SOL    HW246926   1.914   6.312   6.568 -0.7358  0.2979  0.8775
14636SOL     OW46927   1.749   6.304   9.028 -0.3716  0.1249 -0.4068
14636SOL    HW146928   1.797   6.370   9.079 -1.4722  0.8333 -0.2718
14636SOL    HW246929   1.792   6.221   9.050  0.7478  0.7405 -0.2458
14637SOL     OW46930   5.659   1.305   8.928  0.5815 -0.2866 -0.3556
14637SOL    HW146931   5.620   1.345   8.850  1.1900  1.7274  0.3664
14637SOL    HW246932   5.587   1.300   8.990  0.6783  0.3022 -0.2025
14638SOL     OW46933   0.730   5.658   6.461 -0.0632 -0.4834 -0.3179
14638SOL    HW146934   0.702   5.567   6.450  1.6697 -1.0149 -0.4142
14638SOL    HW246935   0.731   5.693   6.371 -0.0629 -0.5525 -0.3449
14639SOL     OW46936   3.376   4.624   6.184  0.6696  0.1072  0.2052
14639SOL    HW146937   3.325   4.574   6.248  0.6473  0.5844  0.5680
14639SOL    HW246938   3.359   4.581   6.100  1.4728 -1.1226  0.6673
14640SOL     OW46939   2.876   3.266   0.794  0.5384  0.7204 -0.3363
14640SOL    HW146940   2.860   3.351   0.833 -0.3673  0.4116 -0.0080
14640SOL    HW246941   2.960   3.238   0.829 -0.1875  0.5142  1.3047
14641SOL     OW46942   8.298   3.590   3.679 -0.0977 -0.4513  0.0332
14641SOL    HW146943   8.389   3.603   3.704 -0.3864  1.7008  0.0076
14641SOL    HW246944   8.302   3.565   3.587  0.3909  0.8861 -0.3131
14642SOL     OW46945   9.203   0.162   6.156  0.3816 -0.0122  0.1227
14642SOL    HW146946   9.183   0.233   6.095 -1.1829 -0.2249  0.3695
14642SOL    HW246947   9.203   0.204   6.242  0.1845 -0.1776  0.2022
14643SOL     OW46948   5.812   2.181   0.246  0.2994  0.2740  0.6229
14643SOL    HW146949   5.841   2.202   0.157  0.0379 -3.8371 -0.5285
14643SOL    HW246950   5.890   2.198   0.301  1.5154 -0.3460 -0.8813
14644SOL     OW46951   7.705   9.018   2.679 -0.3793  0.3051  0.2174
14644SOL    HW146952   7.702   8.969   2.597  0.0460 -1.2379  1.0809
14644SOL    HW246953   7.615   9.050   2.691 -1.1188 -1.7655  0.4774
14645SOL     OW46954   3.662   3.659   5.770 -0.5712  0.0467 -0.2989
14645SOL    HW146955   3.726   3.710   5.721 -1.9155  1.8291 -0.2559
14645SOL    HW246956   3.609   3.616   5.703 -0.4509  0.0103 -0.3706
14646SOL     OW46957   7.393   1.174   3.406  0.1718  0.4588  0.0376
14646SOL    HW146958   7.369   1.167   3.314  0.2665  0.7057 -0.0039
14646SOL    HW246959   7.390   1.083   3.438  1.2294  0.2305 -0.4808
14647SOL     OW46960   9.065   1.071   5.151  0.5480  0.3766 -0.1951
14647SOL    HW146961   9.145   1.018   5.146 -0.4677 -1.1470 -0.4708
14647SOL    HW246962   9.021   1.040   5.230 -0.1439  0.6880 -0.4556
14648SOL     OW46963   0.893   3.421   0.467  0.6204 -0.6575  0.0966
14648SOL    HW146964   0.948   3.392   0.540  1.0051  0.0724  0.1010
14648SOL    HW246965   0.820   3.467   0.509  1.0540  0.1181  0.0108
14649SOL     OW46966   6.442   1.113   7.445 -0.1167 -0.1370  0.6786
14649SOL    HW146967   6.532   1.115   7.479  0.2859 -4.1746  0.0844
14649SOL    HW246968   6.391   1.075   7.517 -0.8802 -0.1725  0.1161
14650SOL     OW46969   8.623   7.827   1.351 -0.0080 -0.2265 -0.0420
14650SOL    HW146970   8.534   7.795   1.335 -0.1578  0.4488 -0.6090
14650SOL    HW246971   8.676   7.788   1.282  0.1037 -0.4914  0.1932
14651SOL     OW46972   6.539   7.854   1.904 -0.3320 -0.1859  0.0874
14651SOL    HW146973   6.525   7.920   1.972 -0.5611 -0.0686 -0.0724
14651SOL    HW246974   6.474   7.786   1.923  0.4484 -0.7619  0.7421
14652SOL     OW46975   0.316   0.578   4.466 -0.1605  0.5577  0.4753
14652SOL    HW146976   0.338   0.489   4.440  2.9926  1.4518 -0.1006
14652SOL    HW246977   0.232   0.595   4.424 -0.8504 -2.1676  0.6799
14653SOL     OW46978   1.594   6.695   1.388 -0.0434  0.3032  0.1786
14653SOL    HW146979   1.679   6.739   1.378 -0.8058  1.8877  0.5167
14653SOL    HW246980   1.561   6.725   1.473 -0.5746 -0.9489  0.4174
14654SOL     OW46981   2.915   1.776   3.742 -0.4734 -0.1565 -0.1225
14654SOL    HW146982   2.838   1.765   3.798 -3.2025  0.0126 -3.6419
14654SOL    HW246983   2.970   1.701   3.760 -1.3485 -0.1592  2.6511
14655SOL     OW46984   2.858   4.585   0.682  0.0624 -0.6778 -0.0804
14655SOL    HW146985   2.892   4.545   0.602 -0.3003  4.5237 -3.0353
14655SOL    HW246986   2.777   4.539   0.700 -0.4005 -1.2458 -3.3666
14656SOL     OW46987   8.650   4.722   2.904 -0.6809  0.2894 -0.2055
14656SOL    HW146988   8.568   4.728   2.953  0.2582 -0.7439  1.5739
14656SOL    HW246989   8.718   4.714   2.972  0.7526 -0.3012 -1.6642
14657SOL     OW46990   7.834   0.843   0.787 -0.3755  0.1366  0.1871
14657SOL    HW146991   7.913   0.881   0.825 -1.0636  1.6859  0.0908
14657SOL    HW246992   7.787   0.806   0.862  0.1173 -0.2221  0.3269
14658SOL     OW46993   9.390   1.391   5.687 -0.0414 -0.0189  0.3944
14658SOL    HW146994   9.318   1.451   5.708 -0.7806 -0.4404 -0.8456
14658SOL    HW246995   9.435   1.376   5.770 -1.1512  0.5713  1.1073
14659SOL     OW46996   4.320   0.700   5.552 -0.1041  0.3648 -0.4782
14659SOL    HW146997   4.257   0.649   5.500 -0.7303  0.6811 -0.0317
14659SOL    HW246998   4.353   0.638   5.617 -1.1234  0.6261  0.2841
14660SOL     OW46999   2.775   6.601   2.880  0.4122  0.1054 -0.7092
14660SOL    HW147000   2.862   6.573   2.908  0.7912 -0.3453 -2.2825
14660SOL    HW247001   2.773   6.583   2.786 -2.0045 -1.5012 -0.3885
14661SOL     OW47002   1.450   5.796   1.159 -0.7407 -0.0916  0.4316
14661SOL    HW147003   1.387   5.868   1.167  0.8415  1.5898 -1.5473
14661SOL    HW247004   1.499   5.816   1.079  0.7238 -2.6084  0.6477
14662SOL     OW47005   8.586   7.468   1.650 -0.2685 -0.8746 -0.1221
14662SOL    HW147006   8.502   7.513   1.651 -0.4609 -1.1678 -1.6707
14662SOL    HW247007   8.601   7.447   1.558  1.6227 -0.5946  0.0980
14663SOL     OW47008   0.067   3.290   7.846  0.3013 -0.0235  0.3231
14663SOL    HW147009   0.152   3.259   7.876  0.5460  0.4012  0.0812
14663SOL    HW247010   0.085   3.330   7.761  0.0715  1.1179  0.8020
14664SOL     OW47011   9.221   9.061   2.875  0.0263  0.0800  0.3365
14664SOL    HW147012   9.285   9.021   2.934  1.2543  0.1503 -0.9382
14664SOL    HW247013   9.265   9.138   2.840 -2.1256  2.2944  2.3353
14665SOL     OW47014   4.856   4.846   7.433  0.0562 -0.8338  0.5729
14665SOL    HW147015   4.805   4.824   7.355 -0.6798 -0.1003  0.8441
14665SOL    HW247016   4.918   4.912   7.403 -1.5880  0.9678  1.0475
14666SOL     OW47017   1.981   4.082   1.315  0.1228 -0.2825 -0.1150
14666SOL    HW147018   2.027   4.055   1.394 -0.5197 -1.9703 -0.3071
14666SOL    HW247019   1.905   4.130   1.347  0.0142 -0.7173  0.2739
14667SOL     OW47020   8.039   1.248   2.898  0.6051  0.2160 -0.1180
14667SOL    HW147021   7.948   1.240   2.871  0.8116  2.0123 -1.4308
14667SOL    HW247022   8.035   1.295   2.982  0.2948 -0.1424  0.0689
14668SOL     OW47023   7.854   1.765   4.854 -0.2912  0.0545 -0.4558
14668SOL    HW147024   7.950   1.760   4.853 -0.1515  2.2985 -0.5278
14668SOL    HW247025   7.826   1.674   4.868  1.8773 -0.4275  1.1024
14669SOL     OW47026   7.764   1.406   0.937 -0.4366  0.1857  0.3263
14669SOL    HW147027   7.720   1.355   1.006  0.3655 -0.8007  0.1219
14669SOL    HW247028   7.702   1.404   0.864 -0.2520 -0.8462  0.1837
14670SOL     OW47029   6.314   1.187   5.635 -0.5859  0.2544  0.0049
14670SOL    HW147030   6.408   1.197   5.620 -0.7001  0.2673 -0.7069
14670SOL    HW247031   6.285   1.276   5.656 -0.6070  0.4249 -0.7350
14671SOL     OW47032   8.860   1.093   0.840  0.0273  0.0439  0.5870
14671SOL    HW147033   8.827   1.087   0.929  0.1245  0.0073  0.6207
14671SOL    HW247034   8.842   1.184   0.814 -1.2763 -0.3330  0.1330
14672SOL     OW47035   2.207   5.661   3.580  0.6831  0.1248  0.2214
14672SOL    HW147036   2.170   5.628   3.497  0.6010 -1.9413  1.0477
14672SOL    HW247037   2.289   5.613   3.590  0.1975 -0.3833  1.8402
14673SOL     OW47038   6.699   1.055   4.804  0.0409  0.0091  0.1164
14673SOL    HW147039   6.605   1.050   4.787 -0.1522 -0.5086  1.3137
14673SOL    HW247040   6.729   0.964   4.799  0.4965  0.1878 -0.3825
14674SOL     OW47041   4.969   0.862   7.305  0.5072 -0.1614  0.2520
14674SOL    HW147042   4.922   0.865   7.388  0.5147  0.7965  0.2257
14674SOL    HW247043   4.921   0.798   7.252 -0.8726  0.9471  0.1584
14675SOL     OW47044   0.073   3.940   2.418  0.0281  0.3658  0.3736
14675SOL    HW147045   0.069   3.907   2.508 -1.4804  0.7075  0.4464
14675SOL    HW247046   0.071   3.861   2.363 -0.9545  0.2192  0.6057
14676SOL     OW47047   5.396   1.215   5.583 -0.6815  0.0109 -0.4323
14676SOL    HW147048   5.311   1.251   5.607  0.5017  2.7197 -0.1392
14676SOL    HW247049   5.378   1.123   5.564 -3.4121  0.1888  0.9846
14677SOL     OW47050   4.062   8.976   7.017 -0.2063  0.1913  0.5321
14677SOL    HW147051   4.060   9.017   6.931 -0.9873  1.1365  0.9870
14677SOL    HW247052   4.087   8.885   7.000  0.3969  0.5569 -0.6062
14678SOL     OW47053   5.611   0.103   8.031  0.4048 -0.2859 -0.2562
14678SOL    HW147054   5.657   0.173   7.984  0.2791  0.2503  0.4080
14678SOL    HW247055   5.678   0.064   8.087  0.3497 -0.3515 -0.2358
14679SOL     OW47056   8.499   3.022   5.655  0.1694  0.1203 -0.1563
14679SOL    HW147057   8.487   2.928   5.663  1.0753 -0.1020 -1.2911
14679SOL    HW247058   8.433   3.060   5.713 -0.4268 -1.1944  0.0350
14680SOL     OW47059   1.637   5.219   6.845 -0.2985  0.0883 -0.2250
14680SOL    HW147060   1.682   5.149   6.799  1.1236  1.0431 -0.3183
14680SOL    HW247061   1.593   5.176   6.919  1.8281 -0.6941  0.6140
14681SOL     OW47062   0.192   3.796   8.076  0.4406  0.2310 -0.2707
14681SOL    HW147063   0.150   3.852   8.011  1.5086  0.7601 -0.5105
14681SOL    HW247064   0.120   3.746   8.115 -0.3541  0.8304 -0.9641
14682SOL     OW47065   7.625   7.491   9.195 -0.2368 -0.7235 -0.0212
14682SOL    HW147066   7.559   7.448   9.249 -1.5777  1.2394 -0.0576
14682SOL    HW247067   7.691   7.521   9.258 -0.2696 -1.1095  0.2010
14683SOL     OW47068   0.262   3.553   2.705  0.1043 -0.1179 -0.4742
14683SOL    HW147069   0.263   3.464   2.670  0.0633  0.3918 -1.7977
14683SOL    HW247070   0.234   3.543   2.796 -2.1947 -1.2450 -1.2649
14684SOL     OW47071   0.503   8.333   3.957  0.6411 -0.1335  0.0876
14684SOL    HW147072   0.425   8.285   3.928  0.3993  1.1059 -1.3833
14684SOL    HW247073   0.573   8.303   3.900  0.5219  1.1217 -0.7418
14685SOL     OW47074   7.602   9.144   7.156  0.6866 -0.7043 -0.1143
14685SOL    HW147075   7.667   9.077   7.178  0.5680 -1.3047 -1.5516
14685SOL    HW247076   7.576   9.124   7.066 -0.2437  0.5523 -0.1407
14686SOL     OW47077   3.682   6.026   3.068  0.9765  0.3197  0.7046
14686SOL    HW147078   3.600   6.027   3.117  0.3670  1.4129 -0.3231
14686SOL    HW247079   3.740   6.084   3.118  0.3909  1.3426  0.2160
14687SOL     OW47080   6.830   3.914   4.145 -0.1607 -0.0402 -0.0925
14687SOL    HW147081   6.859   3.842   4.089  1.7157  0.0873  0.6750
14687SOL    HW247082   6.857   3.993   4.100 -0.8458  0.1401 -0.1890
14688SOL     OW47083   8.131   1.644   4.883 -0.4176  0.2424  0.0414
14688SOL    HW147084   8.122   1.599   4.967 -0.2209  0.4679  0.1870
14688SOL    HW247085   8.207   1.603   4.842  0.4727  1.2167  0.6809
14689SOL     OW47086   8.249   0.451   8.964 -0.1592 -0.0238  0.4878
14689SOL    HW147087   8.304   0.518   9.006  1.5112 -0.4304 -1.0026
14689SOL    HW247088   8.251   0.377   9.024 -1.3613  0.9696  1.7691
14690SOL     OW47089   6.959   0.320   3.440  0.1765 -0.2261 -0.0186
14690SOL    HW147090   7.013   0.281   3.371  1.7838 -1.6657  1.9786
14690SOL    HW247091   6.885   0.261   3.449  0.1460 -0.2271 -0.2797
14691SOL     OW47092   8.130   5.737   8.334  0.5261 -0.0210  0.1790
14691SOL    HW147093   8.128   5.643   8.350  0.9234 -0.4558 -2.1372
14691SOL    HW247094   8.060   5.752   8.271  1.1235  1.0666 -0.2447
14692SOL     OW47095   1.488   8.064   3.102 -0.2432 -0.8733 -0.3258
14692SOL    HW147096   1.401   8.057   3.064 -1.1140 -0.8014  1.6250
14692SOL    HW247097   1.515   8.154   3.085 -1.8605  0.0417  1.8026
14693SOL     OW47098   4.363   4.357   0.328  0.2193 -0.4234  0.2685
14693SOL    HW147099   4.421   4.407   0.270 -1.5471 -0.3647 -1.5103
14693SOL    HW247100   4.419   4.287   0.364  1.4862 -0.1226 -1.0725
14694SOL     OW47101   7.415   3.308   6.438  0.0227 -0.1151 -0.3882
14694SOL    HW147102   7.344   3.367   6.413  0.2191 -0.5070 -1.9287
14694SOL    HW247103   7.386   3.269   6.521 -0.8048  0.9681 -0.1620
14695SOL     OW47104   1.118   8.582   5.388 -0.2431  0.3981  0.1863
14695SOL    HW147105   1.057   8.524   5.434 -1.0519  0.3517 -0.9095
14695SOL    HW247106   1.203   8.539   5.396 -0.9197 -1.2344 -1.0572
14696SOL     OW47107   3.695   3.874   2.419 -0.2266  0.1630  0.4864
14696SOL    HW147108   3.694   3.964   2.384 -0.5934  1.1907  3.0490
14696SOL    HW247109   3.782   3.842   2.399  0.3877  1.5981  0.7709
14697SOL     OW47110   4.638   2.370   2.815  0.4851  0.1040  0.1691
14697SOL    HW147111   4.557   2.380   2.765 -0.1351 -0.9031  0.9690
14697SOL    HW247112   4.615   2.393   2.904  1.1356  0.0370  0.3578
14698SOL     OW47113   8.200   3.922   1.023 -0.0658  0.0359  0.2814
14698SOL    HW147114   8.205   4.017   1.031  0.0770  0.1062 -0.5455
14698SOL    HW247115   8.292   3.894   1.022 -0.0640  0.0401 -1.0016
14699SOL     OW47116   8.903   7.300   1.379 -0.0410 -0.2499 -0.3338
14699SOL    HW147117   8.932   7.225   1.328  4.1563  0.6152  0.5525
14699SOL    HW247118   8.890   7.266   1.467 -0.9419 -0.4746 -0.5494
14700SOL     OW47119   7.242   7.907   7.983 -0.3565 -0.6474  0.0094
14700SOL    HW147120   7.329   7.900   7.944  0.0051  0.8013  0.5179
14700SOL    HW247121   7.213   7.817   7.995  1.7339 -1.1530  1.3523
14701SOL     OW47122   5.812   8.167   4.259  0.2936 -0.1348  0.2622
14701SOL    HW147123   5.738   8.224   4.237  0.1105 -0.0684  1.0170
14701SOL    HW247124   5.887   8.205   4.212  0.4133  1.4050  1.6543
14702SOL     OW47125   0.896   8.970   6.055 -0.1506 -0.1841  0.1486
14702SOL    HW147126   0.839   8.913   6.002  2.6107 -3.0947  0.1463
14702SOL    HW247127   0.959   9.006   5.993  1.2563 -1.2314  0.9501
14703SOL     OW47128   7.843   4.010   7.449  0.2872 -0.0084 -0.1838
14703SOL    HW147129   7.815   4.085   7.502  0.6041 -0.6405  0.8938
14703SOL    HW247130   7.766   3.952   7.448  0.3354 -0.0707 -0.2764
14704SOL     OW47131   4.673   1.563   8.054 -0.0449  0.4191  0.0655
14704SOL    HW147132   4.725   1.619   7.996  0.7829  0.4005  0.7708
14704SOL    HW247133   4.665   1.480   8.007  1.4523  0.0778  0.3609
14705SOL     OW47134   5.244   9.024   1.138 -0.2234  0.4409 -0.3285
14705SOL    HW147135   5.191   9.099   1.166  2.1347  1.6642  0.9982
14705SOL    HW247136   5.199   8.948   1.177 -0.4528  1.5526  1.6805
14706SOL     OW47137   4.349   0.568   0.162  0.5206 -0.1623  0.0493
14706SOL    HW147138   4.285   0.599   0.099 -0.7712 -2.7402  0.0162
14706SOL    HW247139   4.431   0.560   0.112  0.7344  2.4603 -0.0701
14707SOL     OW47140   0.744   1.948   5.111 -0.6680 -0.0064 -0.3558
14707SOL    HW147141   0.832   1.985   5.101  0.6768 -3.1348 -0.5301
14707SOL    HW247142   0.692   1.990   5.042  0.0071  3.7004  1.2867
14708SOL     OW47143   2.931   6.706   3.877  0.1065 -0.5882 -0.1278
14708SOL    HW147144   2.984   6.713   3.956  0.9443 -0.8716 -0.6660
14708SOL    HW247145   2.867   6.777   3.885 -0.6606 -1.4269  1.4380
14709SOL     OW47146   4.426   6.905   6.720 -0.0910 -0.2003  0.3672
14709SOL    HW147147   4.340   6.867   6.739 -1.2971  1.0093 -2.3845
14709SOL    HW247148   4.418   6.997   6.748  0.2971 -0.0884  0.1152
14710SOL     OW47149   6.615   4.313   4.711 -0.8358  0.6678 -0.2840
14710SOL    HW147150   6.541   4.256   4.690 -0.6602  0.5539 -0.5831
14710SOL    HW247151   6.637   4.289   4.801  2.0950 -2.9276 -1.8294
14711SOL     OW47152   6.323   3.581   9.131  0.1812  0.2900  0.2496
14711SOL    HW147153   6.327   3.676   9.124 -1.8641  0.3281 -0.5883
14711SOL    HW247154   6.232   3.558   9.112  1.0615 -1.9926 -1.5380
14712SOL     OW47155   1.637   3.749   3.616  0.3534  0.3405  0.1919
14712SOL    HW147156   1.702   3.739   3.685 -0.5710 -1.3567  0.8454
14712SOL    HW247157   1.628   3.662   3.578  1.2353  1.3376 -2.4720
14713SOL     OW47158   5.472   4.811   1.812 -0.3772 -0.3785 -0.0666
14713SOL    HW147159   5.463   4.905   1.798 -1.6954 -0.5346 -0.3025
14713SOL    HW247160   5.420   4.793   1.890  1.0570 -0.6894  0.8444
14714SOL     OW47161   3.081   4.710   6.761 -0.0231  0.2363  0.1734
14714SOL    HW147162   3.021   4.644   6.796 -0.3261  0.0454 -0.6846
14714SOL    HW247163   3.104   4.764   6.836 -0.6124 -0.1983  0.6746
14715SOL     OW47164   0.499   7.401   8.011 -0.1217  0.1364  0.7339
14715SOL    HW147165   0.587   7.408   7.975 -1.3520  2.4747 -2.0633
14715SOL    HW247166   0.455   7.337   7.954 -1.4022  2.0697 -0.4925
14716SOL     OW47167   6.107   7.312   6.125  0.8401 -0.0015  0.2872
14716SOL    HW147168   6.125   7.219   6.117  0.2750 -0.0921  0.0740
14716SOL    HW247169   6.070   7.322   6.213  0.0772 -0.1108 -0.0181
14717SOL     OW47170   9.204   0.958   9.204  0.2238 -0.0051 -0.1471
14717SOL    HW147171   9.163   0.979   9.120 -0.2276  0.7938  0.2659
14717SOL    HW247172   9.138   0.905   9.250  0.1206  0.2958  0.0516
14718SOL     OW47173   7.422   8.948   0.958 -0.3952  0.3062  0.5859
14718SOL    HW147174   7.361   8.876   0.973 -2.6505  2.2410  0.8827
14718SOL    HW247175   7.486   8.912   0.896 -2.4335 -1.4312 -0.5794
14719SOL     OW47176   5.506   7.551   2.914 -0.5321  0.3290 -0.2800
14719SOL    HW147177   5.426   7.603   2.905 -0.9947 -0.6861 -2.3053
14719SOL    HW247178   5.490   7.494   2.989 -0.9112  1.4685  0.5311
14720SOL     OW47179   5.824   5.611   5.131  0.8727  0.3092 -0.3524
14720SOL    HW147180   5.816   5.706   5.130  1.3530  0.3746  0.8509
14720SOL    HW247181   5.772   5.583   5.207 -0.4669 -0.5168 -1.5475
14721SOL     OW47182   6.653   9.322   4.969 -0.1366  0.0412 -0.2590
14721SOL    HW147183   6.697   9.237   4.969 -0.9963 -0.4202  0.5314
14721SOL    HW247184   6.650   9.347   5.062 -0.1946  0.7688 -0.4540
14722SOL     OW47185   2.536   3.881   2.943 -0.2184 -0.1610  0.1103
14722SOL    HW147186   2.568   3.950   3.001 -0.1425 -1.2108  1.3242
14722SOL    HW247187   2.593   3.807   2.959 -1.1285 -0.9429 -0.2097
14723SOL     OW47188   9.174   8.241   6.951 -0.2967 -0.5099  0.2016
14723SOL    HW147189   9.167   8.149   6.976 -0.3905 -1.0542 -1.6996
14723SOL    HW247190   9.093   8.258   6.903 -0.0132  0.4041  0.0356
14724SOL     OW47191   3.950   0.380   8.673  0.6547 -0.3396  0.0824
14724SOL    HW147192   3.899   0.450   8.634  0.7449 -0.2153  0.1889
14724SOL    HW247193   3.888   0.334   8.730  0.2726 -1.0932 -0.9071
14725SOL     OW47194   7.186   1.249   1.908  0.6072  0.5520 -0.5321
14725SOL    HW147195   7.217   1.182   1.968  0.0624 -0.1475 -1.0150
14725SOL    HW247196   7.261   1.306   1.894  1.1555 -0.1045 -0.3123
14726SOL     OW47197   1.161   2.080   7.250 -0.3706 -0.7635 -0.0444
14726SOL    HW147198   1.162   2.159   7.304  0.8166 -1.0251  0.3312
14726SOL    HW247199   1.207   2.104   7.170 -1.9391 -0.4410 -0.8667
14727SOL     OW47200   1.065   9.433   1.855  0.0362 -0.0046  0.1745
14727SOL    HW147201   1.029   9.400   1.937 -0.1020 -0.8661 -0.2278
14727SOL    HW247202   1.131   9.369   1.829 -0.0761  0.1454 -0.5026
14728SOL     OW47203   8.489   4.831   5.461 -0.2780  0.3335 -0.4274
14728SOL    HW147204   8.568   4.779   5.445 -0.7663 -1.1959  1.9525
14728SOL    HW247205   8.417   4.767   5.459 -1.1809  1.3175 -0.0410
14729SOL     OW47206   0.056   5.085   5.918 -0.2575 -0.0841 -0.0766
14729SOL    HW147207   0.044   5.132   6.000  1.4621  1.2152 -0.5277
14729SOL    HW247208  -0.025   5.098   5.869 -0.5551  0.7153  0.6422
14730SOL     OW47209   4.678   3.991   0.676  0.3074  0.0387  0.1993
14730SOL    HW147210   4.695   3.916   0.734 -0.2217 -1.0669 -1.0403
14730SOL    HW247211   4.751   3.990   0.615 -0.4610 -0.3567 -0.7221
14731SOL     OW47212   7.401   5.518   3.482 -0.3587 -0.7980  0.6677
14731SOL    HW147213   7.433   5.608   3.478 -2.1402 -0.1237  1.1815
14731SOL    HW247214   7.403   5.488   3.391  0.3272 -0.2856  0.5061
14732SOL     OW47215   2.673   4.181   6.440  0.2274  0.0900 -0.7360
14732SOL    HW147216   2.663   4.203   6.533 -0.7915  1.7924 -1.2150
14732SOL    HW247217   2.589   4.206   6.401  0.7976 -0.2320 -2.1901
14733SOL     OW47218   4.208   0.758   2.023  0.4557  0.4342  0.5971
14733SOL    HW147219   4.187   0.758   2.116  1.8404 -0.6651  0.9091
14733SOL    HW247220   4.231   0.849   2.003 -0.9314  0.8998  1.0634
14734SOL     OW47221   9.011   8.562   4.680 -0.1963  0.2417 -0.5318
14734SOL    HW147222   9.099   8.589   4.706 -0.8304  0.5050  1.3991
14734SOL    HW247223   9.025   8.511   4.600  1.8299 -0.7037  0.3896
14735SOL     OW47224   6.736   2.142   5.378 -0.2661  0.2558 -0.1842
14735SOL    HW147225   6.742   2.098   5.464 -1.9135  0.4964  0.0704
14735SOL    HW247226   6.746   2.071   5.315  0.9569  0.0725  0.1920
14736SOL     OW47227   6.256   2.858   7.803 -0.0152 -0.2236  0.4239
14736SOL    HW147228   6.243   2.882   7.711  0.6528  0.8574  0.6065
14736SOL    HW247229   6.313   2.927   7.838 -1.1341 -0.0408  1.9309
14737SOL     OW47230   7.362   8.018   5.277 -0.0760  0.0183 -0.1145
14737SOL    HW147231   7.281   7.996   5.322 -1.0169  1.5785 -1.0089
14737SOL    HW247232   7.375   7.947   5.214 -1.1161  0.1151 -0.4469
14738SOL     OW47233   5.673   9.200   2.159  0.3378  0.2989 -0.0140
14738SOL    HW147234   5.666   9.120   2.211  0.1698 -0.0626 -0.5898
14738SOL    HW247235   5.759   9.195   2.118  0.1595  0.2203 -0.3751
14739SOL     OW47236   6.657   2.754   9.432  0.0465  0.5425  0.2172
14739SOL    HW147237   6.628   2.759   9.523 -0.8665  0.6928 -0.0845
14739SOL    HW247238   6.669   2.660   9.416  1.6284  0.6071  0.9336
14740SOL     OW47239   8.688   5.533   7.463  0.3738 -0.7879 -0.1192
14740SOL    HW147240   8.693   5.593   7.388  0.0135  0.1289  0.5807
14740SOL    HW247241   8.637   5.581   7.529 -0.4030 -2.0935  0.2399
14741SOL     OW47242   9.222   7.569   7.204  0.5531  0.1753 -0.0519
14741SOL    HW147243   9.200   7.540   7.293  1.7569 -1.4676 -0.2540
14741SOL    HW247244   9.222   7.488   7.153  2.6787  0.6989 -0.9398
14742SOL     OW47245   6.008   5.111   1.360 -0.3065 -0.1984 -0.5649
14742SOL    HW147246   5.963   5.069   1.287 -2.9350  1.0371  0.2990
14742SOL    HW247247   5.941   5.165   1.402  1.5760  0.4104  1.7569
14743SOL     OW47248   8.616   2.097   2.126  0.1347 -0.0078 -0.0763
14743SOL    HW147249   8.601   2.101   2.220  1.6485  0.6127  0.1469
14743SOL    HW247250   8.690   2.036   2.116 -1.3677 -1.7284 -1.0275
14744SOL     OW47251   7.404   6.354   0.024 -0.3557  0.0934  0.3816
14744SOL    HW147252   7.408   6.433   0.077  0.2685  0.1789  0.2022
14744SOL    HW247253   7.369   6.383  -0.060 -0.7639  0.0596  0.5347
14745SOL     OW47254   3.285   8.390   1.459 -0.4687 -0.4379  0.0089
14745SOL    HW147255   3.200   8.391   1.503 -0.1651  0.2551  0.5996
14745SOL    HW247256   3.290   8.304   1.417 -1.4076 -0.5240  0.0782
14746SOL     OW47257   2.170   5.692   8.939 -0.1940 -0.4171  1.0607
14746SOL    HW147258   2.217   5.685   9.022  0.9775 -1.2118  0.3345
14746SOL    HW247259   2.122   5.609   8.931 -1.8440  0.4298  1.8517
14747SOL     OW47260   4.089   2.857   0.006  0.1334 -0.2146 -0.5569
14747SOL    HW147261   4.122   2.943   0.033 -1.2932  0.1025  0.1949
14747SOL    HW247262   4.023   2.876  -0.060 -1.8549 -0.5806  1.2777
14748SOL     OW47263   1.730   4.618   1.679 -0.7456 -0.4482  0.0848
14748SOL    HW147264   1.770   4.688   1.730 -1.2986  0.2756 -0.4664
14748SOL    HW247265   1.649   4.656   1.645  0.3844 -0.3871 -2.6532
14749SOL     OW47266   8.984   0.717   9.188  0.1378 -0.6821  0.8066
14749SOL    HW147267   8.897   0.701   9.224 -0.6829 -1.8484 -1.5386
14749SOL    HW247268   9.027   0.631   9.189 -0.0692 -0.8517 -1.2762
14750SOL     OW47269   4.766   3.736   4.252  0.3071 -0.1857  0.4007
14750SOL    HW147270   4.712   3.664   4.219 -1.1428  2.0479 -2.2755
14750SOL    HW247271   4.852   3.696   4.269 -0.5039 -2.5763 -0.9218
14751SOL     OW47272   0.922   4.443   9.266 -0.1470  0.3142  0.9009
14751SOL    HW147273   0.938   4.397   9.349  2.5337 -0.0805  0.2108
14751SOL    HW247274   1.009   4.459   9.230 -1.2369  1.2994 -1.4244
14752SOL     OW47275   3.778   9.317   0.456  0.4010 -0.2920  0.3610
14752SOL    HW147276   3.791   9.243   0.397 -1.2853 -1.9836  2.0207
14752SOL    HW247277   3.792   9.280   0.543 -0.0258  1.4521  1.1746
14753SOL     OW47278   0.948   8.556   4.417  0.3844 -0.6776 -0.6983
14753SOL    HW147279   0.913   8.490   4.357 -0.7071  0.6110 -1.4920
14753SOL    HW247280   0.875   8.616   4.432  1.6767  0.9236 -0.7791
14754SOL     OW47281   7.841   2.539   7.787  0.4761  0.0832 -0.3615
14754SOL    HW147282   7.844   2.624   7.830 -0.2957 -0.4934  0.8318
14754SOL    HW247283   7.913   2.489   7.826  0.0804 -0.2731 -0.0817
14755SOL     OW47284   6.121   8.869   0.650  0.6440 -0.5312 -0.1503
14755SOL    HW147285   6.107   8.789   0.701 -3.6695  0.1835 -0.0084
14755SOL    HW247286   6.111   8.939   0.714 -1.8653  0.2623 -1.3484
14756SOL     OW47287   8.031   0.983   8.987 -0.1534  0.3578 -0.2091
14756SOL    HW147288   8.108   1.023   9.026  0.8550 -3.2981  1.7513
14756SOL    HW247289   7.958   1.011   9.042  0.1542  1.5456 -0.3991
14757SOL     OW47290   0.604   3.711   8.575 -0.0576  0.0713 -0.5727
14757SOL    HW147291   0.521   3.747   8.607 -0.1569 -0.1232 -0.6158
14757SOL    HW247292   0.582   3.666   8.494  0.0763 -0.0445 -0.5476
14758SOL     OW47293   0.983   4.858   3.347 -0.1088 -0.9788  0.5977
14758SOL    HW147294   0.913   4.898   3.297  0.4317 -0.2475  0.4219
14758SOL    HW247295   0.955   4.766   3.358 -1.5947 -0.4480  1.4454
14759SOL     OW47296   4.087   5.432   0.948 -0.2263 -0.0642  0.3704
14759SOL    HW147297   4.129   5.360   0.901 -1.9814 -1.1654  0.4358
14759SOL    HW247298   4.085   5.504   0.884  1.4732 -0.0684  0.2825
14760SOL     OW47299   0.774   5.377   8.036 -0.2951 -0.1410 -0.3827
14760SOL    HW147300   0.859   5.381   7.992  1.6219 -0.8870  3.0612
14760SOL    HW247301   0.733   5.298   8.002  0.6574 -0.1418 -1.5795
14761SOL     OW47302   2.788   7.099   7.519 -0.1803  0.2660  0.1760
14761SOL    HW147303   2.779   7.005   7.535  0.2787 -0.0083 -1.1027
14761SOL    HW247304   2.861   7.106   7.457 -0.8291  1.3768 -0.4932
14762SOL     OW47305   0.038   1.672   3.119 -0.7461 -0.0439 -0.4449
14762SOL    HW147306   0.000   1.660   3.032  0.3797 -1.1540 -0.8048
14762SOL    HW247307   0.042   1.767   3.132  0.6755  0.1832 -2.3286
14763SOL     OW47308   2.187   2.524   8.627  0.0800  0.0465 -0.0438
14763SOL    HW147309   2.183   2.583   8.552  0.4955  2.0986  1.5196
14763SOL    HW247310   2.175   2.580   8.703  0.7069 -1.8569  1.5071
14764SOL     OW47311   3.761   1.619   2.245 -0.2392  0.0833 -0.0963
14764SOL    HW147312   3.794   1.530   2.253  0.8337  0.5654  0.9432
14764SOL    HW247313   3.809   1.655   2.170 -1.3999 -0.5102 -1.1540
14765SOL     OW47314   3.387   8.581   6.964  0.2014 -0.1759  0.2719
14765SOL    HW147315   3.332   8.502   6.972  0.3016 -0.0314  2.8638
14765SOL    HW247316   3.475   8.547   6.950  0.3130 -0.5609  1.8169
14766SOL     OW47317   3.151   0.827   7.175  0.3577 -0.8350  0.3089
14766SOL    HW147318   3.072   0.783   7.143 -1.1499  1.7727  0.2679
14766SOL    HW247319   3.121   0.873   7.254  2.0478 -0.5178  0.7698
14767SOL     OW47320   9.131   8.155   9.059  0.0155  0.2357 -0.3322
14767SOL    HW147321   9.041   8.144   9.029 -0.3815  1.4694  0.3776
14767SOL    HW247322   9.126   8.145   9.154  0.5940  0.5143 -0.2697
14768SOL     OW47323   8.239   2.648   3.124 -0.2583  0.0526 -0.1435
14768SOL    HW147324   8.183   2.657   3.047  0.0891  2.0732 -0.1918
14768SOL    HW247325   8.209   2.567   3.166 -2.0658  0.2030 -1.0877
14769SOL     OW47326   1.894   8.776   9.306  0.3337  0.0390  0.0558
14769SOL    HW147327   1.976   8.825   9.300  1.1757 -1.3143  0.2781
14769SOL    HW247328   1.864   8.791   9.395  0.6989 -0.0237  0.1921
14770SOL     OW47329   9.239   1.266   1.612  0.2590 -0.2350  0.0268
14770SOL    HW147330   9.216   1.357   1.595 -0.4976 -0.1646  1.3692
14770SOL    HW247331   9.183   1.240   1.685  2.0054 -1.1348  1.0572
14771SOL     OW47332   7.066   1.602   6.245  0.6856 -0.5388 -0.3160
14771SOL    HW147333   6.978   1.638   6.237  0.9272 -0.1855 -1.4603
14771SOL    HW247334   7.075   1.581   6.338 -0.6419 -0.6863 -0.2117
14772SOL     OW47335   1.972   3.331   1.244 -0.0870  0.0336  0.3755
14772SOL    HW147336   1.927   3.282   1.175  1.1457 -1.4634  0.5952
14772SOL    HW247337   1.945   3.421   1.231 -3.2031 -0.8145  0.5543
14773SOL     OW47338   0.734   6.254   0.002  0.2909  0.2591 -0.3470
14773SOL    HW147339   0.691   6.172   0.023  0.1227  0.0719 -1.4045
14773SOL    HW247340   0.759   6.246  -0.090 -0.3996  1.6797 -0.6835
14774SOL     OW47341   1.855   3.543   1.964  0.0612  0.4389  0.3749
14774SOL    HW147342   1.929   3.590   2.004  0.4291 -0.2581  0.5263
14774SOL    HW247343   1.885   3.523   1.875  0.8242 -1.5207  1.0401
14775SOL     OW47344   0.511   6.126   4.377  0.1476 -0.5163 -0.0470
14775SOL    HW147345   0.432   6.106   4.427  0.4601 -0.6343  0.3978
14775SOL    HW247346   0.552   6.199   4.424 -0.5336  0.6282 -1.1729
14776SOL     OW47347   5.268   4.941   9.173 -0.4604 -0.3056 -0.0933
14776SOL    HW147348   5.177   4.917   9.191 -0.6516 -0.0123 -0.6565
14776SOL    HW247349   5.319   4.867   9.207 -1.0187 -1.3664 -1.4876
14777SOL     OW47350   6.020   2.887   5.032 -0.9137  0.1403  0.2686
14777SOL    HW147351   6.098   2.937   5.056 -0.9045  0.3020 -0.0949
14777SOL    HW247352   5.957   2.953   5.002 -0.4869 -0.1471 -1.3370
14778SOL     OW47353   6.954   2.577   0.868  0.1947  0.2347 -0.1489
14778SOL    HW147354   7.047   2.578   0.844  0.9146  1.6648  2.4923
14778SOL    HW247355   6.935   2.485   0.887  1.2504  0.0376 -0.0116
14779SOL     OW47356   3.870   8.697   6.420  0.1150 -0.3298 -0.7243
14779SOL    HW147357   3.918   8.616   6.403  0.7840  0.3906 -2.4576
14779SOL    HW247358   3.938   8.765   6.423 -0.4508  0.1867  0.4961
14780SOL     OW47359   0.496   8.073   0.036  0.6733 -0.0780 -0.2060
14780SOL    HW147360   0.523   8.048   0.125 -2.3328  0.0201  0.7895
14780SOL    HW247361   0.432   8.142   0.049 -0.9134 -1.0774 -2.4001
14781SOL     OW47362   4.096   4.310   1.156 -0.5823 -0.3954 -0.1259
14781SOL    HW147363   4.019   4.337   1.206 -0.3947 -0.1317  0.0173
14781SOL    HW247364   4.169   4.318   1.218 -0.4992 -1.0340 -0.1373
14782SOL     OW47365   7.325   8.335   6.216 -0.3933  0.1824  0.0870
14782SOL    HW147366   7.287   8.324   6.129 -0.9202 -1.4082  0.5140
14782SOL    HW247367   7.419   8.325   6.202 -0.4851 -0.1689 -0.2795
14783SOL     OW47368   5.820   0.271   0.417  0.5517 -0.0586  0.7716
14783SOL    HW147369   5.825   0.205   0.486  0.0913  0.8025  1.6502
14783SOL    HW247370   5.726   0.286   0.406  0.6888  2.8017  2.9102
14784SOL     OW47371   7.050   4.730   8.620 -0.2823  0.1114  0.0130
14784SOL    HW147372   7.041   4.734   8.715  0.6919  1.3753  0.0762
14784SOL    HW247373   6.967   4.695   8.589 -0.9441  0.5236  1.2700
14785SOL     OW47374   5.818   5.905   5.130  0.0286 -0.4965 -0.5841
14785SOL    HW147375   5.827   5.940   5.219 -1.5450  0.6434 -0.8577
14785SOL    HW247376   5.729   5.928   5.104  0.2669 -1.3691 -2.2334
14786SOL     OW47377   2.122   3.503   8.739  0.3500  0.4688 -0.7641
14786SOL    HW147378   2.097   3.591   8.767  0.6646  0.0484  0.8815
14786SOL    HW247379   2.144   3.513   8.646  0.7909  2.2241 -0.4936
14787SOL     OW47380   9.088   8.186   9.347  0.2109 -0.6987 -0.0489
14787SOL    HW147381   9.070   8.209   9.439  1.9575  2.0431 -0.3201
14787SOL    HW247382   9.167   8.132   9.351  0.1645 -0.7557  0.0818
14788SOL     OW47383   6.332   3.163   9.323 -0.0794  0.0873  0.4612
14788SOL    HW147384   6.357   3.196   9.410  0.5719 -0.2291  0.3934
14788SOL    HW247385   6.381   3.218   9.262  1.1430 -1.1260  0.3514
14789SOL     OW47386   0.701   1.573   7.207  0.7872 -0.5057  0.0802
14789SOL    HW147387   0.794   1.592   7.221  0.8275 -1.5743  1.2942
14789SOL    HW247388   0.655   1.642   7.254  0.9479  0.6900 -1.4622
14790SOL     OW47389   2.467   6.843   2.491 -0.0948  0.1806  0.2229
14790SOL    HW147390   2.472   6.826   2.397 -1.5722 -0.1342  0.1836
14790SOL    HW247391   2.455   6.757   2.530 -0.4315  0.4048  0.6194
14791SOL     OW47392   4.717   0.659   7.156 -0.2402  0.2735  0.1624
14791SOL    HW147393   4.644   0.640   7.097  0.4655  0.6454 -0.8481
14791SOL    HW247394   4.678   0.708   7.229 -1.1834 -0.5379  0.1991
14792SOL     OW47395   0.649   2.309   8.813 -0.1656 -0.1466 -0.4297
14792SOL    HW147396   0.646   2.364   8.735  1.0786  1.1471  0.4044
14792SOL    HW247397   0.687   2.227   8.783 -0.8266 -0.1057 -1.4208
14793SOL     OW47398   4.490   4.752   6.546  0.5638 -0.4306 -0.2570
14793SOL    HW147399   4.503   4.680   6.485 -1.6584 -0.2822 -0.9237
14793SOL    HW247400   4.404   4.737   6.584  1.8792 -0.4902  2.8408
14794SOL     OW47401   6.577   5.680   9.396  0.5134  0.0541 -0.3341
14794SOL    HW147402   6.568   5.666   9.490  1.4418  0.8953 -0.1112
14794SOL    HW247403   6.672   5.686   9.381  0.3464  0.5963 -1.2207
14795SOL     OW47404   2.211   6.627   8.600 -0.3390  0.0515 -0.4188
14795SOL    HW147405   2.249   6.562   8.541  0.3268  1.2612 -1.3535
14795SOL    HW247406   2.204   6.582   8.684  1.4411 -0.7862 -0.6870
14796SOL     OW47407   7.363   7.032   7.224 -0.1162  0.3853  0.0319
14796SOL    HW147408   7.329   7.062   7.140 -0.5050  3.3061  1.1766
14796SOL    HW247409   7.457   7.050   7.220 -0.5199  2.9305  1.1468
14797SOL     OW47410   2.491   1.170   3.599  0.2791 -0.5692  1.3479
14797SOL    HW147411   2.402   1.157   3.567  0.5820 -1.4988  0.8890
14797SOL    HW247412   2.480   1.189   3.692 -0.4622  0.2354  1.1038
14798SOL     OW47413   7.993   9.077   1.252 -0.4654 -0.6394  0.6040
14798SOL    HW147414   8.009   9.164   1.289 -0.0310  0.2954 -1.7545
14798SOL    HW247415   8.052   9.070   1.177 -2.5925 -1.8104 -1.0183
14799SOL     OW47416   6.329   4.245   7.674 -0.2094 -0.3307 -0.2625
14799SOL    HW147417   6.263   4.284   7.732 -0.9929  0.9044 -1.9206
14799SOL    HW247418   6.409   4.295   7.692 -0.3553 -0.2099  0.0517
14800SOL     OW47419   9.227   6.859   7.818  0.6170  0.1551 -0.0873
14800SOL    HW147420   9.240   6.834   7.909 -0.3746  2.2356  0.6539
14800SOL    HW247421   9.315   6.856   7.779  1.0122 -0.9497  0.8589
14801SOL     OW47422   0.171   4.594   6.016 -0.0077 -0.1129 -0.7220
14801SOL    HW147423   0.200   4.504   6.033  0.1363  0.1151  0.2733
14801SOL    HW247424   0.250   4.641   5.991  0.1822  0.0753  0.2005
14802SOL     OW47425   1.538   3.413   4.634 -0.3156 -0.4915 -0.0336
14802SOL    HW147426   1.548   3.379   4.545 -1.0338 -2.3899  0.5800
14802SOL    HW247427   1.510   3.504   4.622  1.5132 -0.1047 -1.7303
14803SOL     OW47428   9.040   9.107   7.751 -0.7141 -0.5839 -0.0761
14803SOL    HW147429   9.089   9.038   7.706  1.9944  0.5934  0.9338
14803SOL    HW247430   8.994   9.153   7.682  0.8789 -0.7716 -1.3042
14804SOL     OW47431   4.765   7.916   2.335  0.9346 -0.3261  0.2932
14804SOL    HW147432   4.856   7.943   2.332  0.9604 -0.3431  0.9550
14804SOL    HW247433   4.727   7.963   2.409 -0.1497  1.3860 -1.3057
14805SOL     OW47434   2.303   3.140   8.802 -0.1171  0.6392 -0.5542
14805SOL    HW147435   2.224   3.103   8.762 -0.5261  1.0899 -0.1744
14805SOL    HW247436   2.270   3.199   8.870  0.5234  1.4569 -0.9394
14806SOL     OW47437   1.117   5.698   8.866  0.3799 -0.2791  0.2543
14806SOL    HW147438   1.032   5.657   8.848 -0.2772  1.7338 -1.3151
14806SOL    HW247439   1.102   5.749   8.945  0.4753 -0.8939  0.6750
14807SOL     OW47440   0.531   6.645   0.777  1.0133  0.0980  0.2458
14807SOL    HW147441   0.463   6.578   0.784  1.4225 -0.2083  1.3573
14807SOL    HW247442   0.609   6.598   0.747  1.1962  0.1458  0.6445
14808SOL     OW47443   1.010   1.778   6.802 -0.1552  0.0497  0.3651
14808SOL    HW147444   0.991   1.867   6.776  2.1472  0.5615  0.2789
14808SOL    HW247445   1.041   1.785   6.893 -0.9025 -0.7724  0.6918
14809SOL     OW47446   2.346   3.851   0.020 -0.9681  0.3923  0.3579
14809SOL    HW147447   2.376   3.918   0.081 -2.1529 -0.4969  1.9570
14809SOL    HW247448   2.320   3.778   0.076  0.0353 -1.3172 -1.3309
14810SOL     OW47449   6.040   8.285   5.562  0.6034  0.0839  0.6184
14810SOL    HW147450   6.043   8.236   5.480  2.0565  1.6622 -0.3161
14810SOL    HW247451   6.005   8.223   5.627 -1.7963 -0.7902 -1.4446
14811SOL     OW47452   7.869   7.991   4.044  0.1218 -0.3705  0.0780
14811SOL    HW147453   7.783   8.033   4.041 -0.1540 -0.9182  0.2059
14811SOL    HW247454   7.916   8.026   3.969 -0.0169  0.3530  0.3280
14812SOL     OW47455   5.441   4.609   2.377  0.2003 -0.3489  0.4373
14812SOL    HW147456   5.515   4.571   2.329  1.4238  2.2680  0.1937
14812SOL    HW247457   5.369   4.608   2.313  0.1136 -2.4477  0.5185
14813SOL     OW47458   8.494   2.540   3.239 -0.3974  0.0061  0.1000
14813SOL    HW147459   8.418   2.494   3.205  0.7428 -1.1461 -0.9105
14813SOL    HW247460   8.508   2.612   3.178 -0.2321 -0.2100 -0.1151
14814SOL     OW47461   3.159   1.028   2.459  0.3624 -0.0232 -0.1571
14814SOL    HW147462   3.156   1.014   2.365 -1.6948  1.2592 -0.3157
14814SOL    HW247463   3.171   0.941   2.496  0.1025 -0.6621 -1.5607
14815SOL     OW47464   8.670   5.973   4.315 -0.2701  0.0962 -0.1408
14815SOL    HW147465   8.647   5.890   4.358  0.8333 -0.3803 -0.4288
14815SOL    HW247466   8.723   6.019   4.381  3.2704 -1.5694 -1.6551
14816SOL     OW47467   4.629   4.503   0.919  0.1666 -0.3363 -0.1427
14816SOL    HW147468   4.631   4.442   0.845 -1.4164 -0.7415  0.1450
14816SOL    HW247469   4.536   4.514   0.939  0.4973  1.1076  0.6931
14817SOL     OW47470   0.924   7.682   3.480  0.0551 -0.0991 -0.1031
14817SOL    HW147471   0.923   7.679   3.575 -0.3800 -0.6561 -0.1169
14817SOL    HW247472   0.941   7.591   3.453 -0.2686 -0.0306 -0.5565
14818SOL     OW47473   8.408   0.714   9.379  0.2421 -0.1245  0.4941
14818SOL    HW147474   8.482   0.774   9.389 -0.5998  1.4312 -2.0587
14818SOL    HW247475   8.383   0.691   9.468  2.2483  1.2907  1.4518
14819SOL     OW47476   7.512   9.295   3.666  0.1186  0.2756 -0.0003
14819SOL    HW147477   7.456   9.253   3.732 -0.5401 -0.2118 -0.8521
14819SOL    HW247478   7.474   9.268   3.582  1.2619  0.4603 -0.5869
14820SOL     OW47479   5.440   2.034   3.305 -0.1023  0.2814 -0.5104
14820SOL    HW147480   5.353   2.013   3.271 -0.7277  0.6104  0.8755
14820SOL    HW247481   5.455   2.125   3.278 -1.3006  1.1059  1.4802
14821SOL     OW47482   1.998   4.663   2.695 -0.1199 -0.6307  0.2161
14821SOL    HW147483   2.039   4.747   2.712  1.3835 -1.5341  1.1976
14821SOL    HW247484   1.969   4.667   2.604  1.3017  0.3750 -0.1936
14822SOL     OW47485   5.724   2.060   2.605  0.9335  0.7753 -0.0511
14822SOL    HW147486   5.794   1.998   2.587 -0.2648 -0.2828 -1.2089
14822SOL    HW247487   5.740   2.132   2.544 -0.0105 -0.3168 -1.6391
14823SOL     OW47488   2.371   3.894   3.806  0.2803 -0.4626  0.0683
14823SOL    HW147489   2.440   3.937   3.857 -1.3183  2.1793  0.1135
14823SOL    HW247490   2.339   3.825   3.864 -0.4835  1.5283  2.0983
14824SOL     OW47491   8.747   0.423   2.735 -0.0793  0.0642 -0.1733
14824SOL    HW147492   8.655   0.423   2.708  0.3298  0.6945 -1.6245
14824SOL    HW247493   8.767   0.331   2.752 -1.2741  0.0561  1.2001
14825SOL     OW47494   1.871   0.024   0.727  0.2397  0.4526  0.1939
14825SOL    HW147495   1.877  -0.069   0.704 -0.7478  0.3772  0.2264
14825SOL    HW247496   1.889   0.070   0.645 -0.5368  0.2132 -0.1207
14826SOL     OW47497   6.162   1.673   7.143  0.1311  0.6876  0.2663
14826SOL    HW147498   6.185   1.638   7.229 -0.6380  1.6779  0.8781
14826SOL    HW247499   6.246   1.694   7.102  0.5090 -0.0285  0.6598
14827SOL     OW47500   3.071   0.145   0.101 -0.2260  0.6238  0.3661
14827SOL    HW147501   3.135   0.105   0.042 -0.2998  0.8862  0.1052
14827SOL    HW247502   3.119   0.215   0.145  0.1494 -0.3352  1.4946
14828SOL     OW47503   8.877   1.941   7.190 -0.1216  0.0507 -0.6231
14828SOL    HW147504   8.930   1.862   7.192  0.7520  0.6356 -0.6653
14828SOL    HW247505   8.813   1.928   7.260  0.2344 -0.5387 -0.3979
14829SOL     OW47506   0.774   3.607   7.509  0.1328 -0.1279 -0.0322
14829SOL    HW147507   0.868   3.622   7.497  0.6251 -1.8734  1.4868
14829SOL    HW247508   0.739   3.694   7.532  1.4275  0.4448 -0.1745
14830SOL     OW47509   2.209   6.391   3.778 -0.1830  1.0586 -0.9541
14830SOL    HW147510   2.182   6.299   3.776 -0.8513  1.1975  0.7150
14830SOL    HW247511   2.303   6.388   3.796 -0.7105  0.7255  2.0215
14831SOL     OW47512   3.664   8.559   2.117 -1.3105  0.1680  0.1456
14831SOL    HW147513   3.597   8.497   2.144  1.1283 -2.3131  0.7148
14831SOL    HW247514   3.715   8.513   2.051 -0.2313  2.0506 -0.3930
14832SOL     OW47515   4.634   0.951   6.865 -0.1675 -0.4808  0.6756
14832SOL    HW147516   4.697   0.887   6.897  0.3219 -1.1438 -1.5267
14832SOL    HW247517   4.673   0.985   6.785 -1.1186  1.4949  1.0123
14833SOL     OW47518   3.015   6.495   2.935 -0.3847  0.6785 -0.1264
14833SOL    HW147519   3.028   6.485   2.840  1.5435  1.0527  0.0802
14833SOL    HW247520   3.047   6.584   2.953 -1.1291  0.7530  0.8112
14834SOL     OW47521   6.279   9.059   8.190 -0.0385 -0.0146 -0.2860
14834SOL    HW147522   6.372   9.045   8.208 -0.3101 -0.7422  0.5486
14834SOL    HW247523   6.261   9.148   8.220 -0.2099 -0.7853  1.9186
14835SOL     OW47524   7.611   0.793   1.270 -0.0827 -0.1901  0.2829
14835SOL    HW147525   7.697   0.821   1.301  0.2256 -0.7598 -0.0745
14835SOL    HW247526   7.551   0.823   1.339  0.6331 -1.7180  1.5940
14836SOL     OW47527   1.502   2.350   7.330 -1.0631  0.0727  0.4312
14836SOL    HW147528   1.580   2.396   7.300  0.1412 -1.3268  1.3733
14836SOL    HW247529   1.444   2.420   7.361 -0.1052  1.1057 -0.0712
14837SOL     OW47530   1.830   4.602   4.333  0.4660  0.2976  0.8899
14837SOL    HW147531   1.897   4.554   4.285  1.1874  0.2323  1.9720
14837SOL    HW247532   1.875   4.677   4.370 -0.3974  1.1412  0.2692
14838SOL     OW47533   5.612   3.305   2.208  0.0326 -0.6261  0.3834
14838SOL    HW147534   5.669   3.293   2.132  0.4408 -1.2860  0.7938
14838SOL    HW247535   5.602   3.218   2.245  0.1000 -0.2596  1.2847
14839SOL     OW47536   7.185   6.642   7.917  0.3312 -0.7305 -0.0270
14839SOL    HW147537   7.121   6.580   7.881  1.0021 -1.4413 -0.0035
14839SOL    HW247538   7.137   6.725   7.922 -0.1284 -0.8825 -1.4702
14840SOL     OW47539   4.687   6.057   6.803 -0.0109  0.1835 -0.0791
14840SOL    HW147540   4.613   6.069   6.743  0.0240 -0.8035 -0.3216
14840SOL    HW247541   4.752   6.009   6.751 -0.2249 -1.2376  0.9372
14841SOL     OW47542   1.907   7.651   7.696  0.4953  0.6600 -0.0577
14841SOL    HW147543   1.871   7.603   7.621 -0.6544  0.7646  0.4210
14841SOL    HW247544   1.980   7.597   7.726 -0.6988 -0.7316  0.3932
14842SOL     OW47545   2.168   9.185   4.144 -0.5806 -0.4900  0.4306
14842SOL    HW147546   2.250   9.139   4.163 -0.7022 -0.8789  0.0144
14842SOL    HW247547   2.150   9.235   4.223  0.2844 -0.0744  0.3647
14843SOL     OW47548   6.856   4.542   7.295  0.2836 -0.3567 -0.1328
14843SOL    HW147549   6.846   4.634   7.267 -3.2227 -0.5773  0.1500
14843SOL    HW247550   6.864   4.547   7.390  0.4000 -0.3434 -0.1429
14844SOL     OW47551   1.216   5.064   9.283  0.6588  0.2400  1.1237
14844SOL    HW147552   1.154   4.999   9.316  3.3301 -1.3156  3.2877
14844SOL    HW247553   1.268   5.016   9.219  0.1874  1.3287 -0.0980
14845SOL     OW47554   7.831   2.496   8.149 -0.6906  0.1752  0.1891
14845SOL    HW147555   7.763   2.545   8.195 -0.8420 -0.4992  0.6886
14845SOL    HW247556   7.792   2.410   8.132 -0.0671 -0.1227  0.2350
14846SOL     OW47557   9.351   2.687   2.346  0.1478  0.0627 -0.5312
14846SOL    HW147558   9.361   2.655   2.436 -0.3537 -0.9527 -0.8249
14846SOL    HW247559   9.265   2.729   2.345  0.4168  0.6288 -0.3833
14847SOL     OW47560   8.696   3.063   2.128 -0.1873 -0.6153  0.1707
14847SOL    HW147561   8.644   2.984   2.144  0.3854 -1.6837 -2.8027
14847SOL    HW247562   8.633   3.134   2.126 -1.2421 -1.5555 -0.9091
14848SOL     OW47563   0.384   5.436   5.761  0.3037 -0.7746 -0.1586
14848SOL    HW147564   0.416   5.390   5.684  0.1893  0.4709 -0.9607
14848SOL    HW247565   0.368   5.367   5.825  3.2992 -1.5380 -0.1870
14849SOL     OW47566   0.200   1.203   0.830  0.1288 -0.0163 -0.2060
14849SOL    HW147567   0.222   1.208   0.923  1.1217  0.4940 -0.4592
14849SOL    HW247568   0.109   1.174   0.828  0.3823 -0.8932  0.8971
14850SOL     OW47569   3.739   4.689   7.885  0.2566  0.2267  0.4814
14850SOL    HW147570   3.796   4.677   7.960  2.1277  1.5449 -0.6902
14850SOL    HW247571   3.731   4.784   7.875  0.3247  0.0827 -1.1655
14851SOL     OW47572   2.856   7.474   9.398 -0.0046 -0.0678 -0.0796
14851SOL    HW147573   2.865   7.552   9.452 -0.0678  0.5793 -0.9893
14851SOL    HW247574   2.773   7.435   9.425  1.5261 -1.6069  2.6369
14852SOL     OW47575   3.106   6.298   8.202  0.0470 -0.3299 -0.2656
14852SOL    HW147576   3.134   6.369   8.260 -0.9513 -0.6366  0.6180
14852SOL    HW247577   3.080   6.342   8.121  0.7545  0.1757 -0.2259
14853SOL     OW47578   4.772   4.273   0.360 -0.2933  0.3712  0.5416
14853SOL    HW147579   4.842   4.225   0.315  0.1705  2.1382 -0.6790
14853SOL    HW247580   4.725   4.318   0.290 -1.6421  0.5148  1.5221
14854SOL     OW47581   2.385   5.017   2.823  0.0736 -0.0096  0.3975
14854SOL    HW147582   2.424   5.043   2.906  1.2627 -1.0763  0.1782
14854SOL    HW247583   2.433   5.066   2.757 -0.1500  0.0130  0.2490
14855SOL     OW47584   3.253   2.802   9.173 -0.1858  0.5948  0.5602
14855SOL    HW147585   3.164   2.781   9.146 -0.2560  1.6745 -0.0626
14855SOL    HW247586   3.274   2.884   9.128  0.8985  0.6725  1.1744
14856SOL     OW47587   5.017   3.230   5.800  0.7241  0.6947  0.4177
14856SOL    HW147588   4.938   3.209   5.850 -0.3551  0.6802 -1.2613
14856SOL    HW247589   5.086   3.235   5.866 -0.4158 -0.6406  1.7511
14857SOL     OW47590   0.488   0.774   1.788 -0.2349 -0.2766 -0.0204
14857SOL    HW147591   0.577   0.739   1.787  0.7205  2.0519  0.8096
14857SOL    HW247592   0.498   0.867   1.767 -2.4149  0.1470  0.6648
14858SOL     OW47593   0.226   5.479   4.595 -0.4476  0.1941 -0.0133
14858SOL    HW147594   0.153   5.455   4.538 -1.8029  1.1699  1.2619
14858SOL    HW247595   0.196   5.558   4.641  1.6861  1.0177  0.0264
14859SOL     OW47596   4.365   4.113   6.209 -0.0507  0.3976 -0.3791
14859SOL    HW147597   4.273   4.134   6.226  0.5924  2.3630  0.9425
14859SOL    HW247598   4.398   4.188   6.160  1.2567  0.5003  0.6279
14860SOL     OW47599   0.631   7.196   6.652  0.7253  0.2304 -0.2588
14860SOL    HW147600   0.558   7.137   6.633  1.4749 -1.3446  1.5885
14860SOL    HW247601   0.633   7.256   6.578 -3.0232  0.8966  0.0609
14861SOL     OW47602   1.029   2.878   8.640 -0.1440 -0.1263  0.1904
14861SOL    HW147603   1.099   2.813   8.634  0.8449  1.0139 -0.7737
14861SOL    HW247604   0.988   2.876   8.553  0.8182  1.5449 -0.3277
14862SOL     OW47605   5.063   2.569   6.971 -0.1585 -0.0605  0.6219
14862SOL    HW147606   5.075   2.658   7.005  2.1387 -0.1110  0.0088
14862SOL    HW247607   5.146   2.525   6.989 -0.6974 -1.6082 -0.5397
14863SOL     OW47608   8.523   1.939   7.531 -0.2311  0.2962 -0.3834
14863SOL    HW147609   8.474   1.858   7.545 -1.0413  0.7568 -0.4874
14863SOL    HW247610   8.525   1.949   7.435  0.7088 -0.0991 -0.4112
14864SOL     OW47611   9.061   8.306   2.971 -0.5112 -0.6519 -0.1889
14864SOL    HW147612   8.982   8.296   3.023 -0.4297 -0.5203 -0.0398
14864SOL    HW247613   9.033   8.290   2.881 -0.6285 -0.9969 -0.0939
14865SOL     OW47614   7.033   6.486   8.506 -0.0695 -0.7805 -0.2844
14865SOL    HW147615   7.098   6.492   8.436  0.9056  0.7975  0.7267
14865SOL    HW247616   7.084   6.471   8.585 -0.9855 -0.0827  0.4438
14866SOL     OW47617   2.597   4.964   1.562 -0.0520  0.6049 -0.4032
14866SOL    HW147618   2.668   4.920   1.514  0.7910  1.2788  0.2057
14866SOL    HW247619   2.641   5.010   1.633 -1.3630 -0.9773  1.4869
14867SOL     OW47620   9.297   7.055   7.135  0.0855 -0.6288  0.0349
14867SOL    HW147621   9.212   7.099   7.145 -0.5830 -2.0202  0.6172
14867SOL    HW247622   9.289   7.008   7.052  0.1835 -0.9551  0.2068
14868SOL     OW47623   6.960   1.219   5.665  0.2378 -0.0773  0.5638
14868SOL    HW147624   6.896   1.261   5.722 -0.1912 -0.1659  0.1481
14868SOL    HW247625   6.919   1.137   5.638  0.0365  0.3999 -0.6349
14869SOL     OW47626   1.761   5.571   4.315 -0.5396  0.2449 -0.4363
14869SOL    HW147627   1.752   5.517   4.236 -0.3820 -0.7568  0.2185
14869SOL    HW247628   1.840   5.539   4.358 -1.3980 -0.1964  0.8597
14870SOL     OW47629   8.688   4.092   9.365 -0.0238 -0.6018 -0.6502
14870SOL    HW147630   8.605   4.071   9.321 -1.4900  0.8247  1.3688
14870SOL    HW247631   8.681   4.048   9.450  0.5598  0.9176  0.1880
14871SOL     OW47632   5.636   7.467   3.133 -0.7712  0.3394  0.2984
14871SOL    HW147633   5.691   7.447   3.056  0.9240 -2.3461  2.1173
14871SOL    HW247634   5.688   7.528   3.184 -0.2638 -0.7530  1.1053
14872SOL     OW47635   5.264   2.431   6.051 -0.0827 -0.1979  0.1290
14872SOL    HW147636   5.211   2.506   6.024 -0.0163  0.3429  1.4445
14872SOL    HW247637   5.336   2.429   5.988 -1.6605 -0.9811 -1.7054
14873SOL     OW47638   1.156   8.303   5.209 -0.3396  0.7375  0.2669
14873SOL    HW147639   1.102   8.294   5.288 -0.1955 -0.1434  0.2647
14873SOL    HW247640   1.113   8.372   5.159  1.1672  3.3299  2.4152
14874SOL     OW47641   9.272   4.573   0.372 -0.1787  0.2831  0.9364
14874SOL    HW147642   9.293   4.530   0.289 -1.9026 -1.1915  1.2264
14874SOL    HW247643   9.332   4.647   0.376  1.6417 -1.0584 -0.4427
14875SOL     OW47644   4.933   3.762   2.187  0.2073 -0.1366  0.1773
14875SOL    HW147645   4.907   3.688   2.241 -0.3723  0.2773  0.4764
14875SOL    HW247646   4.861   3.825   2.196 -0.4348 -0.5125 -1.9595
14876SOL     OW47647   6.397   3.440   1.015  0.0170  0.0920 -0.1401
14876SOL    HW147648   6.405   3.505   1.084 -2.5796 -0.2076  0.5152
14876SOL    HW247649   6.459   3.467   0.948  2.5451  0.4171  2.2665
14877SOL     OW47650   0.491   7.857   7.654  0.4018 -0.2974  0.8325
14877SOL    HW147651   0.568   7.818   7.695  1.5761  1.3865  0.2905
14877SOL    HW247652   0.519   7.879   7.565 -0.6970  0.3237  0.6206
14878SOL     OW47653   6.847   2.558   2.529 -0.0135  0.5860 -0.4183
14878SOL    HW147654   6.910   2.572   2.600  0.8078 -0.9343 -0.8087
14878SOL    HW247655   6.762   2.561   2.571  0.3211  2.3382  0.1812
14879SOL     OW47656   1.287   2.229   7.679  0.3076  0.3900  0.0907
14879SOL    HW147657   1.234   2.263   7.751 -1.1517  0.2673 -0.9041
14879SOL    HW247658   1.226   2.224   7.605  1.4248 -0.8471 -0.7615
14880SOL     OW47659   1.321   7.654   8.242 -0.4564 -0.0207 -0.1533
14880SOL    HW147660   1.245   7.708   8.222 -1.0126 -0.0666  1.7982
14880SOL    HW247661   1.370   7.704   8.307  0.3872 -0.6689 -0.2820
14881SOL     OW47662   6.158   0.349   5.788  0.5449  0.3240 -0.1824
14881SOL    HW147663   6.099   0.330   5.860  0.6142 -0.3090 -0.2895
14881SOL    HW247664   6.148   0.442   5.772  0.0381  0.3337  0.2084
14882SOL     OW47665   7.866   6.320   4.927 -0.1678  0.0957 -0.0640
14882SOL    HW147666   7.847   6.382   4.997 -1.7069 -1.1057  0.6343
14882SOL    HW247667   7.792   6.260   4.929  0.3442 -0.6130 -1.9977
14883SOL     OW47668   6.421   7.326   4.319  0.0480 -0.0080 -0.3355
14883SOL    HW147669   6.371   7.403   4.291 -1.0508  0.2183  2.1380
14883SOL    HW247670   6.368   7.288   4.389  0.8034 -2.7831 -1.2266
14884SOL     OW47671   0.129   4.099   5.602  0.2385  0.3777  0.4885
14884SOL    HW147672   0.054   4.050   5.636 -0.5111  0.4656 -0.9690
14884SOL    HW247673   0.105   4.191   5.614  0.7422  0.4109  1.3131
14885SOL     OW47674   1.210   4.617   0.912  0.0277  0.3462  0.4336
14885SOL    HW147675   1.128   4.569   0.904  0.8439 -1.2399  1.3028
14885SOL    HW247676   1.190   4.688   0.972 -1.2725  1.3099 -1.0909
14886SOL     OW47677   6.006   4.796   1.073  0.8823 -0.5188 -0.1444
14886SOL    HW147678   5.994   4.705   1.043 -2.8011 -0.2255  0.2618
14886SOL    HW247679   6.011   4.789   1.168 -0.4360 -0.2057 -0.0496
14887SOL     OW47680   4.482   5.495   3.349  0.0440  0.1762  0.8923
14887SOL    HW147681   4.398   5.462   3.316 -0.5661  1.1153  1.4771
14887SOL    HW247682   4.543   5.422   3.336 -0.7088 -0.2818 -0.1560
14888SOL     OW47683   1.513   4.108   5.139  0.2153  0.2679  0.2340
14888SOL    HW147684   1.519   4.190   5.090  0.4589 -0.6827 -1.3605
14888SOL    HW247685   1.596   4.101   5.186  0.3658  0.7303  0.0332
14889SOL     OW47686   7.284   2.772   1.134  0.7293  0.2554  0.0768
14889SOL    HW147687   7.316   2.682   1.122  3.2737  1.2188 -0.6187
14889SOL    HW247688   7.265   2.803   1.046  4.5305  2.0065 -0.2309
14890SOL     OW47689   2.466   2.366   7.900  0.2466 -0.1864  0.5425
14890SOL    HW147690   2.522   2.396   7.972  1.8868  0.1197 -0.8270
14890SOL    HW247691   2.470   2.270   7.905 -0.8606 -0.1774  1.7729
14891SOL     OW47692   1.534   3.364   3.881 -0.6733  0.0279 -0.2399
14891SOL    HW147693   1.473   3.357   3.808 -1.4306 -1.5377  0.5238
14891SOL    HW247694   1.514   3.448   3.921 -1.6496 -0.0231 -0.6065
14892SOL     OW47695   1.959   5.716   4.122  0.4688 -0.4724 -0.0503
14892SOL    HW147696   1.939   5.799   4.078 -0.1657  0.1910  1.4338
14892SOL    HW247697   2.011   5.743   4.198  0.0713 -1.4278  0.5555
14893SOL     OW47698   8.600   6.072   3.482  0.2226 -0.1094 -1.0019
14893SOL    HW147699   8.543   6.111   3.416 -2.5838 -0.9349  0.8910
14893SOL    HW247700   8.551   6.078   3.563  1.6284 -3.5208  0.1695
14894SOL     OW47701   4.983   0.288   5.304 -0.1931 -0.1121  0.6000
14894SOL    HW147702   4.889   0.302   5.291 -0.1373 -0.2516  0.0626
14894SOL    HW247703   5.004   0.209   5.254  0.6421  1.1424 -1.0613
14895SOL     OW47704   1.256   3.029   8.562  0.5028 -0.3383 -0.0488
14895SOL    HW147705   1.173   2.986   8.582  0.1080 -0.3909 -1.7343
14895SOL    HW247706   1.285   3.066   8.645 -1.1332 -0.4555  0.5796
14896SOL     OW47707   1.544   2.006   7.508  0.6619  0.1373  0.6176
14896SOL    HW147708   1.618   1.947   7.493 -1.2095 -2.0420 -0.4284
14896SOL    HW247709   1.557   2.078   7.446  1.8283 -0.2857  0.3648
14897SOL     OW47710   4.331   8.754   5.365  0.4733  0.4138 -0.1384
14897SOL    HW147711   4.363   8.664   5.377  0.1875 -0.1298 -3.0290
14897SOL    HW247712   4.270   8.767   5.437  0.3972 -1.7748  0.2473
14898SOL     OW47713   0.998   4.137   5.803 -0.1513 -0.1115 -0.5219
14898SOL    HW147714   1.003   4.109   5.895  1.4918  1.0268 -0.2406
14898SOL    HW247715   1.003   4.055   5.753  2.5974 -0.5121  0.3393
14899SOL     OW47716   7.530   5.400   5.297  0.0444  0.1350 -0.1394
14899SOL    HW147717   7.535   5.335   5.226  3.3107  1.3104 -1.0605
14899SOL    HW247718   7.607   5.382   5.351  1.6601  3.9050 -1.0468
14900SOL     OW47719   8.209   3.904   0.420  0.1645 -0.0477 -0.4120
14900SOL    HW147720   8.196   3.969   0.489 -0.2122  0.4813 -0.9794
14900SOL    HW247721   8.304   3.892   0.417  0.1037 -1.0858  1.1158
14901SOL     OW47722   3.892   0.843   5.764 -0.2090 -0.2728  0.5123
14901SOL    HW147723   3.862   0.787   5.835  0.0774 -1.0519  0.0191
14901SOL    HW247724   3.817   0.899   5.744 -0.5852 -0.6770  0.8036
14902SOL     OW47725   4.244   3.633   1.131  0.0687 -0.1659  0.2109
14902SOL    HW147726   4.172   3.691   1.108  0.1610 -0.5362 -1.0546
14902SOL    HW247727   4.240   3.562   1.066 -0.2722 -1.7703  1.9390
14903SOL     OW47728   3.990   0.372   6.571 -0.7935  0.3866 -0.8362
14903SOL    HW147729   3.984   0.280   6.544  1.9406  0.0418 -0.3782
14903SOL    HW247730   3.904   0.391   6.609 -0.8329 -2.5627  0.7558
14904SOL     OW47731   7.000   1.346   1.281  0.5157 -0.2905  0.5911
14904SOL    HW147732   6.985   1.296   1.201  0.2799  0.4890  0.1441
14904SOL    HW247733   7.061   1.292   1.332  1.0261 -0.5766 -0.3110
14905SOL     OW47734   1.651   6.944   8.298 -0.0822  0.4081  0.0650
14905SOL    HW147735   1.688   7.031   8.283 -1.3921  1.4551  2.5764
14905SOL    HW247736   1.726   6.890   8.325  0.9895  0.3239 -2.8851
14906SOL     OW47737   7.850   8.221   2.968  0.0379  0.0669  0.3745
14906SOL    HW147738   7.812   8.243   3.053 -0.7571  0.3466 -0.0473
14906SOL    HW247739   7.933   8.270   2.965  0.2498 -0.2380  1.1342
14907SOL     OW47740   1.729   3.004   4.525  0.0414  0.8041 -0.2881
14907SOL    HW147741   1.818   2.989   4.492  0.4335  0.1582  1.0035
14907SOL    HW247742   1.741   3.011   4.620 -1.1890  1.5391 -0.1884
14908SOL     OW47743   5.200   8.817   7.124 -0.1900 -0.5855  0.3900
14908SOL    HW147744   5.129   8.822   7.188  1.2671  0.0879  1.9820
14908SOL    HW247745   5.220   8.724   7.116  1.8755 -0.4639  3.4876
14909SOL     OW47746   7.399   1.438   7.666  0.1917  0.3044  0.3694
14909SOL    HW147747   7.335   1.488   7.616 -0.6159  0.4416  1.5175
14909SOL    HW247748   7.468   1.418   7.603 -1.3235 -0.4996 -1.0804
14910SOL     OW47749   3.876   7.230   9.290  0.4570  0.2120 -0.1047
14910SOL    HW147750   3.842   7.234   9.201  0.3282  1.4072 -0.0061
14910SOL    HW247751   3.800   7.208   9.344  0.8030 -1.9235 -0.4322
14911SOL     OW47752   2.948   6.797   8.060 -0.1088 -0.0565  0.3706
14911SOL    HW147753   3.010   6.825   8.127 -0.0390 -0.0414  0.2998
14911SOL    HW247754   2.910   6.878   8.027 -0.3337 -0.0788  0.5717
14912SOL     OW47755   2.027   2.908   8.934  0.4903 -0.3958  0.2600
14912SOL    HW147756   2.091   2.961   8.981 -0.8662  1.4365  0.0786
14912SOL    HW247757   1.956   2.895   8.996 -0.6960  0.8905 -0.7840
14913SOL     OW47758   7.967   0.594   3.446 -0.4621 -0.4286 -0.5872
14913SOL    HW147759   8.018   0.650   3.505 -1.8893 -0.6541  0.8846
14913SOL    HW247760   8.029   0.569   3.378  0.9957  0.5338  0.3588
14914SOL     OW47761   8.367   1.770   3.091  0.2039  0.1928 -0.0625
14914SOL    HW147762   8.376   1.783   2.997  1.1984 -0.2761 -0.0448
14914SOL    HW247763   8.457   1.755   3.122 -0.2098 -0.5667  0.8125
14915SOL     OW47764   2.774   5.864   1.993 -0.2606  0.1307  0.2693
14915SOL    HW147765   2.722   5.801   1.944  0.6178 -0.2346 -0.2244
14915SOL    HW247766   2.824   5.811   2.055  2.2972  0.0045 -1.7706
14916SOL     OW47767   5.630   5.699   2.045 -0.1497 -0.0116  0.1626
14916SOL    HW147768   5.566   5.747   2.097 -1.6044 -1.0534 -0.6471
14916SOL    HW247769   5.675   5.642   2.108 -0.5880  0.1068  0.5833
14917SOL     OW47770   4.824   6.291   6.899 -0.4028  0.3781 -0.0257
14917SOL    HW147771   4.830   6.379   6.863 -0.1934 -0.0298 -1.0154
14917SOL    HW247772   4.754   6.249   6.848  2.0681 -1.2367 -2.2241
14918SOL     OW47773   6.971   6.897   4.070 -0.1441  0.1186  0.0380
14918SOL    HW147774   6.983   6.951   3.991  2.1942  1.2846  1.1344
14918SOL    HW247775   7.019   6.816   4.050 -0.0136  0.1915  0.0558
14919SOL     OW47776   6.752   0.733   2.778 -0.1852  0.2438 -0.0333
14919SOL    HW147777   6.756   0.661   2.715 -0.6492 -0.2877  0.5362
14919SOL    HW247778   6.783   0.694   2.861  0.5864  0.9803  0.0271
14920SOL     OW47779   1.825   1.387   5.718 -0.2858 -0.4896  0.6387
14920SOL    HW147780   1.749   1.338   5.686  0.8853 -1.4961 -0.6589
14920SOL    HW247781   1.790   1.474   5.739 -1.4337 -0.2655 -1.9125
14921SOL     OW47782   4.951   4.697   6.915 -0.4928 -0.1721  0.4758
14921SOL    HW147783   4.966   4.757   6.843  0.8531  0.9200  1.6327
14921SOL    HW247784   4.969   4.610   6.879  0.5475  0.3981 -0.4114
14922SOL     OW47785   0.582   7.268   7.056  0.1517  0.4832  0.2443
14922SOL    HW147786   0.507   7.218   7.024  0.4175 -0.6570  1.3904
14922SOL    HW247787   0.656   7.237   7.005 -0.4182  2.8641 -2.1388
14923SOL     OW47788   0.959   8.835   7.713 -0.1279  0.1418 -0.1867
14923SOL    HW147789   1.050   8.835   7.684  0.3957  0.3928  1.4486
14923SOL    HW247790   0.927   8.747   7.692  0.6021 -0.0819 -0.3565
14924SOL     OW47791   8.902   3.064   3.895  0.0918 -0.0022 -0.4999
14924SOL    HW147792   8.966   3.039   3.828 -1.9456 -1.9486 -1.7706
14924SOL    HW247793   8.881   2.982   3.939  0.4863  1.0677  1.7602
14925SOL     OW47794   2.457   8.838   2.096 -0.1862 -0.2886 -0.1271
14925SOL    HW147795   2.378   8.892   2.094 -0.2699 -0.4284 -0.7753
14925SOL    HW247796   2.452   8.791   2.179 -1.4214 -1.2358 -0.7254
14926SOL     OW47797   1.496   6.228   6.195 -0.4549 -0.5312 -0.0047
14926SOL    HW147798   1.488   6.293   6.265  0.9408  0.6700 -0.9532
14926SOL    HW247799   1.406   6.211   6.168 -0.8153  1.3836 -0.0736
14927SOL     OW47800   0.221   5.150   5.305 -0.3454  0.5807  0.2852
14927SOL    HW147801   0.188   5.213   5.370 -0.1060  0.4793  0.5057
14927SOL    HW247802   0.143   5.126   5.254  0.2796  4.3068 -2.6507
14928SOL     OW47803   5.193   3.402   8.467  0.0978  0.7194  0.5404
14928SOL    HW147804   5.246   3.352   8.405 -0.8913 -2.7051  2.3443
14928SOL    HW247805   5.172   3.483   8.420  1.9875 -0.4016 -2.3900
14929SOL     OW47806   1.385   1.921   0.006 -0.5849 -0.1611  0.3461
14929SOL    HW147807   1.443   1.975  -0.049 -2.8408  1.0500 -0.9446
14929SOL    HW247808   1.343   1.861  -0.056 -0.4915 -1.2319  1.3094
14930SOL     OW47809   8.733   8.460   5.497  0.6688 -1.1860  0.3415
14930SOL    HW147810   8.725   8.534   5.557 -3.3957 -0.9883 -0.2798
14930SOL    HW247811   8.767   8.498   5.416 -1.4266  0.0811  0.0162
14931SOL     OW47812   0.502   0.875   0.384 -0.3599  0.1227 -0.0204
14931SOL    HW147813   0.488   0.888   0.291  0.2070 -1.0141 -0.2773
14931SOL    HW247814   0.536   0.786   0.391 -1.2042 -0.1196  1.3483
14932SOL     OW47815   0.874   5.454   2.329 -0.2656  0.2437 -0.0964
14932SOL    HW147816   0.843   5.513   2.397  2.4153  1.5577  0.0432
14932SOL    HW247817   0.893   5.511   2.254 -0.6558 -0.8387 -1.0434
14933SOL     OW47818   1.849   2.459   3.643 -0.4564 -0.0308 -0.1197
14933SOL    HW147819   1.834   2.386   3.704 -0.3858 -1.2344 -1.5149
14933SOL    HW247820   1.864   2.535   3.700  1.3860 -1.4809  1.3848
14934SOL     OW47821   5.121   2.769   1.141  0.0740  0.1244 -0.6284
14934SOL    HW147822   5.043   2.742   1.189 -0.3642  0.9007 -0.8840
14934SOL    HW247823   5.193   2.754   1.202 -0.2412 -0.8509 -0.4867
14935SOL     OW47824   6.694   2.273   4.932 -0.0967 -0.9689  0.1847
14935SOL    HW147825   6.779   2.281   4.976  0.5357 -0.0444 -1.1671
14935SOL    HW247826   6.690   2.348   4.874 -2.5685 -0.0703  1.4050
14936SOL     OW47827   8.411   3.239   3.207 -0.5021 -0.3919  0.4907
14936SOL    HW147828   8.468   3.190   3.149 -1.4703  2.1603 -2.7557
14936SOL    HW247829   8.461   3.317   3.231 -1.7074  0.6998 -0.4691
14937SOL     OW47830   7.128   3.061   6.292  0.2270  0.1842  0.2409
14937SOL    HW147831   7.094   3.148   6.271  0.4175 -0.1678 -1.5636
14937SOL    HW247832   7.118   3.054   6.387  0.6546  2.3559  0.4725
14938SOL     OW47833   4.397   2.608   7.609 -0.0736  0.0735 -0.3775
14938SOL    HW147834   4.453   2.541   7.571 -0.3800 -0.0120 -0.6755
14938SOL    HW247835   4.443   2.690   7.593  0.8756 -0.1706  1.0227
14939SOL     OW47836   1.556   2.796   3.493 -0.1687 -0.0508 -0.1125
14939SOL    HW147837   1.616   2.829   3.560  0.5554 -0.0330 -0.7582
14939SOL    HW247838   1.583   2.705   3.481 -0.8799 -0.3132  0.2575
14940SOL     OW47839   0.666   3.211   5.151 -0.0213  0.4991  0.4555
14940SOL    HW147840   0.613   3.166   5.085  1.9353  0.9665 -1.4873
14940SOL    HW247841   0.623   3.297   5.160 -0.5072  0.3029  0.0531
14941SOL     OW47842   2.733   8.521   5.713  0.3371 -0.1874  0.1989
14941SOL    HW147843   2.755   8.605   5.673 -0.3575  1.0877  2.4203
14941SOL    HW247844   2.700   8.468   5.640  1.1519  1.3129 -1.2952
14942SOL     OW47845   7.098   0.247   0.791  0.0218 -0.2164 -0.4502
14942SOL    HW147846   7.066   0.292   0.869 -1.0600 -0.0024 -0.9947
14942SOL    HW247847   7.055   0.161   0.794  0.8345 -0.6183 -0.2430
14943SOL     OW47848   3.501   2.174   1.116 -0.0048  0.0259 -0.1612
14943SOL    HW147849   3.532   2.144   1.202  0.1398  0.0454 -0.2067
14943SOL    HW247850   3.496   2.269   1.124  3.0267  0.3125 -1.1623
14944SOL     OW47851   2.310   3.027   1.476 -0.6339  0.0472 -0.1868
14944SOL    HW147852   2.289   3.076   1.396 -1.5000  0.7899  0.4735
14944SOL    HW247853   2.334   2.939   1.445 -3.1645 -0.3562 -1.1355
14945SOL     OW47854   2.640   3.918   4.704 -0.0281  0.7264 -0.1225
14945SOL    HW147855   2.641   3.828   4.735 -1.6717  0.5359 -0.5926
14945SOL    HW247856   2.658   3.971   4.782 -2.1670  0.1506  0.7848
14946SOL     OW47857   1.414   3.633   4.544  0.0494  0.4009  0.1840
14946SOL    HW147858   1.351   3.697   4.577 -0.2900 -0.5691  1.4218
14946SOL    HW247859   1.379   3.607   4.459 -0.3021  1.1625  0.0915
14947SOL     OW47860   9.326   5.758   4.047 -0.3997 -0.7105 -0.4803
14947SOL    HW147861   9.417   5.728   4.051 -0.4298 -0.7630 -0.2080
14947SOL    HW247862   9.324   5.816   3.971 -0.3800 -1.5218 -1.1035
14948SOL     OW47863   6.710   5.608   8.786  0.3595  0.5373 -0.3251
14948SOL    HW147864   6.699   5.670   8.859  0.0217  0.1949 -0.0791
14948SOL    HW247865   6.721   5.663   8.709  1.2199  0.9055  0.0570
14949SOL     OW47866   0.736   2.651   0.376  0.6252  0.2020 -0.7552
14949SOL    HW147867   0.729   2.706   0.455 -1.2671  0.0282 -0.7690
14949SOL    HW247868   0.819   2.676   0.336 -0.3341  3.3267 -0.9325
14950SOL     OW47869   0.337   1.745   5.364 -0.1221 -0.6629 -0.2649
14950SOL    HW147870   0.422   1.788   5.371 -0.9985  0.9721  0.4582
14950SOL    HW247871   0.345   1.667   5.419  0.9613 -0.6157 -0.3500
14951SOL     OW47872   6.500   1.489   6.647 -0.0625 -0.2026 -0.0817
14951SOL    HW147873   6.521   1.573   6.607 -0.0402 -0.3165 -0.3138
14951SOL    HW247874   6.583   1.458   6.683 -0.0049 -0.2681 -0.2697
14952SOL     OW47875   7.674   6.869   2.916 -0.1306 -0.4268  0.0294
14952SOL    HW147876   7.698   6.819   2.838 -0.8456 -2.3327  1.0171
14952SOL    HW247877   7.738   6.843   2.982 -1.3731 -1.1167  0.9705
14953SOL     OW47878   2.458   8.637   3.287  0.0978  0.2484 -0.2178
14953SOL    HW147879   2.531   8.621   3.226  0.4835  1.0234  0.0375
14953SOL    HW247880   2.499   8.681   3.362 -0.6617  0.8698 -0.1635
14954SOL     OW47881   7.626   0.104   8.619 -0.2760  0.4279 -0.1950
14954SOL    HW147882   7.589   0.185   8.654  1.2984  0.5610  1.2188
14954SOL    HW247883   7.571   0.035   8.655 -0.3599  0.7398  0.2809
14955SOL     OW47884   7.960   2.935   1.370  0.2657 -0.6845  0.3857
14955SOL    HW147885   8.041   2.985   1.358  0.7416 -1.8082 -1.2018
14955SOL    HW247886   7.923   2.969   1.452  1.5662  0.8904  0.3509
14956SOL     OW47887   8.690   1.259   8.200 -0.5223 -0.1436 -0.6747
14956SOL    HW147888   8.675   1.298   8.286 -1.4085  0.8772 -1.2697
14956SOL    HW247889   8.733   1.176   8.218  0.9216  0.8653  0.6699
14957SOL     OW47890   1.351   8.999   8.963 -0.0278 -0.4720  0.2883
14957SOL    HW147891   1.329   8.973   8.873  1.3035 -0.8762  0.0739
14957SOL    HW247892   1.389   8.920   9.001 -1.7855 -0.6940  1.6217
14958SOL     OW47893   8.557   0.661   2.011  0.1894 -0.0448  0.0965
14958SOL    HW147894   8.592   0.642   2.098  0.3291  1.6033  0.4144
14958SOL    HW247895   8.633   0.662   1.954 -0.0172 -2.1446 -0.2449
14959SOL     OW47896   2.283   1.754   3.446 -0.3782 -0.2141  0.0808
14959SOL    HW147897   2.293   1.673   3.497 -1.8044  0.1737  1.0078
14959SOL    HW247898   2.281   1.725   3.355  0.6749 -1.0627  0.3162
14960SOL     OW47899   3.586   8.201   7.013  0.0789  0.0331 -0.6950
14960SOL    HW147900   3.678   8.175   7.004 -0.1237 -1.9554  2.3078
14960SOL    HW247901   3.538   8.118   7.015 -1.5058  0.9558  0.3220
14961SOL     OW47902   7.811   9.127   4.887  0.2624  0.4375 -0.3456
14961SOL    HW147903   7.847   9.102   4.801  1.6940 -0.1433  0.3933
14961SOL    HW247904   7.729   9.172   4.867  0.3035 -0.1813 -1.9938
14962SOL     OW47905   5.644   7.208   3.238  0.5035  0.0738 -0.5193
14962SOL    HW147906   5.643   7.302   3.222 -0.5024  0.0278 -0.7742
14962SOL    HW247907   5.724   7.177   3.196  0.3288  0.6663 -1.3017
14963SOL     OW47908   0.194   4.897   2.442  0.1623  0.2742 -0.2989
14963SOL    HW147909   0.216   4.815   2.486 -0.1397 -0.4535 -1.4773
14963SOL    HW247910   0.278   4.938   2.423  0.3397 -0.1070 -0.3436
14964SOL     OW47911   4.396   8.872   4.066  0.6216 -0.0644 -0.2541
14964SOL    HW147912   4.306   8.870   4.099  1.3719 -0.4317  1.8461
14964SOL    HW247913   4.417   8.965   4.060  0.8091  0.0060  1.2939
14965SOL     OW47914   1.512   6.461   8.630  0.0329 -0.1428  0.1607
14965SOL    HW147915   1.431   6.421   8.599  1.5436 -2.6328 -0.6563
14965SOL    HW247916   1.491   6.491   8.719 -1.8817 -0.3794 -0.1889
14966SOL     OW47917   5.308   4.149   5.087  0.1906 -0.2693  0.0313
14966SOL    HW147918   5.371   4.161   5.015 -0.8242 -3.0001 -1.3750
14966SOL    HW247919   5.356   4.096   5.151  1.1508  2.3009  1.5264
14967SOL     OW47920   6.725   4.078   1.965 -0.3702 -0.0994  0.0578
14967SOL    HW147921   6.805   4.132   1.965  0.2123 -0.9543  0.8030
14967SOL    HW247922   6.742   4.011   2.031 -1.6969 -0.3100  0.1878
14968SOL     OW47923   0.365   4.930   9.012 -0.1885  0.7939  0.1117
14968SOL    HW147924   0.307   4.924   9.089 -1.1063  0.1364 -0.6241
14968SOL    HW247925   0.308   4.962   8.942  0.2899 -0.0515 -0.6725
14969SOL     OW47926   0.135   1.476   0.478 -0.0527  0.5250  0.4191
14969SOL    HW147927   0.075   1.476   0.404  0.6671  0.8559 -0.1785
14969SOL    HW247928   0.111   1.553   0.529 -0.2819  0.5299  0.3043
14970SOL     OW47929   4.254   9.004   8.962 -0.5066 -0.1384  0.5202
14970SOL    HW147930   4.252   8.958   8.879 -1.7294  0.4323  0.2265
14970SOL    HW247931   4.269   8.936   9.027 -0.7137 -0.7355 -0.0587
14971SOL     OW47932   2.085   5.124   4.790  0.0031 -0.0067  0.6936
14971SOL    HW147933   2.030   5.191   4.830 -1.0874  0.6816 -1.8043
14971SOL    HW247934   2.173   5.145   4.820 -0.5546  1.4706  1.3736
14972SOL     OW47935   3.108   0.106   2.043 -0.1799 -0.3722 -0.8142
14972SOL    HW147936   3.167   0.041   2.005  2.3694  2.0062 -1.1200
14972SOL    HW247937   3.080   0.067   2.126  1.8605 -1.5614 -0.6476
14973SOL     OW47938   2.856   8.050   5.848 -0.3916  0.2739  0.2216
14973SOL    HW147939   2.806   8.092   5.918 -0.0752 -1.1511  1.3295
14973SOL    HW247940   2.862   7.958   5.875  1.2653  0.0652 -0.8040
14974SOL     OW47941   2.075   3.053   3.100  0.3353 -0.2002 -0.6520
14974SOL    HW147942   2.047   2.988   3.165  2.4027  1.1718  1.6617
14974SOL    HW247943   2.063   3.009   3.016  0.2611 -3.0207  0.7833
14975SOL     OW47944   2.209   3.215   0.965  0.4310 -0.0620 -0.0343
14975SOL    HW147945   2.255   3.284   0.918  1.0414 -0.2745  0.2450
14975SOL    HW247946   2.126   3.255   0.991  0.2148  0.1476 -1.0312
14976SOL     OW47947   0.430   6.290   1.163 -0.4891 -0.2173  0.1562
14976SOL    HW147948   0.517   6.321   1.186  0.0839 -1.1841 -0.6718
14976SOL    HW247949   0.384   6.368   1.131  0.5845  0.0034 -0.8948
14977SOL     OW47950   8.745   8.114   5.850 -0.2041  0.0150  0.6142
14977SOL    HW147951   8.741   8.163   5.932 -0.7791 -0.0582  0.6323
14977SOL    HW247952   8.654   8.092   5.831  0.0420 -1.0510  0.6164
14978SOL     OW47953   0.646   8.493   0.640 -0.2075 -0.5619  0.1830
14978SOL    HW147954   0.688   8.416   0.602 -0.0760 -0.0208 -0.7914
14978SOL    HW247955   0.719   8.552   0.662 -0.4750  1.0237 -2.9113
14979SOL     OW47956   1.649   8.791   4.045  0.2448 -0.3207  0.4838
14979SOL    HW147957   1.727   8.770   4.096 -0.3769  1.7964  2.4085
14979SOL    HW247958   1.593   8.714   4.052  1.3706 -1.1281  0.6337
14980SOL     OW47959   8.110   3.710   1.211  0.5559 -0.0790 -0.2328
14980SOL    HW147960   8.199   3.677   1.219  0.6172  0.4621  1.5833
14980SOL    HW247961   8.120   3.800   1.179  0.6222 -0.2150 -0.5996
14981SOL     OW47962   7.882   2.898   9.418  0.3990  0.3702 -0.5380
14981SOL    HW147963   7.809   2.885   9.479  1.3310  0.5327  0.6424
14981SOL    HW247964   7.960   2.881   9.471  1.1689 -1.2514 -2.1566
14982SOL     OW47965   2.445   0.840   5.257 -0.1037  0.3688  0.7518
14982SOL    HW147966   2.426   0.753   5.221  0.5590  0.3834  0.3543
14982SOL    HW247967   2.445   0.827   5.352 -1.6311  0.2803  0.7576
14983SOL     OW47968   2.591   1.425   9.390  0.4046 -0.3739  0.1089
14983SOL    HW147969   2.515   1.378   9.422 -1.7108  2.6848 -0.2223
14983SOL    HW247970   2.573   1.439   9.297  0.6064  1.7481  0.3695
14984SOL     OW47971   0.210   9.181   2.188  0.0650 -0.3911  0.3290
14984SOL    HW147972   0.168   9.096   2.182 -0.1531 -0.2806  0.3107
14984SOL    HW247973   0.220   9.196   2.283  0.0420 -0.4049  0.3336
14985SOL     OW47974   6.219   8.080   3.491  0.0970 -0.1712  0.5506
14985SOL    HW147975   6.277   8.095   3.566  0.9462 -1.0396  0.0867
14985SOL    HW247976   6.279   8.070   3.417 -0.6701 -0.8195  0.0187
14986SOL     OW47977   4.680   0.338   0.808 -0.4432 -0.3583 -0.3598
14986SOL    HW147978   4.670   0.266   0.746 -1.6967 -0.1207 -0.4376
14986SOL    HW247979   4.774   0.359   0.806 -0.4865 -0.3042 -2.2068
14987SOL     OW47980   7.134   6.433   0.302  0.1976 -0.3124  0.0501
14987SOL    HW147981   7.099   6.353   0.262 -0.8106 -0.4063  1.0905
14987SOL    HW247982   7.059   6.492   0.306  0.7893  0.4595 -0.1168
14988SOL     OW47983   9.088   6.275   0.689  0.0300 -0.2599  0.1302
14988SOL    HW147984   9.098   6.183   0.711  0.6049 -0.0633  0.7130
14988SOL    HW247985   9.107   6.321   0.771 -0.5882  0.3595 -0.0705
14989SOL     OW47986   1.779   7.069   5.550  0.0959 -0.5453 -0.2013
14989SOL    HW147987   1.792   7.136   5.617  1.3017  0.0781 -1.0337
14989SOL    HW247988   1.867   7.033   5.536 -0.1021 -0.5104 -1.6055
14990SOL     OW47989   1.111   6.886   5.010  0.3307 -0.0392  0.1377
14990SOL    HW147990   1.099   6.791   5.011 -0.0860  0.0095 -0.3280
14990SOL    HW247991   1.205   6.898   5.022  0.6370 -0.5536 -1.6225
14991SOL     OW47992   4.638   2.540   4.801  0.1303  0.1105 -0.6022
14991SOL    HW147993   4.694   2.614   4.779 -2.1006  2.6950  2.0725
14991SOL    HW247994   4.689   2.490   4.865 -0.5859  2.5790  2.0035
14992SOL     OW47995   8.616   2.349   5.570 -0.3626  0.0169 -0.1915
14992SOL    HW147996   8.556   2.313   5.636  1.0708 -1.2238  0.4861
14992SOL    HW247997   8.647   2.272   5.522  0.5184  0.6614 -0.6725
14993SOL     OW47998   4.302   3.557   4.196 -0.1633  0.8948 -0.1297
14993SOL    HW147999   4.229   3.616   4.214 -0.1567  0.9160 -0.1694
14993SOL    HW248000   4.274   3.508   4.118  0.8685  2.5934 -1.6200
14994SOL     OW48001   1.871   2.398   2.911 -0.8303 -0.1383  0.0054
14994SOL    HW148002   1.959   2.361   2.914 -0.9959 -0.5462 -0.1008
14994SOL    HW248003   1.882   2.488   2.940 -0.2163  0.1004 -0.9516
14995SOL     OW48004   1.219   6.734   7.509  0.1944  0.0554  0.7902
14995SOL    HW148005   1.298   6.720   7.561  0.8316 -0.2711 -0.2604
14995SOL    HW248006   1.179   6.647   7.502  0.8559 -0.1498 -0.4595
14996SOL     OW48007   1.422   8.723   7.833  0.3584 -0.2306  0.7136
14996SOL    HW148008   1.400   8.667   7.908 -0.8103  0.1999  0.7008
14996SOL    HW248009   1.504   8.765   7.858 -0.8584  1.1775  2.4647
14997SOL     OW48010   4.745   8.334   6.102 -0.2248 -0.1961  0.6364
14997SOL    HW148011   4.798   8.282   6.042  3.1291  0.6037  2.8052
14997SOL    HW248012   4.672   8.276   6.126 -0.2296 -1.4365 -2.1130
14998SOL     OW48013   2.844   2.894   0.106 -0.2734 -0.4708  0.0383
14998SOL    HW148014   2.809   2.898   0.017  0.2373  0.5190 -0.1301
14998SOL    HW248015   2.818   2.808   0.138  0.4274 -1.2467 -1.4314
14999SOL     OW48016   7.697   3.808   3.107  0.1323 -0.2059  0.6638
14999SOL    HW148017   7.687   3.736   3.169  0.1623 -2.6275 -2.0106
14999SOL    HW248018   7.739   3.768   3.031  0.8337  2.8335 -0.6063
15000SOL     OW48019   2.537   4.782   1.940  0.2634 -0.0826  0.2466
15000SOL    HW148020   2.486   4.703   1.957  0.6675  0.0254  2.0591
15000SOL    HW248021   2.623   4.764   1.978 -0.3179  2.0522  2.7043
15001SOL     OW48022   1.447   3.522   5.774 -0.2746 -0.7512  0.5177
15001SOL    HW148023   1.446   3.460   5.846 -2.7849 -2.6485 -1.0699
15001SOL    HW248024   1.477   3.471   5.698 -0.8470  0.3743 -0.4812
15002SOL     OW48025   7.917   6.721   4.520 -0.1301 -0.1830  0.3956
15002SOL    HW148026   7.924   6.631   4.553 -0.8195 -0.2119  0.4820
15002SOL    HW248027   7.826   6.728   4.490  0.3601 -0.0210 -1.0987
15003SOL     OW48028   4.556   0.561   6.706  0.1656  0.4158 -0.1213
15003SOL    HW148029   4.481   0.515   6.743  0.5702  0.4940  0.8137
15003SOL    HW248030   4.528   0.653   6.701  0.1236  0.4104  0.0264
15004SOL     OW48031   5.244   2.255   6.465 -0.2364  0.1740 -0.4867
15004SOL    HW148032   5.176   2.323   6.467 -1.1370 -0.7014 -1.0350
15004SOL    HW248033   5.259   2.239   6.372  0.8696  0.4774 -0.3812
15005SOL     OW48034   6.224   3.991   2.147 -0.1516 -0.2155  0.4170
15005SOL    HW148035   6.150   4.047   2.125 -0.1049 -0.4836 -0.4220
15005SOL    HW248036   6.204   3.958   2.235 -0.8034  0.0710  0.3766
15006SOL     OW48037   5.761   3.542   3.464 -0.4491 -0.9855 -0.2825
15006SOL    HW148038   5.805   3.593   3.396 -1.4468 -1.2633 -1.1546
15006SOL    HW248039   5.742   3.458   3.423 -0.7596 -1.2826  0.4512
15007SOL     OW48040   3.475   9.172   7.676  0.2181 -0.4694 -0.4401
15007SOL    HW148041   3.475   9.207   7.586  0.0755 -2.3818 -1.2067
15007SOL    HW248042   3.471   9.077   7.664  1.3456 -0.7760  1.5887
15008SOL     OW48043   8.422   2.240   7.198 -0.2336 -0.8177 -0.2928
15008SOL    HW148044   8.439   2.327   7.161 -2.2298  0.5012  1.7212
15008SOL    HW248045   8.458   2.244   7.286  0.4171 -2.3551 -0.4769
15009SOL     OW48046   2.377   8.752   1.826  0.5091  0.8204 -0.1165
15009SOL    HW148047   2.288   8.741   1.792  0.8059  0.4791 -0.7967
15009SOL    HW248048   2.366   8.801   1.907 -0.3495  0.3475  0.0602
15010SOL     OW48049   0.997   4.696   4.475 -0.5911  0.4408  0.5403
15010SOL    HW148050   0.994   4.613   4.522  0.3848  0.8775  1.3788
15010SOL    HW248051   0.908   4.707   4.441 -0.5360 -1.3011 -0.2008
15011SOL     OW48052   2.821   8.966   8.859 -0.3730  0.3358 -0.1540
15011SOL    HW148053   2.770   8.950   8.938  0.9203  1.1991  0.8680
15011SOL    HW248054   2.853   9.056   8.868  1.7968 -0.3668 -0.4761
15012SOL     OW48055   1.556   7.242   6.358  0.1196  0.0430  0.0254
15012SOL    HW148056   1.647   7.213   6.347 -0.5015 -0.8908 -2.9569
15012SOL    HW248057   1.535   7.287   6.276 -2.4340 -0.6588  0.2719
15013SOL     OW48058   0.983   3.806   6.697 -0.6013  0.0555 -0.8034
15013SOL    HW148059   1.016   3.868   6.763 -1.1277  0.1583 -0.6359
15013SOL    HW248060   0.888   3.817   6.699 -0.5469  1.0074 -2.5289
15014SOL     OW48061   9.089   2.409   3.314  0.2231 -0.0091  0.1931
15014SOL    HW148062   9.140   2.375   3.388 -0.1528 -1.5611 -0.2494
15014SOL    HW248063   9.030   2.337   3.291  0.4007  0.4389 -1.6707
15015SOL     OW48064   7.960   3.281   4.820  0.3958  0.0461  0.0300
15015SOL    HW148065   8.027   3.344   4.792  0.0666 -0.1641 -1.2911
15015SOL    HW248066   7.958   3.217   4.749  0.2096 -1.0504  1.0247
15016SOL     OW48067   7.451   1.920   7.557 -0.0191 -0.2534  0.0685
15016SOL    HW148068   7.370   1.872   7.573  0.9191 -1.4769  1.2429
15016SOL    HW248069   7.447   1.994   7.619 -1.0016  0.6401 -1.0480
15017SOL     OW48070   6.197   2.201   5.751 -0.2761 -0.3798  0.4477
15017SOL    HW148071   6.181   2.147   5.829  2.6235 -1.3353  0.4570
15017SOL    HW248072   6.254   2.272   5.783 -2.7999  1.8741  0.1157
15018SOL     OW48073   3.202   6.987   7.935  0.4756  0.6558  0.4731
15018SOL    HW148074   3.251   7.065   7.960 -0.8161  1.2601  1.1805
15018SOL    HW248075   3.261   6.914   7.957  1.8355  1.4223 -0.5383
15019SOL     OW48076   3.165   2.760   1.440 -0.1130  0.6521 -0.2354
15019SOL    HW148077   3.128   2.681   1.400  0.5299 -0.5957  1.6025
15019SOL    HW248078   3.254   2.765   1.407 -0.6537  1.5590 -1.6470
15020SOL     OW48079   5.240   4.979   0.221 -0.0223  0.3450 -0.4145
15020SOL    HW148080   5.315   4.923   0.200  0.2602  0.2970  0.6967
15020SOL    HW248081   5.181   4.969   0.146  0.6283 -0.3969 -0.8346
15021SOL     OW48082   6.750   1.101   8.869  0.0655  0.3058  0.0494
15021SOL    HW148083   6.800   1.057   8.938  1.5688 -0.7855 -1.6957
15021SOL    HW248084   6.661   1.105   8.904  1.0830  1.1291  2.6587
15022SOL     OW48085   4.045   3.950   6.067  0.3036  0.1209 -0.3059
15022SOL    HW148086   4.124   3.922   6.020  0.2739  0.1678 -0.3835
15022SOL    HW248087   4.068   4.035   6.103  1.0463 -0.8029  1.4907
15023SOL     OW48088   6.941   1.748   1.691 -0.0657 -0.4566 -0.2718
15023SOL    HW148089   6.882   1.796   1.749  0.4760 -1.4955  1.1779
15023SOL    HW248090   7.017   1.805   1.681 -1.0128  0.6027 -1.6213
15024SOL     OW48091   2.212   2.720   1.762  0.4923  0.0360  0.2587
15024SOL    HW148092   2.292   2.721   1.814  1.1895 -0.0147 -0.7970
15024SOL    HW248093   2.175   2.808   1.774  0.6524  0.0322  0.8110
15025SOL     OW48094   2.223   0.659   2.649  0.4878  0.1581 -0.5725
15025SOL    HW148095   2.246   0.684   2.739  1.8267 -2.2544 -0.2132
15025SOL    HW248096   2.147   0.713   2.628 -0.8268 -0.3735  2.5861
15026SOL     OW48097   1.009   4.575   8.535  0.0680 -0.1244  0.0274
15026SOL    HW148098   1.079   4.510   8.543  0.7103  0.4066 -1.1775
15026SOL    HW248099   0.929   4.527   8.556  0.6565 -1.0444  0.1742
15027SOL     OW48100   1.316   0.566   4.438  0.2889  0.5665  0.1826
15027SOL    HW148101   1.351   0.487   4.396 -1.8095  0.3913 -1.2996
15027SOL    HW248102   1.269   0.611   4.368  0.2750  2.4187  1.3734
15028SOL     OW48103   4.860   5.267   6.147 -0.0306 -0.6847 -0.1298
15028SOL    HW148104   4.824   5.196   6.200  2.0440  0.4732  3.0273
15028SOL    HW248105   4.951   5.242   6.132 -0.1949 -0.2853 -1.9824
15029SOL     OW48106   6.430   1.906   0.900 -0.3200 -0.6164 -0.6059
15029SOL    HW148107   6.471   1.954   0.828  0.2122  0.0207  0.1043
15029SOL    HW248108   6.406   1.974   0.963  0.9640 -1.3155  0.6719
15030SOL     OW48109   7.197   3.445   1.323  0.2800  0.4129 -0.0198
15030SOL    HW148110   7.172   3.430   1.231 -0.3038  2.6308 -0.2637
15030SOL    HW248111   7.293   3.450   1.321  0.1910  2.1345 -0.8147
15031SOL     OW48112   4.643   3.423   2.275  0.3594 -0.0572 -0.1818
15031SOL    HW148113   4.620   3.337   2.311  0.4089  0.7198  1.7524
15031SOL    HW248114   4.581   3.437   2.204 -1.3577 -0.5474  1.1952
15032SOL     OW48115   6.148   7.477   3.940  0.9760 -0.1001 -0.0272
15032SOL    HW148116   6.194   7.431   3.870 -0.2501 -0.7184 -0.4530
15032SOL    HW248117   6.102   7.407   3.987 -0.5922  0.6366 -0.4315
15033SOL     OW48118   7.128   8.792   9.183 -0.0480  0.7145  0.1258
15033SOL    HW148119   7.219   8.816   9.163 -0.1392  0.9327 -0.0257
15033SOL    HW248120   7.131   8.697   9.193  0.2145  0.7294  0.2039
15034SOL     OW48121   3.787   7.020   6.861 -0.1811  0.1356 -0.5138
15034SOL    HW148122   3.762   7.112   6.871 -1.9541 -0.3913  0.0417
15034SOL    HW248123   3.725   6.972   6.915  1.3075 -1.3334 -0.0711
15035SOL     OW48124   3.550   5.440   6.495 -0.4328  0.3653  0.4172
15035SOL    HW148125   3.604   5.365   6.519  0.0482  1.2720  2.2649
15035SOL    HW248126   3.576   5.461   6.405  0.3384 -0.8801  0.3411
15036SOL     OW48127   7.426   4.474   2.723 -0.0817 -0.1180  0.2439
15036SOL    HW148128   7.497   4.434   2.773  0.1132  0.4846  0.4528
15036SOL    HW248129   7.382   4.400   2.682 -0.4614 -0.6588  1.5880
15037SOL     OW48130   4.643   0.569   1.058 -0.3332  0.2911  0.1083
15037SOL    HW148131   4.729   0.565   1.018 -1.4189 -0.8518 -2.2164
15037SOL    HW248132   4.603   0.647   1.021 -0.1212  1.1257  1.6016
15038SOL     OW48133   8.840   2.169   9.045  0.0745 -0.5270 -0.0499
15038SOL    HW148134   8.902   2.160   9.117 -0.4826 -3.4190  0.1575
15038SOL    HW248135   8.755   2.176   9.087  0.1696  2.7857 -0.3499
15039SOL     OW48136   9.277   4.174   8.586 -0.4495  0.0887 -0.4936
15039SOL    HW148137   9.321   4.149   8.505  1.6324  0.8291  0.3533
15039SOL    HW248138   9.229   4.254   8.563  1.0334  0.9295 -0.7517
15040SOL     OW48139   0.993   2.805   3.234  0.6567 -0.0609  0.1608
15040SOL    HW148140   0.960   2.841   3.152 -1.1622 -0.2789  0.7812
15040SOL    HW248141   0.984   2.710   3.223  0.9686 -0.1136  0.3749
15041SOL     OW48142   7.294   1.421   8.443 -0.3053 -0.0409 -0.0407
15041SOL    HW148143   7.361   1.483   8.414  0.7342 -1.1431 -0.0112
15041SOL    HW248144   7.343   1.350   8.483 -1.5054 -0.8511  0.0109
15042SOL     OW48145   0.788   5.754   0.209  0.2744  0.3371  0.0689
15042SOL    HW148146   0.762   5.686   0.272 -1.7800  0.7208 -0.3041
15042SOL    HW248147   0.838   5.817   0.260 -0.8956  0.3513  1.2324
15043SOL     OW48148   5.108   2.382   2.989  0.2925 -0.8880  0.5319
15043SOL    HW148149   5.130   2.297   3.028 -0.5152 -2.0993 -1.5618
15043SOL    HW248150   5.171   2.443   3.026  1.8771 -2.7113  0.8877
15044SOL     OW48151   4.152   6.727   3.104 -0.6217  0.4512 -0.4603
15044SOL    HW148152   4.101   6.681   3.172 -1.3912 -0.2159 -1.4726
15044SOL    HW248153   4.217   6.663   3.076 -1.0665  0.3113 -1.1814
15045SOL     OW48154   2.644   0.697   7.501  0.1074  0.2555 -0.0406
15045SOL    HW148155   2.701   0.745   7.562  0.7623  0.3482 -0.7141
15045SOL    HW248156   2.561   0.744   7.505  0.4834  0.9465 -0.0467
15046SOL     OW48157   6.464   5.887   8.849 -0.0925  0.5804  0.0478
15046SOL    HW148158   6.447   5.833   8.772 -2.8806  1.7839 -0.2623
15046SOL    HW248159   6.559   5.894   8.853  0.2368 -2.2866 -1.3049
15047SOL     OW48160   8.983   6.890   1.571  0.2072 -0.1835  0.2691
15047SOL    HW148161   8.911   6.847   1.617  0.8246 -2.1122 -0.5170
15047SOL    HW248162   9.007   6.964   1.628 -1.2006 -0.5792  1.4120
15048SOL     OW48163   2.403   8.294   0.699 -0.0303  0.3809 -0.1454
15048SOL    HW148164   2.344   8.350   0.750 -1.2506 -0.6208 -0.4589
15048SOL    HW248165   2.451   8.355   0.643 -0.1814  1.2801  0.6870
15049SOL     OW48166   2.754   2.415   9.155 -0.0261  0.0383  0.9458
15049SOL    HW148167   2.734   2.468   9.232  0.6625 -1.4237  2.1676
15049SOL    HW248168   2.671   2.372   9.134  0.0488 -0.4388  1.5873
15050SOL     OW48169   1.957   7.542   4.885 -0.4322 -0.3874 -0.2617
15050SOL    HW148170   1.871   7.509   4.860 -0.6695  0.7186 -0.9280
15050SOL    HW248171   2.018   7.476   4.853 -0.9718 -0.6976 -0.6595
15051SOL     OW48172   3.190   3.073   7.863 -0.3470  0.2613  0.0719
15051SOL    HW148173   3.128   3.144   7.881  0.0278  0.9126 -1.1200
15051SOL    HW248174   3.276   3.115   7.867 -0.0500 -0.3849  0.5435
15052SOL     OW48175   4.879   8.583   1.197 -0.6080  0.1759  0.1888
15052SOL    HW148176   4.854   8.525   1.269  0.8605  1.4216  1.7474
15052SOL    HW248177   4.971   8.562   1.180 -0.5618  0.8256 -0.3880
15053SOL     OW48178   6.453   8.143   4.400  0.2480 -0.3045  0.1075
15053SOL    HW148179   6.362   8.140   4.427  0.2783  1.0628  0.3986
15053SOL    HW248180   6.502   8.129   4.481  0.3021 -1.0973 -0.0580
15054SOL     OW48181   3.677   5.518   2.495 -0.4602  0.9214 -0.1128
15054SOL    HW148182   3.686   5.427   2.522 -1.8336  0.4251 -1.2656
15054SOL    HW248183   3.611   5.555   2.554 -1.2452  0.6634 -0.8242
15055SOL     OW48184   1.579   8.298   5.659 -0.4906 -0.2837 -0.8081
15055SOL    HW148185   1.534   8.347   5.728 -0.3938  0.0545 -0.9836
15055SOL    HW248186   1.541   8.331   5.577 -0.2261 -0.2986 -0.9382
15056SOL     OW48187   4.217   2.854   3.437 -0.1730  0.6300 -0.1674
15056SOL    HW148188   4.190   2.793   3.505  0.1570  1.0981  0.3980
15056SOL    HW248189   4.310   2.870   3.455 -0.5986  2.3823  0.5648
15057SOL     OW48190   9.023   8.730   4.365 -0.0981 -0.1802 -1.2809
15057SOL    HW148191   9.050   8.642   4.390 -1.3216 -0.8092 -2.1417
15057SOL    HW248192   9.057   8.742   4.276 -0.1548  0.1154 -1.2632
15058SOL     OW48193   5.885   0.144   8.100  0.4107  0.2515 -0.1124
15058SOL    HW148194   5.952   0.136   8.031 -0.4781  1.7369 -1.1827
15058SOL    HW248195   5.923   0.206   8.163  0.5383  0.1849 -0.1233
15059SOL     OW48196   3.447   2.936   1.451  0.1625 -0.3268 -0.1016
15059SOL    HW148197   3.528   2.959   1.497  0.1013 -1.7591  0.7592
15059SOL    HW248198   3.474   2.869   1.388 -0.3000 -0.5955 -0.0109
15060SOL     OW48199   1.562   1.363   8.204  0.1831  1.1257  0.2643
15060SOL    HW148200   1.548   1.331   8.293  0.5206  1.5363  0.4674
15060SOL    HW248201   1.509   1.305   8.149  1.0586  0.0089  0.5848
15061SOL     OW48202   8.712   4.601   1.155 -0.0577  0.3376 -0.0607
15061SOL    HW148203   8.793   4.649   1.137  0.9487 -2.0206 -2.1240
15061SOL    HW248204   8.657   4.664   1.202  2.3710  2.4810  0.0408
15062SOL     OW48205   5.607   8.821   3.191  0.6279 -0.1249  0.5857
15062SOL    HW148206   5.534   8.778   3.147  2.1898 -1.8651 -0.3553
15062SOL    HW248207   5.589   8.811   3.285 -0.6002 -0.0604  0.3561
15063SOL     OW48208   2.526   6.087   7.581  0.4642 -0.5299  0.0143
15063SOL    HW148209   2.446   6.123   7.620  1.6916  1.9703  0.3606
15063SOL    HW248210   2.507   5.995   7.566 -1.6280 -0.5440  2.4124
15064SOL     OW48211   8.833   6.973   7.236 -0.6309  0.3644  0.2555
15064SOL    HW148212   8.824   7.069   7.234  1.2089  0.5576  0.5864
15064SOL    HW248213   8.915   6.958   7.282 -0.3034 -1.3516 -0.8752
15065SOL     OW48214   1.819   4.444   6.055 -0.1985  0.3363 -0.3006
15065SOL    HW148215   1.819   4.404   5.968  0.5646 -1.2998  0.4136
15065SOL    HW248216   1.851   4.374   6.113 -1.4296  1.1438  1.4053
15066SOL     OW48217   4.728   1.037   6.624 -0.4838 -0.1431 -0.4904
15066SOL    HW148218   4.796   1.070   6.565 -1.1273 -0.6589 -1.5322
15066SOL    HW248219   4.658   1.009   6.566 -1.6753  0.5709  0.5880
15067SOL     OW48220   3.483   4.118   7.157 -0.1969 -0.0095  0.6120
15067SOL    HW148221   3.392   4.147   7.163 -0.5476 -1.2622  1.7415
15067SOL    HW248222   3.507   4.097   7.247  0.3517 -2.2068 -0.0263
15068SOL     OW48223   2.693   7.375   5.980 -0.3898  0.2561 -0.0795
15068SOL    HW148224   2.604   7.400   6.004 -0.7760  0.5940 -1.7944
15068SOL    HW248225   2.683   7.293   5.932  0.0229  1.1715 -1.7922
15069SOL     OW48226   7.366   0.143   0.413  0.2876 -0.3166 -0.0813
15069SOL    HW148227   7.276   0.168   0.434  0.0276 -1.3174  0.0318
15069SOL    HW248228   7.384   0.068   0.470  0.6944 -1.0036 -1.0948
15070SOL     OW48229   0.936   3.064   1.873 -0.1395  0.0735  1.0134
15070SOL    HW148230   0.843   3.043   1.881 -0.2318  0.6169  1.3965
15070SOL    HW248231   0.941   3.116   1.793 -0.3030  0.8037  1.4724
15071SOL     OW48232   5.872   3.848   3.610 -0.2561  0.0947 -0.1550
15071SOL    HW148233   5.909   3.828   3.696 -0.6675 -0.8078 -0.1859
15071SOL    HW248234   5.932   3.914   3.574  0.6259 -0.4348  0.3037
15072SOL     OW48235   1.610   5.260   9.184  0.4512 -0.4715  0.6208
15072SOL    HW148236   1.685   5.263   9.125 -0.2084 -3.4830 -0.4612
15072SOL    HW248237   1.537   5.235   9.128 -0.8983  0.0864  2.0958
15073SOL     OW48238   9.172   8.190   0.388  0.0512 -0.0406  0.8349
15073SOL    HW148239   9.169   8.264   0.448  2.4927 -0.4301  1.4657
15073SOL    HW248240   9.155   8.228   0.302  1.6147  1.2916  1.1148
15074SOL     OW48241   1.108   3.982   1.507  0.4127 -0.2196 -0.5751
15074SOL    HW148242   1.109   3.959   1.414  1.2403  1.0863 -0.9006
15074SOL    HW248243   1.034   3.933   1.543  1.0661 -1.9921 -1.5868
15075SOL     OW48244   6.616   2.256   7.166 -0.3428 -0.3207 -0.3130
15075SOL    HW148245   6.652   2.258   7.254 -0.7599  4.7251 -0.0984
15075SOL    HW248246   6.692   2.244   7.109  0.6566  1.6226  0.5520
15076SOL     OW48247   0.256   8.758   5.205 -0.2352  0.3910  1.2322
15076SOL    HW148248   0.277   8.844   5.240  1.3242  0.3394  0.4903
15076SOL    HW248249   0.247   8.772   5.111  1.2385 -0.4553  0.9541
15077SOL     OW48250   2.154   2.699   8.840 -0.3037 -0.5161  0.2103
15077SOL    HW148251   2.094   2.661   8.904 -0.0154 -2.1157 -0.4339
15077SOL    HW248252   2.134   2.793   8.841 -0.2836 -0.5158  2.6219
15078SOL     OW48253   4.972   8.148   5.307 -0.2153  0.1832  0.1250
15078SOL    HW148254   4.905   8.149   5.376 -0.8265  0.5235 -0.4611
15078SOL    HW248255   4.923   8.131   5.227  0.3387  0.8925 -0.3735
15079SOL     OW48256   8.807   3.391   4.177 -0.2166 -0.4158 -0.2496
15079SOL    HW148257   8.815   3.382   4.082 -2.0182 -0.1375 -0.4598
15079SOL    HW248258   8.713   3.403   4.192  0.1978  0.9515  1.4535
15080SOL     OW48259   9.347   8.883   8.203  0.2514  0.6321  0.1253
15080SOL    HW148260   9.323   8.971   8.232  1.4775  0.7176  0.9231
15080SOL    HW248261   9.399   8.848   8.275 -1.4145 -1.2874  0.4306
15081SOL     OW48262   0.307   2.278   5.205  0.0330  0.0705  1.0228
15081SOL    HW148263   0.398   2.257   5.228 -0.2827 -2.9466 -0.2723
15081SOL    HW248264   0.254   2.232   5.269 -0.6233  1.3364  1.4118
15082SOL     OW48265   4.869   2.286   5.147  0.3798  0.5786  0.0354
15082SOL    HW148266   4.891   2.360   5.090  1.8462 -0.2330 -0.4823
15082SOL    HW248267   4.787   2.252   5.111  0.0283  1.5549 -0.1086
15083SOL     OW48268   8.139   6.362   6.617 -0.2698  0.1943 -0.2354
15083SOL    HW148269   8.127   6.302   6.691 -1.6006  0.1669 -0.4526
15083SOL    HW248270   8.212   6.418   6.643  1.0056 -1.5192 -0.0286
15084SOL     OW48271   2.589   7.436   6.595 -0.2950 -0.1696  0.2845
15084SOL    HW148272   2.653   7.499   6.628  1.5187 -0.9239 -1.7061
15084SOL    HW248273   2.527   7.425   6.667  0.6055  2.1968  1.4661
15085SOL     OW48274   7.296   2.772   1.687  0.9490 -0.6103  0.2609
15085SOL    HW148275   7.382   2.751   1.650  0.8072 -1.8405  0.6025
15085SOL    HW248276   7.266   2.690   1.727  0.5184  0.3462  1.9539
15086SOL     OW48277   5.218   3.510   1.977  0.0180 -0.2999  0.1727
15086SOL    HW148278   5.188   3.601   1.984  1.1899  0.0983  0.0835
15086SOL    HW248279   5.272   3.496   2.055  0.3291 -0.7330 -0.1192
15087SOL     OW48280   0.229   9.273   8.248  0.0626 -0.0859 -0.3025
15087SOL    HW148281   0.179   9.349   8.278 -1.6837 -1.9930  1.7899
15087SOL    HW248282   0.320   9.303   8.249 -0.5949  2.0128  0.3455
15088SOL     OW48283   2.620   6.035   7.100  0.1149  0.3053  0.2364
15088SOL    HW148284   2.543   6.088   7.123  1.0507  1.4855  0.7057
15088SOL    HW248285   2.604   6.007   7.010 -0.6861  0.8743  0.1987
15089SOL     OW48286   5.800   2.602   1.492 -0.2366 -0.3419 -0.5116
15089SOL    HW148287   5.836   2.589   1.580  0.2792 -1.3998 -0.8576
15089SOL    HW248288   5.825   2.691   1.468  2.3034 -1.0687 -0.7647
15090SOL     OW48289   2.205   0.549   4.670 -0.3778  0.4265  0.2504
15090SOL    HW148290   2.191   0.591   4.754  0.8571  0.9848  0.1946
15090SOL    HW248291   2.148   0.473   4.671 -1.9389  1.5856  0.7379
15091SOL     OW48292   3.628   8.051   4.687  0.3805 -0.1688  0.3329
15091SOL    HW148293   3.624   8.126   4.627 -0.4527 -0.6238 -0.1895
15091SOL    HW248294   3.550   8.000   4.666  0.7179 -0.9550  0.9919
15092SOL     OW48295   3.491   5.476   2.135 -0.6288  0.0865 -0.3148
15092SOL    HW148296   3.492   5.458   2.041  2.0331 -0.1537 -0.2817
15092SOL    HW248297   3.431   5.411   2.171 -2.1092  0.5328 -1.8960
15093SOL     OW48298   7.990   7.050   8.253  0.1588 -0.1320 -0.2924
15093SOL    HW148299   8.065   7.000   8.220  0.6116  0.4564 -0.1617
15093SOL    HW248300   8.022   7.140   8.257 -0.5233  0.1007 -0.1257
15094SOL     OW48301   2.081   8.069   3.964  0.6077 -0.4028 -0.4408
15094SOL    HW148302   2.062   8.074   3.871  2.2754 -0.8159 -0.8091
15094SOL    HW248303   2.087   7.975   3.983 -0.5676 -0.3533  0.2751
15095SOL     OW48304   5.967   0.135   1.022  0.0909  0.2077 -0.3078
15095SOL    HW148305   5.891   0.095   0.979  0.9045 -2.5194  0.7066
15095SOL    HW248306   5.930   0.176   1.100 -0.4519 -0.5838 -0.1357
15096SOL     OW48307   2.100   6.641   3.860 -0.5170  0.4876  0.7815
15096SOL    HW148308   2.166   6.710   3.870 -0.8769  1.1887 -1.3984
15096SOL    HW248309   2.143   6.575   3.806 -1.5589  0.9476 -0.6473
15097SOL     OW48310   7.971   6.709   2.631  0.6473 -0.4155 -0.0364
15097SOL    HW148311   8.015   6.741   2.552  0.7170 -2.0211 -0.6676
15097SOL    HW248312   8.010   6.624   2.647  0.8985  0.0577  1.9678
15098SOL     OW48313   4.641   5.038   1.143 -0.4127  0.0781 -0.3591
15098SOL    HW148314   4.547   5.041   1.124 -0.4718 -2.8584 -0.8446
15098SOL    HW248315   4.646   5.016   1.236 -0.2487 -1.9726 -0.8344
15099SOL     OW48316   9.332   0.728   0.152 -0.0695  0.5977  0.0857
15099SOL    HW148317   9.338   0.823   0.140 -1.8731  0.6365 -0.5634
15099SOL    HW248318   9.410   0.694   0.108  1.2422  1.8403  1.3802
15100SOL     OW48319   0.100   6.581   0.199  0.4557 -0.1065  0.2128
15100SOL    HW148320   0.119   6.674   0.212  1.6951 -0.1973 -0.8467
15100SOL    HW248321   0.184   6.537   0.210  0.1597 -0.9397 -0.7509
15101SOL     OW48322   0.232   0.988   5.480  0.3283 -0.1500  0.3040
15101SOL    HW148323   0.158   1.046   5.463 -0.4432 -1.3963 -0.7154
15101SOL    HW248324   0.292   1.040   5.534 -1.5523  0.6864  1.6227
15102SOL     OW48325   0.193   0.703   0.420  0.2676  0.4875  0.3163
15102SOL    HW148326   0.211   0.779   0.475 -0.8958  1.0814 -0.0849
15102SOL    HW248327   0.141   0.738   0.347 -0.4310 -0.7108  0.2127
15103SOL     OW48328   2.517   5.454   3.826  0.2334  0.4124 -0.1386
15103SOL    HW148329   2.510   5.414   3.740 -0.1252  1.4838 -0.6168
15103SOL    HW248330   2.456   5.528   3.823  1.0190  1.1014  0.6534
15104SOL     OW48331   3.106   3.577   0.485 -0.0929  0.3902 -0.0609
15104SOL    HW148332   3.191   3.597   0.524  0.4304 -0.0614 -0.9473
15104SOL    HW248333   3.042   3.606   0.550  0.6696  2.9276 -0.4032
15105SOL     OW48334   0.957   4.602   7.906 -0.2444 -0.0214 -0.5016
15105SOL    HW148335   1.040   4.591   7.860 -0.5582  2.6780 -1.8003
15105SOL    HW248336   0.979   4.647   7.987 -0.2552 -0.6798 -0.1309
15106SOL     OW48337   0.419   4.754   0.340 -0.1677  0.8998 -0.2118
15106SOL    HW148338   0.372   4.671   0.347  0.1652  0.8609  1.7164
15106SOL    HW248339   0.376   4.812   0.403  0.7144  1.6663 -0.2996
15107SOL     OW48340   1.055   7.300   4.213 -0.2681 -0.3584 -0.5260
15107SOL    HW148341   1.138   7.300   4.261 -0.1190  1.2920 -0.7499
15107SOL    HW248342   1.078   7.274   4.124 -0.3181 -1.9783 -0.0675
15108SOL     OW48343   4.932   9.369   6.262  0.1308 -0.3631 -0.4308
15108SOL    HW148344   4.982   9.323   6.329  1.7448  1.2796 -0.4619
15108SOL    HW248345   4.978   9.349   6.180 -1.0701 -1.3134 -0.8905
15109SOL     OW48346   7.667   1.742   8.611 -0.4932 -0.5741 -0.2694
15109SOL    HW148347   7.738   1.806   8.612 -0.7481 -0.2573 -1.2898
15109SOL    HW248348   7.695   1.673   8.670  0.1724  0.0760  0.1804
15110SOL     OW48349   4.964   6.693   5.090 -0.2351 -0.7472 -0.6649
15110SOL    HW148350   4.923   6.744   5.020  0.4054 -0.5397 -0.8982
15110SOL    HW248351   4.994   6.759   5.152 -2.5778 -1.0244  0.8095
15111SOL     OW48352   7.943   6.993   5.533 -0.2770  0.1148 -0.0400
15111SOL    HW148353   7.851   7.018   5.545 -0.6415 -0.2505 -1.8661
15111SOL    HW248354   7.979   7.063   5.479  1.0669  1.2950  2.3292
15112SOL     OW48355   8.926   5.057   7.654  0.2427 -0.1001 -0.6180
15112SOL    HW148356   8.993   5.086   7.592  1.2986 -3.0689 -0.9119
15112SOL    HW248357   8.844   5.060   7.604  0.6936  0.0411 -1.3586
15113SOL     OW48358   3.003   0.279   8.477 -0.7743  0.2929  0.6381
15113SOL    HW148359   3.049   0.360   8.498  1.2780 -0.4341 -0.9462
15113SOL    HW248360   3.032   0.216   8.543  0.3748 -0.1152 -0.2513
15114SOL     OW48361   2.364   5.110   4.847 -0.1199  0.2034  0.5552
15114SOL    HW148362   2.377   5.109   4.942 -1.3781  0.4154  0.7404
15114SOL    HW248363   2.379   5.201   4.821  1.0904 -0.0258  0.4127
15115SOL     OW48364   3.597   4.210   1.269  0.0447  0.3469  0.1650
15115SOL    HW148365   3.507   4.184   1.287  0.5660 -2.7038 -1.3169
15115SOL    HW248366   3.649   4.131   1.286  2.3701  1.8342  0.2855
15116SOL     OW48367   1.307   1.442   9.280  0.7390  0.6271  0.1892
15116SOL    HW148368   1.213   1.430   9.298  1.1085 -1.9386  0.7147
15116SOL    HW248369   1.338   1.353   9.260  3.4522  1.1108  2.0167
15117SOL     OW48370   2.292   7.330   7.232 -0.4960 -0.5390  0.3290
15117SOL    HW148371   2.282   7.423   7.250  2.7492  0.0104 -0.3572
15117SOL    HW248372   2.213   7.289   7.267 -2.3616  2.5677 -0.1282
15118SOL     OW48373   8.242   4.517   6.531 -0.2368 -0.0319  0.0313
15118SOL    HW148374   8.214   4.606   6.553  0.6512 -0.1906  1.9236
15118SOL    HW248375   8.316   4.529   6.471  0.5016  0.5434  1.0336
15119SOL     OW48376   7.989   8.913   3.154 -0.3060  0.8064  0.2148
15119SOL    HW148377   7.909   8.962   3.136  2.1836  4.2778 -1.8492
15119SOL    HW248378   8.027   8.956   3.231  0.3409  0.0694  0.3139
15120SOL     OW48379   1.649   0.661   8.714 -0.4276  0.8862  0.4503
15120SOL    HW148380   1.689   0.655   8.801 -0.7147  0.5056  0.5540
15120SOL    HW248381   1.724   0.674   8.655  0.0957 -2.1824  0.3635
15121SOL     OW48382   8.788   4.551   2.023 -0.2463  0.4186 -0.2868
15121SOL    HW148383   8.737   4.610   2.079 -1.8703  1.0619 -2.3781
15121SOL    HW248384   8.723   4.506   1.970  1.1901 -1.1055 -0.7832
15122SOL     OW48385   2.782   7.489   2.356  0.0944 -0.0009 -0.0783
15122SOL    HW148386   2.712   7.554   2.352  1.0105  1.0132  0.1720
15122SOL    HW248387   2.840   7.511   2.284  0.1729 -0.8262 -0.2751
15123SOL     OW48388   1.048   4.812   8.363 -0.1722 -0.2309 -0.3006
15123SOL    HW148389   1.054   4.752   8.438  1.5787  1.3176  0.8286
15123SOL    HW248390   0.991   4.883   8.394  0.4996  0.3735 -0.4378
15124SOL     OW48391   9.419   2.861   6.246 -0.4149 -0.2707 -0.1319
15124SOL    HW148392   9.391   2.812   6.168 -0.9300 -3.4253  1.9636
15124SOL    HW248393   9.389   2.809   6.320 -0.7126  3.1102  2.2566
15125SOL     OW48394   7.188   5.564   8.614  0.0206 -0.0733 -0.3907
15125SOL    HW148395   7.107   5.593   8.656  0.8019  0.2129  0.9511
15125SOL    HW248396   7.253   5.628   8.641  1.3397 -1.9707  1.0267
15126SOL     OW48397   9.109   6.649   8.327 -0.0636 -0.0956  0.4645
15126SOL    HW148398   9.092   6.708   8.400  0.7463  0.7848 -0.0420
15126SOL    HW248399   9.162   6.701   8.266  0.2052 -1.1712 -0.2386
15127SOL     OW48400   7.346   2.746   0.521  0.0562 -0.4939 -0.4774
15127SOL    HW148401   7.313   2.664   0.555 -0.6464 -1.1089 -2.5607
15127SOL    HW248402   7.300   2.758   0.438 -0.7821  2.6305  0.3661
15128SOL     OW48403   5.695   2.130   5.168  0.3798 -0.3039 -0.3865
15128SOL    HW148404   5.669   2.222   5.171  1.4894  0.0137 -0.1622
15128SOL    HW248405   5.776   2.130   5.117  0.5334 -1.1177 -0.1521
15129SOL     OW48406   8.004   8.042   8.093 -0.3293 -0.0915 -0.1222
15129SOL    HW148407   8.004   8.093   8.012 -0.7581  0.5775  0.2882
15129SOL    HW248408   7.912   8.045   8.122 -0.4332 -1.4495 -0.3157
15130SOL     OW48409   5.848   4.122   9.012  0.0533  0.0689 -0.0022
15130SOL    HW148410   5.767   4.172   9.013 -1.1835 -1.9216  1.4256
15130SOL    HW248411   5.833   4.053   8.948 -0.5918 -2.1994  2.5301
15131SOL     OW48412   7.836   1.688   3.545  0.5775  0.2061  0.6385
15131SOL    HW148413   7.789   1.608   3.519 -0.7585  1.4160 -0.8186
15131SOL    HW248414   7.837   1.686   3.640  0.3834 -1.4539  0.6185
15132SOL     OW48415   8.256   1.946   4.057 -0.0223  0.1891 -0.0676
15132SOL    HW148416   8.345   1.946   4.092 -0.6706  1.1193  1.6565
15132SOL    HW248417   8.222   1.859   4.077  0.2224  0.1123  0.0188
15133SOL     OW48418   1.060   4.020   0.398  0.5387 -0.2956 -0.0404
15133SOL    HW148419   1.146   4.059   0.410  0.5660 -0.2401 -0.4149
15133SOL    HW248420   1.000   4.095   0.396  0.2473 -0.4268  2.1320
15134SOL     OW48421   2.628   4.065   1.521 -0.3531  0.0344  0.3786
15134SOL    HW148422   2.614   4.056   1.615 -1.2770 -0.1656  0.2257
15134SOL    HW248423   2.562   4.008   1.481  0.9057 -0.9281 -0.3650
15135SOL     OW48424   8.156   3.648   8.535 -0.2319 -0.5750 -0.3349
15135SOL    HW148425   8.161   3.607   8.449  0.2171 -0.8873 -0.1602
15135SOL    HW248426   8.150   3.575   8.596  1.9425 -0.4275  0.0818
15136SOL     OW48427   8.502   0.942   2.961 -0.1447  0.0837 -0.3054
15136SOL    HW148428   8.460   0.922   3.045  1.7181  2.6375  1.3178
15136SOL    HW248429   8.596   0.942   2.981  0.3710 -0.0969 -2.6099
15137SOL     OW48430   7.573   9.219   3.212 -0.0934 -0.2602  0.0047
15137SOL    HW148431   7.655   9.171   3.222 -0.0959 -0.2423  0.1057
15137SOL    HW248432   7.560   9.225   3.117  0.7128  0.9233 -0.0311
15138SOL     OW48433   0.977   8.941   7.412 -0.6753  0.1768  0.0996
15138SOL    HW148434   1.010   8.936   7.323 -0.2459 -1.2256  0.3219
15138SOL    HW248435   1.039   8.998   7.458  0.3076 -0.8183  0.0205
15139SOL     OW48436   4.870   4.151   2.689 -0.0344  0.3475 -0.2801
15139SOL    HW148437   4.910   4.075   2.732 -1.3210 -0.7835 -1.0192
15139SOL    HW248438   4.870   4.219   2.755  0.3097 -0.5941  0.7063
15140SOL     OW48439   2.720   6.123   4.604 -0.3072  0.0918  0.2731
15140SOL    HW148440   2.744   6.117   4.696  0.5986 -1.9833 -0.0751
15140SOL    HW248441   2.781   6.188   4.568  0.8338 -0.7507  0.6666
15141SOL     OW48442   6.194   0.571   1.779 -0.0539 -0.4085  0.1603
15141SOL    HW148443   6.103   0.550   1.763  0.6106 -2.5040 -1.0014
15141SOL    HW248444   6.197   0.596   1.872 -1.7029 -0.7784  0.3226
15142SOL     OW48445   6.131   5.359   4.488 -0.0487 -0.1844 -0.4050
15142SOL    HW148446   6.039   5.362   4.460  0.0671 -1.9035 -1.0374
15142SOL    HW248447   6.144   5.269   4.518  1.6741 -0.2258 -1.1952
15143SOL     OW48448   8.419   6.063   5.338 -0.3850 -0.6204 -0.2666
15143SOL    HW148449   8.345   6.064   5.277 -0.5493 -0.1980 -0.0635
15143SOL    HW248450   8.387   6.107   5.416  0.2412  0.0517 -0.3742
15144SOL     OW48451   8.047   3.818   2.820  0.4902 -0.3703 -0.3629
15144SOL    HW148452   7.975   3.880   2.810  1.2111  0.9822  2.2641
15144SOL    HW248453   8.009   3.744   2.868  0.7446  0.1627  0.6670
15145SOL     OW48454   1.373   4.791   0.311  0.0502 -0.1499 -0.0590
15145SOL    HW148455   1.439   4.764   0.376 -0.4059  0.7626  0.8051
15145SOL    HW248456   1.290   4.758   0.347  0.0903 -1.8466 -1.4561
15146SOL     OW48457   0.352   6.780   6.908 -0.3534  0.1551  0.2308
15146SOL    HW148458   0.289   6.724   6.954  1.3824 -1.8809  0.2467
15146SOL    HW248459   0.324   6.778   6.817  1.6597 -3.7371 -0.4225
15147SOL     OW48460   5.245   1.457   2.327  0.6933 -0.1814 -0.1198
15147SOL    HW148461   5.154   1.435   2.348  0.5526  0.7151  0.2432
15147SOL    HW248462   5.265   1.531   2.384  1.6683 -0.4033 -0.1674
15148SOL     OW48463   1.936   0.804   3.103  0.2999  0.5275  0.2108
15148SOL    HW148464   1.934   0.815   3.008  1.7161  0.2859  0.1386
15148SOL    HW248465   1.861   0.748   3.122  0.5772 -0.2273 -0.8785
15149SOL     OW48466   0.128   7.469   4.363  0.3027  0.2107  0.2650
15149SOL    HW148467   0.133   7.479   4.458 -0.7612 -1.7298  0.5495
15149SOL    HW248468   0.207   7.419   4.340 -0.6995 -1.5020  0.4721
15150SOL     OW48469   9.420   0.675   8.262  0.1057 -0.1388 -0.0560
15150SOL    HW148470   9.373   0.730   8.199 -0.6097 -1.4860 -0.7157
15150SOL    HW248471   9.425   0.729   8.341 -2.2084  0.2215 -0.1000
15151SOL     OW48472   8.370   5.845   8.224 -0.1937  0.4863 -0.1469
15151SOL    HW148473   8.421   5.798   8.291 -0.3669 -0.3741 -0.6116
15151SOL    HW248474   8.280   5.841   8.256 -0.9922 -3.8898 -2.6025
15152SOL     OW48475   3.520   0.101   8.983 -0.7152  0.1595 -0.5066
15152SOL    HW148476   3.598   0.095   9.038 -1.3417 -0.0809  0.3705
15152SOL    HW248477   3.553   0.097   8.893  0.2445 -0.3181 -0.1396
15153SOL     OW48478   1.297   9.319   4.019  0.1924  0.5626 -0.2727
15153SOL    HW148479   1.217   9.327   3.966  0.1712  0.9333 -0.1851
15153SOL    HW248480   1.315   9.225   4.021  1.4895  0.7135 -2.8512
15154SOL     OW48481   4.648   0.975   8.412  0.2484 -1.1003  0.1393
15154SOL    HW148482   4.663   1.033   8.487  1.9753  1.0674 -1.8299
15154SOL    HW248483   4.554   0.957   8.415  0.0539  0.0840  2.0108
15155SOL     OW48484   6.666   8.609   2.342 -0.4584 -0.1546 -0.3589
15155SOL    HW148485   6.746   8.589   2.294  1.0196  1.1692  1.4734
15155SOL    HW248486   6.627   8.524   2.362  0.6802 -0.8198 -0.9623
15156SOL     OW48487   8.005   5.007   5.780 -0.3566 -0.0505  0.1497
15156SOL    HW148488   7.959   5.090   5.770  0.1404  0.2529  0.3897
15156SOL    HW248489   7.955   4.945   5.726  0.0172  0.6948 -1.0791
15157SOL     OW48490   7.941   3.385   4.022  0.3096 -0.4004  0.3966
15157SOL    HW148491   8.019   3.383   3.967  0.4420  0.7757  0.5290
15157SOL    HW248492   7.974   3.387   4.111  0.1454  0.1864  0.4510
15158SOL     OW48493   3.813   7.763   1.518  0.0997 -0.3301 -0.8915
15158SOL    HW148494   3.745   7.747   1.583  1.0631 -1.1320 -0.0640
15158SOL    HW248495   3.879   7.696   1.536  2.2212  1.8792 -0.1547
15159SOL     OW48496   3.786   6.493   3.740 -0.0907 -0.5051  0.3121
15159SOL    HW148497   3.819   6.457   3.822  0.0387 -2.6369 -0.6607
15159SOL    HW248498   3.698   6.456   3.732 -1.5394  2.5484  1.2543
15160SOL     OW48499   8.203   9.201   0.696  0.2680  0.1022 -0.1531
15160SOL    HW148500   8.214   9.108   0.716 -0.3478  0.2689  0.9840
15160SOL    HW248501   8.108   9.213   0.690  0.2686  0.9860  1.3494
15161SOL     OW48502   8.384   7.211   7.182  0.6907 -0.1572  0.1568
15161SOL    HW148503   8.334   7.272   7.234 -0.4231  0.3767 -1.5149
15161SOL    HW248504   8.473   7.216   7.218 -0.2245 -0.4832  2.5660
15162SOL     OW48505   4.605   7.505   3.626  0.8073  0.1806 -0.1590
15162SOL    HW148506   4.656   7.534   3.550 -0.0608 -0.1038 -0.8508
15162SOL    HW248507   4.606   7.580   3.685  1.3542  0.4592 -0.5128
15163SOL     OW48508   4.907   4.223   8.586  0.2726 -0.3385  0.1007
15163SOL    HW148509   4.905   4.210   8.681  0.8823  2.6408  0.5524
15163SOL    HW248510   4.996   4.253   8.568 -0.4801  1.2300 -1.1077
15164SOL     OW48511   7.244   1.101   9.222 -0.1369 -0.5018  0.1825
15164SOL    HW148512   7.195   1.124   9.142  1.1229  0.8045 -0.2343
15164SOL    HW248513   7.287   1.018   9.200 -0.2713 -0.4493 -0.2966
15165SOL     OW48514   4.730   5.059   7.112  0.2607 -0.1007 -0.5545
15165SOL    HW148515   4.728   4.975   7.158  1.6699  0.9146  1.4212
15165SOL    HW248516   4.798   5.048   7.045 -0.5570 -0.9770 -1.2764
15166SOL     OW48517   5.444   1.674   3.675  0.7942  0.2054  0.3454
15166SOL    HW148518   5.468   1.650   3.765  0.7281  1.0177  0.5809
15166SOL    HW248519   5.514   1.637   3.621  1.0635  0.0844  0.7758
15167SOL     OW48520   1.188   8.435   4.406  0.1765 -0.7670  0.0652
15167SOL    HW148521   1.269   8.485   4.411  0.7741 -1.3635 -2.8904
15167SOL    HW248522   1.119   8.501   4.414  0.9617  0.1905 -0.9681
15168SOL     OW48523   8.083   9.340   8.411  0.2899 -0.0649  0.0678
15168SOL    HW148524   8.040   9.294   8.339  1.3179 -0.8506 -0.0703
15168SOL    HW248525   8.018   9.402   8.444 -0.0088  0.7131 -1.9140
15169SOL     OW48526   0.060   4.516   9.021  0.2149  0.2646  0.0745
15169SOL    HW148527   0.133   4.574   8.997 -0.3378  1.2412  0.7096
15169SOL    HW248528   0.080   4.489   9.110  0.3266 -0.3088 -0.1229
15170SOL     OW48529   2.441   6.902   7.726 -0.4066  0.4585 -0.0410
15170SOL    HW148530   2.380   6.968   7.761 -1.1082 -0.3451  0.2709
15170SOL    HW248531   2.518   6.909   7.782 -1.2531 -0.3365  1.2459
15171SOL     OW48532   1.258   2.327   3.041  0.2030  0.5152  0.1445
15171SOL    HW148533   1.303   2.401   3.082  1.0122  0.8610 -1.3554
15171SOL    HW248534   1.305   2.250   3.073  1.6204  0.8486 -1.0609
15172SOL     OW48535   4.483   4.556   6.343  0.4883 -0.6076  0.1220
15172SOL    HW148536   4.484   4.580   6.250  0.3491 -1.3513 -0.0744
15172SOL    HW248537   4.561   4.503   6.355  0.3213 -0.8046  0.3503
15173SOL     OW48538   8.041   7.597   2.667  0.3680  0.5457 -0.1710
15173SOL    HW148539   8.072   7.677   2.625  0.9915 -0.1706 -1.0987
15173SOL    HW248540   8.009   7.626   2.752  1.8418  1.6061  0.0534
15174SOL     OW48541   2.560   4.449   8.062  0.2627 -0.5554  0.3176
15174SOL    HW148542   2.468   4.437   8.036  0.1244 -0.2264  0.6463
15174SOL    HW248543   2.556   4.465   8.157  0.5160  1.0783  0.0753
15175SOL     OW48544   7.114   7.260   4.603 -0.3556 -0.2915  0.1249
15175SOL    HW148545   7.062   7.261   4.683  0.5741 -1.1568  0.7530
15175SOL    HW248546   7.050   7.274   4.533 -1.0517  1.3777  1.0698
15176SOL     OW48547   6.963   6.005   0.653  0.1396 -0.2322 -0.2874
15176SOL    HW148548   6.946   6.045   0.568 -0.6736 -2.4507 -1.2155
15176SOL    HW248549   6.971   5.912   0.634 -0.1424 -0.7650  2.0782
15177SOL     OW48550   5.036   5.799   2.968 -0.0306  0.3047 -0.1233
15177SOL    HW148551   5.062   5.713   2.936 -0.2677  0.5385 -0.9446
15177SOL    HW248552   4.997   5.781   3.054 -0.5408 -0.4674 -0.5061
15178SOL     OW48553   8.123   2.687   0.180 -0.2570 -0.1538  0.5769
15178SOL    HW148554   8.037   2.659   0.213 -1.3062  0.7195 -1.3325
15178SOL    HW248555   8.145   2.623   0.113 -0.2838  0.6753 -0.2307
15179SOL     OW48556   7.816   2.148   0.524  0.1852  0.1690  0.5653
15179SOL    HW148557   7.822   2.242   0.543  1.2524  0.0869  0.6619
15179SOL    HW248558   7.724   2.135   0.500  0.3409  1.5114 -0.8663
15180SOL     OW48559   4.098   7.891   9.310 -0.3420  0.0331 -0.0432
15180SOL    HW148560   4.047   7.809   9.311 -0.2485 -0.0379 -0.9938
15180SOL    HW248561   4.035   7.958   9.335 -0.8103 -0.1108 -0.8230
15181SOL     OW48562   3.773   8.960   2.228  0.3952 -1.1188  0.0290
15181SOL    HW148563   3.763   9.045   2.270  0.1327 -1.1224 -0.0255
15181SOL    HW248564   3.844   8.972   2.165 -1.2264 -0.2737 -1.6963
15182SOL     OW48565   6.052   3.964   7.163  0.8465 -0.3085 -0.4451
15182SOL    HW148566   6.072   4.008   7.081 -0.8877  2.8047  0.7271
15182SOL    HW248567   5.980   3.905   7.141  1.8406 -1.1270 -1.5872
15183SOL     OW48568   0.897   0.493   8.169 -0.4120 -0.1269 -0.1353
15183SOL    HW148569   0.934   0.426   8.112  0.3280  0.7581 -0.7041
15183SOL    HW248570   0.879   0.567   8.112 -0.0135  0.6312  0.7024
15184SOL     OW48571   2.059   0.987   0.073  0.3324 -0.0324 -0.2810
15184SOL    HW148572   1.985   0.962   0.129  1.7892 -1.5201  1.0056
15184SOL    HW248573   2.034   1.073   0.039 -2.0521 -0.5624  0.0186
15185SOL     OW48574   4.222   6.293   6.889  0.6357 -0.8731  0.1010
15185SOL    HW148575   4.218   6.226   6.821  1.3067 -2.5259  1.6423
15185SOL    HW248576   4.162   6.263   6.957  1.2249 -0.1121  0.9799
15186SOL     OW48577   7.168   1.357   3.291  0.4497 -0.2057 -0.1031
15186SOL    HW148578   7.109   1.283   3.304 -1.1461  1.2226  1.0319
15186SOL    HW248579   7.245   1.320   3.248 -1.0671 -2.1901 -1.1665
15187SOL     OW48580   7.352   9.346   1.483  0.2476  0.2122  0.4304
15187SOL    HW148581   7.333   9.322   1.573 -0.6693  1.3656  0.5494
15187SOL    HW248582   7.324   9.437   1.475 -1.4777 -0.4255 -1.5151
15188SOL     OW48583   9.296   9.351   2.164 -0.0102 -0.5315  0.8496
15188SOL    HW148584   9.373   9.342   2.220  0.6319 -2.3455 -0.2830
15188SOL    HW248585   9.229   9.299   2.207  0.4201 -1.7500  0.0644
15189SOL     OW48586   0.236   7.266   7.426 -0.4597  0.1801  0.2132
15189SOL    HW148587   0.245   7.326   7.500  1.1774  0.1133  0.0845
15189SOL    HW248588   0.282   7.187   7.453  1.6105  0.7475 -1.4933
15190SOL     OW48589   0.122   2.275   3.236  0.1536 -0.1525  1.1027
15190SOL    HW148590   0.158   2.349   3.285  0.0644  0.5035  0.1938
15190SOL    HW248591   0.184   2.262   3.164 -1.1391  0.6562 -0.1774
15191SOL     OW48592   8.495   2.605   5.485 -0.0537 -0.4215  0.2683
15191SOL    HW148593   8.584   2.571   5.491  0.4103  0.6647 -0.2654
15191SOL    HW248594   8.455   2.556   5.413 -0.5597 -2.3486  1.8225
15192SOL     OW48595   2.255   0.496   4.039  0.1040 -0.5445  0.1018
15192SOL    HW148596   2.212   0.421   3.998 -0.1548 -1.1139  1.3891
15192SOL    HW248597   2.224   0.495   4.129 -0.3171  1.4453 -0.0032
15193SOL     OW48598   4.677   5.385   4.432 -0.7278 -0.1029  0.5126
15193SOL    HW148599   4.706   5.425   4.514 -0.8696 -0.9595  0.9814
15193SOL    HW248600   4.746   5.324   4.408 -0.9069 -0.2056  0.2455
15194SOL     OW48601   6.148   8.098   8.494  0.2472 -0.2172  0.1934
15194SOL    HW148602   6.242   8.107   8.508 -0.1170  1.4897  1.8976
15194SOL    HW248603   6.119   8.187   8.473 -1.1055 -0.5739  0.5075
15195SOL     OW48604   4.337   1.709   3.470  0.6179  0.0333  0.2570
15195SOL    HW148605   4.280   1.645   3.427  0.7955 -0.4252  0.7135
15195SOL    HW248606   4.426   1.676   3.455  0.7124  0.1983  0.4546
15196SOL     OW48607   7.783   0.992   3.072  0.3684 -0.0673  0.6745
15196SOL    HW148608   7.868   1.002   3.115  0.2122  0.3761  0.8797
15196SOL    HW248609   7.800   1.013   2.980  0.4297  0.2643  0.7618
15197SOL     OW48610   7.036   4.449   9.343  0.3098 -0.1855  0.1360
15197SOL    HW148611   7.036   4.506   9.266  2.0335  0.3140  0.4780
15197SOL    HW248612   7.098   4.379   9.321 -0.8748 -1.2824  0.2048
15198SOL     OW48613   0.445   5.249   0.418 -0.2588 -0.5055 -0.4977
15198SOL    HW148614   0.517   5.248   0.482 -0.9550  0.1137  0.3057
15198SOL    HW248615   0.468   5.180   0.356  1.0034 -0.3517 -0.2181
15199SOL     OW48616   8.706   3.156   0.453  0.1141 -0.4768  0.0116
15199SOL    HW148617   8.630   3.097   0.448 -0.3811  0.2455 -1.0982
15199SOL    HW248618   8.766   3.124   0.386  0.3070 -0.3552  0.1253
15200SOL     OW48619   5.285   4.932   4.792  0.1572 -0.1821  0.5534
15200SOL    HW148620   5.345   4.881   4.738  0.4956  0.5762  0.1897
15200SOL    HW248621   5.201   4.926   4.747 -0.2156 -1.8439  1.4589
15201SOL     OW48622   2.638   8.949   2.339 -0.3278 -0.2954 -0.1134
15201SOL    HW148623   2.732   8.937   2.351  0.2425 -0.1338 -3.9011
15201SOL    HW248624   2.629   8.990   2.253 -3.8826 -0.6418  0.0050
15202SOL     OW48625   2.976   8.273   8.137 -0.3368 -0.6904  0.4747
15202SOL    HW148626   3.039   8.332   8.177 -1.1975 -0.5815  1.6945
15202SOL    HW248627   2.898   8.326   8.123 -0.1376 -0.7930 -1.1275
15203SOL     OW48628   0.634   6.053   8.178  0.2635 -0.0519 -0.7452
15203SOL    HW148629   0.694   6.092   8.242 -0.8933  0.4151  0.0528
15203SOL    HW248630   0.596   5.978   8.223  0.4064 -0.4895 -1.3395
15204SOL     OW48631   9.376   6.625   6.558  0.4693  0.7788  0.9092
15204SOL    HW148632   9.298   6.655   6.511  0.0904 -2.3215 -0.6175
15204SOL    HW248633   9.446   6.632   6.494  0.5884 -0.4129  0.8930
15205SOL     OW48634   4.017   8.738   8.377 -0.0973  0.1723 -0.4598
15205SOL    HW148635   3.981   8.743   8.289 -0.6266 -0.3838 -0.2766
15205SOL    HW248636   3.944   8.761   8.435  0.9393  3.2605 -0.2808
15206SOL     OW48637   5.494   4.429   7.781  0.6512 -0.3502  0.1734
15206SOL    HW148638   5.567   4.388   7.734  0.0125 -0.9248 -0.3273
15206SOL    HW248639   5.495   4.389   7.868  0.2026 -1.2390 -0.2241
15207SOL     OW48640   3.533   3.310   1.574 -0.4661 -0.7422  0.1167
15207SOL    HW148641   3.599   3.267   1.520 -0.7532  0.6975 -1.4156
15207SOL    HW248642   3.565   3.301   1.663  1.3892 -0.7632 -0.5349
15208SOL     OW48643   9.169   0.604   3.818  0.1785 -0.5327 -0.1645
15208SOL    HW148644   9.117   0.668   3.769 -0.7816 -1.4365 -0.3480
15208SOL    HW248645   9.231   0.569   3.755 -1.5296 -2.2217 -0.9800
15209SOL     OW48646   4.777   2.084   6.825 -0.0470  0.1701  0.3722
15209SOL    HW148647   4.857   2.041   6.856 -0.4055  0.9288  2.4227
15209SOL    HW248648   4.721   2.013   6.795  1.5115 -0.3460 -1.3839
15210SOL     OW48649   9.407   2.216   9.150 -0.0918 -0.0653  0.1817
15210SOL    HW148650   9.413   2.269   9.230  0.8314  0.4580 -0.2198
15210SOL    HW248651   9.448   2.270   9.083 -1.0712 -0.4167 -0.6972
15211SOL     OW48652   8.956   1.412   8.056  0.2945 -0.1232 -0.0248
15211SOL    HW148653   8.927   1.327   8.090 -0.5411 -0.2664 -1.0761
15211SOL    HW248654   8.885   1.441   8.000  1.7594 -0.0143 -1.8661
15212SOL     OW48655   3.556   1.189   1.611 -0.2593 -0.9607  0.4656
15212SOL    HW148656   3.570   1.188   1.706 -0.9748 -1.4206  0.5705
15212SOL    HW248657   3.512   1.272   1.595  1.8399  0.1318  0.2359
15213SOL     OW48658   8.290   4.653   5.448  0.1939  0.2681 -0.5690
15213SOL    HW148659   8.307   4.609   5.531 -1.5545  1.2374  0.3457
15213SOL    HW248660   8.258   4.584   5.391  0.8655 -0.2999 -0.2646
15214SOL     OW48661   2.858   4.925   3.245  0.4264  0.2924 -0.6003
15214SOL    HW148662   2.849   5.018   3.226  0.9373 -0.4068 -4.7901
15214SOL    HW248663   2.768   4.892   3.247  0.2342  0.8884  1.1306
15215SOL     OW48664   3.667   8.899   6.087 -0.1905  0.0994 -0.2321
15215SOL    HW148665   3.735   8.913   6.020  0.9145 -0.3241  0.7882
15215SOL    HW248666   3.671   8.976   6.143  0.6891 -0.7331  0.8822
15216SOL     OW48667   3.464   3.417   9.334 -0.4453 -0.0889 -0.5398
15216SOL    HW148668   3.525   3.482   9.369 -0.7791  0.9611 -1.8705
15216SOL    HW248669   3.478   3.339   9.389  0.8078  0.7095  0.3064
15217SOL     OW48670   0.454   4.441   8.789 -0.3439 -0.2990 -0.0949
15217SOL    HW148671   0.478   4.349   8.778  0.1911  0.0505 -2.0124
15217SOL    HW248672   0.495   4.486   8.715 -0.2142  1.5637  1.0658
15218SOL     OW48673   2.120   8.872   5.430 -0.3642  0.2291  0.2213
15218SOL    HW148674   2.136   8.793   5.482  0.1940  1.5846  2.1556
15218SOL    HW248675   2.094   8.839   5.344  0.4035 -2.0627  0.8298
15219SOL     OW48676   3.152   6.198   0.930 -0.0755 -0.1716  0.8863
15219SOL    HW148677   3.078   6.247   0.893  1.5274  1.2897 -0.4711
15219SOL    HW248678   3.147   6.112   0.888 -0.5579  0.1755  0.2145
15220SOL     OW48679   0.846   2.738   6.618  0.4143 -0.4398  0.5194
15220SOL    HW148680   0.822   2.813   6.563 -0.8026  0.6402  2.4740
15220SOL    HW248681   0.777   2.674   6.602  1.2941 -1.0643 -0.9239
15221SOL     OW48682   4.399   2.181   5.812 -0.1922 -0.0528 -0.7975
15221SOL    HW148683   4.348   2.130   5.875  1.9267  1.3845  2.2553
15221SOL    HW248684   4.425   2.117   5.745 -1.0600 -2.0792  0.7231
15222SOL     OW48685   1.532   5.993   3.718 -0.0354 -0.2568 -0.3428
15222SOL    HW148686   1.527   5.964   3.810 -0.1080 -1.3804 -0.6962
15222SOL    HW248687   1.598   6.062   3.719  0.5939 -0.8479  0.4235
15223SOL     OW48688   5.890   2.547   4.982  0.2065  0.5668  0.2799
15223SOL    HW148689   5.834   2.499   4.922  0.0049  1.8245 -0.5409
15223SOL    HW248690   5.978   2.537   4.946  0.3787 -0.4782  0.9648
15224SOL     OW48691   5.304   3.066   3.735 -0.3899 -0.2617 -0.1808
15224SOL    HW148692   5.340   2.990   3.781 -0.0724 -1.6092 -2.5605
15224SOL    HW248693   5.367   3.136   3.749  1.1255 -1.4534 -0.8874
15225SOL     OW48694   0.307   7.373   6.055  0.8184  0.0651  0.6580
15225SOL    HW148695   0.237   7.309   6.047 -0.1146  1.0590  0.7618
15225SOL    HW248696   0.388   7.323   6.041 -0.0364 -0.6317 -2.1018
15226SOL     OW48697   8.978   8.792   4.055 -0.1561  0.3409 -0.1446
15226SOL    HW148698   9.003   8.879   4.023 -2.6015  0.3229 -2.3153
15226SOL    HW248699   9.032   8.732   4.004  0.6871  0.5486  0.5025
15227SOL     OW48700   7.441   9.129   0.134  0.2166  0.0614 -0.0728
15227SOL    HW148701   7.412   9.161   0.049 -0.0693 -1.9904 -0.7568
15227SOL    HW248702   7.534   9.113   0.124 -0.2864 -2.6399 -0.8096
15228SOL     OW48703   3.154   0.428   3.832 -0.8730 -0.2025 -0.3422
15228SOL    HW148704   3.216   0.398   3.765 -1.4658 -2.3195  0.0517
15228SOL    HW248705   3.093   0.484   3.783 -0.9513 -1.2471 -1.4748
15229SOL     OW48706   9.142   7.645   4.243 -0.1045 -0.4654 -0.1832
15229SOL    HW148707   9.140   7.549   4.240 -0.7612 -0.4339 -5.0612
15229SOL    HW248708   9.058   7.670   4.281 -0.2520 -1.8047  0.3969
15230SOL     OW48709   8.870   4.050   3.529  0.5290  0.8131 -0.1150
15230SOL    HW148710   8.827   4.104   3.462  0.1520 -0.2478 -0.7358
15230SOL    HW248711   8.853   3.960   3.502  1.7589  0.3755  0.5277
15231SOL     OW48712   7.546   6.643   1.722  0.6552 -0.2147  0.0121
15231SOL    HW148713   7.638   6.658   1.748  1.6139 -2.1199 -2.1298
15231SOL    HW248714   7.530   6.551   1.745 -1.3811  0.6260  2.1552
15232SOL     OW48715   4.417   7.779   4.488  0.1327  0.5220 -0.0172
15232SOL    HW148716   4.470   7.797   4.566  1.7655  0.2570 -1.0468
15232SOL    HW248717   4.440   7.848   4.426  0.3542 -0.4278 -1.0072
15233SOL     OW48718   2.583   0.640   1.243 -0.0414  0.4533  0.0577
15233SOL    HW148719   2.641   0.694   1.298 -0.6163  0.8621  0.2736
15233SOL    HW248720   2.608   0.662   1.154  0.1239  0.6464  0.1498
15234SOL     OW48721   3.608   8.602   3.622 -0.4713  0.5814 -0.3383
15234SOL    HW148722   3.583   8.605   3.530  2.1057  1.7839 -1.0417
15234SOL    HW248723   3.701   8.579   3.622 -0.7476 -0.7342  2.0292
15235SOL     OW48724   7.028   5.124   3.202 -0.2112  0.6200 -0.2112
15235SOL    HW148725   7.056   5.214   3.186  1.4789  0.1139 -0.2650
15235SOL    HW248726   6.985   5.098   3.121 -0.0657  1.1495 -0.4639
15236SOL     OW48727   1.726   1.098   7.515 -0.1770 -0.3141 -0.5838
15236SOL    HW148728   1.681   1.029   7.563 -0.8359  0.3920 -0.1781
15236SOL    HW248729   1.804   1.117   7.568 -0.0655 -0.6598 -0.6275
15237SOL     OW48730   1.911   3.885   8.686  0.0701 -0.0188 -0.2080
15237SOL    HW148731   1.973   3.820   8.720 -2.7844 -2.3854  0.6838
15237SOL    HW248732   1.928   3.887   8.591  0.9640 -1.2282 -0.0846
15238SOL     OW48733   8.532   8.346   0.694  0.6057  0.4408 -0.3851
15238SOL    HW148734   8.491   8.262   0.670 -0.5866  0.7878  0.3603
15238SOL    HW248735   8.595   8.324   0.763  0.7315  0.0683 -0.6213
15239SOL     OW48736   8.614   5.473   1.402  0.1398 -0.3697 -0.0444
15239SOL    HW148737   8.677   5.440   1.338  0.8850  0.0274  0.4811
15239SOL    HW248738   8.598   5.398   1.460 -0.0846 -0.5505 -0.3333
15240SOL     OW48739   0.538   6.489   6.288 -0.1517 -0.4116  0.1311
15240SOL    HW148740   0.495   6.564   6.247 -0.5755 -0.0667  1.2078
15240SOL    HW248741   0.478   6.416   6.273  1.2063 -1.0203 -2.7435
15241SOL     OW48742   8.122   2.705   7.773 -0.3464 -0.1043 -0.1683
15241SOL    HW148743   8.183   2.647   7.727 -0.4485 -1.3680  1.2519
15241SOL    HW248744   8.036   2.682   7.739 -0.2109  0.4666 -0.9038
15242SOL     OW48745   1.937   1.342   3.804  0.2520 -0.1026  0.2176
15242SOL    HW148746   1.986   1.423   3.793  0.9842 -0.5087  0.4382
15242SOL    HW248747   2.004   1.274   3.810 -0.3164 -0.6198  0.9075
15243SOL     OW48748   8.643   1.751   2.393 -0.1465  0.4499 -0.9007
15243SOL    HW148749   8.730   1.713   2.409 -0.4181  0.9450  1.9630
15243SOL    HW248750   8.621   1.723   2.304  1.8784 -1.7419 -0.7575
15244SOL     OW48751   3.026   7.727   1.635 -0.4660  0.3595 -0.1048
15244SOL    HW148752   3.113   7.692   1.615  0.3402  0.2388  3.3649
15244SOL    HW248753   3.043   7.814   1.670 -1.8325  0.7849 -0.4899
15245SOL     OW48754   4.994   3.609   4.334  0.0009  0.0266 -0.0885
15245SOL    HW148755   4.963   3.561   4.412  0.0778 -0.8095 -0.5687
15245SOL    HW248756   5.073   3.654   4.364  0.2483 -0.6035  0.2227
15246SOL     OW48757   8.343   9.132   6.993 -0.2199  0.0839 -0.4341
15246SOL    HW148758   8.400   9.071   7.040 -0.8720 -0.8078 -0.8048
15246SOL    HW248759   8.402   9.178   6.933  0.0486 -1.1059 -1.0950
15247SOL     OW48760   6.552   0.736   3.242 -0.3509 -0.6984  0.0492
15247SOL    HW148761   6.561   0.831   3.235 -0.5308 -0.8100 -2.3290
15247SOL    HW248762   6.593   0.713   3.325  0.5491  1.3490  0.1829
15248SOL     OW48763   3.907   9.441   5.356 -0.0309 -0.2357 -0.4766
15248SOL    HW148764   3.848   9.480   5.421  2.3693  2.2531  0.3339
15248SOL    HW248765   3.870   9.467   5.272 -1.7768 -1.3483 -0.0887
15249SOL     OW48766   7.737   8.679   0.278  0.3008 -0.2093  0.0861
15249SOL    HW148767   7.791   8.611   0.320  1.2743 -0.3177 -1.2953
15249SOL    HW248768   7.792   8.758   0.282  0.6747 -0.3725 -1.5233
15250SOL     OW48769   6.091   7.020   5.330  0.0397 -0.2054  0.2568
15250SOL    HW148770   6.162   7.054   5.385 -0.0672 -0.6589  0.6738
15250SOL    HW248771   6.047   6.955   5.385 -0.1065 -0.6122 -0.3461
15251SOL     OW48772   0.336   0.451   9.376  0.1724 -0.3185  0.0922
15251SOL    HW148773   0.402   0.497   9.324  1.5168 -1.1790  0.9801
15251SOL    HW248774   0.335   0.498   9.460  0.7800 -1.2283  0.6224
15252SOL     OW48775   8.341   4.352   6.712  0.0513  0.5478 -0.2626
15252SOL    HW148776   8.300   4.426   6.666  0.7589  1.6405  0.8405
15252SOL    HW248777   8.419   4.389   6.752  0.2657 -0.7457  0.5362
15253SOL     OW48778   6.111   6.274   8.705  0.1997  0.4755 -0.1672
15253SOL    HW148779   6.176   6.226   8.756 -0.9286 -0.9735 -0.0720
15253SOL    HW248780   6.029   6.227   8.720 -0.4896  1.0982 -1.8927
15254SOL     OW48781   9.039   6.788   7.603 -0.3816 -0.1744  0.4720
15254SOL    HW148782   9.098   6.818   7.672 -0.6399  0.6123  0.3619
15254SOL    HW248783   8.952   6.818   7.631 -0.4540  0.3774 -0.3119
15255SOL     OW48784   7.568   4.762   5.333 -0.1894 -0.3748 -0.1142
15255SOL    HW148785   7.628   4.732   5.403  0.6361  0.4890 -0.4469
15255SOL    HW248786   7.525   4.682   5.303 -0.5028 -0.7680  1.3407
15256SOL     OW48787   0.147   5.371   9.072 -0.0609 -0.3494  0.7468
15256SOL    HW148788   0.238   5.386   9.045 -0.3090  1.4442  0.8430
15256SOL    HW248789   0.099   5.364   8.990 -0.0835  0.3775  0.6924
15257SOL     OW48790   5.451   3.114   4.123 -0.3172 -0.2931 -0.4933
15257SOL    HW148791   5.377   3.164   4.087 -0.0170 -0.1080 -0.8612
15257SOL    HW248792   5.468   3.154   4.208  0.1739  0.4943 -0.9519
15258SOL     OW48793   1.129   1.238   6.353 -0.3158 -0.0735 -0.6214
15258SOL    HW148794   1.065   1.199   6.413  0.1891  0.1400  0.0617
15258SOL    HW248795   1.212   1.234   6.401  0.0214  0.4349 -1.1640
15259SOL     OW48796   7.232   0.193   4.395 -0.2661  0.3246  0.4081
15259SOL    HW148797   7.202   0.177   4.485 -0.5803  2.7532  0.7721
15259SOL    HW248798   7.151   0.203   4.344 -0.1279  2.2085  0.5094
15260SOL     OW48799   1.245   1.085   4.804  0.5099  0.3874 -0.0910
15260SOL    HW148800   1.281   1.109   4.890 -0.5122  1.0284  0.1648
15260SOL    HW248801   1.273   0.994   4.791  0.9120  0.3801  0.7974
15261SOL     OW48802   5.131   2.230   0.434 -0.0668 -0.4884  0.8680
15261SOL    HW148803   5.187   2.261   0.506  0.0210  0.5120  0.3827
15261SOL    HW248804   5.177   2.255   0.354  0.3327 -2.5034  0.4355
15262SOL     OW48805   7.538   6.116   7.803  0.4664  0.1380  0.0404
15262SOL    HW148806   7.620   6.085   7.764  1.0076  1.4893  0.0737
15262SOL    HW248807   7.544   6.212   7.799 -1.9311  0.2822 -1.6869
15263SOL     OW48808   3.081   5.470   6.031 -0.5120 -0.0120 -0.5656
15263SOL    HW148809   3.081   5.384   5.988 -0.7793 -0.3918  0.1755
15263SOL    HW248810   3.173   5.486   6.051 -0.4605 -0.1339 -0.7001
15264SOL     OW48811   4.553   7.900   4.697  0.0278  0.0520 -0.1215
15264SOL    HW148812   4.477   7.958   4.706 -0.6931 -0.7807 -0.6452
15264SOL    HW248813   4.608   7.919   4.773 -1.4534 -0.3945  1.1071
15265SOL     OW48814   4.255   4.702   6.669  0.4957 -0.2925  0.0340
15265SOL    HW148815   4.247   4.690   6.764 -0.6390  0.6666  0.0786
15265SOL    HW248816   4.164   4.712   6.639  0.9237  0.7529 -0.9608
15266SOL     OW48817   0.526   5.088   0.234  0.0414 -0.7468  0.6870
15266SOL    HW148818   0.609   5.077   0.188  0.3010  0.9564  0.7344
15266SOL    HW248819   0.459   5.071   0.167  0.4201  1.2622 -0.2364
15267SOL     OW48820   1.734   5.867   4.598  0.8712 -0.2359  0.1226
15267SOL    HW148821   1.744   5.935   4.664 -3.2460  0.9104 -0.3469
15267SOL    HW248822   1.719   5.915   4.516  0.4502 -1.6949 -0.6693
15268SOL     OW48823   7.802   7.573   6.107 -0.5436  0.4282 -0.1692
15268SOL    HW148824   7.798   7.487   6.065 -0.7493 -0.6458  1.9664
15268SOL    HW248825   7.895   7.587   6.125 -0.4860  0.7665 -0.7144
15269SOL     OW48826   5.466   5.209   6.616  0.1664  0.0674  0.3584
15269SOL    HW148827   5.402   5.197   6.687 -2.8883 -0.7783 -2.3952
15269SOL    HW248828   5.481   5.304   6.615 -0.3353  0.1839  1.6523
15270SOL     OW48829   4.713   3.676   6.121  0.3986  0.0996  0.2583
15270SOL    HW148830   4.763   3.597   6.101  1.2847  1.0611 -1.3655
15270SOL    HW248831   4.775   3.733   6.166  0.0912  0.3514  0.3635
15271SOL     OW48832   7.084   7.730   3.594  0.0752 -0.4937  0.0575
15271SOL    HW148833   7.084   7.819   3.628  1.9836 -0.1286 -0.8243
15271SOL    HW248834   6.997   7.719   3.555 -0.9604  0.1996  2.1029
15272SOL     OW48835   1.187   6.326   6.365 -0.6836 -0.2199  0.0716
15272SOL    HW148836   1.258   6.378   6.403 -0.1083 -0.5260 -0.5710
15272SOL    HW248837   1.121   6.322   6.434 -0.6727  1.2304  0.1715
15273SOL     OW48838   4.289   5.762   7.245 -0.3730  0.0314  0.3370
15273SOL    HW148839   4.307   5.818   7.320  1.4457 -0.2964  0.1683
15273SOL    HW248840   4.372   5.718   7.228 -1.4165 -1.7273 -0.3440
15274SOL     OW48841   4.027   4.881   7.464 -0.1277 -0.0864  0.0125
15274SOL    HW148842   3.978   4.961   7.484 -1.6304 -0.4347 -2.0448
15274SOL    HW248843   4.025   4.831   7.546 -0.3947  1.3591  0.9072
15275SOL     OW48844   0.577   6.231   1.843 -0.1620  0.4963 -0.3286
15275SOL    HW148845   0.537   6.217   1.929  1.0593 -2.5467 -0.1936
15275SOL    HW248846   0.669   6.249   1.862 -0.4605  2.7957 -0.8867
15276SOL     OW48847   1.502   6.460   0.016 -0.5213 -0.5999 -0.0124
15276SOL    HW148848   1.518   6.553   0.032  4.2459 -1.1970 -0.3997
15276SOL    HW248849   1.439   6.434   0.083 -0.7291  2.5625  1.1078
15277SOL     OW48850   2.705   1.154   3.427  0.4372  0.1445  0.6756
15277SOL    HW148851   2.660   1.182   3.348  0.0473 -0.3516  0.7179
15277SOL    HW248852   2.643   1.171   3.498  1.0509  1.2296  0.9603
15278SOL     OW48853   3.479   1.089   8.461 -0.4993  0.1616 -0.3328
15278SOL    HW148854   3.518   1.046   8.536  0.6480 -0.8180 -1.4773
15278SOL    HW248855   3.531   1.168   8.448 -1.3479  0.8757  0.5265
15279SOL     OW48856   1.185   3.266   1.505  0.0461 -0.4913 -0.4079
15279SOL    HW148857   1.260   3.324   1.495  0.1845 -0.3903  1.0913
15279SOL    HW248858   1.222   3.178   1.507  0.1162 -0.4549  0.0966
15280SOL     OW48859   5.644   1.033   8.231 -0.2794 -0.1985  0.0454
15280SOL    HW148860   5.583   0.960   8.241 -0.5983 -0.0327 -0.6859
15280SOL    HW248861   5.671   1.029   8.139  0.9301 -0.3718  0.3921
15281SOL     OW48862   1.807   9.438   6.008 -0.5970 -0.0966  0.0101
15281SOL    HW148863   1.734   9.472   5.956  1.4558  0.8072 -2.3649
15281SOL    HW248864   1.851   9.377   5.950  2.9908  2.5080 -0.1852
15282SOL     OW48865   5.578   7.701   9.116 -0.4446 -0.0440  0.0672
15282SOL    HW148866   5.628   7.622   9.092  1.5986  1.5893 -1.2304
15282SOL    HW248867   5.487   7.677   9.100  0.1853 -1.9502 -0.9174
15283SOL     OW48868   6.567   9.283   8.190  0.1476  0.3453 -0.0248
15283SOL    HW148869   6.576   9.332   8.272 -0.4225 -0.6752  0.6649
15283SOL    HW248870   6.601   9.196   8.211 -1.6502 -0.4633 -0.3468
15284SOL     OW48871   3.667   5.516   6.046 -0.4297  0.5946 -0.1914
15284SOL    HW148872   3.698   5.520   5.956  0.3867  2.4559  0.1514
15284SOL    HW248873   3.647   5.424   6.060 -1.6737  0.4596 -2.6347
15285SOL     OW48874   8.509   7.015   0.673 -0.3989 -0.2170 -0.2368
15285SOL    HW148875   8.439   6.966   0.717 -0.3433 -0.2611 -0.1972
15285SOL    HW248876   8.509   7.101   0.717 -0.2099 -0.3293 -0.0104
15286SOL     OW48877   4.592   5.236   5.974  0.2113  0.0782 -0.4284
15286SOL    HW148878   4.684   5.253   5.950  0.9865 -0.2756  2.1580
15286SOL    HW248879   4.595   5.215   6.067 -2.4324 -0.7096 -0.4836
15287SOL     OW48880   0.859   5.252   9.350 -0.5793 -0.4208 -0.5236
15287SOL    HW148881   0.829   5.185   9.289  1.3381  0.4141 -2.4889
15287SOL    HW248882   0.954   5.241   9.353 -0.5473  0.2714  1.4729
15288SOL     OW48883   5.200   1.168   3.050 -0.3279  0.2573  0.5917
15288SOL    HW148884   5.111   1.202   3.041 -1.1425 -2.3365 -1.6230
15288SOL    HW248885   5.198   1.117   3.131 -1.1047 -0.4289  0.1517
15289SOL     OW48886   0.377   4.585   3.215 -0.5251 -0.3840  0.3350
15289SOL    HW148887   0.464   4.621   3.201 -0.4551 -0.2778  1.0000
15289SOL    HW248888   0.373   4.506   3.162 -0.3155  0.0543 -0.3398
15290SOL     OW48889   8.330   6.442   4.417 -0.3308  0.1339 -0.3487
15290SOL    HW148890   8.317   6.463   4.324 -1.8589  0.4379 -0.0892
15290SOL    HW248891   8.347   6.348   4.418 -0.3113  0.1293 -0.9344
15291SOL     OW48892   3.786   6.697   2.698 -0.0765 -0.2215  0.3989
15291SOL    HW148893   3.879   6.682   2.712 -0.3786 -2.0805  0.5595
15291SOL    HW248894   3.759   6.628   2.638 -1.1722  0.8377 -0.3627
15292SOL     OW48895   7.869   6.486   0.717  0.4788 -0.2201  0.2828
15292SOL    HW148896   7.811   6.421   0.677  1.3614 -1.0630  0.3656
15292SOL    HW248897   7.957   6.459   0.690  1.0454 -0.5251  2.4006
15293SOL     OW48898   7.275   2.016   4.959  0.3632  0.2801 -0.1286
15293SOL    HW148899   7.338   1.992   4.891  0.0569 -0.0807 -0.2784
15293SOL    HW248900   7.231   2.093   4.924  1.4000  1.1366  0.3885
15294SOL     OW48901   8.253   3.979   2.850 -0.1156 -0.6165 -0.0637
15294SOL    HW148902   8.173   3.932   2.825 -0.7985 -0.5152  1.8670
15294SOL    HW248903   8.222   4.061   2.888  0.9322 -0.3219  0.1720
15295SOL     OW48904   8.133   5.139   9.293  0.0110  0.1273 -0.0049
15295SOL    HW148905   8.184   5.166   9.216  0.8123  0.3300  0.5970
15295SOL    HW248906   8.116   5.046   9.279  2.6128 -0.5413  0.9422
15296SOL     OW48907   2.776   0.455   7.810  0.0630  0.0452 -0.1745
15296SOL    HW148908   2.867   0.457   7.782  0.1959  1.1461  0.3185
15296SOL    HW248909   2.733   0.396   7.748  1.4841 -1.9897  0.7404
15297SOL     OW48910   5.863   1.321   4.901  0.0498 -0.6445  0.0406
15297SOL    HW148911   5.875   1.396   4.842 -0.4852 -2.6895 -2.7950
15297SOL    HW248912   5.951   1.298   4.928  0.2898  0.4608  0.2244
15298SOL     OW48913   1.565   0.403   8.606  0.0132  0.8346 -0.1566
15298SOL    HW148914   1.586   0.458   8.682  0.8026  1.4770 -0.8316
15298SOL    HW248915   1.492   0.349   8.636  1.5627 -0.3320  1.7198
15299SOL     OW48916   8.915   8.019   4.854  0.5991  0.2692 -0.0126
15299SOL    HW148917   8.898   8.061   4.770 -1.6040 -0.7770 -0.1028
15299SOL    HW248918   8.934   8.092   4.914  0.1282  1.1431 -0.9226
15300SOL     OW48919   1.272   3.730   1.407 -0.1082 -0.0658  0.1522
15300SOL    HW148920   1.225   3.812   1.391  1.9839  1.0320 -0.7121
15300SOL    HW248921   1.315   3.744   1.491  1.2059  0.2377 -0.5445
15301SOL     OW48922   3.827   9.073   4.571 -0.5550 -0.3751 -0.3346
15301SOL    HW148923   3.895   9.023   4.616  0.3453  0.7563 -0.4302
15301SOL    HW248924   3.782   9.008   4.517 -1.5572 -1.7383  2.0377
15302SOL     OW48925   1.565   8.125   7.000  0.4064  0.0664 -0.4416
15302SOL    HW148926   1.557   8.219   6.986 -2.2113 -0.2509 -1.3341
15302SOL    HW248927   1.504   8.106   7.071  1.1211 -0.9232 -0.0793
15303SOL     OW48928   3.933   7.561   6.808 -0.5481  0.5115  0.7672
15303SOL    HW148929   3.942   7.655   6.823 -1.3283  1.2440 -2.7853
15303SOL    HW248930   4.016   7.536   6.766 -0.8896 -0.0782  0.4423
15304SOL     OW48931   5.301   7.130   3.524  0.3317 -0.7682  0.1165
15304SOL    HW148932   5.269   7.219   3.511  2.2817  0.1638  1.4061
15304SOL    HW248933   5.339   7.131   3.612  2.2812 -2.2978 -0.6739
15305SOL     OW48934   0.940   3.353   6.331 -0.3023  0.0106 -0.0844
15305SOL    HW148935   0.890   3.354   6.413  1.5915 -2.0646  1.1465
15305SOL    HW248936   0.936   3.263   6.300  2.1210 -0.0795 -0.2768
15306SOL     OW48937   1.772   6.220   5.749  0.2206 -0.1998  0.1571
15306SOL    HW148938   1.715   6.170   5.808  0.2965 -0.4510  0.0162
15306SOL    HW248939   1.811   6.287   5.804 -1.5323  1.0610 -0.0801
15307SOL     OW48940   8.780   6.566   3.067 -0.1114  0.4274  0.1020
15307SOL    HW148941   8.751   6.635   3.127 -2.5469  0.0054 -0.5237
15307SOL    HW248942   8.868   6.543   3.097 -0.2131  2.1338  1.7877
15308SOL     OW48943   9.134   2.575   5.558 -0.1041  0.1651  0.4467
15308SOL    HW148944   9.047   2.535   5.565  0.2391 -0.6533  0.0947
15308SOL    HW248945   9.188   2.525   5.619  0.1381  0.6424  0.6321
15309SOL     OW48946   9.060   7.064   1.784  0.5361  0.0984  0.5199
15309SOL    HW148947   9.097   6.999   1.844 -0.0399  0.9820  1.8537
15309SOL    HW248948   9.133   7.121   1.763 -0.2163  2.5415  4.0801
15310SOL     OW48949   0.161   4.468   0.233 -0.3655 -0.1413  0.3457
15310SOL    HW148950   0.165   4.512   0.318  1.3972  1.2008 -0.3872
15310SOL    HW248951   0.230   4.402   0.237  0.2059  0.4089 -0.2902
15311SOL     OW48952   0.441   6.047   9.025  0.1479  0.5052 -0.3072
15311SOL    HW148953   0.379   6.092   8.968  0.8080  0.0498 -1.3981
15311SOL    HW248954   0.400   5.962   9.043  0.2245  0.3947 -0.6361
15312SOL     OW48955   2.850   2.002   7.385  0.0888 -0.4806 -0.1511
15312SOL    HW148956   2.874   1.959   7.303 -0.2700 -0.9203 -0.0277
15312SOL    HW248957   2.934   2.023   7.426  0.2740  0.5301 -1.0356
15313SOL     OW48958   1.728   7.881   9.336 -0.8185 -0.1942 -0.3672
15313SOL    HW148959   1.795   7.948   9.326 -0.4452 -0.4881  0.1465
15313SOL    HW248960   1.776   7.798   9.335 -1.2189 -0.4284 -0.4419
15314SOL     OW48961   4.960   1.868   9.161 -0.0081  0.3180  0.1034
15314SOL    HW148962   5.007   1.883   9.243 -0.1338  0.2661  0.1844
15314SOL    HW248963   4.953   1.955   9.120 -2.0351  0.7172  1.2608
15315SOL     OW48964   7.916   2.474   6.797  0.2879 -0.4461  0.0883
15315SOL    HW148965   7.844   2.475   6.860 -1.3198  0.5130 -1.7162
15315SOL    HW248966   7.990   2.440   6.847 -0.8931  0.3917  2.5275
15316SOL     OW48967   8.861   0.232   1.479 -0.0208  0.4362 -0.3318
15316SOL    HW148968   8.818   0.185   1.407  0.2026 -0.7035  0.2803
15316SOL    HW248969   8.942   0.266   1.440 -0.9025  1.6009 -1.1762
15317SOL     OW48970   4.416   4.793   3.658 -0.4547 -0.3888 -0.2637
15317SOL    HW148971   4.397   4.714   3.708  1.8395 -1.5636 -1.1689
15317SOL    HW248972   4.478   4.841   3.714 -0.0391 -0.3659 -0.7400
15318SOL     OW48973   3.299   3.507   5.868  0.0297 -0.3715 -0.0464
15318SOL    HW148974   3.213   3.540   5.841 -0.0514 -0.6520 -0.1381
15318SOL    HW248975   3.354   3.518   5.791 -0.3781 -1.8076 -0.5682
15319SOL     OW48976   1.640   5.741   2.974  0.2782 -0.0668 -0.4836
15319SOL    HW148977   1.720   5.709   2.932  0.0383 -2.0201  0.4824
15319SOL    HW248978   1.665   5.826   3.011  1.5236 -0.0432 -1.3258
15320SOL     OW48979   8.635   8.932   0.633 -0.4343 -0.5093  0.3203
15320SOL    HW148980   8.591   8.947   0.550  2.0488  1.1768 -0.7451
15320SOL    HW248981   8.685   9.012   0.649 -0.2453 -1.1129  3.0472
15321SOL     OW48982   4.658   1.800   6.461 -0.2601 -0.3000 -0.0645
15321SOL    HW148983   4.619   1.730   6.409  0.1201  0.1013 -0.9089
15321SOL    HW248984   4.601   1.875   6.446  1.0307  0.3958 -1.6146
15322SOL     OW48985   5.431   0.603   7.589 -0.1879  0.6218  0.2095
15322SOL    HW148986   5.485   0.569   7.661 -0.6032  0.0829  0.2680
15322SOL    HW248987   5.356   0.544   7.585 -0.1209  0.5929 -0.7335
15323SOL     OW48988   4.307   1.578   6.354  0.5079 -0.8131 -0.2153
15323SOL    HW148989   4.257   1.498   6.372  2.6439 -2.5092 -1.6579
15323SOL    HW248990   4.290   1.597   6.262 -0.7856  1.0142  0.3632
15324SOL     OW48991   3.314   7.862   4.979 -0.2886  0.0524 -0.2335
15324SOL    HW148992   3.240   7.911   5.015 -0.7247 -0.6773 -0.1064
15324SOL    HW248993   3.276   7.778   4.952  0.4897 -0.3297 -0.1740
15325SOL     OW48994   6.495   7.527   5.308  0.0043  0.1677 -0.7435
15325SOL    HW148995   6.454   7.602   5.352  0.0143  0.0871 -0.5943
15325SOL    HW248996   6.573   7.564   5.266  1.7898 -0.3025  1.9874
15326SOL     OW48997   7.968   6.208   2.616  0.4086  0.2007 -0.6693
15326SOL    HW148998   7.966   6.131   2.559  3.0598  0.5920 -1.4022
15326SOL    HW248999   7.898   6.264   2.582 -1.5071 -1.8137 -0.1626
15327SOL     OW49000   6.256   8.093   9.418  0.0494  0.1405 -0.1792
15327SOL    HW149001   6.345   8.121   9.398  0.1129  0.4204  0.4828
15327SOL    HW249002   6.229   8.042   9.342  0.1353  1.5668 -1.1887
15328SOL     OW49003   4.380   5.576   2.999 -0.2150 -0.1282  0.5267
15328SOL    HW149004   4.464   5.619   3.014  0.7397 -0.8418 -2.3805
15328SOL    HW249005   4.387   5.492   3.045  1.3714 -0.9123 -1.0882
15329SOL     OW49006   6.078   3.835   1.861 -0.3854 -0.3211  0.1606
15329SOL    HW149007   6.016   3.831   1.788  0.0900  2.3649 -0.4348
15329SOL    HW249008   6.024   3.857   1.937 -0.2194  1.7907 -0.3160
15330SOL     OW49009   1.923   7.440   8.665  0.1602 -0.2353  0.0746
15330SOL    HW149010   1.887   7.478   8.746 -0.7302  0.7583 -0.7773
15330SOL    HW249011   1.875   7.357   8.655  0.9701 -0.8413  1.0786
15331SOL     OW49012   0.350   1.300   4.445 -0.0727  0.2609  0.4983
15331SOL    HW149013   0.277   1.263   4.495  1.1476 -1.1513  1.3013
15331SOL    HW249014   0.334   1.394   4.443 -1.2835  0.0851  1.7024
15332SOL     OW49015   6.736   6.136   1.483 -0.2586 -0.4852  0.4388
15332SOL    HW149016   6.812   6.081   1.462 -0.6433 -1.8297  2.4894
15332SOL    HW249017   6.666   6.102   1.427 -0.2035 -1.3906  0.9071
15333SOL     OW49018   1.941   5.893   6.749 -0.2659 -0.4352  0.2776
15333SOL    HW149019   1.983   5.823   6.699  2.6823  0.8872  0.8075
15333SOL    HW249020   1.909   5.850   6.828 -1.3342 -1.7683 -0.8548
15334SOL     OW49021   5.778   4.012   5.379 -0.5282  0.0067 -0.4463
15334SOL    HW149022   5.733   4.080   5.330 -1.1120  1.0368  1.4766
15334SOL    HW249023   5.780   4.044   5.469 -0.1724 -2.1833  0.3659
15335SOL     OW49024   8.154   7.181   6.977 -0.1174 -0.1369  0.5053
15335SOL    HW149025   8.208   7.126   6.920 -1.1458 -0.2654 -0.3597
15335SOL    HW249026   8.217   7.233   7.027  0.8053 -0.0331 -0.7494
15336SOL     OW49027   3.806   7.346   6.611 -0.4115 -0.6180 -0.0287
15336SOL    HW149028   3.840   7.416   6.667 -0.0358 -1.3812  0.7171
15336SOL    HW249029   3.843   7.266   6.649 -0.3707 -1.1661 -1.2118
15337SOL     OW49030   8.151   3.213   7.159 -0.5629 -0.0002  0.5045
15337SOL    HW149031   8.214   3.142   7.147 -0.0854  0.5253 -0.1650
15337SOL    HW249032   8.194   3.272   7.222  1.0578  1.9816 -2.3442
15338SOL     OW49033   0.544   9.325   1.754 -0.6419  0.3776  0.0874
15338SOL    HW149034   0.562   9.311   1.661 -0.3396 -1.0424  0.3371
15338SOL    HW249035   0.448   9.330   1.759 -0.8597 -2.5266  0.0293
15339SOL     OW49036   3.113   4.745   7.042 -0.0337 -0.0037 -0.5500
15339SOL    HW149037   3.160   4.817   7.083  0.0230 -0.5327  0.3081
15339SOL    HW249038   3.148   4.666   7.083  0.0337 -0.5363 -1.6169
15340SOL     OW49039   4.422   8.757   1.487 -0.3836  0.1429 -0.9990
15340SOL    HW149040   4.514   8.733   1.491 -0.3398  0.3205 -0.9352
15340SOL    HW249041   4.411   8.823   1.556 -0.8552 -0.8779 -0.0796
15341SOL     OW49042   1.475   2.560   3.112 -0.1660 -0.1921 -0.1424
15341SOL    HW149043   1.549   2.513   3.150 -0.1867  0.8984  1.2840
15341SOL    HW249044   1.491   2.652   3.135 -2.1836  0.0031  0.5457
15342SOL     OW49045   4.541   5.047   6.807  0.9310 -0.1294  0.0001
15342SOL    HW149046   4.501   5.071   6.890 -0.0730 -1.2975 -0.1356
15342SOL    HW249047   4.575   4.958   6.820  0.3893 -0.4909 -0.9609
15343SOL     OW49048   6.166   6.863   5.992  0.5041  0.0444  0.3558
15343SOL    HW149049   6.090   6.805   5.998  0.7539 -0.3289  0.0135
15343SOL    HW249050   6.235   6.807   5.955  0.6915  0.6173 -0.1650
15344SOL     OW49051   7.400   4.764   7.328 -0.0320 -0.0504  0.1531
15344SOL    HW149052   7.407   4.668   7.321 -3.3530 -0.3660  0.1850
15344SOL    HW249053   7.307   4.782   7.313  0.6189  3.2364 -0.3024
15345SOL     OW49054   7.772   4.694   1.267 -0.5169 -0.1716  0.0304
15345SOL    HW149055   7.748   4.777   1.307 -0.5553 -0.0383 -0.2710
15345SOL    HW249056   7.701   4.634   1.292 -0.7233  0.0035 -0.1362
15346SOL     OW49057   1.113   4.151   9.379  0.3760 -0.4211  0.2711
15346SOL    HW149058   1.099   4.139   9.285  1.8834 -3.6563  0.3814
15346SOL    HW249059   1.027   4.137   9.419 -0.1215  0.2453 -0.5643
15347SOL     OW49060   3.894   7.444   2.136  0.0267  0.4965  0.2713
15347SOL    HW149061   3.960   7.445   2.206 -0.4601 -0.4250  0.7561
15347SOL    HW249062   3.823   7.391   2.172 -0.6082  0.7683 -0.5849
15348SOL     OW49063   6.211   1.470   7.547 -0.3594  0.0327  0.9755
15348SOL    HW149064   6.198   1.521   7.467 -2.7050  0.0121  1.3182
15348SOL    HW249065   6.254   1.531   7.607  0.0550  0.5156  0.1980
15349SOL     OW49066   7.688   3.932   2.730  0.4682 -0.2848  0.2256
15349SOL    HW149067   7.646   3.852   2.699 -0.9493 -0.4289  2.3714
15349SOL    HW249068   7.712   3.980   2.651 -1.9687 -1.1272 -1.0583
15350SOL     OW49069   7.808   2.863   4.788  0.0819  0.1789  0.3746
15350SOL    HW149070   7.851   2.878   4.872  0.5525  2.2978 -0.2304
15350SOL    HW249071   7.809   2.768   4.778  2.1964  0.0280  1.6385
15351SOL     OW49072   6.733   3.693   1.857 -0.3791 -0.1224 -0.2146
15351SOL    HW149073   6.701   3.623   1.799 -0.4687 -0.1988 -0.0728
15351SOL    HW249074   6.810   3.728   1.812 -1.0566  0.5162 -0.8955
15352SOL     OW49075   1.276   8.736   3.622 -0.1169 -0.0956  0.2222
15352SOL    HW149076   1.197   8.698   3.582  1.2020 -1.3617 -1.2823
15352SOL    HW249077   1.258   8.829   3.629 -2.6434 -0.6723  2.0650
15353SOL     OW49078   4.993   4.669   0.067 -0.0428 -0.1110 -0.2961
15353SOL    HW149079   5.004   4.687   0.161  0.4495  1.2428 -0.6028
15353SOL    HW249080   4.943   4.588   0.064  0.5962 -0.5824  1.1490
15354SOL     OW49081   1.766   9.181   2.187 -0.4665  0.2902  0.2141
15354SOL    HW149082   1.758   9.244   2.259 -0.0189 -0.1819  0.6844
15354SOL    HW249083   1.807   9.104   2.228 -1.5526 -0.5274 -0.2123
15355SOL     OW49084   1.377   3.172   8.773  0.6883  0.3839  0.0532
15355SOL    HW149085   1.463   3.183   8.812 -0.4434  0.0052  2.7903
15355SOL    HW249086   1.322   3.238   8.816 -0.8888 -0.8671  0.0285
15356SOL     OW49087   7.237   1.532   7.488  0.7356  0.2948  0.3558
15356SOL    HW149088   7.160   1.478   7.504  1.1117  0.0257  1.3206
15356SOL    HW249089   7.229   1.560   7.397 -0.3854  0.0924  0.3923
15357SOL     OW49090   2.479   8.168   6.758 -0.2229 -0.5619 -0.1589
15357SOL    HW149091   2.439   8.091   6.718 -0.2171 -0.3147 -0.6404
15357SOL    HW249092   2.572   8.161   6.735 -0.3583  0.0281 -0.9173
15358SOL     OW49093   9.073   2.078   3.051 -0.0444 -0.1544 -0.2137
15358SOL    HW149094   9.095   1.985   3.055 -0.7301 -0.3409 -0.8343
15358SOL    HW249095   9.123   2.117   3.123 -2.3196 -1.5302  2.1806
15359SOL     OW49096   5.762   1.040   5.197 -0.0890 -0.4461 -0.0539
15359SOL    HW149097   5.773   1.105   5.267  0.1284  0.6979 -1.1230
15359SOL    HW249098   5.670   1.047   5.172  0.1739  0.2246 -0.8838
15360SOL     OW49099   2.248   0.077   7.385  0.6416 -0.4286 -0.6436
15360SOL    HW149100   2.265   0.093   7.478 -1.5006  0.4323 -0.3598
15360SOL    HW249101   2.296   0.148   7.340 -0.9075  1.0782  0.0240
15361SOL     OW49102   5.727   3.067   4.564 -0.1956 -0.0783 -0.0410
15361SOL    HW149103   5.817   3.066   4.532 -0.4292  0.6823 -0.7589
15361SOL    HW249104   5.724   3.000   4.632  0.6412 -0.8738 -0.7683
15362SOL     OW49105   4.747   7.904   3.942 -0.1871 -0.0849 -0.1028
15362SOL    HW149106   4.760   7.852   4.021 -0.4648 -0.6366 -0.4206
15362SOL    HW249107   4.819   7.878   3.883 -1.4108 -1.5120 -0.9980
15363SOL     OW49108   2.688   8.616   3.138 -0.5119  0.2874  0.5939
15363SOL    HW149109   2.698   8.562   3.060 -2.0051  2.2045 -0.9965
15363SOL    HW249110   2.766   8.599   3.190  1.1451 -0.0385 -1.9479
15364SOL     OW49111   4.451   7.661   5.807  0.0565  0.1502 -0.2755
15364SOL    HW149112   4.427   7.753   5.816 -0.1016 -0.1342  3.0618
15364SOL    HW249113   4.453   7.645   5.713 -1.0849  3.2501 -0.8777
15365SOL     OW49114   5.964   8.289   4.915 -0.1196  0.4954  0.0836
15365SOL    HW149115   6.034   8.244   4.868  0.9614  0.6594  1.4767
15365SOL    HW249116   5.884   8.265   4.869  0.4105 -2.9200  0.7872
15366SOL     OW49117   1.434   6.148   0.306  0.1088  0.1811  0.3133
15366SOL    HW149118   1.368   6.160   0.375  1.2450  1.4558  1.1816
15366SOL    HW249119   1.518   6.150   0.352  0.9882  2.8822 -1.3087
15367SOL     OW49120   0.113   9.265   4.194 -0.3827 -0.2413 -0.0382
15367SOL    HW149121   0.033   9.214   4.198 -1.2429  1.1562  0.6585
15367SOL    HW249122   0.116   9.297   4.104 -0.9365  0.2465  0.1202
15368SOL     OW49123   3.361   9.163   6.015  0.0983  0.0380  0.7463
15368SOL    HW149124   3.374   9.152   5.921  0.5937 -0.0439  0.8222
15368SOL    HW249125   3.449   9.163   6.051 -0.1191 -0.5481  1.2801
15369SOL     OW49126   0.696   6.496   4.859  0.4814  0.6185 -0.4580
15369SOL    HW149127   0.614   6.484   4.811  0.0702 -2.0138  0.8283
15369SOL    HW249128   0.754   6.429   4.824  0.0548 -1.6044  2.9249
15370SOL     OW49129   2.363   2.079   8.767  0.0122 -0.1547  0.3434
15370SOL    HW149130   2.284   2.028   8.751  0.0935 -0.6666  1.5672
15370SOL    HW249131   2.394   2.051   8.853  1.5340  0.0290 -0.1280
15371SOL     OW49132   7.228   0.574   2.392  0.4007  0.5911 -0.0420
15371SOL    HW149133   7.247   0.634   2.464  0.7707  1.5865 -0.9596
15371SOL    HW249134   7.154   0.613   2.346 -0.0552 -0.2161 -0.0016
15372SOL     OW49135   1.898   0.232   2.612 -0.0698  0.2249  0.2247
15372SOL    HW149136   1.987   0.241   2.648 -1.1651  0.8693  2.8665
15372SOL    HW249137   1.860   0.160   2.662 -1.4908  0.8771  0.0897
15373SOL     OW49138   8.909   3.209   7.532  0.0497  0.3654 -0.1725
15373SOL    HW149139   8.952   3.244   7.609 -1.8026  2.3281  0.0265
15373SOL    HW249140   8.816   3.205   7.556 -0.4368  0.1368 -1.9719
15374SOL     OW49141   5.907   5.282   1.809 -0.0983  0.2702 -0.0298
15374SOL    HW149142   5.880   5.301   1.720  1.6378 -1.4065 -0.9393
15374SOL    HW249143   5.857   5.205   1.834 -0.0032  0.2724  0.1736
15375SOL     OW49144   9.040   2.970   0.671  0.0588  0.9517 -0.0681
15375SOL    HW149145   9.076   3.011   0.591  0.6729  0.3973 -0.0797
15375SOL    HW249146   9.015   2.882   0.643 -1.7006  1.4770 -0.1546
15376SOL     OW49147   7.974   1.517   7.987  0.5594  0.0842 -0.4367
15376SOL    HW149148   8.034   1.572   8.038  1.2230  0.3389 -1.4742
15376SOL    HW249149   7.893   1.567   7.985  0.6248  0.2234  0.0867
15377SOL     OW49150   3.734   2.474   1.466 -0.7376 -0.6956  0.0298
15377SOL    HW149151   3.745   2.407   1.534 -0.4262 -1.2460 -0.5577
15377SOL    HW249152   3.779   2.438   1.390 -1.2102 -0.1420 -0.5130
15378SOL     OW49153   3.725   1.907   5.897 -0.6694 -0.7211 -0.1491
15378SOL    HW149154   3.716   2.001   5.881 -1.4321 -0.5005  1.4599
15378SOL    HW249155   3.636   1.873   5.883 -0.8810 -0.8475  1.4333
15379SOL     OW49156   8.953   4.014   0.964  0.0527  0.3690 -0.0478
15379SOL    HW149157   8.968   3.920   0.972 -2.5963 -0.0880  0.0457
15379SOL    HW249158   8.990   4.037   0.879 -1.4597 -1.2679 -1.2010
15380SOL     OW49159   8.731   6.036   2.178 -0.2812  0.3783  0.5358
15380SOL    HW149160   8.739   6.093   2.254  2.2463 -0.7459  1.1714
15380SOL    HW249161   8.769   5.952   2.207  0.0154 -0.2995 -1.6992
15381SOL     OW49162   7.542   6.169   3.855 -0.3983 -0.2426  0.2330
15381SOL    HW149163   7.467   6.228   3.860 -0.1975 -0.0227  0.6284
15381SOL    HW249164   7.616   6.220   3.888 -0.1236 -0.5456  0.0942
15382SOL     OW49165   1.939   6.111   9.017 -0.1114  0.5356 -0.4506
15382SOL    HW149166   1.987   6.074   8.943 -0.7152  0.1600 -0.6538
15382SOL    HW249167   1.992   6.185   9.046  2.1967 -1.6803  1.2707
15383SOL     OW49168   0.664   5.373   0.026  0.1436  0.0207 -0.2565
15383SOL    HW149169   0.618   5.314  -0.033  1.1171 -0.8083 -0.1913
15383SOL    HW249170   0.757   5.350   0.017  0.2688 -0.5615  2.0471
15384SOL     OW49171   1.064   3.508   1.413 -0.6119  0.1795 -0.3562
15384SOL    HW149172   1.116   3.430   1.430  0.1177  1.1607  2.1487
15384SOL    HW249173   1.128   3.578   1.402 -1.3483  1.0641  0.9169
15385SOL     OW49174   8.039   1.719   2.746 -0.1535  0.3773  0.0172
15385SOL    HW149175   7.990   1.797   2.774 -0.4302  0.6822 -1.2573
15385SOL    HW249176   8.113   1.755   2.697  0.7810 -0.1182  1.0521
15386SOL     OW49177   1.259   4.148   2.470 -0.2722 -0.0203 -0.0082
15386SOL    HW149178   1.301   4.066   2.445 -1.6459 -0.2648 -1.5994
15386SOL    HW249179   1.323   4.216   2.446  0.3905 -0.5414  0.2574
15387SOL     OW49180   7.124   5.663   0.876 -0.2050  0.4734 -0.4824
15387SOL    HW149181   7.031   5.646   0.858  0.2535 -0.7591 -1.7822
15387SOL    HW249182   7.128   5.758   0.889 -1.7028  0.5034 -0.0909
15388SOL     OW49183   2.717   1.237   7.332 -0.3896  0.1935 -0.0474
15388SOL    HW149184   2.638   1.183   7.324  0.1768 -0.8031  0.9597
15388SOL    HW249185   2.778   1.183   7.382  0.8764  1.0273 -0.6620
15389SOL     OW49186   7.092   2.070   5.330 -0.4268 -0.7593 -0.7384
15389SOL    HW149187   7.006   2.090   5.294  0.5668 -0.6337 -3.1553
15389SOL    HW249188   7.153   2.120   5.276  1.2199 -1.5062  0.3888
15390SOL     OW49189   8.952   2.856   5.430 -0.1823 -0.6318  0.7707
15390SOL    HW149190   8.885   2.925   5.425  1.1465  0.6192 -0.0480
15390SOL    HW249191   9.028   2.899   5.469  1.1608 -1.2335 -1.0966
15391SOL     OW49192   7.315   5.398   8.906 -0.2858 -0.3746  0.5212
15391SOL    HW149193   7.227   5.399   8.869 -1.0342 -0.8165  2.2475
15391SOL    HW249194   7.329   5.488   8.937  0.0649 -0.1812 -0.1928
15392SOL     OW49195   1.789   7.559   5.278  0.2251 -0.1433  0.0563
15392SOL    HW149196   1.832   7.645   5.276  0.9422 -0.4935  0.1776
15392SOL    HW249197   1.732   7.559   5.201 -1.5195  1.3075  1.3050
15393SOL     OW49198   2.657   2.582   2.319  0.2826 -0.3448  0.0097
15393SOL    HW149199   2.628   2.562   2.407  0.4956 -1.4613 -0.1675
15393SOL    HW249200   2.718   2.656   2.330  0.3581 -0.5222  0.7982
15394SOL     OW49201   4.891   4.318   1.741  0.0008 -0.2619  0.2661
15394SOL    HW149202   4.863   4.408   1.721  1.7507  0.1556 -0.4209
15394SOL    HW249203   4.831   4.263   1.691 -0.6652  0.5467  0.1606
15395SOL     OW49204   2.393   1.260   6.695  0.2714  0.3633 -0.2235
15395SOL    HW149205   2.432   1.333   6.646  0.7139  0.8056  0.7781
15395SOL    HW249206   2.388   1.189   6.631  4.0754 -0.1744 -0.0480
15396SOL     OW49207   5.091   2.964   6.113 -0.1873  0.4827  0.3620
15396SOL    HW149208   5.015   3.003   6.070 -1.3636 -1.9054  0.2091
15396SOL    HW249209   5.064   2.952   6.204  0.3270  0.4300  0.5100
15397SOL     OW49210   1.835   8.760   8.234  0.0836 -0.2920 -0.5412
15397SOL    HW149211   1.756   8.792   8.276  1.1782  0.9006  0.6764
15397SOL    HW249212   1.878   8.839   8.199  0.8198 -0.8892 -1.0078
15398SOL     OW49213   4.735   3.647   0.133  0.9110 -0.1814 -0.1129
15398SOL    HW149214   4.744   3.555   0.105 -1.0987 -0.1938 -0.7257
15398SOL    HW249215   4.680   3.687   0.067 -0.5869  0.7798  1.6932
15399SOL     OW49216   6.065   3.446   4.035 -0.4490 -0.1943 -0.4117
15399SOL    HW149217   6.007   3.512   3.997 -1.2133  0.1487  1.3258
15399SOL    HW249218   6.025   3.424   4.119  0.8274 -1.4812 -0.1224
15400SOL     OW49219   7.526   8.931   5.234 -0.4602  0.5969 -0.3019
15400SOL    HW149220   7.527   8.978   5.151 -2.0395  0.4342 -0.4281
15400SOL    HW249221   7.435   8.907   5.247  0.1454 -1.3941  0.3656
15401SOL     OW49222   3.396   6.304   0.862 -0.1688  0.3996 -0.4215
15401SOL    HW149223   3.310   6.284   0.901  0.2004 -0.9693 -0.2679
15401SOL    HW249224   3.410   6.233   0.799  0.5981  0.9285 -0.8463
15402SOL     OW49225   3.578   6.703   6.739  0.3574  0.4084  0.2389
15402SOL    HW149226   3.572   6.650   6.660 -0.1140  1.3029 -0.3382
15402SOL    HW249227   3.562   6.642   6.811 -1.1892 -0.0347 -0.4692
15403SOL     OW49228   8.836   5.313   5.583  0.1945 -0.5238 -0.5823
15403SOL    HW149229   8.748   5.311   5.621 -0.1185 -0.7673 -1.3314
15403SOL    HW249230   8.852   5.406   5.564  1.1164 -0.1224  1.9238
15404SOL     OW49231   2.546   3.081   5.075  0.3319  0.2931  0.0386
15404SOL    HW149232   2.571   3.168   5.106 -0.2577  0.2800  0.5566
15404SOL    HW249233   2.609   3.022   5.116  0.2282  0.3915  0.3429
15405SOL     OW49234   5.009   1.916   2.459 -0.2559 -0.0984  0.5025
15405SOL    HW149235   4.932   1.971   2.470 -0.1852  0.0816  0.1230
15405SOL    HW249236   5.053   1.916   2.544  0.4299  1.4597  0.1617
15406SOL     OW49237   7.678   0.228   0.398  0.1301  0.7149 -0.3039
15406SOL    HW149238   7.583   0.218   0.404 -0.0207  1.2125 -1.6341
15406SOL    HW249239   7.713   0.146   0.433 -0.8453 -0.3830 -1.8266
15407SOL     OW49240   7.680   3.608   9.148 -0.2992 -0.1206  0.6886
15407SOL    HW149241   7.722   3.684   9.109 -0.2053 -0.5536 -0.0447
15407SOL    HW249242   7.736   3.534   9.125 -0.5790 -0.4675  1.1015
15408SOL     OW49243   0.795   3.772   5.255  0.3484  0.9071  0.7992
15408SOL    HW149244   0.722   3.822   5.292  0.9786  1.5397  1.1916
15408SOL    HW249245   0.864   3.778   5.322  0.8669  0.5817  0.2900
15409SOL     OW49246   7.523   5.862   8.146  0.3556 -0.0852  0.1951
15409SOL    HW149247   7.433   5.893   8.160  0.3923  1.1760 -2.2330
15409SOL    HW249248   7.513   5.792   8.082  0.9478 -1.1096  1.2064
15410SOL     OW49249   1.038   7.256   3.709 -0.0094 -0.4555  0.2824
15410SOL    HW149250   1.046   7.234   3.802 -0.1319 -1.0540  0.1532
15410SOL    HW249251   1.127   7.249   3.674  0.0836  0.0474  0.4133
15411SOL     OW49252   3.279   0.434   8.645  0.1122 -0.0605 -0.0590
15411SOL    HW149253   3.351   0.495   8.658 -0.3542 -0.0109  2.6764
15411SOL    HW249254   3.208   0.469   8.700 -0.9776 -1.7237 -0.3572
15412SOL     OW49255   7.856   1.820   1.413 -0.3624 -0.3404  0.2348
15412SOL    HW149256   7.799   1.884   1.370  0.7837  0.8025  0.3664
15412SOL    HW249257   7.887   1.764   1.342 -0.9346 -0.4174  0.0380
15413SOL     OW49258   1.283   1.594   7.370  0.0578  0.1286  0.4675
15413SOL    HW149259   1.247   1.682   7.363 -2.5969 -0.9115  0.7721
15413SOL    HW249260   1.328   1.593   7.454 -1.6245  0.6000  1.3844
15414SOL     OW49261   4.655   0.698   2.504  0.4404 -0.0311  0.3869
15414SOL    HW149262   4.679   0.675   2.415  0.5261 -0.0839  0.4233
15414SOL    HW249263   4.561   0.715   2.500  0.3546 -0.4991  0.3799
15415SOL     OW49264   6.271   0.741   8.395  0.1454 -0.6283 -0.3560
15415SOL    HW149265   6.243   0.762   8.484  1.3423 -0.2009 -0.0601
15415SOL    HW249266   6.236   0.813   8.341 -0.0746 -0.5705 -0.1362
15416SOL     OW49267   9.107   1.871   3.799 -0.0818 -0.6965  0.6564
15416SOL    HW149268   9.057   1.857   3.880 -0.3109 -0.1955  0.6060
15416SOL    HW249269   9.048   1.844   3.729 -0.8109  1.1617  0.5102
15417SOL     OW49270   6.303   1.697   7.382 -0.2810  0.2159 -0.2029
15417SOL    HW149271   6.394   1.677   7.362 -0.2886  1.4989 -1.5600
15417SOL    HW249272   6.307   1.768   7.447 -0.3125  0.6266 -0.6478
15418SOL     OW49273   1.089   1.738   1.750  0.2237 -0.2492  0.1034
15418SOL    HW149274   1.162   1.678   1.737  1.3544  0.6203  2.2007
15418SOL    HW249275   1.123   1.824   1.725  0.3746  0.3700  2.3279
15419SOL     OW49276   3.543   5.817   3.470  0.0403  0.1722 -0.2175
15419SOL    HW149277   3.578   5.894   3.513  0.3917 -0.4541  0.6369
15419SOL    HW249278   3.620   5.767   3.443 -0.1668 -0.6961  0.7384
15420SOL     OW49279   7.127   0.335   2.975 -0.4116 -0.6425 -0.2762
15420SOL    HW149280   7.148   0.426   2.998  0.1499 -0.4045 -1.6670
15420SOL    HW249281   7.101   0.339   2.883 -0.5539 -1.8652 -0.2981
15421SOL     OW49282   1.577   8.713   1.151 -0.4114 -0.3736  0.3067
15421SOL    HW149283   1.545   8.651   1.216 -0.7957 -0.3749  0.1229
15421SOL    HW249284   1.662   8.679   1.124 -0.0815 -0.1690  1.0775
15422SOL     OW49285   4.049   5.876   1.074  0.2702  0.2041  0.4403
15422SOL    HW149286   4.036   5.866   1.168  0.4519 -0.4035  0.4053
15422SOL    HW249287   3.986   5.815   1.035 -0.7475  1.4437  0.1404
15423SOL     OW49288   8.514   2.433   7.622 -0.0821 -1.3238 -0.7996
15423SOL    HW149289   8.564   2.397   7.696  0.8801 -1.6282 -1.5921
15423SOL    HW249290   8.528   2.527   7.628  0.1805 -1.3670 -0.7354
15424SOL     OW49291   5.111   4.497   6.748  0.2454  0.7729 -0.0980
15424SOL    HW149292   5.057   4.454   6.682 -0.7831  1.3584  0.3541
15424SOL    HW249293   5.192   4.518   6.703  1.0166 -2.1904 -0.1580
15425SOL     OW49294   5.079   5.844   4.582 -0.1552 -0.4164  0.4464
15425SOL    HW149295   5.027   5.805   4.512 -0.4751  0.4051  0.2107
15425SOL    HW249296   5.015   5.866   4.650 -0.2910  1.5359 -0.2705
15426SOL     OW49297   7.895   8.743   1.077 -0.0539 -0.4507 -0.2975
15426SOL    HW149298   7.886   8.810   1.009  1.3383  0.9136  0.8121
15426SOL    HW249299   7.875   8.789   1.159 -0.8185 -1.8472  0.3124
15427SOL     OW49300   4.386   5.944   2.112 -0.0315 -0.4984  0.0855
15427SOL    HW149301   4.341   6.008   2.057 -1.5818 -1.1567  0.5767
15427SOL    HW249302   4.338   5.946   2.195  2.5290  0.7917  1.5904
15428SOL     OW49303   5.118   4.885   3.509  0.4967 -0.1579 -0.0022
15428SOL    HW149304   5.160   4.885   3.596 -0.2330  0.4151  0.3544
15428SOL    HW249305   5.190   4.907   3.449  1.3214 -1.9722  0.2851
15429SOL     OW49306   1.650   1.215   5.570  0.0792 -0.5236 -0.3106
15429SOL    HW149307   1.580   1.190   5.631 -0.9604  0.3323 -1.1352
15429SOL    HW249308   1.608   1.275   5.508  1.2230 -1.0579 -1.6308
15430SOL     OW49309   8.010   7.141   9.308 -0.3998 -0.2882 -0.1354
15430SOL    HW149310   8.082   7.080   9.294 -1.1376 -1.1275 -0.2995
15430SOL    HW249311   7.931   7.086   9.311 -0.8373  0.3817  2.0410
15431SOL     OW49312   8.081   1.452   7.716  0.2420 -0.2481 -0.1929
15431SOL    HW149313   8.041   1.409   7.793  1.7862  1.6868  1.7460
15431SOL    HW249314   8.142   1.387   7.682 -1.2070 -1.5157 -0.4325
15432SOL     OW49315   1.438   0.556   7.308  0.4503 -0.0296  0.5133
15432SOL    HW149316   1.386   0.631   7.338  0.3126 -0.3363  1.0560
15432SOL    HW249317   1.376   0.499   7.264  0.3914 -0.2238  0.8437
15433SOL     OW49318   6.260   4.827   1.006 -0.1918  0.2311  0.3253
15433SOL    HW149319   6.170   4.860   1.008 -0.3166 -0.0456 -0.8591
15433SOL    HW249320   6.298   4.859   1.088 -1.0490  1.2483  0.3391
15434SOL     OW49321   8.613   4.544   5.683 -0.1991  0.6053 -0.6326
15434SOL    HW149322   8.523   4.550   5.653 -0.4313  1.1029  0.1633
15434SOL    HW249323   8.618   4.602   5.759  0.5771 -0.0480 -0.1670
15435SOL     OW49324   0.920   5.509   0.061 -0.1718  0.4361  0.3550
15435SOL    HW149325   0.901   5.459  -0.019  0.5221  0.9049 -0.1012
15435SOL    HW249326   0.911   5.601   0.035 -1.4911  0.5683  1.2026
15436SOL     OW49327   7.493   0.746   2.557 -0.0664  0.3989  0.7870
15436SOL    HW149328   7.506   0.744   2.651  3.4004 -0.1911  0.3957
15436SOL    HW249329   7.548   0.675   2.524 -2.2216 -0.2270 -1.5962
15437SOL     OW49330   2.121   6.564   7.626 -0.2632 -0.1523 -0.0806
15437SOL    HW149331   2.109   6.657   7.645  1.5505  0.7668 -3.0542
15437SOL    HW249332   2.146   6.525   7.710 -1.0784  2.0209  1.1979
15438SOL     OW49333   2.524   9.436   5.141  0.0960 -0.0535  0.0188
15438SOL    HW149334   2.619   9.430   5.134  0.0854 -0.2609  0.0336
15438SOL    HW249335   2.492   9.421   5.052  0.0652 -0.2761  0.0671
15439SOL     OW49336   8.573   8.899   4.658 -0.1452  0.5043 -0.3907
15439SOL    HW149337   8.590   8.964   4.727  0.4028 -1.3622  1.3061
15439SOL    HW249338   8.480   8.908   4.638 -0.1640  1.5198  0.1239
15440SOL     OW49339   9.305   1.017   0.109  0.6690  0.4242  0.4047
15440SOL    HW149340   9.222   1.045   0.072 -0.3789 -0.1499  2.2381
15440SOL    HW249341   9.359   0.993   0.033 -1.2559 -0.3556 -0.7379
15441SOL     OW49342   1.673   2.966   8.770  0.0255  0.3611 -0.2087
15441SOL    HW149343   1.692   3.055   8.799 -0.4365  0.1891  0.6504
15441SOL    HW249344   1.636   2.977   8.682 -3.1618  1.3157  1.1690
15442SOL     OW49345   3.256   6.558   7.082 -0.5232 -0.5012 -0.0728
15442SOL    HW149346   3.169   6.559   7.120 -0.4374 -0.5607  0.1261
15442SOL    HW249347   3.291   6.646   7.096 -0.8313 -0.2590 -0.8035
15443SOL     OW49348   5.134   9.070   0.792  0.4556 -0.6885 -0.3443
15443SOL    HW149349   5.188   9.101   0.719  2.8292 -2.0970  0.7461
15443SOL    HW249350   5.102   9.150   0.833  1.0392  0.1561 -1.5003
15444SOL     OW49351   7.664   3.967   6.392  0.3541 -0.2871  0.1261
15444SOL    HW149352   7.656   3.871   6.391 -1.9807 -0.1241  0.5779
15444SOL    HW249353   7.733   3.984   6.456  0.5979 -1.6605  0.2587
15445SOL     OW49354   9.333   3.164   6.877  0.2341  0.2078  0.1704
15445SOL    HW149355   9.243   3.191   6.856  0.0498 -0.2641  0.3314
15445SOL    HW249356   9.333   3.152   6.972 -0.6313 -3.5895 -0.2172
15446SOL     OW49357   0.791   5.873   2.714 -0.0217 -0.3788 -0.1355
15446SOL    HW149358   0.879   5.869   2.753 -0.5191 -1.1937  0.9308
15446SOL    HW249359   0.742   5.804   2.758 -1.5409  0.8169  0.0862
15447SOL     OW49360   9.244   2.004   0.061  0.0001  0.2022 -0.0903
15447SOL    HW149361   9.204   1.976  -0.021  3.7030 -0.0178 -1.9461
15447SOL    HW249362   9.276   1.922   0.101 -1.1961  0.3794  1.2493
15448SOL     OW49363   1.427   2.209   2.557  0.5215 -0.5183 -0.0055
15448SOL    HW149364   1.347   2.220   2.608  0.5215 -0.6994  0.0339
15448SOL    HW249365   1.402   2.151   2.485  1.1686 -2.3961  1.2747
15449SOL     OW49366   2.470   0.575   4.602  0.3943 -0.5159  0.2261
15449SOL    HW149367   2.391   0.585   4.654 -1.6215 -0.3857 -2.7519
15449SOL    HW249368   2.488   0.481   4.604  0.8173 -0.4146  1.7983
15450SOL     OW49369   4.975   0.329   4.546  0.6054  0.9036  0.1104
15450SOL    HW149370   5.002   0.417   4.519  2.1233  1.3095  2.7038
15450SOL    HW249371   4.901   0.308   4.490  0.9931  3.3403 -1.3963
15451SOL     OW49372   6.493   4.823   3.946 -0.2118  0.1425  0.2745
15451SOL    HW149373   6.549   4.800   3.872 -0.6751 -1.3466  0.3836
15451SOL    HW249374   6.489   4.919   3.943  1.5452  0.2194 -0.3084
15452SOL     OW49375   2.983   0.851   8.542 -0.0816  0.2618 -0.0781
15452SOL    HW149376   3.016   0.934   8.577  0.8141 -0.0476 -0.1872
15452SOL    HW249377   2.991   0.860   8.448 -1.0831  0.5002 -0.1491
15453SOL     OW49378   6.531   2.324   6.720 -0.0890  0.4727  0.4714
15453SOL    HW149379   6.574   2.239   6.730  0.0365  0.3003 -1.4734
15453SOL    HW249380   6.438   2.306   6.737  0.1323  0.2402  1.4947
15454SOL     OW49381   8.665   1.140   8.615  0.4357  0.2372 -0.5902
15454SOL    HW149382   8.648   1.051   8.646  1.5316 -0.2708 -1.4072
15454SOL    HW249383   8.757   1.156   8.635  0.3212  1.0811 -0.7094
15455SOL     OW49384   0.942   8.890   2.732  0.1317  0.3227  0.2456
15455SOL    HW149385   0.913   8.800   2.741 -0.3692  0.0341 -3.4876
15455SOL    HW249386   0.872   8.934   2.685  1.6482  1.9340 -0.6015
15456SOL     OW49387   1.042   4.505   5.490 -0.1123  0.2088 -0.1370
15456SOL    HW149388   1.004   4.570   5.548  0.2956  0.9059 -0.6348
15456SOL    HW249389   1.079   4.556   5.418 -0.7625 -0.6425 -1.0968
15457SOL     OW49390   1.734   2.380   6.160 -0.3794 -0.3749  0.1494
15457SOL    HW149391   1.714   2.406   6.070  0.1697  1.2918  0.4982
15457SOL    HW249392   1.825   2.351   6.157 -0.9066 -2.1080 -0.1813
15458SOL     OW49393   7.596   1.281   7.075  0.4330 -0.3905  0.4978
15458SOL    HW149394   7.562   1.205   7.124  0.3167 -1.5627 -1.3504
15458SOL    HW249395   7.534   1.292   7.003  0.8619  1.0155  0.3392
15459SOL     OW49396   2.933   3.686   1.571  0.5368  0.6873 -0.1435
15459SOL    HW149397   2.984   3.623   1.521  0.4219  0.4167  0.0775
15459SOL    HW249398   2.972   3.771   1.551  0.1629  0.6355 -1.0930
15460SOL     OW49399   4.109   4.437   8.959  0.0254 -0.2832  0.1590
15460SOL    HW149400   4.143   4.350   8.982  4.0408  0.5633 -2.0871
15460SOL    HW249401   4.043   4.420   8.891  0.5027 -1.6169  0.0149
15461SOL     OW49402   2.802   5.569   2.909  0.0447 -0.3616  0.6654
15461SOL    HW149403   2.877   5.512   2.923 -0.3993 -0.8948  0.8766
15461SOL    HW249404   2.746   5.554   2.985 -0.5016 -0.3168  0.2736
15462SOL     OW49405   8.822   7.267   4.281  0.2231 -0.5978 -0.1138
15462SOL    HW149406   8.773   7.192   4.316 -0.4977  0.5170  1.3293
15462SOL    HW249407   8.857   7.311   4.359 -0.1248  1.0673 -0.8791
15463SOL     OW49408   2.511   0.061   3.760  0.3753  0.5145 -0.0979
15463SOL    HW149409   2.425   0.050   3.719  1.3945 -2.2386 -1.5942
15463SOL    HW249410   2.574   0.042   3.690  2.2054  0.6290  1.4638
15464SOL     OW49411   6.468   8.970   7.032  0.1829 -0.1753 -0.0907
15464SOL    HW149412   6.378   8.939   7.042  0.2781 -0.9568 -1.4891
15464SOL    HW249413   6.519   8.915   7.090 -0.3874  1.0809  1.6469
15465SOL     OW49414   7.104   6.198   9.115  0.0381 -0.1039  0.5270
15465SOL    HW149415   7.009   6.201   9.125  0.0916 -1.1040  1.3244
15465SOL    HW249416   7.117   6.170   9.025 -0.4383 -3.5303  1.4656
15466SOL     OW49417   4.359   6.140   8.787 -0.0922 -0.0251  0.3081
15466SOL    HW149418   4.278   6.107   8.749 -0.6887  1.9985 -0.2199
15466SOL    HW249419   4.403   6.062   8.821 -2.1200 -1.1679  0.3655
15467SOL     OW49420   7.828   4.357   2.783  1.0555 -0.2211 -0.1004
15467SOL    HW149421   7.838   4.366   2.878 -0.8341  1.4265 -0.0524
15467SOL    HW249422   7.861   4.439   2.747 -2.4835  1.0487 -0.5677
15468SOL     OW49423   7.107   3.322   4.669 -0.2652 -0.2874  0.6003
15468SOL    HW149424   7.107   3.307   4.764  0.5761 -0.3452  0.5899
15468SOL    HW249425   7.077   3.238   4.633 -1.5405  0.0446  0.8557
15469SOL     OW49426   2.668   6.134   1.427 -0.0626  0.0039 -0.0534
15469SOL    HW149427   2.750   6.094   1.454  0.8531  1.2789 -0.8519
15469SOL    HW249428   2.627   6.162   1.509  0.5699 -0.1297  0.3141
15470SOL     OW49429   0.657   2.164   8.329 -0.3091  0.3399  0.5547
15470SOL    HW149430   0.624   2.080   8.361  0.0102 -0.4096 -1.0009
15470SOL    HW249431   0.657   2.155   8.233  0.2781  1.9066  0.3844
15471SOL     OW49432   5.852   2.239   5.702  0.4656 -0.1989 -0.2854
15471SOL    HW149433   5.876   2.165   5.646 -0.8530 -0.7045 -0.1950
15471SOL    HW249434   5.878   2.212   5.790 -1.4676 -1.2371 -0.0117
15472SOL     OW49435   6.296   0.340   3.285 -0.5202 -0.3402 -0.1077
15472SOL    HW149436   6.248   0.400   3.342 -0.5935  0.1541 -0.6862
15472SOL    HW249437   6.378   0.385   3.265 -0.2296 -0.7742  0.1023
15473SOL     OW49438   8.626   5.818   6.058  0.2421 -0.0532 -0.2310
15473SOL    HW149439   8.709   5.824   6.106  0.0937 -1.3820  0.2294
15473SOL    HW249440   8.644   5.755   5.988 -0.8747 -1.7954  0.9988
15474SOL     OW49441   8.435   4.681   8.467  0.5588 -0.4604 -0.1464
15474SOL    HW149442   8.506   4.735   8.432  0.9497  0.5477  2.0569
15474SOL    HW249443   8.384   4.655   8.391  1.6748  1.1732 -1.4853
15475SOL     OW49444   1.339   2.301   0.118 -0.5727 -0.8511  0.9297
15475SOL    HW149445   1.366   2.244   0.047 -0.4785  0.8428 -0.4167
15475SOL    HW249446   1.251   2.329   0.095  0.3433  1.6208  0.2004
15476SOL     OW49447   3.935   6.847   1.968  0.1043  0.0890 -0.3197
15476SOL    HW149448   3.921   6.787   1.894  1.7563 -1.5757  0.6807
15476SOL    HW249449   3.847   6.870   1.997 -0.5507 -0.5902 -1.7414
15477SOL     OW49450   8.486   6.070   9.299 -0.0853 -0.1875 -0.1164
15477SOL    HW149451   8.451   6.112   9.220 -0.7816  0.5681  0.5684
15477SOL    HW249452   8.411   6.068   9.359  0.5683 -0.2747  0.7027
15478SOL     OW49453   1.651   2.326   4.198  0.7505  0.3764  0.0143
15478SOL    HW149454   1.687   2.245   4.163 -0.8454 -0.4698  0.2777
15478SOL    HW249455   1.645   2.385   4.123 -0.1523 -0.5093 -0.6201
15479SOL     OW49456   1.210   5.571   2.342  0.3851 -0.1798 -0.4962
15479SOL    HW149457   1.162   5.602   2.266  0.2024 -0.1855 -0.3832
15479SOL    HW249458   1.235   5.482   2.320  0.3800 -0.1630 -0.5726
15480SOL     OW49459   8.840   1.235   5.588 -1.0963  0.0910  0.3367
15480SOL    HW149460   8.847   1.308   5.526 -1.8509  0.3374  0.5331
15480SOL    HW249461   8.800   1.273   5.666 -3.0579 -0.8654 -0.1666
15481SOL     OW49462   2.167   2.673   2.113 -0.2176  0.6427 -0.3989
15481SOL    HW149463   2.097   2.726   2.076 -0.8559 -1.1962 -1.9017
15481SOL    HW249464   2.236   2.675   2.047 -0.4986 -0.8883 -0.7615
15482SOL     OW49465   6.341   0.064   7.727 -0.6978 -0.1809  0.2069
15482SOL    HW149466   6.392   0.091   7.804 -0.4170 -0.9101  0.2801
15482SOL    HW249467   6.386   0.104   7.653 -1.2732  0.9625  0.4673
15483SOL     OW49468   2.799   7.207   5.469  0.4925 -0.5471 -0.0292
15483SOL    HW149469   2.816   7.274   5.535  1.3284 -1.0366  0.2574
15483SOL    HW249470   2.736   7.147   5.511  0.6563 -0.5949  0.1491
15484SOL     OW49471   5.615   8.288   2.936  0.3850  0.1953  0.1691
15484SOL    HW149472   5.693   8.338   2.911  0.4308 -0.4730 -1.0913
15484SOL    HW249473   5.542   8.346   2.916  0.5044  0.3260  0.1088
15485SOL     OW49474   9.121   6.491   9.127  0.1251  0.1517 -0.0898
15485SOL    HW149475   9.166   6.541   9.196 -0.0974 -1.0602  0.9522
15485SOL    HW249476   9.029   6.515   9.136 -0.1123 -1.1297  1.0171
15486SOL     OW49477   7.431   0.176   7.432  0.5022 -0.2539  0.3472
15486SOL    HW149478   7.356   0.228   7.405  0.3497 -0.9278 -0.5600
15486SOL    HW249479   7.471   0.146   7.350  1.0334 -0.9208  0.8366
15487SOL     OW49480   4.714   4.287   6.621  0.3378  0.1588  0.2401
15487SOL    HW149481   4.648   4.257   6.558 -1.3446  0.6332  1.7218
15487SOL    HW249482   4.714   4.220   6.689  1.0463  0.4091  0.4862
15488SOL     OW49483   1.466   5.485   5.554  0.1770 -0.0493  0.2098
15488SOL    HW149484   1.409   5.513   5.626 -0.1130 -1.6431  0.6197
15488SOL    HW249485   1.477   5.564   5.500 -0.2566  0.9579  1.5523
15489SOL     OW49486   8.688   3.827   5.507 -0.5811  0.2266 -0.1855
15489SOL    HW149487   8.631   3.818   5.431  0.8326 -1.4929 -1.0825
15489SOL    HW249488   8.636   3.794   5.580 -1.2324 -0.0111 -0.7517
15490SOL     OW49489   2.482   6.192   4.861  0.2243  0.5524  0.0260
15490SOL    HW149490   2.510   6.271   4.815 -2.3628  0.4107 -1.8616
15490SOL    HW249491   2.558   6.168   4.915  1.9473  2.8783 -1.2703
15491SOL     OW49492   6.914   6.616   5.914 -0.0391 -0.1792 -0.1859
15491SOL    HW149493   6.937   6.587   5.826  0.1917  0.7501 -0.4456
15491SOL    HW249494   6.936   6.542   5.970  1.6972 -0.0610 -0.6744
15492SOL     OW49495   4.651   1.335   7.113  0.8262  0.6863 -0.3584
15492SOL    HW149496   4.683   1.300   7.030  1.0259 -1.1586  0.4491
15492SOL    HW249497   4.727   1.378   7.152  1.2155 -0.0153 -0.3301
15493SOL     OW49498   5.740   4.529   3.784  0.1032  0.1211  0.1286
15493SOL    HW149499   5.661   4.490   3.746  0.4402 -0.1414 -0.3130
15493SOL    HW249500   5.772   4.463   3.846 -1.0853  1.0241  1.7569
15494SOL     OW49501   0.264   3.065   3.363 -0.0533  0.8005 -0.8636
15494SOL    HW149502   0.289   3.018   3.283  1.1506 -0.5878  0.3078
15494SOL    HW249503   0.340   3.057   3.420 -1.4854  0.4644  1.0193
15495SOL     OW49504   9.310   7.105   1.646  0.1334  0.1424 -0.0197
15495SOL    HW149505   9.388   7.161   1.640 -0.9427  1.6896  0.1717
15495SOL    HW249506   9.317   7.065   1.733  1.1186 -0.3461 -0.3153
15496SOL     OW49507   6.781   5.482   4.635 -0.0189 -0.7583  0.2835
15496SOL    HW149508   6.764   5.390   4.613 -1.1494 -0.2329 -1.1885
15496SOL    HW249509   6.699   5.527   4.612  1.7031  1.1594 -2.4630
15497SOL     OW49510   2.718   5.086   3.823 -0.3617  0.9741 -0.3765
15497SOL    HW149511   2.729   5.038   3.741  0.8497 -0.8485  0.8170
15497SOL    HW249512   2.624   5.107   3.826 -0.6794 -0.2027 -1.5633
15498SOL     OW49513   2.174   0.254   3.970  0.0752 -0.1755  0.2787
15498SOL    HW149514   2.179   0.214   4.057  1.4142 -0.7332 -0.0564
15498SOL    HW249515   2.135   0.186   3.915  0.6784 -0.3766  0.1011
15499SOL     OW49516   5.152   5.764   3.911 -0.0829 -0.3976  0.0721
15499SOL    HW149517   5.122   5.855   3.918  2.4166  0.5336 -0.6639
15499SOL    HW249518   5.090   5.723   3.850 -0.8510  0.9899 -0.1068
15500SOL     OW49519   6.221   1.349   1.441 -0.2610 -0.1378  0.1292
15500SOL    HW149520   6.184   1.417   1.497  0.9385  0.3573  0.3228
15500SOL    HW249521   6.148   1.323   1.384 -1.5148 -0.7248  1.9772
15501SOL     OW49522   2.268   4.961   5.094 -0.4503  0.1260  0.0165
15501SOL    HW149523   2.327   4.887   5.107 -0.5254 -0.4543 -2.7133
15501SOL    HW249524   2.325   5.038   5.095  0.1899 -0.3193 -1.1802
15502SOL     OW49525   1.115   0.785   9.293  0.1305  0.4673  0.0914
15502SOL    HW149526   1.184   0.760   9.232 -0.8703 -1.3423 -0.3321
15502SOL    HW249527   1.160   0.835   9.361  1.7398 -0.0660 -0.5553
15503SOL     OW49528   2.815   5.414   6.392  0.0651  0.3005 -0.2588
15503SOL    HW149529   2.730   5.374   6.407  0.3448 -0.6725 -1.2313
15503SOL    HW249530   2.817   5.489   6.452 -0.3846 -1.2223  1.7142
15504SOL     OW49531   2.144   6.026   5.366 -0.1693 -0.0352 -0.2920
15504SOL    HW149532   2.208   5.958   5.389  1.5541  1.5612 -0.2175
15504SOL    HW249533   2.092   6.037   5.445 -0.5422 -1.3435 -0.3406
15505SOL     OW49534   5.128   4.741   7.139 -0.8285  0.0060  0.3312
15505SOL    HW149535   5.073   4.733   7.061 -0.0371 -0.5478 -0.1786
15505SOL    HW249536   5.120   4.833   7.165 -2.4521 -0.2041  0.6092
15506SOL     OW49537   3.155   0.664   7.822 -0.0144 -0.4219 -0.0975
15506SOL    HW149538   3.164   0.637   7.913  0.0714 -0.7658 -0.2066
15506SOL    HW249539   3.119   0.587   7.777  0.5880 -0.4872 -0.4792
15507SOL     OW49540   8.929   2.771   5.165 -0.3684 -0.0820 -0.4652
15507SOL    HW149541   8.953   2.774   5.258  1.3011 -1.7975 -0.8153
15507SOL    HW249542   8.865   2.841   5.155  0.9241  1.4596  1.5596
15508SOL     OW49543   4.820   3.629   8.463  0.1039  0.2592 -0.5040
15508SOL    HW149544   4.864   3.568   8.404  0.5389 -1.2262  1.3225
15508SOL    HW249545   4.886   3.696   8.482 -0.3102  1.2227 -2.3522
15509SOL     OW49546   7.815   7.018   3.357  0.2003  0.3249  0.2408
15509SOL    HW149547   7.737   7.073   3.367  0.2362  0.3057  0.6112
15509SOL    HW249548   7.781   6.929   3.351  0.0955  0.4365 -1.0030
15510SOL     OW49549   8.600   6.561   7.748 -0.1578  0.4400 -0.1941
15510SOL    HW149550   8.543   6.535   7.819  0.0153  0.4812 -0.0403
15510SOL    HW249551   8.668   6.494   7.745 -0.2717  0.3346 -0.4438
15511SOL     OW49552   9.080   7.575   3.132  0.3322 -1.1089 -0.7631
15511SOL    HW149553   9.122   7.571   3.218  0.7050  0.1194 -0.8816
15511SOL    HW249554   9.151   7.560   3.070  0.2147 -1.1263 -0.8926
15512SOL     OW49555   5.662   0.624   2.608 -0.1450 -0.4078  0.2046
15512SOL    HW149556   5.660   0.619   2.704  1.6355 -0.8950  0.2368
15512SOL    HW249557   5.640   0.535   2.579 -0.4428 -0.3214  0.1655
15513SOL     OW49558   5.741   2.392   8.631  0.3582 -0.2078 -0.5617
15513SOL    HW149559   5.736   2.348   8.546 -0.3552 -0.1936 -0.5336
15513SOL    HW249560   5.713   2.326   8.694  1.4845 -0.4109 -0.2595
15514SOL     OW49561   2.863   0.221   4.420 -0.9826  0.0650 -0.1479
15514SOL    HW149562   2.819   0.176   4.492  0.8031  0.0654  0.9732
15514SOL    HW249563   2.915   0.152   4.378  1.4811  0.9670  1.3487
15515SOL     OW49564   9.010   5.860   3.938  0.2649  0.2525  0.5102
15515SOL    HW149565   9.046   5.772   3.926 -0.7432  0.1819 -2.3987
15515SOL    HW249566   8.919   5.844   3.964  0.1168  0.4328  0.1006
15516SOL     OW49567   7.976   7.542   2.300  0.1385  0.8661 -0.1844
15516SOL    HW149568   7.921   7.563   2.376 -1.2113  1.0914 -1.1997
15516SOL    HW249569   7.958   7.613   2.238  0.1123 -0.1079 -1.2954
15517SOL     OW49570   0.763   6.161   6.462  0.1841 -0.5986  0.2048
15517SOL    HW149571   0.816   6.081   6.464  2.0013  0.5710 -0.4041
15517SOL    HW249572   0.794   6.209   6.385  0.8290  1.8320  1.9077
15518SOL     OW49573   8.852   6.505   8.340 -0.3035  0.1110 -0.2502
15518SOL    HW149574   8.783   6.570   8.352 -1.3369 -0.6335 -1.9571
15518SOL    HW249575   8.932   6.556   8.326 -0.6978  0.9826  0.6351
15519SOL     OW49576   6.381   0.089   8.422  0.6310 -0.7730  0.3600
15519SOL    HW149577   6.360   0.137   8.342 -1.9896 -1.8950  0.3110
15519SOL    HW249578   6.401   0.156   8.487  2.5078  0.1587 -1.1467
15520SOL     OW49579   3.087   0.215   7.608 -0.6799 -0.2513  0.0298
15520SOL    HW149580   3.056   0.127   7.589  1.8492 -1.0875 -0.4892
15520SOL    HW249581   3.169   0.202   7.657  0.4445  1.7760 -1.2135
15521SOL     OW49582   3.251   0.632   0.730 -0.2560  0.2607  0.1569
15521SOL    HW149583   3.232   0.548   0.772  3.6551 -1.0452 -0.5100
15521SOL    HW249584   3.201   0.630   0.648 -0.1593 -1.4424  0.1198
15522SOL     OW49585   0.555   5.618   8.111 -0.2207 -0.0100 -0.6459
15522SOL    HW149586   0.471   5.596   8.069  0.6796 -0.6862 -2.1235
15522SOL    HW249587   0.616   5.551   8.080  1.0442  0.8883 -0.1357
15523SOL     OW49588   0.131   6.719   8.123 -0.3638 -0.0719 -0.1574
15523SOL    HW149589   0.106   6.632   8.153 -0.6912 -0.0762 -0.4392
15523SOL    HW249590   0.133   6.712   8.027  0.8364 -0.1031 -0.1329
15524SOL     OW49591   5.565   6.621   6.105 -0.3415  0.2551  0.1658
15524SOL    HW149592   5.594   6.706   6.072 -1.4652  0.4904 -0.2239
15524SOL    HW249593   5.627   6.600   6.174  0.6319  0.8600 -0.5097
15525SOL     OW49594   6.951   2.379   7.258  0.3986 -0.3938 -0.0971
15525SOL    HW149595   7.046   2.372   7.262  0.5288  0.8692 -0.9481
15525SOL    HW249596   6.924   2.303   7.206  0.8305 -1.4194  1.1444
15526SOL     OW49597   1.026   5.380   2.758  0.3745 -0.4867  0.2356
15526SOL    HW149598   1.071   5.456   2.795  0.9375 -0.1270 -1.1603
15526SOL    HW249599   1.094   5.335   2.707 -0.1560 -1.4744  0.4091
15527SOL     OW49600   1.805   7.523   8.159 -0.1907 -0.0532 -0.0239
15527SOL    HW149601   1.781   7.611   8.129 -0.2092 -0.4775 -1.2740
15527SOL    HW249602   1.750   7.509   8.237  0.2249  1.2563  0.5129
15528SOL     OW49603   5.704   5.757   2.725 -0.5837  0.0022  0.1027
15528SOL    HW149604   5.648   5.685   2.694  1.0558 -0.8677 -0.9197
15528SOL    HW249605   5.793   5.722   2.718  0.0800  1.2282  2.0729
15529SOL     OW49606   3.277   4.475   7.563  0.3163  0.3613  0.4382
15529SOL    HW149607   3.356   4.528   7.578 -0.1458  1.7515 -1.9226
15529SOL    HW249608   3.311   4.392   7.529  0.7173  1.6494 -2.4458
15530SOL     OW49609   1.972   5.606   0.919 -0.3435  0.3220  0.4109
15530SOL    HW149610   1.974   5.695   0.954 -0.2154 -0.1491  1.6385
15530SOL    HW249611   1.907   5.608   0.849 -1.8214  0.9095  1.7685
15531SOL     OW49612   9.376   1.867   2.700  0.2541  0.3418  0.1309
15531SOL    HW149613   9.467   1.865   2.730  0.1592 -2.6212  0.4343
15531SOL    HW249614   9.380   1.846   2.607 -0.0255  1.6273 -0.1778
15532SOL     OW49615   4.114   2.383   0.595  0.6413  0.2585  0.5268
15532SOL    HW149616   4.066   2.434   0.660 -0.8004 -0.1374 -0.2124
15532SOL    HW249617   4.054   2.312   0.571  2.2796 -1.2775  0.8997
15533SOL     OW49618   0.587   6.986   4.683 -0.0971 -0.6279 -0.2219
15533SOL    HW149619   0.662   6.999   4.741 -0.7452  0.6190  0.3424
15533SOL    HW249620   0.514   6.969   4.742 -0.9505  1.5560 -0.6069
15534SOL     OW49621   5.784   5.043   6.171  0.2483  0.4377 -0.3487
15534SOL    HW149622   5.742   5.047   6.257 -1.8560 -0.5933 -1.2774
15534SOL    HW249623   5.726   5.094   6.114  1.6886  1.2060 -1.1471
15535SOL     OW49624   3.534   4.687   6.851 -0.0321 -0.0433 -0.1080
15535SOL    HW149625   3.463   4.627   6.877 -1.7059  2.1095  0.3987
15535SOL    HW249626   3.559   4.730   6.932  1.0991  0.0383 -0.4969
15536SOL     OW49627   8.222   5.898   0.821 -0.0728  0.7120 -0.2742
15536SOL    HW149628   8.141   5.942   0.846  0.0325  0.7835 -0.0533
15536SOL    HW249629   8.208   5.807   0.845  0.6625  1.0647  1.6285
15537SOL     OW49630   3.478   6.235   7.904 -0.0300 -0.6341 -0.3881
15537SOL    HW149631   3.491   6.221   7.998  0.7353 -0.2830 -0.4342
15537SOL    HW249632   3.537   6.307   7.882  0.0927 -0.9760 -1.2194
15538SOL     OW49633   1.199   8.134   7.728  0.2060 -0.3060 -0.3300
15538SOL    HW149634   1.193   8.226   7.751 -2.9802 -0.6130  0.3219
15538SOL    HW249635   1.218   8.090   7.811 -0.4924 -0.4420 -0.2438
15539SOL     OW49636   3.615   3.499   0.729 -0.1235  0.1655  0.5356
15539SOL    HW149637   3.633   3.564   0.661  0.9859 -0.8216 -0.1503
15539SOL    HW249638   3.662   3.421   0.699  0.1773 -0.3579  2.3333
15540SOL     OW49639   1.044   3.773   7.691 -0.4691  0.2426  0.1424
15540SOL    HW149640   1.049   3.679   7.708 -0.1823  0.2556  0.1467
15540SOL    HW249641   1.055   3.814   7.776 -0.0663  0.2884  0.0712
15541SOL     OW49642   3.194   6.225   7.520 -0.0614 -0.1318  0.7420
15541SOL    HW149643   3.227   6.254   7.434 -1.1951  0.0565  0.3557
15541SOL    HW249644   3.265   6.174   7.557  0.7266  0.4055  0.0023
15542SOL     OW49645   0.332   4.422   2.368  0.1724  0.2898  0.0355
15542SOL    HW149646   0.247   4.378   2.375  0.2428  0.1888  0.2694
15542SOL    HW249647   0.324   4.499   2.424  0.7875 -0.5979  1.3806
15543SOL     OW49648   1.536   1.760   2.968  0.4966 -0.1774  0.0947
15543SOL    HW149649   1.570   1.831   2.913  0.4386 -0.1196  0.1331
15543SOL    HW249650   1.498   1.698   2.906  1.5255 -0.7024 -0.0121
15544SOL     OW49651   4.578   6.494   4.433  0.5905  0.7272 -0.1257
15544SOL    HW149652   4.637   6.481   4.359  0.9883 -2.3418  0.6517
15544SOL    HW249653   4.494   6.459   4.403  0.4550  0.5172  0.4985
15545SOL     OW49654   1.655   4.388   8.940 -0.5786  0.2700  0.3803
15545SOL    HW149655   1.745   4.364   8.918 -1.0660 -0.5492 -0.7685
15545SOL    HW249656   1.652   4.382   9.036  0.4722 -0.1006  0.3996
15546SOL     OW49657   7.299   5.979   0.941 -0.7651 -0.0188 -0.0848
15546SOL    HW149658   7.232   6.045   0.924 -0.6052  0.4296  0.9662
15546SOL    HW249659   7.354   5.979   0.863  0.1993  2.2806  0.5496
15547SOL     OW49660   6.770   5.249   9.098  0.0390 -0.3046  0.5677
15547SOL    HW149661   6.742   5.161   9.075 -0.7556  0.4086 -1.2844
15547SOL    HW249662   6.773   5.296   9.015  1.3861  1.1650  1.4077
15548SOL     OW49663   6.423   0.583   0.184 -0.4087  0.6078 -0.2061
15548SOL    HW149664   6.379   0.595   0.099 -0.3229  1.3898 -0.1493
15548SOL    HW249665   6.407   0.666   0.230 -0.7796  0.0371  0.6894
15549SOL     OW49666   1.261   0.380   8.111 -1.1544 -0.1935  0.1597
15549SOL    HW149667   1.177   0.342   8.134 -0.6898 -1.9935 -0.9432
15549SOL    HW249668   1.325   0.332   8.165 -0.7102  0.2054 -0.0052
15550SOL     OW49669   7.776   4.345   8.266  0.3697  1.0512  0.0351
15550SOL    HW149670   7.702   4.389   8.309 -1.0847 -0.9164 -0.3657
15550SOL    HW249671   7.749   4.337   8.175  2.1814  2.5558 -0.6537
15551SOL     OW49672   5.809   3.669   8.749  0.0687  0.5637 -0.1118
15551SOL    HW149673   5.746   3.650   8.680 -0.3658  0.6776  0.2525
15551SOL    HW249674   5.771   3.629   8.828  0.0045  1.4210  0.2971
15552SOL     OW49675   3.558   3.923   1.579  0.1290 -0.2167  0.9647
15552SOL    HW149676   3.477   3.916   1.629 -0.0338 -0.6654  0.6467
15552SOL    HW249677   3.596   3.835   1.583  0.7990  0.0933  1.4455
15553SOL     OW49678   2.197   2.786   3.557 -0.5131 -0.5911  0.1544
15553SOL    HW149679   2.278   2.779   3.506  0.0271  0.0971  0.9014
15553SOL    HW249680   2.209   2.866   3.609 -2.5897  0.7845 -1.3906
15554SOL     OW49681   1.602   1.316   9.139  0.0797 -0.3627  0.0033
15554SOL    HW149682   1.615   1.229   9.177  0.0996 -0.1714  0.4490
15554SOL    HW249683   1.591   1.301   9.046 -0.0740 -0.8578  0.1006
15555SOL     OW49684   6.554   4.883   5.481  0.1841  0.3838  0.3951
15555SOL    HW149685   6.484   4.936   5.521 -1.0755  0.2424 -1.5849
15555SOL    HW249686   6.606   4.946   5.431  1.0277  0.3514  1.1995
15556SOL     OW49687   9.262   7.620   6.066  0.4417  0.2397  0.5928
15556SOL    HW149688   9.345   7.661   6.043  0.0868  0.7822  0.2625
15556SOL    HW249689   9.204   7.693   6.084  0.2709 -0.1506  1.6675
15557SOL     OW49690   3.973   4.569   3.838  0.1467  0.4231  0.2712
15557SOL    HW149691   3.973   4.646   3.780  2.6603  0.2706  0.0040
15557SOL    HW249692   3.957   4.495   3.779  0.9205  0.4424  0.0298
15558SOL     OW49693   9.053   9.214   8.000  0.3211  0.3533 -0.2990
15558SOL    HW149694   9.110   9.169   8.061 -0.4256 -0.1958  0.0003
15558SOL    HW249695   9.084   9.187   7.913 -0.6636 -1.4275 -0.1150
15559SOL     OW49696   6.168   0.301   0.903  0.0101 -0.0122 -0.3964
15559SOL    HW149697   6.140   0.310   0.812  0.1735 -0.2979 -0.4724
15559SOL    HW249698   6.095   0.256   0.945  0.1604 -0.3430 -0.4951
15560SOL     OW49699   2.161   9.036   6.083  0.7694 -0.2770  0.3058
15560SOL    HW149700   2.108   9.014   6.006  0.5055  0.6217  0.2362
15560SOL    HW249701   2.239   9.079   6.047  1.3092 -1.1093  0.4492
15561SOL     OW49702   1.378   0.989   2.310  0.0310 -0.0710  0.0674
15561SOL    HW149703   1.471   1.014   2.313 -0.5612  2.1539  0.4014
15561SOL    HW249704   1.340   1.045   2.243 -1.7636  1.4645  2.2798
15562SOL     OW49705   7.820   7.402   7.410  0.6654  0.1889 -0.0552
15562SOL    HW149706   7.884   7.465   7.443  0.1750  2.0637 -2.5242
15562SOL    HW249707   7.864   7.361   7.335 -0.3514  0.1900 -0.6549
15563SOL     OW49708   2.068   1.792   6.639  0.2317 -0.2195 -0.0006
15563SOL    HW149709   2.050   1.725   6.574  2.0707 -1.0613  0.3124
15563SOL    HW249710   1.982   1.824   6.666 -0.6229 -1.7060 -0.9126
15564SOL     OW49711   9.418   1.474   1.878  0.1768  0.1937 -0.1790
15564SOL    HW149712   9.323   1.486   1.889 -0.0972 -0.5956 -1.5260
15564SOL    HW249713   9.433   1.383   1.904  0.4402  0.0791 -0.7344
15565SOL     OW49714   4.571   9.214   2.275  0.3010 -0.1299 -0.2491
15565SOL    HW149715   4.661   9.206   2.306  0.2962 -0.9886 -0.4552
15565SOL    HW249716   4.577   9.277   2.203  0.5209  0.8402  0.6060
15566SOL     OW49717   7.464   7.465   7.280 -0.0377  0.0407 -0.4885
15566SOL    HW149718   7.502   7.551   7.294  2.4840 -1.1326  0.2396
15566SOL    HW249719   7.511   7.408   7.341 -1.4739 -1.8933 -1.1378
15567SOL     OW49720   0.556   4.509   2.122  0.0099 -0.1314  0.9037
15567SOL    HW149721   0.620   4.580   2.123 -1.4720  1.2215  0.9924
15567SOL    HW249722   0.539   4.492   2.215  0.1373 -0.4168  0.8763
15568SOL     OW49723   7.582   2.752   1.957 -0.2497  0.7670  0.2629
15568SOL    HW149724   7.493   2.718   1.954 -0.1527  0.6125 -1.1276
15568SOL    HW249725   7.572   2.843   1.984 -0.9626  1.1914 -1.3787
15569SOL     OW49726   8.426   7.894   1.106 -0.0043 -0.1721 -0.1571
15569SOL    HW149727   8.513   7.934   1.106 -0.4021  0.7223  0.4348
15569SOL    HW249728   8.368   7.961   1.069 -0.6646 -0.2360  0.7366
15570SOL     OW49729   7.632   7.123   2.052  0.0143 -0.0731 -0.0323
15570SOL    HW149730   7.660   7.039   2.015  0.8356 -0.4091  1.3036
15570SOL    HW249731   7.623   7.105   2.146  2.2582  1.8485  0.6087
15571SOL     OW49732   5.446   5.248   7.418 -0.4673  0.5150 -0.0453
15571SOL    HW149733   5.361   5.263   7.376 -0.9184 -0.3111  0.5655
15571SOL    HW249734   5.448   5.154   7.434  0.6564  0.5025 -0.2485
15572SOL     OW49735   2.453   1.721   2.227  0.2923  0.1560 -0.0364
15572SOL    HW149736   2.431   1.629   2.215  1.2274 -0.2053  0.8721
15572SOL    HW249737   2.393   1.751   2.296 -1.2061  0.7088 -1.5555
15573SOL     OW49738   6.917   5.243   2.340 -0.1487  0.3649 -0.7752
15573SOL    HW149739   6.847   5.257   2.404  1.0860  2.3236  0.1684
15573SOL    HW249740   6.874   5.195   2.269 -1.9376 -0.3601  0.7409
15574SOL     OW49741   8.179   1.465   5.550  0.2310  0.4258  1.1158
15574SOL    HW149742   8.180   1.527   5.477  1.5806 -0.1975  0.5751
15574SOL    HW249743   8.087   1.454   5.571 -0.2090  0.3532 -0.7403
15575SOL     OW49744   5.451   8.289   1.555 -0.8656  0.2236  0.2160
15575SOL    HW149745   5.469   8.202   1.593 -0.8721  0.2719  0.3330
15575SOL    HW249746   5.396   8.271   1.479 -2.5901  0.2907  1.4298
15576SOL     OW49747   8.452   7.004   2.872  0.2310 -0.2503 -0.3815
15576SOL    HW149748   8.426   7.093   2.850 -3.1806 -1.1778 -0.4292
15576SOL    HW249749   8.468   7.005   2.966  1.0875  0.5853 -0.5302
15577SOL     OW49750   4.307   3.923   1.989  0.5350 -0.3185  0.1641
15577SOL    HW149751   4.232   3.908   2.046  0.4305 -0.4732 -0.0118
15577SOL    HW249752   4.377   3.951   2.047  0.2677  0.0613  0.2981
15578SOL     OW49753   4.187   3.087   8.715 -0.4152 -0.3500  0.5002
15578SOL    HW149754   4.280   3.098   8.699 -0.5756  0.7395  0.3032
15578SOL    HW249755   4.145   3.121   8.635 -0.9727 -0.9367  0.5376
15579SOL     OW49756   7.581   2.369   5.554 -0.1449 -1.1129 -0.2176
15579SOL    HW149757   7.592   2.344   5.646 -1.2939  3.9800  1.4541
15579SOL    HW249758   7.670   2.384   5.522  0.1448 -0.8029  0.7158
15580SOL     OW49759   4.846   2.922   2.542 -0.1649 -0.0743  0.1607
15580SOL    HW149760   4.923   2.979   2.534 -0.8345  0.7977 -0.1176
15580SOL    HW249761   4.864   2.850   2.482  0.3819  0.1746  0.0178
15581SOL     OW49762   4.566   6.385   1.516 -0.3585 -0.0846 -0.3490
15581SOL    HW149763   4.646   6.424   1.552 -0.2611  0.2257 -0.8829
15581SOL    HW249764   4.544   6.442   1.441 -1.3384  0.1046  0.0762
15582SOL     OW49765   1.911   8.348   4.671 -0.5494  0.0828 -0.0151
15582SOL    HW149766   1.938   8.387   4.588  0.5194 -1.1500 -0.2607
15582SOL    HW249767   1.885   8.422   4.725  0.3773  1.0380 -0.8634
15583SOL     OW49768   2.429   5.655   6.355 -0.0808 -0.1154  0.1410
15583SOL    HW149769   2.522   5.645   6.378 -0.0097  0.7806  0.2357
15583SOL    HW249770   2.425   5.634   6.262  0.4575  1.3303 -0.2102
15584SOL     OW49771   5.316   3.419   9.071 -0.0790  0.0121 -0.2633
15584SOL    HW149772   5.368   3.366   9.010  0.4146  0.0582  0.1158
15584SOL    HW249773   5.248   3.359   9.102 -0.6215  0.1201 -1.2125
15585SOL     OW49774   6.194   1.017   4.737 -0.5487  0.0050  0.5481
15585SOL    HW149775   6.117   0.961   4.728 -0.0919 -0.6686  0.8107
15585SOL    HW249776   6.168   1.083   4.802 -1.3436  0.5557 -0.3058
15586SOL     OW49777   1.506   0.439   3.199  0.1632 -0.2014  0.7178
15586SOL    HW149778   1.421   0.468   3.166  1.0012 -0.8089 -2.0818
15586SOL    HW249779   1.507   0.345   3.184  1.5816 -0.1035  0.1309
15587SOL     OW49780   0.572   8.747   7.343 -0.2820  0.5584  0.2073
15587SOL    HW149781   0.610   8.660   7.354 -1.0776  0.1885  0.0701
15587SOL    HW249782   0.644   8.808   7.362 -0.5465 -0.1019  3.6249
15588SOL     OW49783   5.398   3.627   6.720 -0.0666  0.4581 -0.1824
15588SOL    HW149784   5.367   3.542   6.687  0.3178 -0.3056  1.3942
15588SOL    HW249785   5.489   3.632   6.691 -0.5918  1.1206 -1.7668
15589SOL     OW49786   2.979   1.170   0.504 -0.1977  0.1818  0.4147
15589SOL    HW149787   3.049   1.108   0.523 -1.3209 -0.7520  1.5149
15589SOL    HW249788   2.930   1.130   0.432  0.7822  1.1554 -0.8222
15590SOL     OW49789   1.624   3.390   0.272  0.3239  0.0090  0.0586
15590SOL    HW149790   1.572   3.309   0.278 -0.2294  0.4712  2.1475
15590SOL    HW249791   1.686   3.384   0.345  2.2955  0.1190 -1.5824
15591SOL     OW49792   0.060   7.544   2.380 -0.0752 -0.2093 -0.0274
15591SOL    HW149793   0.127   7.581   2.437  0.1556  1.6666 -1.4708
15591SOL    HW249794  -0.022   7.580   2.413 -0.3757 -2.1294  1.4399
15592SOL     OW49795   6.524   0.864   4.524  0.1554  0.0782  0.0531
15592SOL    HW149796   6.485   0.873   4.611 -0.0622 -0.4331  0.0117
15592SOL    HW249797   6.557   0.951   4.504  0.2382  0.1913  0.6641
15593SOL     OW49798   7.281   4.002   4.182  0.2615 -0.2178 -0.0236
15593SOL    HW149799   7.220   3.974   4.250 -1.2784 -0.7662 -1.5776
15593SOL    HW249800   7.239   4.079   4.143  0.2516 -0.9627 -1.5097
15594SOL     OW49801   6.180   7.693   5.273  0.0272  0.1026 -0.1157
15594SOL    HW149802   6.175   7.659   5.184  1.9903 -0.4919 -0.0335
15594SOL    HW249803   6.267   7.732   5.279 -0.6903  1.5795  1.0509
15595SOL     OW49804   7.883   1.046   0.351 -0.1743  0.0896  0.4262
15595SOL    HW149805   7.969   1.006   0.362 -1.2636 -2.3558  0.3057
15595SOL    HW249806   7.901   1.140   0.343  2.4202 -0.3381  0.9043
15596SOL     OW49807   4.083   4.315   0.882  0.5685 -0.0606  0.3858
15596SOL    HW149808   4.009   4.372   0.862  0.9423  0.2300 -0.1935
15596SOL    HW249809   4.092   4.320   0.977 -1.2149 -1.4479  0.6493
15597SOL     OW49810   8.707   4.363   4.168 -0.2667  0.2776 -0.1990
15597SOL    HW149811   8.710   4.332   4.077 -0.5318  0.3620 -0.2367
15597SOL    HW249812   8.797   4.389   4.187 -0.3594  0.9967 -0.7025
15598SOL     OW49813   4.070   1.982   0.230 -0.2637  0.5480  0.4509
15598SOL    HW149814   3.996   1.991   0.170 -0.9733 -0.2580  1.1873
15598SOL    HW249815   4.140   1.945   0.177 -1.1206 -0.8866  0.2912
15599SOL     OW49816   1.931   1.689   7.823  0.2070  0.0805  0.3216
15599SOL    HW149817   1.836   1.686   7.833  0.0577 -1.7220 -1.2976
15599SOL    HW249818   1.961   1.607   7.864  0.8434 -0.4010 -1.0673
15600SOL     OW49819   9.059   3.020   7.413 -0.2950 -0.2734  0.4520
15600SOL    HW149820   9.028   3.108   7.434 -1.0375 -0.2013 -0.9478
15600SOL    HW249821   9.034   2.967   7.489  1.8243  1.0884  2.1640
15601SOL     OW49822   7.941   7.216   6.273  0.2237  0.0146 -0.4073
15601SOL    HW149823   7.859   7.231   6.227  0.7916  3.3730 -0.4929
15601SOL    HW249824   7.930   7.261   6.357  0.8590 -2.1861  0.8983
15602SOL     OW49825   1.742   0.519   6.413  0.7432 -0.0248 -0.0385
15602SOL    HW149826   1.650   0.507   6.391  1.0578  0.5214 -1.7761
15602SOL    HW249827   1.774   0.431   6.434  0.0738 -0.3562 -0.3904
15603SOL     OW49828   0.963   6.145   6.101 -0.1617  0.1661  0.5306
15603SOL    HW149829   0.982   6.201   6.026  0.1844  1.9271  1.9116
15603SOL    HW249830   0.909   6.199   6.158 -0.5198 -1.2067  1.5155
15604SOL     OW49831   9.181   2.885   7.991 -0.3249 -0.0316  0.5254
15604SOL    HW149832   9.187   2.961   7.933 -0.1319 -0.8779 -0.5759
15604SOL    HW249833   9.096   2.895   8.034 -0.0485  1.1112  0.8394
15605SOL     OW49834   0.018   1.426   6.549 -0.1047 -0.1522 -0.1585
15605SOL    HW149835   0.092   1.417   6.609  0.2586 -0.5589 -0.6540
15605SOL    HW249836   0.057   1.411   6.462 -0.3493  1.7780 -0.6179
15606SOL     OW49837   7.869   1.293   6.186 -0.4056 -0.1860 -0.1182
15606SOL    HW149838   7.805   1.224   6.166 -0.0554 -0.2955 -0.8714
15606SOL    HW249839   7.881   1.339   6.104  0.0319  0.2206  0.1709
15607SOL     OW49840   6.407   3.750   2.690 -0.1869  0.8675 -0.3526
15607SOL    HW149841   6.451   3.665   2.694 -1.8721  0.0399  2.3769
15607SOL    HW249842   6.477   3.814   2.698  0.9684 -0.2904 -1.0064
15608SOL     OW49843   5.190   8.837   3.064  0.0871  0.1014  0.3008
15608SOL    HW149844   5.147   8.898   3.123  0.3642  0.2053  0.3977
15608SOL    HW249845   5.126   8.821   2.994 -0.7652 -1.0944  1.3444
15609SOL     OW49846   5.517   7.022   3.414  0.1953  0.0227 -0.1451
15609SOL    HW149847   5.551   7.082   3.347  0.7151  0.0366  0.1270
15609SOL    HW249848   5.434   7.062   3.441 -0.2352 -0.2113 -1.0896
15610SOL     OW49849   0.813   5.137   1.570 -0.0889 -0.0069  0.0144
15610SOL    HW149850   0.850   5.221   1.599 -0.8844  0.7245 -1.0447
15610SOL    HW249851   0.825   5.137   1.475 -1.3195 -0.4803 -0.1503
15611SOL     OW49852   1.463   7.377   4.140 -0.1028  0.2546 -0.0993
15611SOL    HW149853   1.485   7.331   4.059  2.0848  0.5172  0.3135
15611SOL    HW249854   1.472   7.470   4.119 -0.1038  0.3425  0.2880
15612SOL     OW49855   7.086   3.357   8.813 -0.0898 -0.4476  0.6422
15612SOL    HW149856   6.995   3.333   8.798 -0.1132  0.6377 -1.0865
15612SOL    HW249857   7.136   3.283   8.778 -0.2441  0.3773 -1.3632
15613SOL     OW49858   5.204   8.175   6.187  1.4348  0.0257  0.2710
15613SOL    HW149859   5.219   8.142   6.275  0.0544 -0.8350  0.1829
15613SOL    HW249860   5.148   8.110   6.145 -0.1966  1.7768 -0.3483
15614SOL     OW49861   2.996   3.413   1.440  0.5328  0.3147 -0.1880
15614SOL    HW149862   3.020   3.396   1.349  2.0233 -0.7020  0.3902
15614SOL    HW249863   2.963   3.329   1.472  1.1880  0.3501  0.5806
15615SOL     OW49864   0.604   5.259   9.114  0.3818 -0.1620 -0.1424
15615SOL    HW149865   0.683   5.206   9.103  0.0156 -1.4448  2.8998
15615SOL    HW249866   0.566   5.229   9.196 -1.7934  2.3687 -0.1416
15616SOL     OW49867   6.804   4.463   0.422 -0.0637  0.0376  0.4279
15616SOL    HW149868   6.821   4.557   0.412 -1.7827  0.4244  0.8857
15616SOL    HW249869   6.867   4.433   0.486 -0.4402  1.1935  1.3481
15617SOL     OW49870   3.658   7.919   3.639 -0.1709  0.1823  0.0070
15617SOL    HW149871   3.740   7.893   3.597  0.5219 -0.2524  1.5786
15617SOL    HW249872   3.590   7.882   3.583  0.6945  0.6732 -1.3938
15618SOL     OW49873   4.179   5.478   3.666  0.1848 -0.0310  0.2978
15618SOL    HW149874   4.084   5.469   3.660  0.3471 -1.9333  0.4097
15618SOL    HW249875   4.213   5.418   3.600  1.3163  0.5670  0.3325
15619SOL     OW49876   9.289   4.330   3.764  0.3069  0.9767  0.1413
15619SOL    HW149877   9.254   4.277   3.692 -1.4433 -0.6957  2.1419
15619SOL    HW249878   9.217   4.388   3.789  0.7171  1.1766  0.8818
15620SOL     OW49879   2.305   1.850   1.873  1.0348  0.7917  0.0668
15620SOL    HW149880   2.271   1.773   1.918  0.5870  1.2073  0.4586
15620SOL    HW249881   2.400   1.838   1.872  0.9506  0.1537 -0.0329
15621SOL     OW49882   3.870   6.764   6.176  0.4325  0.3262 -0.5413
15621SOL    HW149883   3.811   6.689   6.179 -1.2906  1.6713 -0.2031
15621SOL    HW249884   3.904   6.765   6.087  0.0673 -0.5233 -0.6968
15622SOL     OW49885   4.834   0.296   0.076  0.4313  0.1490 -0.0050
15622SOL    HW149886   4.749   0.263   0.105 -0.1180  1.1108 -0.4841
15622SOL    HW249887   4.841   0.267  -0.015  0.0944  1.0184 -0.3230
15623SOL     OW49888   2.453   8.708   6.305  0.2587 -0.3945 -0.3707
15623SOL    HW149889   2.542   8.706   6.270  0.7198 -1.2717  0.8217
15623SOL    HW249890   2.446   8.794   6.348 -0.4696  0.8836 -2.9513
15624SOL     OW49891   0.423   0.667   7.244 -0.4113  0.0390  0.2509
15624SOL    HW149892   0.434   0.589   7.299 -1.2485  0.6580  1.3211
15624SOL    HW249893   0.329   0.685   7.247 -0.1080  1.5972  0.7388
15625SOL     OW49894   8.907   4.331   6.011 -0.0324 -0.3116 -0.2878
15625SOL    HW149895   8.863   4.318   5.927  0.5384 -1.2305 -0.4560
15625SOL    HW249896   8.850   4.290   6.076 -0.2670  0.0287 -0.2774
15626SOL     OW49897   1.896   1.740   6.197 -0.0009  0.3061 -0.3265
15626SOL    HW149898   1.908   1.695   6.280 -0.3795  2.5769  0.9887
15626SOL    HW249899   1.978   1.726   6.149  0.7697  0.2006  1.0152
15627SOL     OW49900   0.687   4.146   0.010  0.2845 -0.3470 -0.0899
15627SOL    HW149901   0.700   4.113  -0.078  0.5549  1.2332 -0.6585
15627SOL    HW249902   0.594   4.169   0.013  0.7169  1.6135 -0.7016
15628SOL     OW49903   3.010   6.905   1.827  0.0270  0.2159  0.1508
15628SOL    HW149904   2.983   6.949   1.746  2.2355 -1.1370 -1.4020
15628SOL    HW249905   2.944   6.930   1.891 -1.5940  1.6307 -1.9731
15629SOL     OW49906   1.377   8.277   1.227  0.2951  0.4748 -0.2830
15629SOL    HW149907   1.390   8.206   1.165 -2.4120  0.1676 -0.5481
15629SOL    HW249908   1.358   8.233   1.310 -1.9612  0.8352 -0.5743
15630SOL     OW49909   6.816   5.587   0.730 -0.1719 -0.7497  0.3470
15630SOL    HW149910   6.827   5.559   0.821 -1.5090  0.1469  0.8080
15630SOL    HW249911   6.721   5.581   0.715  0.0329 -0.8419 -0.9755
15631SOL     OW49912   3.180   6.222   3.059  0.1980  0.1695 -0.4297
15631SOL    HW149913   3.205   6.250   3.148 -1.4610 -1.7912  0.6945
15631SOL    HW249914   3.100   6.170   3.072 -0.4747  0.4488 -3.1664
15632SOL     OW49915   4.804   5.609   6.470 -0.4608  0.6173 -1.0448
15632SOL    HW149916   4.709   5.609   6.483 -0.3797 -0.3405 -0.4072
15632SOL    HW249917   4.816   5.572   6.383 -0.7005  1.2679 -1.3575
15633SOL     OW49918   5.445   9.288   1.227 -0.1494 -0.7222 -0.2623
15633SOL    HW149919   5.368   9.290   1.284 -0.3801 -2.5046 -0.4847
15633SOL    HW249920   5.428   9.356   1.162 -2.1644 -1.9208 -1.0676
15634SOL     OW49921   4.796   4.663   5.888  0.6962  0.5741  0.1149
15634SOL    HW149922   4.841   4.720   5.951  1.3980 -0.0886  0.2287
15634SOL    HW249923   4.794   4.713   5.807  1.0856  0.8653  0.2817
15635SOL     OW49924   2.995   8.211   8.925 -0.3326 -0.5577  0.6716
15635SOL    HW149925   3.026   8.235   9.012  1.3784 -1.7223  0.4037
15635SOL    HW249926   2.968   8.120   8.933 -1.6537 -0.2030  0.3524
15636SOL     OW49927   3.447   5.918   6.717  0.3422 -0.2631 -0.1206
15636SOL    HW149928   3.490   5.843   6.676  0.4414 -0.6886  0.7416
15636SOL    HW249929   3.482   5.920   6.806 -0.1947  0.3794  0.0850
15637SOL     OW49930   3.695   5.464   7.160 -0.0201  0.5789 -0.0940
15637SOL    HW149931   3.673   5.480   7.069  1.9506  0.3696 -0.6388
15637SOL    HW249932   3.700   5.551   7.200  0.6188  0.7595 -0.5632
15638SOL     OW49933   0.572   4.806   5.083 -0.1580  0.0012 -0.9159
15638SOL    HW149934   0.531   4.721   5.067 -0.3184  0.3331 -2.3699
15638SOL    HW249935   0.647   4.786   5.139 -1.8747 -0.7010  1.1691
15639SOL     OW49936   1.390   8.500   2.098 -0.4356  0.4549  0.3100
15639SOL    HW149937   1.394   8.479   2.191 -0.5622  0.2504  0.2678
15639SOL    HW249938   1.418   8.420   2.054  0.6394  0.8791  0.2068
15640SOL     OW49939   4.899   4.221   6.328 -0.1547  0.1353  0.5852
15640SOL    HW149940   4.816   4.262   6.350  1.4969  4.2182 -0.4110
15640SOL    HW249941   4.915   4.245   6.237  1.6510 -1.4405  0.4439
15641SOL     OW49942   7.903   3.607   1.348 -0.0492  0.3442 -0.1497
15641SOL    HW149943   7.852   3.539   1.303 -0.1195  0.3166 -0.0289
15641SOL    HW249944   7.947   3.654   1.277 -1.7707  1.6107 -0.4391
15642SOL     OW49945   9.237   4.820   7.365  0.1353  0.1271  0.1886
15642SOL    HW149946   9.143   4.839   7.356  0.2247  0.5671  0.1866
15642SOL    HW249947   9.241   4.755   7.436 -0.0140  1.5730  1.5512
15643SOL     OW49948   5.699   5.278   4.788  0.2950 -0.2465  0.0952
15643SOL    HW149949   5.703   5.349   4.852  0.6024 -0.7990  0.6923
15643SOL    HW249950   5.790   5.255   4.771  0.3111  1.1477 -1.9598
15644SOL     OW49951   3.068   6.846   4.775  0.1508  0.3695  0.5964
15644SOL    HW149952   3.130   6.802   4.716  0.7205  1.2517  0.5169
15644SOL    HW249953   3.114   6.926   4.802 -0.8357  0.8803  0.7802
15645SOL     OW49954   7.069   9.078   8.204  0.3174  0.1351  0.1556
15645SOL    HW149955   7.021   9.157   8.176  0.5246  0.3998  0.5475
15645SOL    HW249956   7.056   9.075   8.298  1.1066  0.2252  0.2645
15646SOL     OW49957   3.975   2.005   4.526  0.4009 -0.1763 -0.3705
15646SOL    HW149958   3.974   1.923   4.575  1.1036  0.1329  0.1772
15646SOL    HW249959   3.884   2.018   4.499  0.4580 -1.6310 -1.3208
15647SOL     OW49960   8.649   2.943   3.682  0.2406 -0.0475  0.3386
15647SOL    HW149961   8.712   2.903   3.741  0.3045 -1.9293 -0.9629
15647SOL    HW249962   8.579   2.879   3.674 -0.5988  0.9294 -0.2367
15648SOL     OW49963   5.971   8.870   4.013  0.3605 -0.4161 -0.3355
15648SOL    HW149964   5.910   8.796   4.014 -0.1762 -0.0177 -1.7451
15648SOL    HW249965   5.925   8.940   4.059  1.2768 -1.2390  1.9066
15649SOL     OW49966   8.386   2.052   9.141 -0.1540  0.5193 -0.3944
15649SOL    HW149967   8.357   2.101   9.065 -0.6312  1.0892  0.1464
15649SOL    HW249968   8.309   2.047   9.198 -0.0042 -0.5068 -0.2580
15650SOL     OW49969   3.960   0.832   5.482 -0.4379  0.5953 -0.6268
15650SOL    HW149970   3.942   0.835   5.576  1.6370 -1.3245 -0.1247
15650SOL    HW249971   3.925   0.748   5.454  3.6835 -1.3165 -0.4332
15651SOL     OW49972   2.132   7.002   6.590  0.2334  0.7892  0.2166
15651SOL    HW149973   2.058   7.061   6.572 -0.0844  0.2860 -0.1306
15651SOL    HW249974   2.172   6.987   6.505  0.5779  0.8488  0.3687
15652SOL     OW49975   2.299   7.278   6.536  0.0357 -0.1690  0.3239
15652SOL    HW149976   2.263   7.207   6.484  0.1425  0.3404 -0.4560
15652SOL    HW249977   2.290   7.248   6.627 -1.3795 -0.4833  0.0913
15653SOL     OW49978   0.267   0.963   0.518 -0.3887 -0.0396 -0.2444
15653SOL    HW149979   0.211   0.984   0.443 -0.7744  2.8904  0.8135
15653SOL    HW249980   0.355   0.961   0.483 -0.7194 -0.3058 -1.0738
15654SOL     OW49981   3.668   6.327   3.496  0.4107  0.0998 -0.1815
15654SOL    HW149982   3.693   6.417   3.477 -0.5870  0.6685  1.0482
15654SOL    HW249983   3.606   6.304   3.426 -0.6457  0.9849  0.4344
15655SOL     OW49984   8.484   8.951   2.065 -0.2548  0.0913 -0.0839
15655SOL    HW149985   8.562   8.939   2.009 -0.3346  0.3447 -0.2509
15655SOL    HW249986   8.520   8.966   2.152 -0.1502 -1.4294  0.1472
15656SOL     OW49987   7.264   8.754   3.134  0.3222  0.5619  1.1499
15656SOL    HW149988   7.354   8.723   3.133 -0.2221 -1.1407  2.2221
15656SOL    HW249989   7.263   8.823   3.199  0.8578  0.6208  1.0998
15657SOL     OW49990   6.999   5.238   2.696 -0.5803 -0.1429 -0.5943
15657SOL    HW149991   7.081   5.211   2.655 -0.0154  0.5538  0.0581
15657SOL    HW249992   6.934   5.229   2.627  0.0474 -0.6783 -1.1284
15658SOL     OW49993   3.425   8.574   7.661 -0.4095 -0.0482  0.1050
15658SOL    HW149994   3.418   8.592   7.755  1.1939  1.2445  0.0059
15658SOL    HW249995   3.517   8.554   7.647 -0.7277 -0.6913 -1.1189
15659SOL     OW49996   6.318   5.172   8.377  0.1795 -0.3445  0.4358
15659SOL    HW149997   6.371   5.229   8.433 -1.0183  0.2184  1.0218
15659SOL    HW249998   6.378   5.143   8.308  1.2207  0.3354  1.0414
15660SOL     OW49999   8.284   8.617   2.401 -0.2818  0.4518  0.1273
15660SOL    HW150000   8.225   8.637   2.328 -0.8739 -0.7160  0.2752
15660SOL    HW250001   8.310   8.526   2.387  1.9740  1.1223 -0.2607
15661SOL     OW50002   8.587   6.228   4.836 -0.1211 -0.1404  0.2797
15661SOL    HW150003   8.626   6.269   4.759  1.5332  0.3491  1.3367
15661SOL    HW250004   8.496   6.259   4.837  0.2819  1.1061 -0.5981
15662SOL     OW50005   1.344   4.121   4.057  0.0952  0.4195  0.2315
15662SOL    HW150006   1.396   4.137   4.137  1.3286  0.0518 -0.4839
15662SOL    HW250007   1.334   4.207   4.018  2.1347  0.2025 -0.8128
15663SOL     OW50008   5.455   1.815   5.661  0.1516 -0.0318 -0.6395
15663SOL    HW150009   5.512   1.740   5.678 -0.9579 -0.8287 -0.3416
15663SOL    HW250010   5.425   1.803   5.571 -0.8473 -0.5195 -0.2518
15664SOL     OW50011   8.226   4.496   2.217 -0.0891  0.1793  0.2507
15664SOL    HW150012   8.321   4.503   2.203 -0.4019 -0.7211 -2.9160
15664SOL    HW250013   8.208   4.402   2.206 -1.2612  0.2663  1.4222
15665SOL     OW50014   1.561   0.945   0.818  0.0648  0.0099 -0.4616
15665SOL    HW150015   1.621   0.883   0.861 -0.0974  0.4011  0.3512
15665SOL    HW250016   1.475   0.924   0.853 -0.1187  0.1347 -0.8354
15666SOL     OW50017   7.314   6.426   2.381 -0.1397  0.0772  0.3086
15666SOL    HW150018   7.409   6.432   2.371 -0.1145 -3.7278 -3.8001
15666SOL    HW250019   7.295   6.333   2.365 -4.4403  0.4859  2.4099
15667SOL     OW50020   4.326   8.520   1.616 -0.2894 -0.2464 -0.5699
15667SOL    HW150021   4.364   8.597   1.575  0.8100 -0.4518  0.0394
15667SOL    HW250022   4.241   8.550   1.648 -0.7080  0.1885 -2.0424
15668SOL     OW50023   3.908   2.606   2.414  0.2214  0.3415 -0.3304
15668SOL    HW150024   3.891   2.671   2.482 -0.9230 -0.2436 -0.0476
15668SOL    HW250025   3.849   2.534   2.434  1.8184 -1.0081 -0.3583
15669SOL     OW50026   7.232   4.542   8.233  0.3396 -0.2210  0.5765
15669SOL    HW150027   7.219   4.624   8.281 -0.5361  0.6925 -1.1742
15669SOL    HW250028   7.322   4.516   8.255 -0.6080 -0.8154  4.1105
15670SOL     OW50029   7.452   8.093   7.401  0.0933 -0.0407  0.2850
15670SOL    HW150030   7.451   8.126   7.491 -1.7383 -0.1259  0.3010
15670SOL    HW250031   7.370   8.124   7.363  0.2024 -1.2101 -0.9246
15671SOL     OW50032   4.544   8.792   0.612  0.8621  0.2557 -0.3483
15671SOL    HW150033   4.521   8.884   0.602  3.1594  0.6106 -2.9734
15671SOL    HW250034   4.601   8.790   0.689  1.2746  1.1249 -0.6280
15672SOL     OW50035   5.004   3.542   6.797 -0.1258  0.0874  0.0525
15672SOL    HW150036   5.048   3.456   6.797  0.0674  0.1839 -0.4000
15672SOL    HW250037   5.020   3.577   6.884  0.0238 -0.2211  0.1515
15673SOL     OW50038   1.889   6.112   0.440  0.0654  0.1502  0.0749
15673SOL    HW150039   1.929   6.133   0.355  0.4592 -1.3912 -0.1234
15673SOL    HW250040   1.910   6.188   0.495 -1.8838  2.1010 -1.7489
15674SOL     OW50041   1.440   3.546   6.682  0.7004 -0.1665 -0.3466
15674SOL    HW150042   1.453   3.568   6.774 -0.0329 -2.2125  0.2724
15674SOL    HW250043   1.525   3.513   6.653  0.1092 -2.5961  0.5297
15675SOL     OW50044   8.237   3.912   8.609  0.4837 -0.0166 -0.0539
15675SOL    HW150045   8.184   3.926   8.688  0.2303  0.6510 -0.3341
15675SOL    HW250046   8.217   3.822   8.583  0.1460 -0.0583  0.3299
15676SOL     OW50047   0.489   5.220   5.209  0.3653 -0.7008  0.4346
15676SOL    HW150048   0.409   5.168   5.219 -0.3155  0.3770  0.6425
15676SOL    HW250049   0.514   5.208   5.118  0.0805 -1.1936  0.4161
15677SOL     OW50050   9.159   4.554   6.364  0.5391 -0.0676  0.1500
15677SOL    HW150051   9.094   4.491   6.396  1.3087 -0.9494  0.0167
15677SOL    HW250052   9.111   4.608   6.301 -0.1722 -0.4247  0.3731
15678SOL     OW50053   2.538   6.482   8.385 -0.2153 -0.7082  0.1566
15678SOL    HW150054   2.584   6.518   8.309  0.0383  0.4584  0.8493
15678SOL    HW250055   2.607   6.442   8.438  0.0068  0.9376  1.1366
15679SOL     OW50056   6.615   0.103   9.023  0.1430  0.0489 -0.0244
15679SOL    HW150057   6.617   0.139   8.934  0.2957 -1.1434 -0.5154
15679SOL    HW250058   6.522   0.087   9.039  0.3435 -2.4499 -1.1119
15680SOL     OW50059   0.846   5.722   8.758  0.7908  0.0697  0.1975
15680SOL    HW150060   0.846   5.724   8.854 -0.7279  0.2158  0.1983
15680SOL    HW250061   0.773   5.778   8.733 -0.2224 -1.7504 -1.0078
15681SOL     OW50062   2.700   7.796   9.163 -0.1122  0.3509 -0.3164
15681SOL    HW150063   2.783   7.841   9.180 -0.9602  1.9133 -0.1738
15681SOL    HW250064   2.651   7.857   9.107 -1.4420 -0.2450  0.1776
15682SOL     OW50065   1.654   0.647   6.945  0.0418  0.3748  0.7255
15682SOL    HW150066   1.708   0.609   6.875  0.0059  1.1490  0.2726
15682SOL    HW250067   1.596   0.575   6.971  0.6296 -0.1720  0.5457
15683SOL     OW50068   5.705   2.363   4.423 -0.1113  0.0940 -0.1965
15683SOL    HW150069   5.612   2.340   4.425 -0.3992  1.2817  0.4265
15683SOL    HW250070   5.716   2.425   4.495  1.1341  0.0872 -0.3721
15684SOL     OW50071   8.811   8.312   1.442 -0.1689  0.2155 -0.1497
15684SOL    HW150072   8.899   8.296   1.476  0.3818 -0.4521 -1.8426
15684SOL    HW250073   8.825   8.357   1.359 -1.3459 -1.5456 -1.3556
15685SOL     OW50074   2.964   1.565   7.042 -0.1721 -0.3271  0.3611
15685SOL    HW150075   2.891   1.603   7.092 -0.0720  0.3342  0.0129
15685SOL    HW250076   2.967   1.474   7.069 -0.6108 -0.1554  0.9919
15686SOL     OW50077   5.735   6.754   7.491 -0.3581 -0.1890  0.2033
15686SOL    HW150078   5.747   6.662   7.467  0.4325  0.3500 -1.6388
15686SOL    HW250079   5.817   6.778   7.534 -0.3011 -0.1798  0.0909
15687SOL     OW50080   2.933   0.915   5.697 -0.1821  0.2224  0.3719
15687SOL    HW150081   2.857   0.875   5.739 -0.6859 -0.1541 -0.8634
15687SOL    HW250082   2.899   0.995   5.657  0.4800  1.0423  1.4409
15688SOL     OW50083   2.008   8.917   5.857  0.3334 -0.1452 -0.5652
15688SOL    HW150084   2.093   8.877   5.835 -0.0566 -0.8840 -0.7615
15688SOL    HW250085   1.959   8.915   5.775  0.5275  1.3247 -0.7285
15689SOL     OW50086   3.108   3.858   9.271  0.4093 -0.9236  0.1396
15689SOL    HW150087   3.160   3.921   9.221 -1.4108  0.3768 -0.1699
15689SOL    HW250088   3.169   3.824   9.337  1.8354  0.0299 -0.6602
15690SOL     OW50089   1.170   2.437   8.415  0.0092  0.3601  0.0031
15690SOL    HW150090   1.251   2.434   8.364  1.5412 -0.4813  2.3751
15690SOL    HW250091   1.101   2.453   8.351  2.0480  1.0299 -2.0852
15691SOL     OW50092   5.216   6.916   3.785  0.0826 -0.1539 -0.1804
15691SOL    HW150093   5.238   6.855   3.715 -1.3775 -0.6002 -0.2708
15691SOL    HW250094   5.179   6.992   3.741  1.7684  0.7543 -0.0586
15692SOL     OW50095   9.249   5.554   0.346  0.0894  0.0568 -0.0338
15692SOL    HW150096   9.162   5.551   0.386 -0.1119  2.3567 -0.2464
15692SOL    HW250097   9.294   5.478   0.383 -0.7843  0.9053  2.9165
15693SOL     OW50098   5.111   2.689   3.978 -0.0929 -0.1670  1.0400
15693SOL    HW150099   5.086   2.742   4.054  0.0044 -0.2987  1.1642
15693SOL    HW250100   5.046   2.709   3.911  0.6496  1.0568  0.6685
15694SOL     OW50101   7.887   2.252   1.247  0.1855 -0.5175 -0.0728
15694SOL    HW150102   7.933   2.290   1.322  0.7260 -0.4977 -0.4172
15694SOL    HW250103   7.890   2.319   1.179  0.3788 -0.8400 -0.3849
15695SOL     OW50104   8.481   3.408   4.291  0.0847 -0.0038  0.0776
15695SOL    HW150105   8.477   3.502   4.270 -0.0762 -0.2375 -0.9698
15695SOL    HW250106   8.412   3.395   4.356 -0.1389  0.5406 -0.0450
15696SOL     OW50107   0.978   3.514   5.368 -0.4194  0.6338  0.0113
15696SOL    HW150108   1.007   3.605   5.378  3.3208 -0.6550  1.7056
15696SOL    HW250109   1.025   3.466   5.436 -0.2104 -3.0408 -2.5915
15697SOL     OW50110   1.629   5.788   0.582  0.1303 -0.7423 -0.3470
15697SOL    HW150111   1.642   5.881   0.600  0.5427 -0.9581  0.5146
15697SOL    HW250112   1.648   5.778   0.489 -0.6690  0.1641 -0.6138
15698SOL     OW50113   8.930   2.358   6.476 -0.0776 -0.0441 -0.2580
15698SOL    HW150114   8.845   2.392   6.448 -0.4931 -0.7128  0.1607
15698SOL    HW250115   8.947   2.284   6.418  0.2090  0.0819 -0.3337
15699SOL     OW50116   4.002   2.341   9.364 -0.6594  0.2501 -0.5490
15699SOL    HW150117   3.996   2.431   9.394 -1.1864 -0.3815  1.3023
15699SOL    HW250118   3.923   2.299   9.398 -1.1800 -0.5553 -2.6589
15700SOL     OW50119   7.217   5.769   3.936  0.0483  0.2462 -0.1699
15700SOL    HW150120   7.270   5.734   4.008 -0.1388  0.8767  0.2834
15700SOL    HW250121   7.240   5.862   3.932  0.5858  0.0577 -1.4056
15701SOL     OW50122   2.565   3.009   5.914  0.2949 -0.2787 -0.3475
15701SOL    HW150123   2.586   3.101   5.899  1.1863 -0.5820 -0.9742
15701SOL    HW250124   2.486   2.993   5.862  0.8151 -0.1724 -1.1769
15702SOL     OW50125   7.961   9.225   2.535  0.4594  0.1292 -0.1004
15702SOL    HW150126   7.974   9.198   2.626  0.3170 -0.4796 -0.2550
15702SOL    HW250127   7.968   9.320   2.537  0.1330  0.1463  0.6059
15703SOL     OW50128   1.287   7.475   5.881 -0.0992 -0.4490  0.0353
15703SOL    HW150129   1.378   7.475   5.852 -0.4143  1.7747 -1.0325
15703SOL    HW250130   1.289   7.520   5.965 -0.2085 -0.3944  0.0084
15704SOL     OW50131   9.384   8.148   0.001  0.1569 -0.3182  0.3901
15704SOL    HW150132   9.422   8.111   0.081  0.9279  0.4530  0.3947
15704SOL    HW250133   9.335   8.225   0.031 -1.1533 -1.1297  0.3433
15705SOL     OW50134   9.264   4.234   2.650 -0.1024 -0.2400 -0.5581
15705SOL    HW150135   9.256   4.162   2.588 -1.7380 -0.1965 -0.4186
15705SOL    HW250136   9.347   4.276   2.628  0.2601 -1.4097 -1.4437
15706SOL     OW50137   7.980   5.196   0.063 -0.2330  0.6426  0.6656
15706SOL    HW150138   8.021   5.191  -0.023 -0.9987  1.8807  0.2064
15706SOL    HW250139   8.020   5.125   0.114  0.1633 -0.1527 -0.7312
15707SOL     OW50140   5.935   0.267   2.205 -0.5313 -0.0597  0.0739
15707SOL    HW150141   5.947   0.291   2.113  0.2452 -0.7235 -0.0027
15707SOL    HW250142   5.966   0.176   2.210 -2.1771 -0.6139  0.6310
15708SOL     OW50143   7.695   6.374   2.631  0.0262  0.3198 -0.3223
15708SOL    HW150144   7.651   6.391   2.548  0.6982  0.9324 -0.5562
15708SOL    HW250145   7.636   6.315   2.678  0.3515 -1.2526 -1.8494
15709SOL     OW50146   3.976   8.626   9.431  0.8662 -0.4913 -0.0618
15709SOL    HW150147   3.930   8.635   9.347  0.7072  1.6544  0.2231
15709SOL    HW250148   3.946   8.542   9.466 -0.0115 -0.8309 -1.5809
15710SOL     OW50149   0.527   0.356   6.015 -0.5747 -0.3600  0.1430
15710SOL    HW150150   0.503   0.384   5.927  2.0485 -1.7763 -1.0808
15710SOL    HW250151   0.534   0.437   6.065 -1.4964  0.5123 -1.1081
15711SOL     OW50152   8.090   4.241   1.894  0.1456 -0.2783  0.3314
15711SOL    HW150153   8.159   4.200   1.945  1.0999  1.3437  0.3977
15711SOL    HW250154   8.126   4.326   1.869 -1.5859  0.3416 -0.1695
15712SOL     OW50155   7.583   4.967   1.752 -0.0988  0.7686  0.5263
15712SOL    HW150156   7.605   4.874   1.760  2.0946  1.1506 -0.5812
15712SOL    HW250157   7.524   4.972   1.677  1.8676  0.5600 -1.0612
15713SOL     OW50158   2.547   0.466   1.884 -0.5699 -0.0427 -0.1055
15713SOL    HW150159   2.613   0.439   1.947 -1.0355  0.6224  0.6827
15713SOL    HW250160   2.463   0.449   1.928 -0.9327 -1.1753 -1.2089
15714SOL     OW50161   8.196   5.659   8.874  0.2476 -0.4405  0.5333
15714SOL    HW150162   8.150   5.743   8.880 -1.2560 -1.1223 -0.7739
15714SOL    HW250163   8.262   5.662   8.943  0.7293  2.1198  0.0414
15715SOL     OW50164   8.008   8.401   7.370 -0.0777  0.0618  0.0769
15715SOL    HW150165   8.102   8.393   7.356 -0.3917 -0.8944 -1.6824
15715SOL    HW250166   7.998   8.401   7.465  1.7352  0.7681  0.2892
15716SOL     OW50167   4.423   6.161   3.862 -0.5582 -0.2997  0.5110
15716SOL    HW150168   4.328   6.159   3.869 -0.6918  1.2425 -0.4911
15716SOL    HW250169   4.443   6.252   3.837  1.1874 -0.5274  1.0315
15717SOL     OW50170   6.739   2.598   1.713  0.2765 -0.3055 -0.2020
15717SOL    HW150171   6.727   2.539   1.638 -0.4045  0.4319 -0.6719
15717SOL    HW250172   6.801   2.664   1.682 -1.1528  0.8634 -0.6225
15718SOL     OW50173   8.559   8.050   4.113 -0.1147 -0.2206 -0.2431
15718SOL    HW150174   8.616   8.092   4.178 -1.6023  1.4364  0.0159
15718SOL    HW250175   8.535   7.966   4.153  0.6178 -0.0944  0.4705
15719SOL     OW50176   8.205   5.077   2.569  0.1207  0.4019 -0.4610
15719SOL    HW150177   8.289   5.039   2.545 -1.7817 -3.0120 -2.1433
15719SOL    HW250178   8.204   5.074   2.665  1.2132 -1.1996 -0.4736
15720SOL     OW50179   9.079   5.101   0.823 -0.2164 -0.4697  0.1479
15720SOL    HW150180   9.013   5.118   0.891 -0.6814 -0.0826 -0.3940
15720SOL    HW250181   9.163   5.107   0.869 -0.5391 -0.5724  0.7625
15721SOL     OW50182   1.290   0.751   7.744  0.0060 -0.1206  0.0907
15721SOL    HW150183   1.287   0.836   7.788  3.8360 -0.0381  0.4339
15721SOL    HW250184   1.247   0.691   7.805  1.4355  0.7653  2.0379
15722SOL     OW50185   2.822   5.243   8.500  0.2243  0.0815 -0.3538
15722SOL    HW150186   2.848   5.240   8.408  1.6504 -0.0104  0.0491
15722SOL    HW250187   2.798   5.334   8.516 -0.4381  0.0117 -0.9212
15723SOL     OW50188   0.507   7.779   2.452 -0.2255 -0.3963 -0.5831
15723SOL    HW150189   0.527   7.873   2.456 -1.4698 -0.1283 -0.6128
15723SOL    HW250190   0.581   7.737   2.496  0.2507  0.6111 -0.4108
15724SOL     OW50191   6.489   3.961   6.211 -0.0451 -0.2016  0.0109
15724SOL    HW150192   6.436   3.953   6.131  0.2788  0.6605 -0.2941
15724SOL    HW250193   6.514   4.053   6.213  1.8991 -0.7082 -0.1272
15725SOL     OW50194   2.159   7.065   1.421 -0.0034 -0.4151 -0.1227
15725SOL    HW150195   2.099   7.025   1.484 -0.7042 -1.2407 -1.3131
15725SOL    HW250196   2.102   7.114   1.361  0.6207 -0.0882 -0.4589
15726SOL     OW50197   3.399   7.244   8.386  0.1149  0.4737 -0.8175
15726SOL    HW150198   3.311   7.212   8.367  1.1579 -2.4720 -1.0032
15726SOL    HW250199   3.399   7.261   8.480 -0.2976 -0.7547 -0.5884
15727SOL     OW50200   3.814   4.486   5.846  0.1393 -0.0953 -0.2100
15727SOL    HW150201   3.824   4.522   5.757  1.2878 -2.0278 -0.8883
15727SOL    HW250202   3.873   4.539   5.899  1.4589 -0.6385 -1.1112
15728SOL     OW50203   6.613   0.723   5.552 -0.1074 -0.1539  0.4384
15728SOL    HW150204   6.627   0.664   5.478  0.8097 -0.1811  0.6289
15728SOL    HW250205   6.544   0.782   5.523  0.2375 -0.1736 -0.4385
15729SOL     OW50206   9.370   8.921   5.280  0.0402  0.2186  0.4622
15729SOL    HW150207   9.417   8.857   5.334  0.4667 -0.5132 -0.7561
15729SOL    HW250208   9.288   8.878   5.257  0.4662 -0.0346 -0.6258
15730SOL     OW50209   6.483   8.975   3.785 -0.0645  0.3615 -0.2412
15730SOL    HW150210   6.499   8.886   3.755  1.2595 -0.0131  1.4776
15730SOL    HW250211   6.401   8.969   3.835  0.3776 -0.0358  0.4397
15731SOL     OW50212   4.071   8.462   8.206 -0.2937 -0.2493  0.0648
15731SOL    HW150213   4.024   8.395   8.156  0.7111 -0.4446 -0.6257
15731SOL    HW250214   4.042   8.545   8.167 -0.8607 -0.3168  0.3348
15732SOL     OW50215   8.198   7.486   5.350 -0.1572  0.4149  0.0517
15732SOL    HW150216   8.109   7.465   5.322 -0.1206  3.1502 -2.2736
15732SOL    HW250217   8.246   7.504   5.269  2.3425 -0.2666  1.3078
15733SOL     OW50218   2.516   2.839   0.682  0.1761 -0.9032  0.1605
15733SOL    HW150219   2.542   2.850   0.774 -4.1148  1.5752  1.2118
15733SOL    HW250220   2.448   2.772   0.684 -1.0862  0.3294 -1.0057
15734SOL     OW50221   0.735   6.240   8.406  0.9588  0.3026  0.2421
15734SOL    HW150222   0.654   6.218   8.450  0.2325  1.2573 -0.5863
15734SOL    HW250223   0.712   6.314   8.349  1.8380 -0.9703 -1.8071
15735SOL     OW50224   0.417   7.059   7.531  0.4395  0.1640 -0.2474
15735SOL    HW150225   0.493   7.103   7.569  0.7585  0.3325 -1.0717
15735SOL    HW250226   0.450   6.975   7.500 -0.3376 -1.0336  2.0442
15736SOL     OW50227   0.115   0.310   3.227 -0.4047 -0.0413 -0.1025
15736SOL    HW150228   0.105   0.386   3.170  0.2306  0.0302 -0.1224
15736SOL    HW250229   0.209   0.303   3.241 -0.4266 -1.0504 -0.4097
15737SOL     OW50230   7.673   4.706   0.755  0.2855 -0.6834  0.0404
15737SOL    HW150231   7.695   4.639   0.820 -0.5434  0.7629  1.8484
15737SOL    HW250232   7.651   4.783   0.807  2.6899  1.4905 -2.0089
15738SOL     OW50233   1.930   0.618   3.978  0.2096 -0.2246 -0.4036
15738SOL    HW150234   1.945   0.566   4.056  1.3241  0.4777 -0.1449
15738SOL    HW250235   1.917   0.553   3.908  0.5873 -0.8426  0.0984
15739SOL     OW50236   1.892   3.555   7.008  0.2442 -0.3167 -0.2264
15739SOL    HW150237   1.956   3.614   7.049  0.2595  0.5832 -1.5194
15739SOL    HW250238   1.808   3.584   7.044  0.2583  0.4801 -0.8015
15740SOL     OW50239   2.072   5.624   3.316  0.0825 -0.1009  0.2187
15740SOL    HW150240   2.093   5.577   3.236 -0.8553  0.6759 -0.4870
15740SOL    HW250241   1.982   5.654   3.304  0.3185  1.0007  1.0786
15741SOL     OW50242   2.088   6.820   7.668 -0.2041 -0.3691  0.6108
15741SOL    HW150243   2.008   6.854   7.628 -0.0109 -0.4053  0.1805
15741SOL    HW250244   2.130   6.898   7.705 -1.4358 -0.6503  2.6553
15742SOL     OW50245   8.754   3.527   2.866 -0.2287  0.2259 -0.5399
15742SOL    HW150246   8.792   3.440   2.875  0.2441  0.3727 -1.0753
15742SOL    HW250247   8.665   3.518   2.901  0.1008 -0.2611  0.1634
15743SOL     OW50248   8.376   3.200   9.033  0.5394 -0.1451  0.3274
15743SOL    HW150249   8.319   3.128   9.059  1.2543 -0.7512  0.2223
15743SOL    HW250250   8.338   3.231   8.950 -0.2978  0.1986  0.8295
15744SOL     OW50251   7.620   8.245   3.569  0.0685  0.0085  0.4391
15744SOL    HW150252   7.622   8.326   3.519  1.4899 -0.3369 -0.1020
15744SOL    HW250253   7.603   8.271   3.659  2.2317  1.0812  0.5694
15745SOL     OW50254   0.790   1.426   4.242 -0.0063 -0.0519  0.0607
15745SOL    HW150255   0.728   1.370   4.289 -0.0555 -1.2240 -1.3523
15745SOL    HW250256   0.740   1.504   4.220 -0.2651  0.0763  1.0461
15746SOL     OW50257   6.901   0.098   0.980 -0.7154  0.0743 -0.4971
15746SOL    HW150258   6.811   0.127   0.961 -1.5406 -1.0226  1.5749
15746SOL    HW250259   6.929   0.053   0.901 -1.1570  2.3464 -1.9917
15747SOL     OW50260   8.324   0.406   0.418  0.1716 -0.2494  0.0458
15747SOL    HW150261   8.262   0.467   0.459 -1.0881 -1.2781 -0.3033
15747SOL    HW250262   8.303   0.321   0.457  2.6551 -0.3033  1.3472
15748SOL     OW50263   6.054   4.218   2.039  0.0529  0.6080  0.4922
15748SOL    HW150264   6.096   4.220   1.953 -1.4389 -0.2650 -0.2663
15748SOL    HW250265   5.985   4.153   2.031  0.7482 -0.4605  2.7585
15749SOL     OW50266   7.164   1.819   4.468  0.3470 -0.5848  0.0976
15749SOL    HW150267   7.138   1.741   4.420  0.7927 -0.2232 -0.7415
15749SOL    HW250268   7.235   1.789   4.525  0.6399 -0.7521 -0.3540
15750SOL     OW50269   8.784   1.828   2.779  0.1965 -0.3770 -0.4006
15750SOL    HW150270   8.793   1.869   2.864  0.3431 -0.1737 -0.5135
15750SOL    HW250271   8.691   1.836   2.757 -0.0652 -1.4595  0.2563
15751SOL     OW50272   7.517   8.438   2.947 -0.0404 -0.0244  0.3551
15751SOL    HW150273   7.541   8.360   2.897 -2.5446  0.1073 -1.1425
15751SOL    HW250274   7.506   8.506   2.880 -1.4893  0.6627  1.2648
15752SOL     OW50275   5.133   6.174   8.749 -0.4393  0.2407 -0.3439
15752SOL    HW150276   5.119   6.117   8.673 -3.5520 -0.8218  0.9364
15752SOL    HW250277   5.090   6.256   8.726  0.1042  0.5185 -0.3865
15753SOL     OW50278   8.241   1.524   8.907  0.6626  0.0958 -0.0502
15753SOL    HW150279   8.313   1.567   8.860 -0.0371  1.3898  0.0412
15753SOL    HW250280   8.182   1.596   8.930 -0.6035 -0.9482 -0.0367
15754SOL     OW50281   7.681   6.343   6.237 -0.3822  0.0324 -0.4741
15754SOL    HW150282   7.604   6.352   6.181 -0.5637  1.5525  0.0044
15754SOL    HW250283   7.722   6.262   6.208 -1.7010 -0.3517 -1.2997
15755SOL     OW50284   6.348   1.219   0.788 -0.2541  0.1028 -0.1008
15755SOL    HW150285   6.342   1.198   0.881 -1.0704  0.2657 -0.1160
15755SOL    HW250286   6.442   1.224   0.770 -0.0982 -0.0132  0.6928
15756SOL     OW50287   1.581   3.803   6.404  0.3484  0.6014  0.4078
15756SOL    HW150288   1.643   3.736   6.434  0.2753  0.1425 -0.4520
15756SOL    HW250289   1.590   3.803   6.309 -0.8048  0.6886  0.2894
15757SOL     OW50290   2.389   7.278   0.503  0.0156 -0.2226 -0.3025
15757SOL    HW150291   2.462   7.255   0.561 -1.0234 -0.4336  0.9442
15757SOL    HW250292   2.386   7.207   0.439  0.7738 -0.3095 -0.2515
15758SOL     OW50293   5.702   4.476   0.680  0.4351 -0.1336 -0.3769
15758SOL    HW150294   5.722   4.565   0.651  0.9677 -0.3875 -0.8003
15758SOL    HW250295   5.609   4.465   0.660 -0.1211  0.9883  1.4187
15759SOL     OW50296   6.061   2.296   2.183  0.2891 -0.1617  0.2516
15759SOL    HW150297   6.060   2.262   2.094  0.2273  0.8778 -0.1533
15759SOL    HW250298   6.092   2.387   2.174 -2.3639  0.8549  0.9512
15760SOL     OW50299   2.559   9.096   2.649 -0.6731 -0.3973  0.4830
15760SOL    HW150300   2.503   9.065   2.578 -1.0881  0.8805  0.2276
15760SOL    HW250301   2.533   9.188   2.661  0.9326  0.0356  0.7843
15761SOL     OW50302   5.281   6.353   8.875  0.9115  0.5746 -0.3762
15761SOL    HW150303   5.340   6.306   8.934 -0.4150  0.1111  0.6105
15761SOL    HW250304   5.223   6.286   8.840 -0.9023  1.3977  0.9310
15762SOL     OW50305   8.212   8.544   7.083  0.0861 -0.0702  0.0423
15762SOL    HW150306   8.223   8.640   7.084  1.6248 -0.2206 -0.9145
15762SOL    HW250307   8.261   8.514   7.159 -0.0644 -0.1302  0.1154
15763SOL     OW50308   0.491   5.222   8.467 -0.3995 -0.0062  0.0233
15763SOL    HW150309   0.395   5.225   8.474 -0.4695 -1.0349 -0.3988
15763SOL    HW250310   0.507   5.181   8.382  0.4177 -0.4561  0.3941
15764SOL     OW50311   0.910   5.572   2.608 -0.3208  0.0256 -0.2739
15764SOL    HW150312   0.826   5.564   2.653 -1.3266 -0.6712 -2.1890
15764SOL    HW250313   0.963   5.500   2.643  0.3435  1.8337  2.6134
15765SOL     OW50314   2.343   0.294   7.866 -0.4874  0.0580  0.5544
15765SOL    HW150315   2.289   0.263   7.939 -0.4325  1.8739  1.4062
15765SOL    HW250316   2.410   0.348   7.908 -0.0104  0.5104 -0.7741
15766SOL     OW50317   0.801   6.593   7.686 -0.6733  0.4749  0.3215
15766SOL    HW150318   0.863   6.521   7.679 -0.9914  0.0714  1.4806
15766SOL    HW250319   0.736   6.576   7.619 -0.0245  0.4149 -0.3000
15767SOL     OW50320   9.237   7.492   3.972  0.2704  0.0240 -0.0297
15767SOL    HW150321   9.232   7.523   4.063  1.1279  0.2608 -0.0523
15767SOL    HW250322   9.294   7.415   3.976 -0.4581 -0.5240 -0.2288
15768SOL     OW50323   5.869   5.810   1.510 -0.2677  0.2085 -0.5879
15768SOL    HW150324   5.787   5.763   1.500 -0.1514 -0.0265 -0.4460
15768SOL    HW250325   5.934   5.742   1.530  0.0552  0.3266 -1.1922
15769SOL     OW50326   3.812   0.080   4.354 -0.3450  0.7872 -0.5759
15769SOL    HW150327   3.781   0.039   4.274  0.5066 -2.9659  0.9272
15769SOL    HW250328   3.745   0.060   4.419 -0.5502  2.9558 -0.0771
15770SOL     OW50329   7.830   3.865   9.339 -0.0676 -0.2299  0.1856
15770SOL    HW150330   7.739   3.852   9.364 -0.3152 -0.7135 -0.9748
15770SOL    HW250331   7.854   3.949   9.380 -0.7344 -0.5668  1.2821
15771SOL     OW50332   0.665   2.595   9.151  0.5425 -0.4419 -0.4925
15771SOL    HW150333   0.616   2.591   9.234  0.4466 -0.4214 -0.5485
15771SOL    HW250334   0.682   2.504   9.129  1.7504 -0.4147  0.2523
15772SOL     OW50335   0.957   1.070   9.405  0.1156  0.1836 -0.0217
15772SOL    HW150336   1.020   1.040   9.471 -1.3990 -2.9989  0.0864
15772SOL    HW250337   1.011   1.103   9.334  1.8219  1.2661  1.7314
15773SOL     OW50338   9.163   4.923   6.597  0.8464  0.5684 -1.0837
15773SOL    HW150339   9.086   4.872   6.621  1.1646 -0.0409 -1.3484
15773SOL    HW250340   9.129   4.995   6.545  0.3720  0.7528 -0.5301
15774SOL     OW50341   9.372   1.089   5.060  0.7851 -0.0871  0.3731
15774SOL    HW150342   9.337   1.154   5.121 -0.0286 -0.2519  0.0807
15774SOL    HW250343   9.387   1.011   5.114  0.3364 -0.1399  0.4243
15775SOL     OW50344   0.973   0.817   4.031 -0.5756  0.0557 -0.1563
15775SOL    HW150345   1.055   0.807   3.983  1.5474 -0.9215  3.4593
15775SOL    HW250346   0.913   0.754   3.990  1.3048 -1.1174 -1.1686
15776SOL     OW50347   9.064   8.694   1.918  0.4063  0.3229 -0.1262
15776SOL    HW150348   8.992   8.713   1.979  0.8570  2.5931 -0.2609
15776SOL    HW250349   9.143   8.695   1.973  0.4229 -1.4475 -0.1004
15777SOL     OW50350   3.293   4.538   6.810  0.1569  0.5914  0.0747
15777SOL    HW150351   3.201   4.561   6.799 -0.1442  0.5479  2.2870
15777SOL    HW250352   3.334   4.565   6.728 -1.7444  0.9457 -0.7995
15778SOL     OW50353   6.257   6.300   4.248 -0.1204  0.1047  0.2527
15778SOL    HW150354   6.274   6.386   4.209 -2.0972 -0.4179 -1.9275
15778SOL    HW250355   6.340   6.253   4.239  0.6173  1.3632  0.3079
15779SOL     OW50356   0.575   1.368   5.805 -0.2823 -0.1433 -0.3886
15779SOL    HW150357   0.599   1.278   5.827  0.2337 -0.0263 -0.4722
15779SOL    HW250358   0.479   1.369   5.807 -0.2562 -0.1117  1.9718
15780SOL     OW50359   7.887   4.119   5.917  0.2583 -0.1218 -0.0598
15780SOL    HW150360   7.799   4.112   5.953  1.0773  0.7818  2.1989
15780SOL    HW250361   7.923   4.030   5.924  0.1886 -0.0852  0.7688
15781SOL     OW50362   1.204   5.677   1.655 -0.0888 -0.0468  0.6479
15781SOL    HW150363   1.110   5.698   1.658 -0.2666 -0.8899  0.9249
15781SOL    HW250364   1.243   5.734   1.722 -0.4400  0.0818  0.7460
15782SOL     OW50365   1.146   3.631   1.995  0.4228 -0.5234 -0.0953
15782SOL    HW150366   1.137   3.545   1.955  0.7450  0.1590 -1.6942
15782SOL    HW250367   1.058   3.670   1.987  0.6047 -0.2038 -0.6116
15783SOL     OW50368   5.890   2.160   4.356 -0.0421  0.4937  0.2490
15783SOL    HW150369   5.826   2.226   4.383  1.6948  3.1267 -1.7484
15783SOL    HW250370   5.951   2.208   4.300  3.1024 -2.1612  1.2575
15784SOL     OW50371   2.319   2.999   4.516  0.3078 -0.1438  0.0148
15784SOL    HW150372   2.243   3.000   4.574  1.2062  0.1094  1.2200
15784SOL    HW250373   2.394   3.005   4.576  1.2104  2.0633 -1.2673
15785SOL     OW50374   2.619   3.969   1.772  0.7206 -0.2373 -0.5928
15785SOL    HW150375   2.550   3.909   1.800  1.2196 -1.5917 -2.1555
15785SOL    HW250376   2.700   3.918   1.779  1.4415  0.9745  0.1748
15786SOL     OW50377   3.720   8.546   5.892  0.0603 -0.2037  0.0171
15786SOL    HW150378   3.649   8.555   5.956  1.2338  1.4819  1.1318
15786SOL    HW250379   3.677   8.517   5.812 -1.9618  1.2644  0.5370
15787SOL     OW50380   5.925   6.558   6.115 -0.3325  0.1890  0.9470
15787SOL    HW150381   5.858   6.564   6.184 -0.9983  0.8052  0.2508
15787SOL    HW250382   6.007   6.580   6.160 -0.9038  1.5689  1.3460
15788SOL     OW50383   5.530   8.978   2.678 -0.7097  0.0001  0.1194
15788SOL    HW150384   5.460   8.924   2.714  0.1035  0.2608  2.1517
15788SOL    HW250385   5.586   8.916   2.631 -0.2897 -0.7886  1.6394
15789SOL     OW50386   7.555   1.998   5.557  0.2387 -0.1083 -0.3570
15789SOL    HW150387   7.460   1.994   5.549  0.2077 -1.0946  0.3452
15789SOL    HW250388   7.587   1.990   5.467 -0.3447  0.1796 -0.5939
15790SOL     OW50389   0.224   9.350   0.499  0.0683 -0.4876  0.0133
15790SOL    HW150390   0.255   9.262   0.520  0.5533 -0.0566  1.1365
15790SOL    HW250391   0.195   9.386   0.582  0.3071  0.5822 -0.3520
15791SOL     OW50392   7.435   7.300   1.834 -0.4281 -0.2413  0.4640
15791SOL    HW150393   7.463   7.324   1.922 -2.1653 -0.7930  1.1830
15791SOL    HW250394   7.418   7.384   1.791  0.4197  0.0299  0.6473
15792SOL     OW50395   4.194   8.758   4.453  0.4010 -0.2413  0.0672
15792SOL    HW150396   4.271   8.715   4.490 -0.9803 -1.1481  2.0278
15792SOL    HW250397   4.179   8.834   4.510 -0.0704  0.0050 -0.3747
15793SOL     OW50398   4.390   9.362   5.758 -0.5652 -0.1230  0.3503
15793SOL    HW150399   4.307   9.322   5.731 -0.6443  0.8739 -0.9231
15793SOL    HW250400   4.456   9.313   5.709 -0.7299  1.8938 -1.9894
15794SOL     OW50401   3.433   3.921   6.231 -0.5017 -0.1676 -0.4432
15794SOL    HW150402   3.402   3.838   6.196 -0.2259 -0.2002 -0.6139
15794SOL    HW250403   3.516   3.899   6.275 -1.7771 -0.4658  1.8855
15795SOL     OW50404   3.543   6.033   0.403  0.4556 -0.5468  0.4941
15795SOL    HW150405   3.550   6.128   0.402 -0.2059 -0.4629  2.0763
15795SOL    HW250406   3.520   6.011   0.494 -0.6618 -2.1160 -0.1348
15796SOL     OW50407   0.289   3.725   7.285  0.3654 -0.1821  0.0121
15796SOL    HW150408   0.289   3.805   7.233  0.7733  0.4644  0.9823
15796SOL    HW250409   0.361   3.673   7.250  1.4357  0.7867  0.7150
15797SOL     OW50410   2.188   3.139   9.117  0.0098 -0.6712  0.3915
15797SOL    HW150411   2.187   3.219   9.065  1.3987 -1.6601 -1.2192
15797SOL    HW250412   2.107   3.141   9.167 -0.3896  1.2843 -0.3170
15798SOL     OW50413   3.473   4.207   3.008 -0.0837 -0.0366 -0.1392
15798SOL    HW150414   3.549   4.257   2.977  2.1576 -3.0998  0.2669
15798SOL    HW250415   3.460   4.140   2.941  0.1116 -2.0431  1.8000
15799SOL     OW50416   1.436   8.784   2.533 -0.0430  0.1441  0.4061
15799SOL    HW150417   1.458   8.862   2.584  1.1223 -0.3352  0.6775
15799SOL    HW250418   1.372   8.813   2.469  0.3677  1.3173  0.5215
15800SOL     OW50419   7.229   1.962   8.962  0.4023  0.5001 -0.4811
15800SOL    HW150420   7.293   1.894   8.982 -0.3968 -0.5791 -1.5368
15800SOL    HW250421   7.249   1.988   8.872  0.2905  1.2174 -0.3013
15801SOL     OW50422   8.797   4.420   6.750  0.0599 -0.2640  0.1674
15801SOL    HW150423   8.706   4.447   6.760  0.0661  0.6312 -1.9023
15801SOL    HW250424   8.798   4.370   6.668  1.6020  0.6398 -0.3983
15802SOL     OW50425   5.651   2.691   2.354  0.3384 -0.2375 -0.0907
15802SOL    HW150426   5.659   2.786   2.363 -0.7251 -0.1719  0.1791
15802SOL    HW250427   5.576   2.668   2.409  1.0393 -1.3306  0.4293
15803SOL     OW50428   6.861   7.956   5.038  0.0255 -0.4766 -0.3801
15803SOL    HW150429   6.896   8.022   5.098  0.8145 -0.9779 -0.2869
15803SOL    HW250430   6.824   7.889   5.095 -1.3195  0.1504 -0.4747
15804SOL     OW50431   9.372   2.877   8.199  0.1254  0.1071  0.5530
15804SOL    HW150432   9.452   2.840   8.163  0.0155 -0.0764  0.5008
15804SOL    HW250433   9.308   2.873   8.128  0.0851  0.3089  0.5749
15805SOL     OW50434   5.446   2.257   4.705 -0.2955  0.3224  0.2235
15805SOL    HW150435   5.415   2.247   4.795 -1.3326  0.4598 -0.1183
15805SOL    HW250436   5.537   2.227   4.709 -0.1468  0.8845  1.4414
15806SOL     OW50437   0.445   4.509   3.956 -0.1951  0.1339 -0.5390
15806SOL    HW150438   0.484   4.508   4.043  2.1094  2.2295 -1.4655
15806SOL    HW250439   0.360   4.551   3.968  0.7378  1.8028  0.4996
15807SOL     OW50440   7.439   2.833   4.052 -0.4070 -0.4856 -0.1430
15807SOL    HW150441   7.401   2.786   3.978 -2.3435  0.3271  0.3199
15807SOL    HW250442   7.372   2.830   4.120 -0.3473  2.3945  0.1087
15808SOL     OW50443   8.647   6.766   0.576 -0.4083 -0.3931  0.2787
15808SOL    HW150444   8.605   6.742   0.494 -0.4306 -0.9648  0.4545
15808SOL    HW250445   8.632   6.860   0.585 -0.7468 -0.4062 -0.1742
15809SOL     OW50446   4.047   0.996   0.205 -0.1519  0.0996 -0.1587
15809SOL    HW150447   3.960   0.967   0.233  0.9573 -2.4528  0.7685
15809SOL    HW250448   4.053   1.087   0.234 -2.2822  0.1267  0.2576
15810SOL     OW50449   3.419   3.363   3.569 -0.5558 -0.5258 -0.0051
15810SOL    HW150450   3.485   3.418   3.610  1.0737 -1.1568 -1.7050
15810SOL    HW250451   3.376   3.318   3.642  0.7455  0.0485  1.1364
15811SOL     OW50452   6.275   6.161   2.994  0.3261  0.3725 -0.9468
15811SOL    HW150453   6.255   6.255   2.988 -2.0798 -0.2124 -2.7550
15811SOL    HW250454   6.194   6.118   2.967  1.3666 -2.2424  0.0231
15812SOL     OW50455   1.473   2.660   6.714 -0.3051  0.5201  1.0488
15812SOL    HW150456   1.409   2.624   6.653  0.3827 -0.3860  0.8441
15812SOL    HW250457   1.479   2.594   6.783  0.7097  0.3956  0.8516
15813SOL     OW50458   6.028   8.045   7.300 -0.8676  0.3656 -0.0041
15813SOL    HW150459   6.123   8.040   7.314 -0.5307  2.1857 -1.3391
15813SOL    HW250460   5.992   7.976   7.354  1.1236  0.5480  1.6305
15814SOL     OW50461   5.692   1.612   1.852 -0.0190 -0.6278  0.1278
15814SOL    HW150462   5.637   1.653   1.920 -0.8397 -0.8880 -0.3764
15814SOL    HW250463   5.781   1.638   1.875 -0.3881  0.1456  0.7187
15815SOL     OW50464   8.474   0.373   2.154 -0.0335  0.1978 -0.4169
15815SOL    HW150465   8.566   0.383   2.180  0.4270  0.1672 -1.9599
15815SOL    HW250466   8.468   0.423   2.072 -0.9587 -1.2388 -1.2377
15816SOL     OW50467   9.181   3.589   1.240  0.7066 -0.5013  0.3423
15816SOL    HW150468   9.140   3.630   1.316  0.4129  0.9543 -0.5675
15816SOL    HW250469   9.228   3.514   1.275 -0.7794 -0.8123  1.7244
15817SOL     OW50470   3.887   3.488   1.257  0.0504  0.3758  0.8036
15817SOL    HW150471   3.847   3.454   1.177 -0.4735  0.2084  1.1342
15817SOL    HW250472   3.832   3.561   1.284  0.2488  0.4607  0.9871
15818SOL     OW50473   7.160   2.799   6.846 -0.3257  0.1166  0.6336
15818SOL    HW150474   7.194   2.820   6.760  0.3525  0.3529  0.9548
15818SOL    HW250475   7.094   2.867   6.863  0.5459  0.9086  0.8939
15819SOL     OW50476   8.360   5.942   1.237  0.2291  0.2192 -0.2282
15819SOL    HW150477   8.430   5.990   1.281  0.0583 -0.9494  1.3897
15819SOL    HW250478   8.401   5.860   1.209 -0.1764  0.0598 -0.3668
15820SOL     OW50479   6.197   3.490   1.913  0.3258  0.5348 -0.1186
15820SOL    HW150480   6.163   3.508   2.000  0.9205  1.5018 -0.0762
15820SOL    HW250481   6.276   3.438   1.927  2.0212  3.0726  0.0968
15821SOL     OW50482   9.003   4.047   8.504  0.6028 -0.1155 -0.3191
15821SOL    HW150483   8.948   4.035   8.426 -1.6476  1.3350  1.0022
15821SOL    HW250484   9.092   4.052   8.469 -0.1742 -1.2803 -2.6262
15822SOL     OW50485   9.153   1.104   4.670 -0.0411  0.1747  0.4478
15822SOL    HW150486   9.240   1.066   4.677  0.2947  0.5231 -1.5780
15822SOL    HW250487   9.156   1.182   4.725  0.1879 -1.0403  2.2148
15823SOL     OW50488   7.630   7.876   7.565 -0.2399 -0.0361 -0.1640
15823SOL    HW150489   7.706   7.867   7.623 -1.1170 -0.0657  0.9786
15823SOL    HW250490   7.630   7.796   7.513  1.1957  0.4766 -0.9931
15824SOL     OW50491   6.281   1.555   2.766 -0.3390  0.5023  0.5091
15824SOL    HW150492   6.188   1.556   2.789 -0.0126 -0.0680  1.9022
15824SOL    HW250493   6.285   1.500   2.688 -1.3983  2.0247 -0.6600
15825SOL     OW50494   7.510   7.144   4.409  0.1821 -0.4321 -0.6188
15825SOL    HW150495   7.573   7.148   4.481  0.4494  0.2160 -0.8892
15825SOL    HW250496   7.498   7.235   4.382 -1.4163 -0.4774 -0.1012
15826SOL     OW50497   5.139   9.147   7.436  0.2934  0.1669 -0.3652
15826SOL    HW150498   5.217   9.196   7.462 -0.1372  0.3183  0.6600
15826SOL    HW250499   5.173   9.066   7.398  1.0360  1.3715 -2.3896
15827SOL     OW50500   9.379   4.090   3.472  0.1360 -0.1458 -0.6442
15827SOL    HW150501   9.390   4.000   3.503  1.1613  0.1499 -0.1156
15827SOL    HW250502   9.465   4.115   3.439 -0.2639  0.4848 -1.2250
15828SOL     OW50503   0.950   9.243   9.375 -0.8130 -0.2276 -0.5888
15828SOL    HW150504   0.903   9.165   9.345 -2.8010 -0.0345  1.8493
15828SOL    HW250505   1.012   9.210   9.440 -0.3285  0.0201 -0.9202
15829SOL     OW50506   4.271   8.281   2.138  0.1496 -0.5574  0.4694
15829SOL    HW150507   4.261   8.186   2.148  0.7341 -0.4457  2.2599
15829SOL    HW250508   4.284   8.313   2.227  0.2209  1.1832 -0.1542
15830SOL     OW50509   5.454   5.464   6.070  0.1912  0.2245  0.2517
15830SOL    HW150510   5.411   5.516   6.138 -2.2303  0.8818 -1.7206
15830SOL    HW250511   5.542   5.502   6.063  0.0738  0.9194  2.1467
15831SOL     OW50512   4.857   2.000   1.633  0.5106 -0.1396  0.5877
15831SOL    HW150513   4.938   2.051   1.636 -0.4947  1.4268  1.6017
15831SOL    HW250514   4.835   1.996   1.540  0.7458  1.0538  0.4692
15832SOL     OW50515   8.973   0.778   0.097 -0.0928 -0.2065  0.2424
15832SOL    HW150516   8.935   0.783   0.185  0.2569  0.6846  0.3522
15832SOL    HW250517   9.063   0.750   0.112 -0.3011 -0.9581  0.0929
15833SOL     OW50518   0.043   1.410   3.224 -0.1823  0.5711  0.1580
15833SOL    HW150519   0.046   1.506   3.219 -0.1431  0.5139 -0.9673
15833SOL    HW250520   0.135   1.383   3.220 -0.1482  0.5157  1.1804
15834SOL     OW50521   2.016   4.992   1.611 -0.2090  0.4170 -0.3843
15834SOL    HW150522   2.109   4.992   1.590 -0.1922  3.3480 -0.6137
15834SOL    HW250523   2.001   5.079   1.649 -2.8563  0.0173 -0.4501
15835SOL     OW50524   0.860   8.510   6.711 -0.2889 -0.3623  0.9894
15835SOL    HW150525   0.878   8.567   6.786 -1.5831  0.8221  0.4007
15835SOL    HW250526   0.765   8.505   6.707 -0.2400 -0.0402 -0.8752
15836SOL     OW50527   6.649   8.336   6.363  1.0591 -0.2753 -0.6240
15836SOL    HW150528   6.593   8.263   6.389  1.3804 -0.7580 -1.2635
15836SOL    HW250529   6.639   8.401   6.433 -0.6748 -0.1397 -0.9822
15837SOL     OW50530   0.667   8.685   9.174 -0.1218 -0.0962  0.6044
15837SOL    HW150531   0.641   8.592   9.179  0.0325 -0.1574  0.2902
15837SOL    HW250532   0.604   8.730   9.230 -0.0878 -0.4149  0.9056
15838SOL     OW50533   1.898   5.514   1.748 -0.0796 -0.4714 -0.6310
15838SOL    HW150534   1.838   5.563   1.805  1.8891 -0.5643  1.6057
15838SOL    HW250535   1.854   5.431   1.731  0.1524 -1.2775  2.4874
15839SOL     OW50536   8.224   2.048   7.601 -0.2751 -0.2267 -0.1774
15839SOL    HW150537   8.319   2.042   7.610 -0.1538  0.9959 -0.6662
15839SOL    HW250538   8.207   2.034   7.508 -0.5332  0.0428 -0.1735
15840SOL     OW50539   6.563   8.238   5.748 -0.0184  0.0408  0.2507
15840SOL    HW150540   6.642   8.224   5.695 -0.6698 -1.3098 -0.3864
15840SOL    HW250541   6.578   8.187   5.827  0.4230  1.0697  0.8416
15841SOL     OW50542   3.229   8.130   6.679  0.2285  0.1449  0.8976
15841SOL    HW150543   3.174   8.145   6.602  0.7711 -0.4183  0.3878
15841SOL    HW250544   3.171   8.145   6.754 -0.4846  0.0166  0.3755
15842SOL     OW50545   4.235   4.943   8.762 -0.0089  0.3490 -0.4575
15842SOL    HW150546   4.229   4.997   8.683  0.4041  0.2432 -0.5619
15842SOL    HW250547   4.328   4.942   8.784 -0.4761  3.1712  1.9934
15843SOL     OW50548   2.616   5.742   4.222 -0.4827 -1.0993  0.8113
15843SOL    HW150549   2.610   5.819   4.164  0.2515 -0.4321  1.5960
15843SOL    HW250550   2.603   5.667   4.164  0.3071 -0.4434 -0.2437
15844SOL     OW50551   6.149   4.941   2.262 -0.4473 -0.0255 -0.2963
15844SOL    HW150552   6.137   4.955   2.168  1.8329 -0.8187 -0.7267
15844SOL    HW250553   6.097   4.863   2.281  0.9706 -1.2625 -1.3899
15845SOL     OW50554   9.423   3.286   2.666 -0.2104  0.3287  0.5297
15845SOL    HW150555   9.403   3.366   2.715  0.8291 -0.2451  1.9357
15845SOL    HW250556   9.498   3.311   2.611  0.6288  0.1009  1.5640
15846SOL     OW50557   8.465   9.212   0.620 -0.4445 -0.2002 -0.4119
15846SOL    HW150558   8.372   9.197   0.633 -0.4411  1.2585  1.3800
15846SOL    HW250559   8.477   9.204   0.525 -1.9820 -2.5334 -0.4370
15847SOL     OW50560   5.719   0.296   5.734  0.6452  0.4911  0.3222
15847SOL    HW150561   5.627   0.298   5.711 -0.1326 -1.5054  3.0134
15847SOL    HW250562   5.723   0.333   5.822  2.3277  0.0875  0.4417
15848SOL     OW50563   1.677   3.946   4.479 -0.0045  0.3480  0.1813
15848SOL    HW150564   1.600   3.957   4.535 -0.1088  2.9905 -0.4153
15848SOL    HW250565   1.752   3.952   4.539 -0.1842  0.6264  0.3775
15849SOL     OW50566   6.601   0.726   8.364 -0.1492  0.4881  0.3652
15849SOL    HW150567   6.508   0.746   8.353  0.2552  1.3799 -1.5927
15849SOL    HW250568   6.636   0.802   8.411 -0.0436  1.0526 -0.6107
15850SOL     OW50569   8.613   1.717   0.515  0.2310 -0.4915 -0.0060
15850SOL    HW150570   8.579   1.679   0.596 -0.8843 -1.3892 -0.8760
15850SOL    HW250571   8.536   1.725   0.458  0.9528  0.3836 -0.8814
15851SOL     OW50572   3.963   0.107   6.518 -0.2023 -0.0251  0.4741
15851SOL    HW150573   3.975   0.104   6.423  0.8595 -1.5681  0.6418
15851SOL    HW250574   3.900   0.037   6.536  0.1087 -0.1718  0.9904
15852SOL     OW50575   6.301   2.886   0.532  0.0162  0.1950 -0.4008
15852SOL    HW150576   6.225   2.919   0.484  0.8756  0.9808 -1.2541
15852SOL    HW250577   6.266   2.820   0.591 -1.5092  1.4306  0.1076
15853SOL     OW50578   7.014   0.061   7.143 -0.7805  0.2049 -0.5731
15853SOL    HW150579   7.090   0.118   7.157 -0.7351 -0.0258  0.1425
15853SOL    HW250580   7.029   0.023   7.057 -0.5081  0.8141 -0.8009
15854SOL     OW50581   8.853   9.228   8.190 -0.4046  0.2751  0.0460
15854SOL    HW150582   8.872   9.278   8.269 -1.7154  1.4053 -0.3129
15854SOL    HW250583   8.932   9.236   8.137  0.1945  0.1589  0.9180
15855SOL     OW50584   2.925   2.853   6.864  0.8207 -0.1235  0.4088
15855SOL    HW150585   2.849   2.801   6.889 -0.2381  0.3418 -1.7482
15855SOL    HW250586   2.967   2.803   6.794  1.4490  0.4984  0.3367
15856SOL     OW50587   4.698   6.040   3.067 -0.5433  0.7853  0.0199
15856SOL    HW150588   4.622   6.088   3.100 -0.1624  1.6593 -0.3657
15856SOL    HW250589   4.671   6.009   2.981 -0.3932  1.2703 -0.2027
15857SOL     OW50590   3.406   8.711   6.330 -0.1121  0.3238 -0.1220
15857SOL    HW150591   3.418   8.651   6.403 -0.9136 -0.4612 -0.6279
15857SOL    HW250592   3.495   8.734   6.301  0.1874 -0.6594  0.0301
15858SOL     OW50593   9.156   5.443   3.589 -0.1912  0.1152  0.1749
15858SOL    HW150594   9.125   5.353   3.599  1.0030  0.0048  3.5484
15858SOL    HW250595   9.221   5.438   3.518  0.9775 -2.0198  1.3360
15859SOL     OW50596   4.572   1.661   7.505  0.5371  0.0554 -0.2148
15859SOL    HW150597   4.594   1.686   7.595  1.1541  2.4434 -0.9895
15859SOL    HW250598   4.479   1.680   7.496  0.6132  0.4133 -0.2586
15860SOL     OW50599   8.190   4.810   1.518  0.0298  0.2802 -0.7418
15860SOL    HW150600   8.131   4.789   1.590 -1.0454  1.4731 -1.2619
15860SOL    HW250601   8.273   4.832   1.561  0.1603 -1.5498 -0.0216
15861SOL     OW50602   5.806   3.612   7.009  0.0475 -0.7529 -0.6231
15861SOL    HW150603   5.860   3.667   7.066  0.6806 -0.0536 -1.8829
15861SOL    HW250604   5.719   3.615   7.049  0.2319  0.6026 -0.2860
15862SOL     OW50605   4.792   8.173   7.260  0.3764  0.0154 -0.0696
15862SOL    HW150606   4.827   8.150   7.346  1.5692  0.9182 -0.3048
15862SOL    HW250607   4.766   8.265   7.269  1.4237  0.4065 -0.9504
15863SOL     OW50608   4.266   8.955   8.148  0.1708  0.4700 -0.7572
15863SOL    HW150609   4.314   8.883   8.106  1.2135  0.3250  0.6578
15863SOL    HW250610   4.189   8.967   8.092 -0.5646 -2.4027 -0.4850
15864SOL     OW50611   7.978   7.920   6.177 -0.2519  0.3426 -0.2843
15864SOL    HW150612   7.902   7.886   6.130 -0.6998 -1.0703  1.4065
15864SOL    HW250613   7.969   8.015   6.172 -2.7671  0.1960  0.8576
15865SOL     OW50614   4.588   3.619   8.051 -0.2780  0.1990 -0.2494
15865SOL    HW150615   4.529   3.646   7.981 -0.6647  0.7879  0.3001
15865SOL    HW250616   4.592   3.523   8.043 -1.6721  0.1123 -0.0028
15866SOL     OW50617   4.534   0.698   7.423  0.3320 -0.4425  0.2237
15866SOL    HW150618   4.475   0.696   7.348  2.2971  0.0568 -1.3641
15866SOL    HW250619   4.515   0.617   7.470 -0.5427 -1.0227 -1.0941
15867SOL     OW50620   8.016   6.194   1.301 -0.3621 -0.3974 -0.3060
15867SOL    HW150621   7.924   6.173   1.284 -0.9867  1.4211  0.6342
15867SOL    HW250622   8.014   6.247   1.381  1.5015 -0.3357 -0.2678
15868SOL     OW50623   2.524   1.349   4.316  0.0454 -0.7769 -0.6807
15868SOL    HW150624   2.431   1.337   4.334 -0.6924  0.8643 -3.1629
15868SOL    HW250625   2.556   1.260   4.297 -0.8360 -1.4367  0.8216
15869SOL     OW50626   7.091   4.194   3.764 -0.4594 -0.4076  0.2110
15869SOL    HW150627   7.174   4.182   3.718 -0.6660 -2.1758  0.2571
15869SOL    HW250628   7.036   4.241   3.702  0.4172  0.3609  0.0037
15870SOL     OW50629   0.957   9.367   1.525 -0.1228  0.3483  0.0803
15870SOL    HW150630   0.975   9.459   1.541  0.3173 -0.0482  2.1287
15870SOL    HW250631   1.029   9.321   1.567 -1.1027 -0.9700  0.3723
15871SOL     OW50632   0.114   8.232   2.169  0.3794 -0.6902  0.1388
15871SOL    HW150633   0.027   8.194   2.159  0.3293 -0.9032  1.3378
15871SOL    HW250634   0.110   8.282   2.250  1.2773 -0.4306  0.0354
15872SOL     OW50635   4.276   9.172   2.293  0.0820  0.2137  0.3275
15872SOL    HW150636   4.370   9.154   2.298  0.2848  0.7873 -1.1352
15872SOL    HW250637   4.234   9.086   2.293  0.7347 -0.1138 -1.2144
15873SOL     OW50638   5.921   2.775   5.278  0.1387 -0.1047  0.3987
15873SOL    HW150639   5.931   2.857   5.230 -1.4438  0.8524  1.6493
15873SOL    HW250640   5.850   2.729   5.233  0.8628 -0.6972 -0.1541
15874SOL     OW50641   8.367   6.248   7.962 -0.8404 -0.2154 -0.5408
15874SOL    HW150642   8.302   6.239   8.032  0.5684 -0.9074  0.7018
15874SOL    HW250643   8.320   6.224   7.883 -1.7918 -1.8980  0.4980
15875SOL     OW50644   4.209   2.111   7.818  0.3854 -0.0514 -0.1960
15875SOL    HW150645   4.194   2.203   7.796  0.8029 -0.0985 -0.6888
15875SOL    HW250646   4.121   2.076   7.836  0.0845  0.1151 -1.2999
15876SOL     OW50647   2.668   3.859   5.866 -0.1106 -0.6312  0.0903
15876SOL    HW150648   2.621   3.793   5.916 -1.5138 -0.1891 -0.6061
15876SOL    HW250649   2.703   3.811   5.790  0.0547 -0.8536  0.3086
15877SOL     OW50650   2.142   0.369   1.239  0.0461 -0.0895 -0.5915
15877SOL    HW150651   2.054   0.343   1.267  0.2462 -0.8144 -0.6281
15877SOL    HW250652   2.140   0.464   1.241 -0.4614 -0.1114  0.2722
15878SOL     OW50653   4.106   8.930   0.608 -0.2679  0.1557 -0.0601
15878SOL    HW150654   4.143   8.861   0.553 -1.6640  0.0706 -0.9121
15878SOL    HW250655   4.116   8.897   0.697 -1.3309 -1.3748 -0.4779
15879SOL     OW50656   2.491   9.138   0.018  0.1187 -0.0838 -0.2147
15879SOL    HW150657   2.493   9.043   0.013  1.5377 -0.0911  0.2340
15879SOL    HW250658   2.413   9.163  -0.032 -0.0233 -1.4475 -0.6973
15880SOL     OW50659   7.846   0.601   1.026 -0.1464 -0.3536 -0.2975
15880SOL    HW150660   7.758   0.620   0.993 -0.3892 -1.4703 -0.3120
15880SOL    HW250661   7.834   0.595   1.121 -0.2088 -1.1210 -0.3505
15881SOL     OW50662   0.903   9.312   5.905 -0.2768  0.5030  0.3484
15881SOL    HW150663   0.961   9.236   5.898  0.6286  1.1597  0.5876
15881SOL    HW250664   0.881   9.317   5.998  0.3264  1.0111  0.4681
15882SOL     OW50665   5.290   1.957   6.880 -0.5005  0.0783 -0.2353
15882SOL    HW150666   5.360   1.937   6.941  0.2113  0.0163 -1.0638
15882SOL    HW250667   5.315   1.911   6.799 -1.3652  0.2502 -0.6063
15883SOL     OW50668   5.690   2.061   6.711 -0.5733 -0.6712  0.2715
15883SOL    HW150669   5.742   2.122   6.658 -1.0091  0.0525  0.6702
15883SOL    HW250670   5.717   2.080   6.802 -1.5856 -0.2298  0.4877
15884SOL     OW50671   7.388   8.374   0.879 -0.0544  0.1152 -0.8989
15884SOL    HW150672   7.310   8.333   0.841 -0.7711  0.1129  0.5571
15884SOL    HW250673   7.381   8.357   0.973  1.1790  0.9958 -0.6410
15885SOL     OW50674   1.847   8.400   7.384 -0.3353 -0.4034  0.3302
15885SOL    HW150675   1.845   8.312   7.345 -0.1905 -0.3267  0.1537
15885SOL    HW250676   1.913   8.447   7.334 -0.3774 -0.2084  0.4605
15886SOL     OW50677   8.877   7.712   7.221  0.0889 -0.1200 -0.4152
15886SOL    HW150678   8.910   7.756   7.299 -0.1996  0.9731 -0.8946
15886SOL    HW250679   8.946   7.649   7.198 -0.0945 -0.8817  1.0472
15887SOL     OW50680   5.343   5.040   5.040 -0.3716  0.4105  0.4515
15887SOL    HW150681   5.322   4.998   4.957  1.8504  1.7532 -0.8547
15887SOL    HW250682   5.393   4.974   5.088  1.6449  0.9125 -0.8927
15888SOL     OW50683   4.739   3.187   6.863 -0.1013 -0.1882 -0.4089
15888SOL    HW150684   4.759   3.252   6.796 -0.1066 -0.3169 -0.5343
15888SOL    HW250685   4.825   3.160   6.897 -0.1078  0.0419 -0.2060
15889SOL     OW50686   7.250   0.264   5.921  0.6762  0.1175  0.5556
15889SOL    HW150687   7.268   0.185   5.973  1.1266 -0.1322  0.0281
15889SOL    HW250688   7.162   0.251   5.887  0.6291 -0.0154  0.7266
15890SOL     OW50689   6.835   2.732   6.928 -0.2740 -0.0617  0.3447
15890SOL    HW150690   6.890   2.675   6.981 -1.8299 -2.0069 -0.1048
15890SOL    HW250691   6.897   2.787   6.879  1.2161 -1.0700  1.0843
15891SOL     OW50692   0.293   2.542   9.130 -0.0039  0.0465  0.2855
15891SOL    HW150693   0.213   2.584   9.096 -1.2316 -0.6068  2.2625
15891SOL    HW250694   0.325   2.490   9.057 -1.8380 -0.2604 -0.3451
15892SOL     OW50695   2.247   4.380   8.166 -0.8225  0.3923 -0.0679
15892SOL    HW150696   2.293   4.297   8.152  0.4713  0.7145  2.0720
15892SOL    HW250697   2.154   4.356   8.165 -0.4514 -1.1888  1.1385
15893SOL     OW50698   3.856   3.114   9.126  0.4605  0.3032  0.3454
15893SOL    HW150699   3.847   3.205   9.155 -0.0422 -0.1898  1.8157
15893SOL    HW250700   3.917   3.117   9.053 -2.5668  2.3228 -2.1948
15894SOL     OW50701   7.317   9.088   0.703 -0.0364  0.3924 -0.9933
15894SOL    HW150702   7.404   9.092   0.663  1.5722  0.6732  2.3439
15894SOL    HW250703   7.314   9.002   0.745 -1.9168 -0.1523 -2.1951
15895SOL     OW50704   7.555   4.384   6.141  0.1970  0.3002 -0.2249
15895SOL    HW150705   7.538   4.301   6.185 -0.3759  0.4151 -0.2253
15895SOL    HW250706   7.511   4.376   6.057  2.0241 -0.2619 -1.1539
15896SOL     OW50707   3.190   2.491   1.054  0.3124 -0.0128 -0.2652
15896SOL    HW150708   3.279   2.490   1.019 -0.1402 -0.7438 -1.4333
15896SOL    HW250709   3.154   2.406   1.030 -1.5305  1.2070 -1.9611
15897SOL     OW50710   5.318   9.231   7.675 -0.0025  0.4668  0.4257
15897SOL    HW150711   5.267   9.154   7.701  0.8555 -0.0927  0.4631
15897SOL    HW250712   5.303   9.294   7.745 -0.5578  0.2658  0.4909
15898SOL     OW50713   9.414   0.949   5.766  0.5160 -0.1767  0.3383
15898SOL    HW150714   9.485   0.990   5.816  0.2024  0.3646  0.3320
15898SOL    HW250715   9.437   0.856   5.765  0.7924 -0.1174  1.0547
15899SOL     OW50716   6.844   7.834   6.806 -0.0211  0.7657 -0.3030
15899SOL    HW150717   6.817   7.742   6.805 -1.6881  1.2268  0.5434
15899SOL    HW250718   6.826   7.863   6.895  0.6580  1.8769 -0.5228
15900SOL     OW50719   9.404   2.858   9.172 -0.0071  0.6814 -0.2387
15900SOL    HW150720   9.327   2.874   9.226  0.3158 -0.1391  0.4727
15900SOL    HW250721   9.401   2.926   9.105 -2.1771 -0.2110 -1.0928
15901SOL     OW50722   0.929   6.535   4.463  0.0181 -0.5475  0.0682
15901SOL    HW150723   0.922   6.566   4.554  0.2642  1.1391 -0.4770
15901SOL    HW250724   0.840   6.506   4.441 -0.4776  0.7672  0.2586
15902SOL     OW50725   8.036   3.257   4.539  0.1059 -0.2903  0.2897
15902SOL    HW150726   7.978   3.333   4.538 -0.5876 -0.8183 -1.0656
15902SOL    HW250727   7.979   3.183   4.558  0.6966 -0.5472  1.0992
15903SOL     OW50728   3.850   3.221   0.349 -0.2920 -0.7082  0.0199
15903SOL    HW150729   3.820   3.179   0.269  0.0426 -1.4274  0.2670
15903SOL    HW250730   3.936   3.183   0.366  0.6238  1.1035 -0.5061
15904SOL     OW50731   7.824   9.270   3.987  0.2213 -0.5316 -0.5353
15904SOL    HW150732   7.895   9.228   4.035 -0.8899 -2.5969 -0.6024
15904SOL    HW250733   7.756   9.284   4.053  0.4543  0.8745 -0.5901
15905SOL     OW50734   6.848   0.239   6.579  0.8784 -0.0882  0.6464
15905SOL    HW150735   6.826   0.278   6.494  0.9068  0.3985  0.8611
15905SOL    HW250736   6.771   0.256   6.633  1.7943  1.6855  1.4249
15906SOL     OW50737   2.515   6.476   2.917  0.1213 -0.0032 -0.0227
15906SOL    HW150738   2.529   6.387   2.949 -2.5822 -0.5306 -0.1563
15906SOL    HW250739   2.603   6.512   2.906  1.2222 -1.7565  2.5071
15907SOL     OW50740   7.459   1.395   8.805 -0.5528  0.0490  0.0888
15907SOL    HW150741   7.419   1.388   8.891 -1.3528  0.1874 -0.2632
15907SOL    HW250742   7.435   1.314   8.760  0.8276 -0.5449  0.3822
15908SOL     OW50743   3.446   8.139   4.287 -0.1239  0.1415  0.0808
15908SOL    HW150744   3.379   8.175   4.230  0.2769  1.2169  0.2676
15908SOL    HW250745   3.406   8.063   4.328 -0.9026  0.2323 -0.5144
15909SOL     OW50746   0.235   8.075   7.333  0.3811 -0.0214 -0.5507
15909SOL    HW150747   0.290   8.100   7.407  0.2017 -0.0804 -0.3958
15909SOL    HW250748   0.173   8.147   7.323  0.5266  0.0770 -0.7663
15910SOL     OW50749   3.973   8.875   0.952  0.1209 -0.0813  0.5674
15910SOL    HW150750   3.891   8.854   0.907  1.3762 -0.2117 -1.7628
15910SOL    HW250751   4.032   8.802   0.928  1.5178  1.0473  0.5069
15911SOL     OW50752   8.590   3.706   5.279  0.5930 -0.0278  0.2957
15911SOL    HW150753   8.538   3.712   5.199 -0.2807 -0.7492  0.7965
15911SOL    HW250754   8.548   3.637   5.330  2.0311 -0.6002  0.7378
15912SOL     OW50755   2.774   3.528   3.229 -0.1349 -0.7812  0.1369
15912SOL    HW150756   2.727   3.533   3.312 -0.5530 -1.8386 -0.0332
15912SOL    HW250757   2.762   3.438   3.199 -0.3513 -0.3057 -1.2750
15913SOL     OW50758   6.878   6.942   5.255 -0.0248  0.0386 -0.2736
15913SOL    HW150759   6.966   6.930   5.219  1.1831  0.3364  2.3969
15913SOL    HW250760   6.875   7.035   5.279 -2.1386  0.7056 -2.8997
15914SOL     OW50761   5.419   0.068   8.242 -0.0479 -0.1608  0.5087
15914SOL    HW150762   5.486   0.020   8.290 -0.2102 -0.8273  0.0682
15914SOL    HW250763   5.462   0.097   8.162 -0.3723 -0.8824  0.0655
15915SOL     OW50764   2.851   1.931   5.119  0.0685 -0.0854 -0.4488
15915SOL    HW150765   2.757   1.933   5.101  0.1215 -1.3612 -0.9224
15915SOL    HW250766   2.871   1.838   5.129  1.5249  0.0983 -1.6358
15916SOL     OW50767   0.933   0.075   8.521  0.4018  0.3816 -0.3753
15916SOL    HW150768   0.993   0.139   8.560 -1.9095  1.3974  1.6333
15916SOL    HW250769   0.921   0.008   8.589  0.0337 -0.3305 -1.1334
15917SOL     OW50770   5.666   6.818   3.571 -0.4043 -0.0332 -0.0669
15917SOL    HW150771   5.627   6.828   3.658 -0.2583  0.7017 -0.0872
15917SOL    HW250772   5.643   6.898   3.525  1.2029  0.4445 -0.0631
15918SOL     OW50773   7.337   6.170   2.047 -0.1026  0.0379  0.1945
15918SOL    HW150774   7.358   6.263   2.034 -0.1051  0.0867  0.5198
15918SOL    HW250775   7.345   6.131   1.960 -1.2852  0.5710 -0.1546
15919SOL     OW50776   7.944   2.904   4.236  0.2597 -0.4260  0.6580
15919SOL    HW150777   7.871   2.887   4.176 -0.6092  0.0787  1.5538
15919SOL    HW250778   7.907   2.962   4.303  1.8872  1.0720  0.3016
15920SOL     OW50779   4.167   7.640   5.599  0.1538 -0.1170  0.3191
15920SOL    HW150780   4.097   7.637   5.665 -1.7227  0.5996 -1.5684
15920SOL    HW250781   4.217   7.560   5.614 -0.1932  0.0700  2.6439
15921SOL     OW50782   0.890   2.556   1.268 -0.4935 -0.0249  0.4869
15921SOL    HW150783   0.809   2.580   1.223 -1.6579  0.8589  3.0033
15921SOL    HW250784   0.873   2.469   1.304  0.2127 -0.4557 -0.1932
15922SOL     OW50785   4.914   8.640   7.328  0.1992 -0.3928  0.2476
15922SOL    HW150786   4.878   8.631   7.240  0.4277 -1.4976  0.2548
15922SOL    HW250787   4.993   8.586   7.328  0.1657 -0.4600  1.1470
15923SOL     OW50788   4.415   2.027   2.783 -0.0673 -0.6820  0.1169
15923SOL    HW150789   4.412   2.036   2.688  1.2973 -0.5984  0.0707
15923SOL    HW250790   4.351   2.091   2.815  0.7880  0.6151 -0.6863
15924SOL     OW50791   2.978   7.271   7.355 -0.2891  0.7425  0.0257
15924SOL    HW150792   2.913   7.288   7.287 -0.5426  3.4359  0.9006
15924SOL    HW250793   3.059   7.253   7.307 -1.1684 -0.5929 -1.0143
15925SOL     OW50794   9.056   9.027   2.053  0.2804 -0.2905  0.5904
15925SOL    HW150795   8.995   8.953   2.040  1.2528 -0.8177 -1.1002
15925SOL    HW250796   9.134   8.987   2.091  0.2486  0.1100  1.0795
15926SOL     OW50797   6.904   6.329   8.293 -0.2257  0.3719 -0.2786
15926SOL    HW150798   6.968   6.347   8.362  0.4294  0.3080 -0.8581
15926SOL    HW250799   6.819   6.341   8.335  0.1600  0.0605  0.6068
15927SOL     OW50800   1.377   6.486   5.642  0.1665 -0.1218  0.8825
15927SOL    HW150801   1.314   6.417   5.622  0.4607 -0.8207  2.3088
15927SOL    HW250802   1.431   6.449   5.713  2.1029  0.4890 -0.2303
15928SOL     OW50803   6.204   9.012   1.700 -0.2771 -0.1840  0.7903
15928SOL    HW150804   6.226   9.101   1.726  1.1476 -0.6175  1.1116
15928SOL    HW250805   6.204   9.014   1.604  0.0540  0.0924  0.7945
15929SOL     OW50806   7.523   0.042   8.375 -0.2231 -0.3278 -0.5067
15929SOL    HW150807   7.607   0.012   8.341  0.0821  2.3637 -2.2702
15929SOL    HW250808   7.544   0.087   8.456 -0.1161 -0.5674 -0.3998
15930SOL     OW50809   1.111   0.896   5.768 -0.6192  0.0748 -0.1116
15930SOL    HW150810   1.159   0.820   5.800 -0.0068  0.8788  0.9155
15930SOL    HW250811   1.117   0.960   5.839 -0.8531  1.1945 -1.0773
15931SOL     OW50812   8.523   5.732   6.586  0.1880 -0.2016  0.3248
15931SOL    HW150813   8.491   5.820   6.564 -1.9939 -1.4629 -1.7973
15931SOL    HW250814   8.486   5.714   6.673  1.4497  1.3345  1.2017
15932SOL     OW50815   4.298   0.840   4.958 -0.0808  0.4891  0.7427
15932SOL    HW150816   4.389   0.812   4.950  0.2549  1.3704  1.4355
15932SOL    HW250817   4.274   0.868   4.869  0.4240  0.5639  0.6294
15933SOL     OW50818   2.597   0.245   4.149  0.0124  0.1007  0.4752
15933SOL    HW150819   2.523   0.291   4.187 -0.1699 -0.2145  0.5007
15933SOL    HW250820   2.591   0.155   4.183  0.8523  0.2774  1.1004
15934SOL     OW50821   0.941   7.882   6.783 -0.5706 -0.2108 -0.2278
15934SOL    HW150822   0.985   7.803   6.813 -0.6962 -1.9520 -4.3832
15934SOL    HW250823   0.847   7.861   6.790 -0.6299  0.1719  0.1579
15935SOL     OW50824   4.983   4.028   0.791 -0.9250 -0.4629  0.1543
15935SOL    HW150825   4.971   4.115   0.753 -1.1764 -0.3459  0.4955
15935SOL    HW250826   4.985   3.969   0.715 -1.0156 -0.1886 -0.0635
15936SOL     OW50827   7.234   4.270   0.430 -0.3493 -0.7935  0.1015
15936SOL    HW150828   7.264   4.328   0.500 -1.7886 -1.5534  1.3640
15936SOL    HW250829   7.284   4.189   0.443 -0.1839 -0.7279 -0.1205
15937SOL     OW50830   8.912   4.853   6.545  0.6595 -0.3544 -0.5758
15937SOL    HW150831   8.876   4.934   6.510  0.9498  0.0501  0.0583
15937SOL    HW250832   8.857   4.784   6.507  1.8013 -0.0399 -2.9389
15938SOL     OW50833   9.227   8.437   7.858  0.3404  0.3863  0.0764
15938SOL    HW150834   9.168   8.476   7.793  1.8037  0.5564 -1.1866
15938SOL    HW250835   9.270   8.365   7.811 -0.1870 -0.9065  1.5211
15939SOL     OW50836   1.700   7.939   5.008 -0.0362  0.4024 -0.2221
15939SOL    HW150837   1.698   7.986   5.091  1.7190  0.1114  0.0142
15939SOL    HW250838   1.761   7.990   4.954 -2.3457  1.4835 -1.9051
15940SOL     OW50839   7.090   1.294   6.845 -0.3217 -0.2949  1.0117
15940SOL    HW150840   7.081   1.240   6.767  2.7907  0.4429  0.0808
15940SOL    HW250841   7.029   1.367   6.831  0.5585  0.0826 -0.9585
15941SOL     OW50842   3.780   4.999   8.107 -0.0387 -0.1276  0.1635
15941SOL    HW150843   3.713   4.966   8.047 -0.4048 -0.9261  1.0070
15941SOL    HW250844   3.770   5.094   8.104 -2.3443 -0.2944  1.5602
15942SOL     OW50845   4.630   2.918   6.287  0.4452 -0.4219  0.4735
15942SOL    HW150846   4.656   2.840   6.238 -2.4329 -0.9064 -0.3389
15942SOL    HW250847   4.602   2.981   6.220 -1.6383 -0.3728  1.3510
15943SOL     OW50848   6.935   1.223   2.083 -0.3085  0.1472  0.0956
15943SOL    HW150849   6.989   1.247   2.007  0.8746  0.1153  0.9196
15943SOL    HW250850   6.846   1.243   2.055 -0.0394 -1.1241 -1.8027
15944SOL     OW50851   8.492   7.120   4.446 -0.3065  0.4433 -0.3433
15944SOL    HW150852   8.453   7.184   4.387  0.2885 -0.0899 -1.3417
15944SOL    HW250853   8.431   7.046   4.444  0.5085 -0.2159 -1.5642
15945SOL     OW50854   2.084   8.748   0.373  0.2073 -0.3585  0.0337
15945SOL    HW150855   2.029   8.682   0.416 -1.7304  1.1499 -0.0400
15945SOL    HW250856   2.091   8.717   0.283  0.3561 -1.1111  0.2986
15946SOL     OW50857   4.985   1.517   8.152 -0.4138  0.0460  0.1237
15946SOL    HW150858   4.950   1.493   8.238 -0.9623  2.1925  0.5188
15946SOL    HW250859   4.912   1.504   8.092 -0.3858 -0.2905  0.1593
15947SOL     OW50860   8.812   3.684   6.323 -0.3827  0.4030 -0.0682
15947SOL    HW150861   8.774   3.767   6.350  1.2825  1.9782 -2.3819
15947SOL    HW250862   8.778   3.670   6.234  0.9339 -0.3532 -0.4635
15948SOL     OW50863   0.832   7.408   4.806  0.5559  0.2382 -0.1526
15948SOL    HW150864   0.906   7.427   4.864 -0.3157 -1.5384  1.6252
15948SOL    HW250865   0.759   7.390   4.866 -0.8916  0.3571 -1.8435
15949SOL     OW50866   5.770   4.341   3.970  0.1830 -0.2036 -0.2548
15949SOL    HW150867   5.697   4.359   4.028 -0.3059 -0.4475 -0.7913
15949SOL    HW250868   5.818   4.270   4.013 -0.2670 -0.4913 -0.2232
15950SOL     OW50869   4.685   4.096   6.824  0.0880 -0.0932 -0.1754
15950SOL    HW150870   4.658   4.156   6.894  1.0925  0.4162 -0.2126
15950SOL    HW250871   4.733   4.027   6.869  0.2304 -0.0736 -0.2966
15951SOL     OW50872   2.908   4.374   0.903  0.5450 -0.0757  0.0660
15951SOL    HW150873   2.935   4.389   0.813 -2.2563  0.7389 -0.6787
15951SOL    HW250874   2.851   4.297   0.899 -1.0481  1.0318  0.8378
15952SOL     OW50875   6.443   0.326   5.198  0.5962  0.6355  0.0064
15952SOL    HW150876   6.459   0.242   5.155  0.0294 -0.4032  1.7616
15952SOL    HW250877   6.394   0.377   5.134  1.0241 -0.3501 -1.1135
15953SOL     OW50878   0.453   3.384   5.744  0.1288  0.2486  0.8110
15953SOL    HW150879   0.479   3.369   5.835 -0.1989  2.6647  1.3408
15953SOL    HW250880   0.389   3.454   5.748 -1.2094 -0.8069 -1.1575
15954SOL     OW50881   1.404   3.515   6.319 -0.1125 -0.0636 -0.0534
15954SOL    HW150882   1.338   3.504   6.251 -1.1274 -1.9578  1.1981
15954SOL    HW250883   1.367   3.581   6.378 -0.1723  0.0234 -0.1880
15955SOL     OW50884   8.840   3.391   6.496 -0.3077 -0.2853 -0.2771
15955SOL    HW150885   8.814   3.335   6.423  2.5730 -0.3439 -1.3450
15955SOL    HW250886   8.842   3.333   6.572  0.6696 -1.2006 -0.9784
15956SOL     OW50887   9.276   8.008   2.538 -0.5259  0.2687 -0.0008
15956SOL    HW150888   9.288   8.006   2.633 -0.5504  3.5028  0.1200
15956SOL    HW250889   9.365   8.015   2.503 -0.5877  0.2208 -0.1645
15957SOL     OW50890   2.319   9.377   6.534  0.2849  0.1459  0.0699
15957SOL    HW150891   2.341   9.396   6.443 -0.8127 -0.1453 -0.2689
15957SOL    HW250892   2.274   9.292   6.531  0.6621 -0.0916  0.9413
15958SOL     OW50893   3.756   1.158   5.351  0.1127  0.0743 -0.7950
15958SOL    HW150894   3.842   1.157   5.311  0.5471  1.0171  0.0786
15958SOL    HW250895   3.729   1.066   5.356  0.1196 -0.0699 -3.0594
15959SOL     OW50896   6.697   8.885   7.626  0.9661  0.0488  0.5210
15959SOL    HW150897   6.757   8.853   7.693  0.0694 -1.0224  0.8172
15959SOL    HW250898   6.746   8.954   7.581  1.0922  1.7041  3.1250
15960SOL     OW50899   8.473   2.739   1.649  0.3518 -0.3460 -0.0764
15960SOL    HW150900   8.468   2.652   1.689 -0.9666  0.6511  2.0144
15960SOL    HW250901   8.549   2.780   1.691 -0.2861  0.2501  0.5145
15961SOL     OW50902   7.585   7.588   5.645 -0.0832 -0.2467 -0.3674
15961SOL    HW150903   7.605   7.671   5.688  0.1984 -0.8827  0.7656
15961SOL    HW250904   7.579   7.525   5.717 -1.7754 -0.9251 -1.0561
15962SOL     OW50905   8.962   7.473   3.925  0.6769 -0.3509 -0.3396
15962SOL    HW150906   9.051   7.500   3.947  0.5029  0.3531 -0.4964
15962SOL    HW250907   8.937   7.529   3.851 -0.2232  0.0581  0.2733
15963SOL     OW50908   4.601   1.560   2.101  0.0160 -0.0636  0.1416
15963SOL    HW150909   4.602   1.484   2.043  0.4710  1.6130 -2.0848
15963SOL    HW250910   4.662   1.536   2.171  1.5595 -1.0392 -1.4782
15964SOL     OW50911   4.444   7.102   2.460 -0.6058  0.7502  0.2724
15964SOL    HW150912   4.377   7.159   2.422 -0.7647  0.6116  0.3448
15964SOL    HW250913   4.398   7.021   2.481 -0.0138 -0.0376 -1.4019
15965SOL     OW50914   7.873   2.605   2.739  0.0244  0.0642 -0.3546
15965SOL    HW150915   7.816   2.671   2.700 -0.7114 -1.1755 -1.4303
15965SOL    HW250916   7.844   2.522   2.700  1.6134 -0.7686  0.1774
15966SOL     OW50917   0.603   6.909   6.404 -0.6033  0.1013  0.0766
15966SOL    HW150918   0.532   6.974   6.402 -1.9044 -1.2885  0.4010
15966SOL    HW250919   0.674   6.950   6.355 -0.8922  2.3713  1.5027
15967SOL     OW50920   7.031   3.761   1.253 -0.0412  0.0232  0.0005
15967SOL    HW150921   7.115   3.768   1.208 -0.0189 -0.7187 -0.0722
15967SOL    HW250922   7.042   3.813   1.333  0.7679 -0.7738  0.4054
15968SOL     OW50923   5.979   3.226   5.944  0.3629  0.1153  0.2094
15968SOL    HW150924   5.901   3.174   5.924  0.3745 -0.1585  0.8848
15968SOL    HW250925   5.958   3.271   6.025  1.1077 -0.3677  0.6771
15969SOL     OW50926   3.208   4.294   9.046 -0.0248  0.5723  0.0223
15969SOL    HW150927   3.154   4.326   8.974  0.8001  2.4042  0.1892
15969SOL    HW250928   3.178   4.344   9.123  1.1972  0.8854  0.3141
15970SOL     OW50929   6.629   1.546   2.130 -0.8292  0.3067 -0.1121
15970SOL    HW150930   6.654   1.614   2.068  0.4580  0.2057  0.2781
15970SOL    HW250931   6.650   1.464   2.086  0.6434  0.2498  0.6773
15971SOL     OW50932   3.824   1.361   5.812 -0.0691  0.1429 -0.4920
15971SOL    HW150933   3.878   1.343   5.735  0.7940  1.5630 -0.2310
15971SOL    HW250934   3.780   1.443   5.792 -0.4597  0.1032  0.1927
15972SOL     OW50935   7.200   4.817   3.616 -0.6313 -0.2492  0.4043
15972SOL    HW150936   7.161   4.843   3.532  0.0030 -1.4713 -0.2780
15972SOL    HW250937   7.217   4.900   3.660  1.0560  0.5373 -1.6113
15973SOL     OW50938   7.026   2.003   6.102  0.3505 -0.1709 -0.6745
15973SOL    HW150939   7.044   2.007   6.196 -0.3378  1.1105 -0.5823
15973SOL    HW250940   7.048   1.913   6.077  0.5628 -0.5136  0.7020
15974SOL     OW50941   9.149   8.232   0.861  0.1805  0.4976 -0.8821
15974SOL    HW150942   9.232   8.189   0.839  0.5172 -0.2450  1.7555
15974SOL    HW250943   9.087   8.198   0.796  1.1329 -1.6587 -0.7100
15975SOL     OW50944   1.427   0.162   4.591 -0.3076  0.0584  0.1807
15975SOL    HW150945   1.411   0.068   4.592  2.2105 -0.4003  0.0344
15975SOL    HW250946   1.340   0.201   4.582 -1.2117 -2.3134 -2.0470
15976SOL     OW50947   4.026   9.425   8.885 -0.0685 -0.0185  0.7828
15976SOL    HW150948   3.946   9.468   8.855 -1.3725 -1.3379  2.3211
15976SOL    HW250949   4.004   9.332   8.889  2.1075 -0.6323 -0.5523
15977SOL     OW50950   2.508   6.430   5.626  0.0938  0.2111 -0.9738
15977SOL    HW150951   2.468   6.398   5.546 -1.3333 -1.5341  0.3804
15977SOL    HW250952   2.464   6.382   5.696  1.5546  1.4129  0.8451
15978SOL     OW50953   0.260   1.952   6.172  0.3018  0.8387 -0.3332
15978SOL    HW150954   0.300   1.892   6.235  0.9469  0.5164 -1.0426
15978SOL    HW250955   0.183   1.905   6.140 -1.1383  1.7788  1.6210
15979SOL     OW50956   9.440   3.519   2.824 -0.1675  0.3715 -0.1473
15979SOL    HW150957   9.380   3.594   2.822  0.6614  1.0221 -0.7799
15979SOL    HW250958   9.509   3.545   2.886 -0.0470  0.0020 -0.1267
15980SOL     OW50959   4.890   9.263   0.733 -0.0106 -0.0800 -0.0830
15980SOL    HW150960   4.902   9.325   0.661  0.4331 -0.3525 -0.2425
15980SOL    HW250961   4.821   9.204   0.703  0.7200 -0.6764 -0.6119
15981SOL     OW50962   0.098   0.866   1.136 -0.2245  0.1067  0.0044
15981SOL    HW150963   0.104   0.933   1.204  1.2649 -1.1085  1.1100
15981SOL    HW250964   0.164   0.890   1.072  1.8789 -1.4905  1.5132
15982SOL     OW50965   8.257   7.368   7.795 -0.0848 -0.0572 -0.5674
15982SOL    HW150966   8.173   7.393   7.832 -0.3613 -0.5926 -0.8253
15982SOL    HW250967   8.255   7.273   7.793  0.8074 -0.0985  0.0661
15983SOL     OW50968   2.603   7.719   8.515  0.2346 -0.0460  0.1300
15983SOL    HW150969   2.685   7.717   8.467  1.8199 -2.3267  2.8012
15983SOL    HW250970   2.592   7.630   8.548 -4.0128 -0.1481 -1.2492
15984SOL     OW50971   8.895   8.753   7.708  0.2765 -0.2718  0.3005
15984SOL    HW150972   8.886   8.733   7.615  0.8094  1.0687 -0.0578
15984SOL    HW250973   8.918   8.846   7.710 -0.5075 -0.0955  1.8089
15985SOL     OW50974   3.235   4.299   1.530  0.1468 -0.6221  0.2206
15985SOL    HW150975   3.251   4.205   1.519 -0.2807 -0.5165 -1.5458
15985SOL    HW250976   3.322   4.339   1.521  0.3287 -0.8525  0.9678
15986SOL     OW50977   8.246   1.739   4.213  0.2628  0.0872  0.5272
15986SOL    HW150978   8.168   1.752   4.267 -0.3268 -1.0317 -0.0241
15986SOL    HW250979   8.263   1.645   4.218  1.8257  0.3767  0.9740
15987SOL     OW50980   1.726   4.350   2.863 -0.2309 -0.1437 -0.0142
15987SOL    HW150981   1.793   4.306   2.810 -0.7801 -0.1263 -0.7419
15987SOL    HW250982   1.739   4.317   2.952  0.4053 -0.5394 -0.2511
15988SOL     OW50983   9.348   0.562   0.915  0.7976  0.0686 -0.5755
15988SOL    HW150984   9.300   0.643   0.897  2.9961  1.7532  0.8317
15988SOL    HW250985   9.431   0.573   0.868  1.3493 -1.1158  0.0927
15989SOL     OW50986   3.359   6.714   3.270  0.5404 -0.4630  0.2953
15989SOL    HW150987   3.315   6.636   3.303  2.2549 -1.4067  0.3999
15989SOL    HW250988   3.396   6.687   3.186  0.2448  0.5523 -0.1679
15990SOL     OW50989   8.055   6.163   5.639 -0.1755 -0.1364 -0.1132
15990SOL    HW150990   8.111   6.166   5.562 -1.1433 -1.5623 -0.9123
15990SOL    HW250991   8.012   6.248   5.641  1.5041  0.7291  0.1417
15991SOL     OW50992   9.203   3.551   4.655  0.3540  0.5699  0.1991
15991SOL    HW150993   9.189   3.641   4.683  0.3615  0.5123  0.3940
15991SOL    HW250994   9.298   3.541   4.653  0.4019  1.3532 -2.4025
15992SOL     OW50995   3.419   6.150   5.530  0.3494  0.0994 -0.2255
15992SOL    HW150996   3.424   6.117   5.440 -1.2932  1.0340 -0.6729
15992SOL    HW250997   3.336   6.116   5.563  0.5618  0.4469  0.6684
15993SOL     OW50998   7.640   5.500   7.166  0.1032 -0.4821 -0.5396
15993SOL    HW150999   7.632   5.416   7.120  0.7241 -0.8865  0.0943
15993SOL    HW251000   7.622   5.480   7.258 -2.5008  0.5573 -0.7563
15994SOL     OW51001   8.301   7.842   1.920  0.6635  0.1563  0.1115
15994SOL    HW151002   8.265   7.826   2.007  0.3813 -0.7249 -0.1588
15994SOL    HW251003   8.362   7.915   1.932 -1.9991  2.4033  0.3623
15995SOL     OW51004   8.161   3.462   4.735  0.2892 -0.3335 -0.2608
15995SOL    HW151005   8.217   3.385   4.728 -0.1977 -0.6583 -0.5868
15995SOL    HW251006   8.167   3.504   4.649  0.3036 -0.1811 -0.1860
15996SOL     OW51007   2.137   5.317   3.559  0.2425  0.4841  0.2373
15996SOL    HW151008   2.088   5.388   3.601 -0.5274  0.0965  0.0119
15996SOL    HW251009   2.229   5.338   3.576  0.0789  2.0945 -0.7154
15997SOL     OW51010   3.142   4.616   8.520 -0.3177  0.6427  0.1099
15997SOL    HW151011   3.238   4.614   8.531 -0.0678  0.5417 -1.8600
15997SOL    HW251012   3.114   4.694   8.568  0.6684  0.3014  1.2736
15998SOL     OW51013   3.159   6.866   7.703  0.5837 -0.0145  0.2022
15998SOL    HW151014   3.105   6.798   7.741 -1.0897  0.9119 -0.4838
15998SOL    HW251015   3.173   6.929   7.774  1.7935 -0.8417  0.7193
15999SOL     OW51016   3.216   4.187   7.271 -0.1432 -0.3533 -0.3536
15999SOL    HW151017   3.123   4.207   7.258 -0.7230 -0.6826  3.0630
15999SOL    HW251018   3.254   4.270   7.298  0.2934 -0.5687 -0.3133
16000SOL     OW51019   2.684   6.625   8.917  0.1079 -0.3530  0.1106
16000SOL    HW151020   2.690   6.552   8.977 -0.9787 -1.4518 -1.0654
16000SOL    HW251021   2.621   6.685   8.958 -0.4357 -0.9786  0.2067
16001SOL     OW51022   3.275   7.159   0.733  0.4260 -0.5184 -0.0252
16001SOL    HW151023   3.329   7.119   0.665  2.5808  0.4350  1.0378
16001SOL    HW251024   3.268   7.092   0.801 -0.5709 -0.9939 -0.5994
16002SOL     OW51025   7.635   3.227   1.558  0.4787  0.2354 -0.0817
16002SOL    HW151026   7.566   3.206   1.620  0.0637  0.0357 -0.6061
16002SOL    HW251027   7.609   3.182   1.477  1.7991 -0.7810  0.0450
16003SOL     OW51028   0.837   6.241   5.081 -0.3662 -0.3475 -0.1990
16003SOL    HW151029   0.828   6.232   4.986 -1.4207 -0.6954 -0.0720
16003SOL    HW251030   0.874   6.157   5.109 -1.1998 -0.6983 -0.1550
16004SOL     OW51031   7.819   4.199   7.681 -0.3232  0.2690  0.1022
16004SOL    HW151032   7.738   4.158   7.711 -0.2386  0.8298  1.1304
16004SOL    HW251033   7.875   4.203   7.758  0.1602  1.1260 -0.2740
16005SOL     OW51034   0.165   3.106   6.005  0.6426  0.1500 -0.2069
16005SOL    HW151035   0.181   3.025   6.053  1.5658  1.5163  1.8780
16005SOL    HW251036   0.092   3.086   5.946  0.5309 -2.0241  0.6455
16006SOL     OW51037   2.135   8.252   5.564 -0.2615  0.0242 -0.3579
16006SOL    HW151038   2.225   8.279   5.582  0.0456 -1.2584  0.1098
16006SOL    HW251039   2.085   8.285   5.639  0.0558 -0.3766  0.0399
16007SOL     OW51040   0.276   5.755   3.785 -0.1556  0.0806  0.4277
16007SOL    HW151041   0.368   5.752   3.812 -0.1643 -3.6809  0.3220
16007SOL    HW251042   0.273   5.700   3.706 -2.4769  0.3640  0.2945
16008SOL     OW51043   9.238   9.235   4.404  0.5099  0.1466  0.0585
16008SOL    HW151044   9.165   9.176   4.386  0.6549 -0.2944  0.8607
16008SOL    HW251045   9.197   9.318   4.427  0.3048  0.3756 -1.1291
16009SOL     OW51046   0.912   8.422   8.039 -0.5472 -0.7189  0.1074
16009SOL    HW151047   0.919   8.515   8.062 -0.1950 -0.2618 -1.7424
16009SOL    HW251048   0.821   8.399   8.057 -0.2781 -0.4173  1.9505
16010SOL     OW51049   4.668   8.195   6.453  0.6175  0.5320 -0.1469
16010SOL    HW151050   4.753   8.163   6.484  2.3646  1.0488 -3.9960
16010SOL    HW251051   4.682   8.288   6.434 -0.1553  0.1899 -2.6661
16011SOL     OW51052   2.332   0.758   8.747  0.0552  0.3086  0.5755
16011SOL    HW151053   2.364   0.776   8.659 -1.8066  1.1802  0.0512
16011SOL    HW251054   2.411   0.744   8.799  1.2172  0.9251 -0.9811
16012SOL     OW51055   9.068   1.801   4.465 -0.5238  0.3893  0.2671
16012SOL    HW151056   9.099   1.817   4.376  0.0941 -2.0484  0.0155
16012SOL    HW251057   9.013   1.877   4.485 -1.9172  0.2320 -2.7325
16013SOL     OW51058   0.014   8.790   4.516  0.2616 -0.1395  0.6418
16013SOL    HW151059   0.037   8.859   4.579 -0.0611 -0.4034  1.0511
16013SOL    HW251060   0.064   8.813   4.437 -0.5246  1.0474  0.4740
16014SOL     OW51061   4.549   5.415   0.951  0.6178  0.2075 -0.1088
16014SOL    HW151062   4.475   5.435   0.893  1.9051 -0.2147 -1.9252
16014SOL    HW251063   4.540   5.478   1.023  0.2869  2.2784 -1.8930
16015SOL     OW51064   0.219   1.713   6.971  0.0306  0.0591 -0.5255
16015SOL    HW151065   0.128   1.719   6.943 -0.5454  0.3648  1.2951
16015SOL    HW251066   0.217   1.650   7.044  0.8836  1.7569  1.0123
16016SOL     OW51067   8.010   6.223   1.608  0.4268  0.0937 -0.4220
16016SOL    HW151068   7.914   6.225   1.616  0.3855  1.1295 -1.1327
16016SOL    HW251069   8.035   6.315   1.597  1.5534 -0.1268  0.3248
16017SOL     OW51070   4.159   4.862   3.800 -0.3023  0.6614 -0.5001
16017SOL    HW151071   4.106   4.809   3.741  2.1020 -0.9850 -1.2581
16017SOL    HW251072   4.215   4.914   3.742  1.6053 -0.4634  0.2856
16018SOL     OW51073   4.897   1.837   6.371 -0.1950 -0.4942  0.4287
16018SOL    HW151074   4.816   1.826   6.420 -0.3023 -0.7236  0.1978
16018SOL    HW251075   4.897   1.765   6.308 -0.2712  0.0667 -0.2115
16019SOL     OW51076   4.577   3.712   8.343 -0.5518 -0.1131 -0.5076
16019SOL    HW151077   4.554   3.699   8.251  0.0631  1.2402 -0.8802
16019SOL    HW251078   4.671   3.692   8.347 -0.5531 -0.0662 -0.2076
16020SOL     OW51079   0.758   5.998   7.236 -0.4759  0.2641  0.0252
16020SOL    HW151080   0.765   6.082   7.191 -1.0926  0.5570  0.4673
16020SOL    HW251081   0.804   5.936   7.179 -0.4982  0.7955 -0.5746
16021SOL     OW51082   1.078   8.400   5.885 -0.3733  0.0709  0.0487
16021SOL    HW151083   1.155   8.452   5.910  1.2956 -1.6238 -1.4205
16021SOL    HW251084   1.046   8.443   5.806 -0.6344  0.4691  0.3682
16022SOL     OW51085   8.456   3.742   4.255 -0.3605 -0.4063 -0.1615
16022SOL    HW151086   8.402   3.716   4.180 -0.8928  1.1138 -0.3259
16022SOL    HW251087   8.393   3.748   4.328 -0.3536  0.8910 -0.2452
16023SOL     OW51088   1.020   6.587   9.088 -0.6294 -0.3034 -0.3005
16023SOL    HW151089   0.933   6.625   9.099 -0.6827 -0.5423  0.0939
16023SOL    HW251090   1.006   6.510   9.033 -0.8184 -0.9452  0.6390
16024SOL     OW51091   9.089   7.211   0.296  0.4183  0.2356  0.4068
16024SOL    HW151092   9.107   7.149   0.367  2.5478  0.8108  0.3937
16024SOL    HW251093   8.997   7.195   0.274 -0.1395 -0.3324  2.9255
16025SOL     OW51094   3.126   2.728   4.514  0.0176 -0.2717  0.4940
16025SOL    HW151095   3.199   2.721   4.575  0.5308  2.5597  0.2802
16025SOL    HW251096   3.098   2.637   4.499  1.9153 -1.2217  2.4371
16026SOL     OW51097   8.773   2.623   4.955  0.2543 -0.4522 -0.2786
16026SOL    HW151098   8.753   2.710   4.990  0.1378 -1.1015  1.2590
16026SOL    HW251099   8.853   2.597   5.001 -0.2349 -1.5630 -0.0521
16027SOL     OW51100   8.815   3.807   2.440  0.0841  0.2931 -0.0396
16027SOL    HW151101   8.744   3.871   2.428 -0.0368  0.2287  0.3288
16027SOL    HW251102   8.874   3.848   2.503 -0.7196 -0.5547  1.2834
16028SOL     OW51103   6.011   8.700   1.511  0.1746  0.6406 -0.0390
16028SOL    HW151104   6.071   8.768   1.541 -0.4213  1.7928 -1.4285
16028SOL    HW251105   5.931   8.746   1.486 -1.2134 -0.8483  1.4667
16029SOL     OW51106   6.831   2.947   4.173 -0.2507  0.1115 -0.5806
16029SOL    HW151107   6.857   2.957   4.081 -0.0675 -0.9457 -0.6515
16029SOL    HW251108   6.773   2.872   4.173 -0.0214 -0.0702  0.2157
16030SOL     OW51109   2.111   8.237   8.895 -0.4040 -0.1271 -0.0677
16030SOL    HW151110   2.074   8.320   8.866  0.5318  0.0257 -0.8735
16030SOL    HW251111   2.204   8.244   8.873 -0.2063 -1.1457  0.4131
16031SOL     OW51112   1.883   1.087   1.350  0.8599 -0.1134 -0.1588
16031SOL    HW151113   1.846   1.154   1.408 -0.8317 -0.4994 -0.7366
16031SOL    HW251114   1.959   1.054   1.396  0.5330  0.7923  1.0597
16032SOL     OW51115   0.525   5.097   2.361  0.2886 -0.1081 -0.1186
16032SOL    HW151116   0.554   5.187   2.354  2.0267 -0.7431 -1.2728
16032SOL    HW251117   0.495   5.088   2.451  0.8002  1.4054  0.2045
16033SOL     OW51118   0.965   2.847   2.619 -0.1656 -0.8866  0.7114
16033SOL    HW151119   0.909   2.770   2.606 -2.0938  0.4709  0.7726
16033SOL    HW251120   0.938   2.908   2.551  1.3334 -0.2456  0.6774
16034SOL     OW51121   2.981   3.312   7.802 -0.7801 -0.5267 -0.1937
16034SOL    HW151122   2.917   3.271   7.860  0.1319 -1.1580  0.3862
16034SOL    HW251123   2.968   3.406   7.814  0.1527 -0.6422  1.9187
16035SOL     OW51124   1.176   3.786   8.344 -0.7327  0.1622 -0.4161
16035SOL    HW151125   1.087   3.760   8.365 -1.0193  0.5438 -1.1473
16035SOL    HW251126   1.212   3.712   8.294 -0.4234 -0.2654  0.4337
16036SOL     OW51127   2.850   6.171   5.918 -0.4645 -0.2035  1.0113
16036SOL    HW151128   2.840   6.191   6.011  0.5363 -0.0053  1.0819
16036SOL    HW251129   2.921   6.227   5.889  0.5400 -1.6506  0.5819
16037SOL     OW51130   2.879   6.833   2.652 -0.0594 -0.6445 -0.5989
16037SOL    HW151131   2.874   6.881   2.735 -1.4052  0.4103 -1.2550
16037SOL    HW251132   2.867   6.901   2.585  1.1587 -1.4670 -1.6589
16038SOL     OW51133   0.799   6.312   6.226  0.1075  0.1042 -0.3819
16038SOL    HW151134   0.853   6.386   6.197 -0.4995  0.4759 -0.5827
16038SOL    HW251135   0.709   6.338   6.204 -0.3631  0.3468  1.7633
16039SOL     OW51136   4.355   0.506   1.036 -0.4758  0.0966  0.1428
16039SOL    HW151137   4.280   0.531   0.983  0.7221  0.5334 -1.3634
16039SOL    HW251138   4.325   0.516   1.127 -2.6145 -0.9053 -0.4323
16040SOL     OW51139   7.955   2.144   5.786 -0.8496  0.1148  0.5519
16040SOL    HW151140   7.935   2.214   5.849 -0.2018  1.0412 -0.2644
16040SOL    HW251141   7.878   2.088   5.787 -1.4391  0.9287  1.0851
16041SOL     OW51142   5.249   0.292   7.973  0.4462 -0.5244 -0.1057
16041SOL    HW151143   5.176   0.333   8.020  0.2965 -0.9669  0.0554
16041SOL    HW251144   5.285   0.361   7.918  0.6658  0.0229  0.7153
16042SOL     OW51145   3.524   4.316   0.506  0.5898  0.0101 -0.2201
16042SOL    HW151146   3.501   4.281   0.592  2.0827 -0.3476  0.0440
16042SOL    HW251147   3.533   4.411   0.521 -1.0149  0.1994 -0.4020
16043SOL     OW51148   5.447   8.025   9.381 -0.5097  0.2905 -0.0075
16043SOL    HW151149   5.541   8.038   9.381 -0.4141 -0.3302  0.7430
16043SOL    HW251150   5.421   8.035   9.289  0.4234 -0.4976 -0.3652
16044SOL     OW51151   4.287   2.471   0.010  0.4191  0.1073 -0.2481
16044SOL    HW151152   4.247   2.433  -0.069 -0.1942 -0.2354  0.2256
16044SOL    HW251153   4.273   2.565  -0.000 -0.1029  0.0263 -0.3106
16045SOL     OW51154   3.749   3.487   0.407  0.2355 -0.2160  0.0091
16045SOL    HW151155   3.678   3.451   0.354  1.3673  0.7025 -2.1593
16045SOL    HW251156   3.819   3.422   0.402  0.9998  0.6821 -1.0796
16046SOL     OW51157   1.983   4.464   4.152  0.1574 -0.5890  0.0903
16046SOL    HW151158   1.934   4.390   4.118 -0.6571  0.5657 -1.2637
16046SOL    HW251159   2.066   4.426   4.181 -0.4921 -2.1218 -0.0349
16047SOL     OW51160   0.497   8.639   5.495  0.2063  0.6521  0.5012
16047SOL    HW151161   0.498   8.721   5.545 -0.0972 -0.9548  3.2256
16047SOL    HW251162   0.416   8.595   5.523  1.2307 -1.3432  0.4007
16048SOL     OW51163   6.898   0.217   5.086  0.4669  0.2782  0.5972
16048SOL    HW151164   6.885   0.257   5.172  1.1297 -0.9085  1.2674
16048SOL    HW251165   6.880   0.287   5.024 -3.1630  0.3545  1.5959
16049SOL     OW51166   9.421   6.792   3.678 -0.1997  0.2396 -0.5016
16049SOL    HW151167   9.457   6.881   3.682  2.4313 -0.8290  0.3717
16049SOL    HW251168   9.381   6.779   3.765 -0.3604  0.4527 -0.5409
16050SOL     OW51169   1.054   8.072   4.472  0.0161  0.5118  0.0561
16050SOL    HW151170   1.124   8.071   4.406  0.9539 -0.0673  1.0332
16050SOL    HW251171   0.976   8.042   4.425  0.3585  1.3915 -1.1113
16051SOL     OW51172   0.823   8.636   8.695 -0.2289  0.4820  0.0088
16051SOL    HW151173   0.774   8.564   8.735 -0.7709  1.2243  0.6872
16051SOL    HW251174   0.821   8.706   8.760  2.2047  0.3482  0.2913
16052SOL     OW51175   1.828   2.776   0.071  0.7088 -0.2889 -0.1028
16052SOL    HW151176   1.863   2.703   0.019  1.1651  0.1971 -0.4848
16052SOL    HW251177   1.905   2.814   0.113  0.2761 -1.0311  1.4041
16053SOL     OW51178   5.693   8.955   6.556 -0.3225 -0.5032  0.3754
16053SOL    HW151179   5.624   8.925   6.497 -0.2979 -1.6980  0.9363
16053SOL    HW251180   5.772   8.957   6.501 -0.3874 -1.1891  0.2537
16054SOL     OW51181   3.513   8.207   3.764  0.1772  0.4588 -0.1344
16054SOL    HW151182   3.488   8.116   3.748  0.1198  0.4736 -0.1303
16054SOL    HW251183   3.588   8.200   3.823  0.8852  0.3784 -1.0323
16055SOL     OW51184   1.156   6.041   0.909  0.2687  0.1333 -0.0935
16055SOL    HW151185   1.118   5.958   0.939 -1.3331  0.4431 -1.1745
16055SOL    HW251186   1.119   6.107   0.968 -0.1285  0.3240 -0.5510
16056SOL     OW51187   9.353   7.130   4.644  0.4750  0.2662  0.1684
16056SOL    HW151188   9.419   7.118   4.712 -0.7771 -0.4525  1.3028
16056SOL    HW251189   9.319   7.042   4.629 -0.9434  0.7587  0.3728
16057SOL     OW51190   1.016   3.611   2.740 -0.1464 -0.3603  0.1400
16057SOL    HW151191   1.072   3.539   2.710 -0.7698 -1.7090  2.0988
16057SOL    HW251192   1.021   3.676   2.670  1.8746 -1.5270 -0.8446
16058SOL     OW51193   2.263   8.647   6.086  0.4209  0.0744  0.8433
16058SOL    HW151194   2.224   8.606   6.163  2.5079  0.9651  2.4331
16058SOL    HW251195   2.353   8.667   6.113  1.1977  0.3406 -1.8619
16059SOL     OW51196   1.075   2.217   3.509  0.9877  0.0840 -0.1839
16059SOL    HW151197   1.061   2.309   3.485  2.6354 -0.5703 -3.9849
16059SOL    HW251198   0.991   2.188   3.544 -0.0305  2.5889 -0.4365
16060SOL     OW51199   1.847   5.835   1.199  0.5554  0.2827 -0.2025
16060SOL    HW151200   1.872   5.868   1.113  1.6564 -1.9482 -0.7545
16060SOL    HW251201   1.794   5.757   1.181  0.4552  0.0311  1.1413
16061SOL     OW51202   1.269   9.153   6.531  0.3371 -0.3868 -0.1758
16061SOL    HW151203   1.348   9.205   6.545  0.7332 -1.3729  1.4097
16061SOL    HW251204   1.276   9.082   6.595 -0.9762 -1.4682 -1.2036
16062SOL     OW51205   0.956   3.997   7.353 -0.3901  0.1661 -0.9200
16062SOL    HW151206   0.953   4.018   7.447 -0.5478 -0.8697 -0.6862
16062SOL    HW251207   0.887   4.051   7.314 -1.2998 -0.4921 -0.2217
16063SOL     OW51208   6.768   3.472   5.773 -0.1756 -0.3220  0.1878
16063SOL    HW151209   6.767   3.377   5.771 -1.7346 -0.3501  1.3653
16063SOL    HW251210   6.738   3.495   5.861  1.5446  1.2429  0.4004
16064SOL     OW51211   5.695   1.183   6.338  0.1030  0.2651 -0.2008
16064SOL    HW151212   5.782   1.143   6.351 -0.1279  0.3461  1.8109
16064SOL    HW251213   5.700   1.265   6.387 -1.1930  0.1317  0.1632
16065SOL     OW51214   1.615   2.689   6.207 -0.1374 -0.2117 -0.0097
16065SOL    HW151215   1.674   2.680   6.283  0.1611  0.8830 -0.0930
16065SOL    HW251216   1.674   2.696   6.132 -0.3884  0.2488 -0.1668
16066SOL     OW51217   0.956   3.018   3.889 -1.0017 -0.0456  0.1740
16066SOL    HW151218   0.933   3.109   3.868  1.2358  0.5463  0.1292
16066SOL    HW251219   1.039   3.025   3.935 -0.3793 -2.1417 -0.5862
16067SOL     OW51220   4.547   5.729   3.210 -0.3948 -0.4651 -0.7560
16067SOL    HW151221   4.554   5.644   3.254 -1.0181 -0.1466 -0.0380
16067SOL    HW251222   4.469   5.769   3.248  0.0236  0.5272 -0.9394
16068SOL     OW51223   5.794   1.767   1.225 -0.1589  0.0246  0.4415
16068SOL    HW151224   5.834   1.853   1.232  0.5982 -0.2455 -0.5200
16068SOL    HW251225   5.857   1.707   1.266 -1.2023  0.0652  2.1605
16069SOL     OW51226   2.878   8.022   3.584  0.6082  0.4408 -0.0581
16069SOL    HW151227   2.785   8.046   3.587  0.5227  0.2025 -0.7916
16069SOL    HW251228   2.878   7.935   3.545  1.1183  0.2971  0.2676
16070SOL     OW51229   4.386   1.357   8.081  0.4041  0.2253  0.0199
16070SOL    HW151230   4.388   1.344   7.986 -0.2229 -0.0962  0.0492
16070SOL    HW251231   4.355   1.447   8.093  1.5550  0.6525 -0.0991
16071SOL     OW51232   4.141   9.098   7.498  0.2317  0.5123  0.2027
16071SOL    HW151233   4.207   9.042   7.539  2.3562  2.1914 -0.8556
16071SOL    HW251234   4.116   9.051   7.419 -0.4010 -0.4599  0.9588
16072SOL     OW51235   6.874   3.552   8.613 -0.4450 -0.2185  0.6182
16072SOL    HW151236   6.875   3.540   8.518 -0.9085  1.0105  0.4561
16072SOL    HW251237   6.857   3.464   8.647 -1.1424 -0.5175 -0.4667
16073SOL     OW51238   2.252   8.531   9.118  0.4045 -0.1646  0.3436
16073SOL    HW151239   2.290   8.473   9.052 -1.2203  0.4923 -1.2219
16073SOL    HW251240   2.167   8.492   9.138  0.3755  0.3064  1.1497
16074SOL     OW51241   6.566   3.794   0.863 -0.1325 -0.1032 -0.0050
16074SOL    HW151242   6.594   3.885   0.870 -0.4169 -0.0376  0.3115
16074SOL    HW251243   6.473   3.799   0.839  0.3143 -0.3176 -1.8871
16075SOL     OW51244   1.075   4.137   4.565  0.2490 -0.1696 -0.0704
16075SOL    HW151245   1.080   4.091   4.649 -2.7833  0.7949  0.6638
16075SOL    HW251246   1.072   4.067   4.500 -2.4686 -1.0639  0.9432
16076SOL     OW51247   7.842   5.204   3.796 -0.0908 -0.2873  0.4092
16076SOL    HW151248   7.903   5.214   3.870 -0.7130  2.1564  0.6187
16076SOL    HW251249   7.756   5.219   3.834 -0.5359 -0.3512 -0.5709
16077SOL     OW51250   8.578   5.765   3.274 -0.3098  0.0389 -1.0078
16077SOL    HW151251   8.571   5.674   3.245 -1.4039 -0.2943  0.2216
16077SOL    HW251252   8.584   5.759   3.369  0.8097  1.2088 -0.9913
16078SOL     OW51253   2.079   6.715   3.475 -0.5623 -0.0750  0.7504
16078SOL    HW151254   1.987   6.691   3.485 -0.9689  0.7198 -0.9394
16078SOL    HW251255   2.127   6.633   3.489 -1.5792 -0.6679  0.7913
16079SOL     OW51256   8.735   3.184   5.682  0.1416 -0.0290 -0.5658
16079SOL    HW151257   8.736   3.200   5.777 -0.0711  1.3405 -0.7809
16079SOL    HW251258   8.646   3.155   5.663  0.6121 -1.7886 -0.1203
16080SOL     OW51259   2.283   3.165   5.179 -0.0503 -0.0786 -0.0495
16080SOL    HW151260   2.368   3.123   5.165 -0.2898 -1.3570  2.0121
16080SOL    HW251261   2.253   3.128   5.262 -2.0855  1.2562 -0.1814
16081SOL     OW51262   5.468   1.425   5.867  0.1485  0.0966 -0.3733
16081SOL    HW151263   5.528   1.351   5.879 -1.1757 -1.0106 -0.4173
16081SOL    HW251264   5.392   1.387   5.822 -2.4508  0.5580  3.4406
16082SOL     OW51265   1.630   0.317   8.084 -0.2739  0.6329  0.3027
16082SOL    HW151266   1.602   0.249   8.146 -3.5356  1.6417  0.0258
16082SOL    HW251267   1.646   0.394   8.138  0.7323  0.4248  0.3101
16083SOL     OW51268   2.890   0.910   6.160  0.2305 -0.5315  0.3391
16083SOL    HW151269   2.921   0.820   6.160  0.1986 -0.5678 -1.4276
16083SOL    HW251270   2.923   0.947   6.078 -1.2320  0.5211  0.1899
16084SOL     OW51271   5.459   6.838   8.844 -0.4951  0.8026  0.4124
16084SOL    HW151272   5.509   6.817   8.923  1.0054  2.0653 -0.1616
16084SOL    HW251273   5.397   6.766   8.835  0.8691 -0.5541  1.4529
16085SOL     OW51274   2.883   8.821   6.403 -0.4249 -0.0411 -0.4128
16085SOL    HW151275   2.930   8.758   6.349 -0.1603  0.9401 -1.3296
16085SOL    HW251276   2.943   8.837   6.477  0.3619  0.6425 -1.1930
16086SOL     OW51277   7.406   3.161   7.498 -0.2288 -0.2492  0.2725
16086SOL    HW151278   7.367   3.233   7.448  0.4245 -1.0547 -1.4404
16086SOL    HW251279   7.500   3.174   7.489 -0.1063 -1.4167 -0.2314
16087SOL     OW51280   3.854   3.915   7.203  0.2662 -0.3024 -0.2589
16087SOL    HW151281   3.826   3.829   7.174 -0.6329  0.2689 -1.1249
16087SOL    HW251282   3.836   3.973   7.129  0.3717  0.7146  0.4853
16088SOL     OW51283   2.982   6.781   4.158  0.0859  0.3224 -0.1032
16088SOL    HW151284   3.004   6.721   4.230 -2.3282  0.7950  1.0717
16088SOL    HW251285   3.034   6.860   4.176 -0.5099  0.4453  1.1368
16089SOL     OW51286   5.804   1.057   8.995  0.5324 -0.2249 -0.1872
16089SOL    HW151287   5.741   1.125   8.975 -1.6316 -1.9046  0.7182
16089SOL    HW251288   5.803   0.999   8.918  2.4789  0.8228 -1.0268
16090SOL     OW51289   1.312   3.311   6.596 -1.1379 -0.0295 -0.0443
16090SOL    HW151290   1.403   3.315   6.566 -0.9016 -1.5721  0.4191
16090SOL    HW251291   1.291   3.400   6.623  0.1669  0.3818 -0.3902
16091SOL     OW51292   0.842   7.499   1.243  0.2129  0.1979  0.2747
16091SOL    HW151293   0.924   7.536   1.210  1.1874  0.2746  2.6943
16091SOL    HW251294   0.821   7.552   1.319 -2.2685  0.3597 -0.5037
16092SOL     OW51295   3.034   5.930   2.904 -0.2578 -0.7723 -0.4817
16092SOL    HW151296   3.011   6.000   2.844 -0.3571  0.0001  0.4520
16092SOL    HW251297   2.953   5.881   2.917 -0.0085 -1.5739 -1.7670
16093SOL     OW51298   4.647   4.686   5.527  0.1100  0.3394 -0.1479
16093SOL    HW151299   4.706   4.752   5.564 -0.9394  1.0753  0.2320
16093SOL    HW251300   4.671   4.681   5.435  1.3038  0.0551  0.1757
16094SOL     OW51301   5.066   4.721   0.330  0.3567 -0.0681  0.0841
16094SOL    HW151302   5.009   4.651   0.362  0.3093 -0.9154 -1.7896
16094SOL    HW251303   5.028   4.801   0.367 -1.0245 -0.7913  0.2777
16095SOL     OW51304   2.301   3.788   6.303 -0.3667  0.0418 -0.5354
16095SOL    HW151305   2.207   3.774   6.314 -0.2893  1.8713  3.1856
16095SOL    HW251306   2.309   3.859   6.239 -1.4809 -0.0945 -0.8258
16096SOL     OW51307   2.147   2.623   2.552  0.4163  0.2022 -0.1310
16096SOL    HW151308   2.194   2.685   2.607 -1.5871  0.5022  1.3030
16096SOL    HW251309   2.055   2.632   2.579 -0.7229  0.7090 -3.8190
16097SOL     OW51310   9.150   4.773   3.907 -0.1259 -0.0962  0.2260
16097SOL    HW151311   9.055   4.767   3.917 -0.1421  0.2698  0.2957
16097SOL    HW251312   9.177   4.684   3.884 -0.3820 -0.3868  1.0234
16098SOL     OW51313   1.794   8.483   8.190 -0.0250  0.2126 -0.2566
16098SOL    HW151314   1.860   8.431   8.144 -0.1266  0.4995 -0.7255
16098SOL    HW251315   1.827   8.573   8.187  0.1772  0.1740  0.6000
16099SOL     OW51316   1.788   0.492   6.744 -0.4882  0.4871 -0.1249
16099SOL    HW151317   1.704   0.448   6.730 -0.6421  0.3418  1.2305
16099SOL    HW251318   1.849   0.422   6.765 -0.6752  0.8786  1.7668
16100SOL     OW51319   3.811   1.368   4.102 -0.3956  0.4593  0.3573
16100SOL    HW151320   3.748   1.439   4.100 -1.0816 -0.1574 -1.2066
16100SOL    HW251321   3.862   1.379   4.021  0.5577  0.1097  0.8940
16101SOL     OW51322   0.375   1.859   4.340  0.2625  0.1115  0.4627
16101SOL    HW151323   0.465   1.885   4.357  0.4451 -0.0899 -0.1745
16101SOL    HW251324   0.322   1.915   4.397  0.7259  0.9881  0.0447
16102SOL     OW51325   0.147   1.138   4.565  0.1358  0.1699 -0.0405
16102SOL    HW151326   0.058   1.112   4.588 -0.1308  1.1503  0.0612
16102SOL    HW251327   0.193   1.141   4.649  0.5387 -1.3169 -0.1951
16103SOL     OW51328   5.345   5.756   6.470  0.4134 -1.0667  0.3728
16103SOL    HW151329   5.360   5.735   6.378  0.5493 -1.6789  0.5306
16103SOL    HW251330   5.427   5.795   6.499  1.3493 -3.3097  0.9177
16104SOL     OW51331   3.911   5.935   5.265 -0.2857  0.1693  0.3466
16104SOL    HW151332   3.884   5.844   5.254 -0.6282  0.2234  0.7459
16104SOL    HW251333   3.830   5.985   5.258 -0.3881  0.2851  2.0653
16105SOL     OW51334   9.433   5.475   1.227  0.0522  0.1374 -0.9665
16105SOL    HW151335   9.516   5.520   1.243  1.3636 -2.4227 -0.1695
16105SOL    HW251336   9.371   5.516   1.286  1.6614 -0.3159  1.1045
16106SOL     OW51337   3.983   8.944   3.709  0.1296  0.3078  0.1365
16106SOL    HW151338   3.978   8.922   3.802  0.7703  0.1870  0.1477
16106SOL    HW251339   3.893   8.934   3.677 -0.4651  2.1898  1.1352
16107SOL     OW51340   7.462   3.856   1.556  0.3584 -0.6792  0.2540
16107SOL    HW151341   7.551   3.890   1.567  0.6440 -1.7220  1.3087
16107SOL    HW251342   7.459   3.779   1.613 -0.5425 -1.8984 -1.4179
16108SOL     OW51343   8.783   5.180   8.349 -0.1083  0.0025  0.8810
16108SOL    HW151344   8.757   5.272   8.348  0.4839  0.2070 -1.9800
16108SOL    HW251345   8.873   5.181   8.381  0.3761  0.6146 -0.4361
16109SOL     OW51346   7.178   8.231   0.802 -0.1549  0.6589 -0.0624
16109SOL    HW151347   7.124   8.294   0.754  1.5117  2.3577  0.2451
16109SOL    HW251348   7.123   8.206   0.877 -1.7375 -0.0361 -1.4308
16110SOL     OW51349   1.153   7.213   8.784 -0.4293 -0.1113  0.4074
16110SOL    HW151350   1.107   7.139   8.745  0.2370 -0.5340  0.4365
16110SOL    HW251351   1.245   7.188   8.785 -0.1458  0.8797  0.0473
16111SOL     OW51352   5.262   1.689   0.980  0.3173 -0.0298 -0.2502
16111SOL    HW151353   5.288   1.603   1.013  0.3150  0.4211  0.9616
16111SOL    HW251354   5.343   1.740   0.980  0.5698 -0.3978 -2.1813
16112SOL     OW51355   5.527   1.471   4.357  0.2965 -0.8112 -0.0890
16112SOL    HW151356   5.437   1.492   4.332  0.4917 -0.1141 -0.2232
16112SOL    HW251357   5.576   1.552   4.339  0.5909 -0.5573  1.7399
16113SOL     OW51358   7.166   4.877   0.400  0.1676  0.4499 -0.4800
16113SOL    HW151359   7.146   4.962   0.438  0.2811  0.1208  0.3155
16113SOL    HW251360   7.176   4.895   0.306 -2.7948  0.7950 -0.7773
16114SOL     OW51361   0.951   5.219   4.244  0.5880 -0.0835 -0.3498
16114SOL    HW151362   0.950   5.141   4.300 -0.1682 -0.4135 -0.8097
16114SOL    HW251363   0.958   5.292   4.305  0.0803 -0.4549  0.1677
16115SOL     OW51364   1.796   2.737   8.668 -0.2013 -0.5274  0.1205
16115SOL    HW151365   1.842   2.673   8.722  0.2022 -0.0699  0.3241
16115SOL    HW251366   1.783   2.813   8.725  0.6698  0.1516 -0.5538
16116SOL     OW51367   6.966   1.362   3.044 -0.2821 -0.0767 -0.2188
16116SOL    HW151368   7.044   1.336   3.092 -0.2403 -1.1583 -0.8616
16116SOL    HW251369   6.895   1.311   3.083 -0.4632 -0.0023 -0.4514
16117SOL     OW51370   3.407   1.487   9.361  0.1027 -0.0766 -0.0283
16117SOL    HW151371   3.470   1.491   9.432  0.2038  1.6473 -0.1829
16117SOL    HW251372   3.357   1.407   9.377  1.6076 -0.8872  0.6900
16118SOL     OW51373   1.136   3.871   7.941  0.0274  0.4151 -0.3367
16118SOL    HW151374   1.209   3.818   7.975 -0.4120  0.3223  0.4731
16118SOL    HW251375   1.159   3.961   7.966 -0.4212  0.3173  0.4425
16119SOL     OW51376   7.376   5.659   4.166 -0.2114  0.2519 -0.3445
16119SOL    HW151377   7.402   5.567   4.173 -0.8295  0.2027  1.4503
16119SOL    HW251378   7.281   5.659   4.181 -0.3465  1.1025 -1.1254
16120SOL     OW51379   7.926   4.581   7.986  0.1960  0.5068 -0.4422
16120SOL    HW151380   7.966   4.666   7.969  0.1036  0.7552  0.5154
16120SOL    HW251381   7.967   4.551   8.067 -0.5387  0.1290 -0.2043
16121SOL     OW51382   1.371   8.779   0.175 -0.5008  0.2208  0.4720
16121SOL    HW151383   1.303   8.846   0.169  0.6922  1.5217  1.2757
16121SOL    HW251384   1.380   8.763   0.269  0.2153 -0.0542  0.3606
16122SOL     OW51385   1.936   3.760   3.162 -1.0797 -0.2840 -0.6021
16122SOL    HW151386   2.029   3.745   3.178 -0.8602 -0.1895 -1.6887
16122SOL    HW251387   1.892   3.692   3.212 -0.3639 -1.0084 -0.9393
16123SOL     OW51388   2.574   2.671   7.579  0.2746 -0.0375  0.8816
16123SOL    HW151389   2.602   2.606   7.643  0.7401 -1.7908 -1.0382
16123SOL    HW251390   2.480   2.658   7.570  0.4557 -0.8491  0.0889
16124SOL     OW51391   6.474   3.568   7.421 -0.5668 -0.4894  0.4266
16124SOL    HW151392   6.482   3.494   7.481 -0.8857 -1.3611 -0.5851
16124SOL    HW251393   6.487   3.646   7.475 -0.7943 -1.2700  1.5979
16125SOL     OW51394   0.643   6.814   7.428 -0.0030 -0.0401  0.4456
16125SOL    HW151395   0.648   6.719   7.425  1.0655 -0.0723  2.2225
16125SOL    HW251396   0.708   6.839   7.493  1.2515  2.0596 -1.5705
16126SOL     OW51397   0.099   0.034   3.160 -0.1265  0.4464  0.0989
16126SOL    HW151398   0.068   0.006   3.074  1.7458  1.2248 -0.8831
16126SOL    HW251399   0.101   0.129   3.155 -0.2878  0.5138  1.1212
16127SOL     OW51400   5.126   0.822   3.018 -0.6774 -0.3069 -0.0414
16127SOL    HW151401   5.080   0.771   3.085 -0.7426 -0.1642  0.0239
16127SOL    HW251402   5.058   0.840   2.953 -1.1888  1.5054  0.9609
16128SOL     OW51403   0.235   6.442   2.983 -0.4664  0.0348  0.2099
16128SOL    HW151404   0.216   6.477   3.070 -1.8116  1.6346 -0.7020
16128SOL    HW251405   0.152   6.407   2.952 -0.0696 -0.2366 -0.5732
16129SOL     OW51406   1.893   5.488   9.243 -0.2481 -0.3696 -0.0613
16129SOL    HW151407   1.955   5.420   9.270 -0.3624 -0.2523  0.5137
16129SOL    HW251408   1.937   5.570   9.266  0.3151 -0.2122 -1.6661
16130SOL     OW51409   4.231   1.708   1.842  0.1335 -0.2128  0.3924
16130SOL    HW151410   4.315   1.670   1.866 -0.0853 -1.2997 -0.5481
16130SOL    HW251411   4.205   1.662   1.762 -0.9780  0.6631  0.2344
16131SOL     OW51412   1.541   3.725   2.221  0.0807 -0.2036  0.3137
16131SOL    HW151413   1.562   3.643   2.176  1.7104 -1.0770  2.6248
16131SOL    HW251414   1.625   3.766   2.238 -0.6554  1.2762  0.4562
16132SOL     OW51415   4.694   2.226   1.680 -0.1376  0.5430 -0.3554
16132SOL    HW151416   4.620   2.172   1.654 -0.0227  0.7904 -1.2010
16132SOL    HW251417   4.771   2.173   1.660 -0.0473  0.7219 -0.4786
16133SOL     OW51418   1.329   7.026   5.923  0.3447  0.4657  0.1384
16133SOL    HW151419   1.303   7.043   5.832  1.1283  3.8058  0.4827
16133SOL    HW251420   1.413   6.980   5.916  0.7871  1.3988 -0.8450
16134SOL     OW51421   8.565   6.172   1.096 -0.0565  0.1507 -0.3713
16134SOL    HW151422   8.544   6.250   1.044  0.9864 -0.2972 -1.4805
16134SOL    HW251423   8.550   6.099   1.036  1.0523 -0.3821 -0.0040
16135SOL     OW51424   9.198   6.558   1.500  0.2890 -0.2386  0.0140
16135SOL    HW151425   9.217   6.648   1.477  1.0461 -0.0920  1.1250
16135SOL    HW251426   9.220   6.552   1.593 -1.1503 -1.1904  0.3049
16136SOL     OW51427   9.021   6.890   0.200 -0.0136 -0.2194 -0.3834
16136SOL    HW151428   8.949   6.920   0.257  0.4910 -0.1945  0.2439
16136SOL    HW251429   9.022   6.953   0.128 -2.7559 -2.0728 -2.1374
16137SOL     OW51430   3.373   2.688   4.250 -0.2730 -0.6259 -0.7457
16137SOL    HW151431   3.415   2.602   4.240 -0.4718 -0.6546 -1.2970
16137SOL    HW251432   3.279   2.670   4.249 -0.3137 -0.4395 -0.5025
16138SOL     OW51433   9.327   2.760   7.371  0.2693  0.1123 -0.3524
16138SOL    HW151434   9.282   2.845   7.367 -1.5229 -0.8579 -1.8951
16138SOL    HW251435   9.380   2.764   7.450 -3.2941  0.9588  2.0950
16139SOL     OW51436   5.965   3.303   8.043 -0.4525  0.2504  0.1758
16139SOL    HW151437   5.881   3.259   8.061 -0.0593 -0.5183  0.1637
16139SOL    HW251438   6.001   3.255   7.969  0.8537 -0.5994  1.3355
16140SOL     OW51439   9.009   2.546   5.045  0.4934  0.0071 -0.1307
16140SOL    HW151440   9.043   2.514   5.129 -0.8516 -1.1686 -0.0068
16140SOL    HW251441   8.994   2.639   5.059  1.8030  0.1493  0.4172
16141SOL     OW51442   3.150   5.331   3.547 -0.0570 -0.1128 -0.1672
16141SOL    HW151443   3.186   5.413   3.514 -0.2890 -0.0958 -0.3802
16141SOL    HW251444   3.133   5.348   3.640  0.7307 -0.2076 -0.0085
16142SOL     OW51445   6.073   6.798   1.134  0.2938  0.6354  0.1084
16142SOL    HW151446   6.103   6.739   1.203  0.0280  0.4229  0.0438
16142SOL    HW251447   6.059   6.882   1.178  0.6243  0.6339  0.2103
16143SOL     OW51448   2.425   3.101   5.442 -0.3601 -0.1867 -0.2564
16143SOL    HW151449   2.401   3.152   5.519  0.9272 -1.7523  1.2137
16143SOL    HW251450   2.480   3.160   5.390  0.6355  0.1406  1.1439
16144SOL     OW51451   0.409   8.578   1.765 -0.3626  0.1426  0.1200
16144SOL    HW151452   0.323   8.537   1.764 -0.0595 -0.4791 -0.4563
16144SOL    HW251453   0.394   8.663   1.808 -1.6640  0.9258 -1.7914
16145SOL     OW51454   1.717   9.187   0.259  0.5164  0.1090 -0.2216
16145SOL    HW151455   1.738   9.098   0.229 -2.0465 -0.5689 -0.1012
16145SOL    HW251456   1.626   9.200   0.233  0.4213  2.1714  1.0688
16146SOL     OW51457   9.024   3.131   5.811  0.4536  0.0864  0.4171
16146SOL    HW151458   8.956   3.120   5.877  0.7677 -1.1068  0.5510
16146SOL    HW251459   9.015   3.055   5.754  0.5380  0.8317 -0.6026
16147SOL     OW51460   9.054   0.425   8.717  0.1167 -0.1751  0.9003
16147SOL    HW151461   8.961   0.445   8.722  0.1939  1.1762 -2.0518
16147SOL    HW251462   9.098   0.511   8.725  0.9806 -0.5111 -0.0692
16148SOL     OW51463   8.537   5.618   1.932 -0.5099  0.5428 -0.5811
16148SOL    HW151464   8.609   5.601   1.871 -2.2031 -1.2515 -2.1107
16148SOL    HW251465   8.548   5.553   2.001 -1.4407 -0.6051 -1.5093
16149SOL     OW51466   3.946   3.545   5.796  0.0724  0.3031  0.2906
16149SOL    HW151467   3.948   3.497   5.713  1.2335  0.4909  0.2079
16149SOL    HW251468   3.921   3.634   5.771 -0.2940  0.1881  0.2366
16150SOL     OW51469   5.575   0.581   2.245  0.0035 -0.4529 -0.2952
16150SOL    HW151470   5.520   0.647   2.204 -0.4954 -1.2767 -0.9652
16150SOL    HW251471   5.540   0.571   2.333  0.1248  0.2259 -0.1708
16151SOL     OW51472   9.242   8.446   8.528 -0.3047  0.6556  0.0091
16151SOL    HW151473   9.331   8.457   8.494 -0.3934 -4.5851 -2.5749
16151SOL    HW251474   9.253   8.394   8.608 -1.0171 -0.8381 -0.8328
16152SOL     OW51475   5.399   4.603   4.871 -0.0750 -0.0167 -0.0723
16152SOL    HW151476   5.360   4.651   4.944 -0.2824 -0.1560 -0.0930
16152SOL    HW251477   5.331   4.599   4.804  0.0961  0.0631 -0.2545
16153SOL     OW51478   8.324   3.227   6.177  0.1152  0.2254  0.2003
16153SOL    HW151479   8.309   3.212   6.271  0.2128  0.2403  0.2179
16153SOL    HW251480   8.401   3.283   6.174  1.0593 -1.0398  0.0637
16154SOL     OW51481   2.943   8.456   5.877  0.3136 -0.4702  0.0392
16154SOL    HW151482   2.876   8.477   5.812  0.0174  1.6074  0.9551
16154SOL    HW251483   2.895   8.425   5.953  0.4518 -0.1388  0.2666
16155SOL     OW51484   1.466   0.260   0.190  0.0227 -0.4122  0.0217
16155SOL    HW151485   1.405   0.200   0.233  1.2152 -0.9056  1.0862
16155SOL    HW251486   1.413   0.333   0.162 -1.6132 -2.3066 -1.9736
16156SOL     OW51487   4.168   6.860   1.188 -0.3498 -0.3577 -0.1310
16156SOL    HW151488   4.207   6.941   1.155 -0.7713  0.1669  0.6114
16156SOL    HW251489   4.138   6.883   1.276  0.9146 -1.7579  0.6938
16157SOL     OW51490   5.666   7.652   7.832  0.2050  0.9245  0.2834
16157SOL    HW151491   5.631   7.609   7.753 -0.7776 -0.4731  1.4466
16157SOL    HW251492   5.654   7.746   7.815 -0.7495  0.6092 -0.9016
16158SOL     OW51493   8.707   0.302   7.353 -0.3240  0.1378 -0.3523
16158SOL    HW151494   8.763   0.331   7.426  1.5996 -0.9693 -1.3281
16158SOL    HW251495   8.677   0.215   7.380 -1.3164  0.5953  0.0244
16159SOL     OW51496   5.010   1.152   5.979 -0.6510 -0.1962  0.8512
16159SOL    HW151497   4.917   1.166   5.960 -0.6168  0.1620  0.9297
16159SOL    HW251498   5.026   1.060   5.960 -0.5512  0.2009 -1.1751
16160SOL     OW51499   2.449   6.421   8.060  0.0794  0.0718 -0.2043
16160SOL    HW151500   2.495   6.343   8.029  0.0473  0.6807 -1.8333
16160SOL    HW251501   2.377   6.387   8.114  0.0269 -1.0233 -0.9436
16161SOL     OW51502   8.430   6.887   6.263  0.1892  0.5983  0.1166
16161SOL    HW151503   8.420   6.899   6.169 -1.3335  2.1210  0.4557
16161SOL    HW251504   8.404   6.796   6.279  0.9374  0.1876 -0.9831
16162SOL     OW51505   5.925   6.434   9.383  0.4739  0.3132 -0.5116
16162SOL    HW151506   5.840   6.473   9.404  0.2219 -0.4564 -0.0843
16162SOL    HW251507   5.968   6.498   9.327 -0.1887  0.9297 -0.3181
16163SOL     OW51508   2.252   5.983   7.431 -0.7208  0.0930 -0.6068
16163SOL    HW151509   2.244   5.985   7.527 -0.3633 -0.6316 -0.5553
16163SOL    HW251510   2.264   6.075   7.406 -0.4136  0.2480  0.0847
16164SOL     OW51511   4.634   2.830   2.710 -0.3674  0.0919  0.1219
16164SOL    HW151512   4.698   2.833   2.638  0.4172  1.2101  0.8523
16164SOL    HW251513   4.633   2.920   2.744 -2.1668  0.0279  0.2586
16165SOL     OW51514   6.641   9.019   3.523  0.0958 -0.2309  0.4746
16165SOL    HW151515   6.578   9.032   3.593  1.8747  0.6968  1.9406
16165SOL    HW251516   6.673   8.930   3.535 -0.9058 -0.7081 -0.2787
16166SOL     OW51517   8.086   8.000   0.742  0.1987 -0.3205 -0.0996
16166SOL    HW151518   8.048   8.041   0.820 -2.4364 -0.5930 -1.2085
16166SOL    HW251519   8.137   8.069   0.701 -1.5803  0.9634 -0.1991
16167SOL     OW51520   4.993   4.356   3.487  0.2148 -0.4856 -0.7632
16167SOL    HW151521   5.010   4.348   3.393  1.8187  2.2127 -0.7558
16167SOL    HW251522   4.995   4.450   3.504 -0.4508 -0.9107  1.9248
16168SOL     OW51523   4.275   1.603   5.659  0.1241  0.1627 -0.6748
16168SOL    HW151524   4.192   1.587   5.705  0.3283  0.9790 -0.0099
16168SOL    HW251525   4.252   1.596   5.566 -0.4940 -0.5371 -0.4754
16169SOL     OW51526   6.621   9.247   2.093  0.6319  0.1531  0.1325
16169SOL    HW151527   6.638   9.340   2.107  0.6689  0.6656 -2.9433
16169SOL    HW251528   6.526   9.239   2.101  0.5773  0.5549 -0.0761
16170SOL     OW51529   2.976   6.698   7.822  0.1766 -0.1953  0.9851
16170SOL    HW151530   2.976   6.743   7.907 -0.3109  0.8219  0.4559
16170SOL    HW251531   2.889   6.658   7.816  0.4800 -0.9045  1.2945
16171SOL     OW51532   2.964   2.344   2.335  0.2116 -0.8423 -0.5548
16171SOL    HW151533   2.966   2.425   2.386  0.6090 -0.9994 -0.3239
16171SOL    HW251534   2.924   2.280   2.393 -2.1118 -0.2856 -1.4936
16172SOL     OW51535   7.314   5.233   2.877  0.2110  0.6237  0.2107
16172SOL    HW151536   7.402   5.259   2.905  1.0381  0.2705 -1.9047
16172SOL    HW251537   7.325   5.144   2.844 -1.0653  0.3711  0.4434
16173SOL     OW51538   4.601   0.620   9.424  0.1302 -0.4432  0.1095
16173SOL    HW151539   4.563   0.700   9.460 -0.2313 -1.3028  1.7075
16173SOL    HW251540   4.692   0.622   9.453 -0.0363 -0.8992  0.6810
16174SOL     OW51541   7.315   2.349   7.917 -0.4940  0.0160 -0.2414
16174SOL    HW151542   7.403   2.387   7.919 -0.1852 -0.6937 -0.2915
16174SOL    HW251543   7.257   2.422   7.938  0.2059  0.2159  1.0564
16175SOL     OW51544   4.328   4.047   2.220 -0.6189  0.0981 -0.0629
16175SOL    HW151545   4.397   4.099   2.262  0.6154 -0.7439 -1.0451
16175SOL    HW251546   4.256   4.109   2.209  0.8331  1.6393 -1.2356
16176SOL     OW51547   5.256   6.779   5.868 -0.5430 -0.2164  0.0110
16176SOL    HW151548   5.337   6.829   5.873 -0.4272 -0.4721  0.6224
16176SOL    HW251549   5.211   6.797   5.950 -0.9779 -0.2944 -0.2088
16177SOL     OW51550   1.632   3.208   8.880 -0.3415 -0.4848  0.1611
16177SOL    HW151551   1.590   3.266   8.944 -0.0146  0.5147 -0.5195
16177SOL    HW251552   1.691   3.265   8.831 -1.2637 -1.0561 -1.6413
16178SOL     OW51553   7.207   6.821   7.053  0.0834  0.2070  0.5918
16178SOL    HW151554   7.230   6.912   7.075  1.5376  0.1056 -0.4452
16178SOL    HW251555   7.177   6.826   6.962 -0.5019 -0.2533  0.7567
16179SOL     OW51556   9.283   4.022   6.900  0.0053  0.4774 -0.2530
16179SOL    HW151557   9.356   4.046   6.843  1.1730 -0.1601  0.9567
16179SOL    HW251558   9.323   4.002   6.985 -1.4390 -1.1369  0.0848
16180SOL     OW51559   4.627   4.781   0.604  0.0503  0.2847  0.3349
16180SOL    HW151560   4.591   4.859   0.647  1.0553  0.6684  0.5109
16180SOL    HW251561   4.612   4.796   0.511 -2.3621 -0.6634  0.5265
16181SOL     OW51562   4.333   7.657   1.006 -0.2248  0.4025 -0.0432
16181SOL    HW151563   4.333   7.709   0.926 -0.3396 -1.4899 -1.3270
16181SOL    HW251564   4.290   7.575   0.980  0.5303 -0.5706  1.7294
16182SOL     OW51565   0.690   3.251   3.748 -0.2540 -0.4943  0.0134
16182SOL    HW151566   0.693   3.336   3.791  1.6727 -0.9584  0.8250
16182SOL    HW251567   0.680   3.271   3.655  0.9714  0.6366  0.1148
16183SOL     OW51568   8.489   3.402   4.848  0.6060 -0.6852  0.0587
16183SOL    HW151569   8.510   3.422   4.757  0.7677  1.0476  0.4534
16183SOL    HW251570   8.426   3.470   4.874 -0.2707 -1.7974  0.9221
16184SOL     OW51571   4.120   1.392   2.776  0.3538 -0.8929 -0.6351
16184SOL    HW151572   4.078   1.468   2.737  0.5591 -0.4042  0.0812
16184SOL    HW251573   4.168   1.427   2.852 -0.2787 -1.8615  0.2214
16185SOL     OW51574   0.155   7.796   1.991  0.2321  0.2774 -0.2430
16185SOL    HW151575   0.134   7.869   2.050 -1.0751 -1.1336  1.1069
16185SOL    HW251576   0.194   7.730   2.048  0.0111 -0.6680 -1.1691
16186SOL     OW51577   3.726   8.634   0.227  0.6577  0.6850  0.1392
16186SOL    HW151578   3.662   8.638   0.297  1.5057 -1.9518  1.1358
16186SOL    HW251579   3.783   8.710   0.240 -0.0850  1.0202  1.4114
16187SOL     OW51580   1.553   6.378   4.824 -0.0439 -0.0795 -0.3332
16187SOL    HW151581   1.471   6.329   4.820  1.0876 -1.9372 -3.0538
16187SOL    HW251582   1.605   6.331   4.890 -1.0910  1.0140  1.2870
16188SOL     OW51583   0.721   6.459   6.955 -0.3809  0.3252  0.1672
16188SOL    HW151584   0.743   6.552   6.947 -0.6430  0.3301 -0.5149
16188SOL    HW251585   0.642   6.448   6.902 -1.2765  0.0319  1.5338
16189SOL     OW51586   7.501   3.732   1.102  0.1843  0.4761  0.0749
16189SOL    HW151587   7.543   3.817   1.119 -1.4692  1.4614 -0.6261
16189SOL    HW251588   7.525   3.678   1.177 -0.0193  2.0538  1.3071
16190SOL     OW51589   4.729   8.494   1.981  0.0215 -0.5384  0.1108
16190SOL    HW151590   4.738   8.566   2.044 -0.4867  0.8296 -1.3426
16190SOL    HW251591   4.664   8.436   2.020 -1.8444  1.3669 -0.1186
16191SOL     OW51592   7.363   8.080   8.153  0.0961 -0.5135  0.1313
16191SOL    HW151593   7.278   8.114   8.179  0.2020  1.2707 -1.7544
16191SOL    HW251594   7.343   7.999   8.105 -0.6206  0.4053 -1.1483
16192SOL     OW51595   6.461   2.115   2.918 -0.0565  0.0206  0.5511
16192SOL    HW151596   6.423   2.122   2.831 -0.5519  1.9574  0.8925
16192SOL    HW251597   6.393   2.075   2.972 -0.4122  0.4478  0.4253
16193SOL     OW51598   1.039   0.080   7.781 -0.0799  0.0321 -0.1646
16193SOL    HW151599   0.982   0.005   7.766 -0.3641  0.4578 -1.2375
16193SOL    HW251600   1.057   0.078   7.875 -3.2566  0.8735  0.5263
16194SOL     OW51601   3.024   3.875   5.640 -0.5182  0.0715  0.1892
16194SOL    HW151602   3.085   3.865   5.567  1.3435 -1.0389  1.8590
16194SOL    HW251603   2.971   3.951   5.617  0.6762  0.2980 -1.8719
16195SOL     OW51604   2.428   8.890   5.044 -0.0978  0.3986  0.0279
16195SOL    HW151605   2.428   8.888   5.139  1.5375 -3.2632  0.0705
16195SOL    HW251606   2.517   8.918   5.021 -0.4331  1.1020 -0.4075
16196SOL     OW51607   0.712   3.841   2.489  0.0581  0.4031  0.2503
16196SOL    HW151608   0.654   3.779   2.533 -2.3336  1.6523 -1.0737
16196SOL    HW251609   0.745   3.897   2.560 -1.4162  0.5411  0.8434
16197SOL     OW51610   3.898   2.625   7.754 -0.2731 -0.1261  0.1763
16197SOL    HW151611   3.982   2.657   7.786  1.5084 -2.2127 -2.2047
16197SOL    HW251612   3.894   2.656   7.663 -1.2779 -1.4923 -0.2633
16198SOL     OW51613   3.145   0.849   2.181 -0.2589  0.0663 -0.1002
16198SOL    HW151614   3.065   0.872   2.134 -0.5092  0.9942  0.7594
16198SOL    HW251615   3.127   0.763   2.219 -0.3966 -0.2686 -0.9162
16199SOL     OW51616   3.774   0.725   4.170 -0.2913  0.0768  0.5384
16199SOL    HW151617   3.780   0.817   4.196 -0.3692  0.7382 -1.6709
16199SOL    HW251618   3.831   0.679   4.232  0.4842  1.7293  1.0985
16200SOL     OW51619   7.082   1.659   0.905  0.4124  0.4665  0.7384
16200SOL    HW151620   7.131   1.586   0.944 -1.5331 -0.9974  0.5396
16200SOL    HW251621   7.037   1.700   0.980 -0.8709 -0.4266  0.4760
16201SOL     OW51622   8.599   7.798   7.734 -0.0573  0.2991  0.3416
16201SOL    HW151623   8.506   7.810   7.720 -0.3955  0.2142  2.3281
16201SOL    HW251624   8.627   7.878   7.778  0.9242  0.5449 -0.6990
16202SOL     OW51625   5.164   3.648   2.392 -0.2115 -0.2476  0.8313
16202SOL    HW151626   5.123   3.699   2.321 -0.7750 -0.4234  1.0280
16202SOL    HW251627   5.214   3.713   2.442  0.4240 -0.1684  0.1048
16203SOL     OW51628   4.666   3.711   7.153  0.4595  0.2331 -0.1368
16203SOL    HW151629   4.605   3.669   7.214 -0.3980  0.7062 -0.6633
16203SOL    HW251630   4.651   3.667   7.070 -0.2576  1.3713 -0.6283
16204SOL     OW51631   5.214   1.532   9.051 -0.3447 -0.5489  0.1990
16204SOL    HW151632   5.155   1.498   8.984  0.5917  0.1734 -1.0018
16204SOL    HW251633   5.241   1.618   9.019 -1.2249  0.5583  2.3193
16205SOL     OW51634   7.486   4.643   4.804  0.5391 -0.4995  0.1577
16205SOL    HW151635   7.404   4.693   4.804 -0.8819 -2.7457 -1.1551
16205SOL    HW251636   7.458   4.552   4.800  3.1370 -1.2561 -1.6435
16206SOL     OW51637   3.424   2.176   7.656 -0.1131  0.0641 -0.9373
16206SOL    HW151638   3.386   2.263   7.651 -0.3022 -0.0072 -0.7764
16206SOL    HW251639   3.348   2.117   7.662  0.0303 -0.0428 -0.1065
16207SOL     OW51640   9.028   5.522   0.047  0.1260  0.0129  0.1352
16207SOL    HW151641   8.944   5.510   0.001  0.2068  1.4675 -0.4174
16207SOL    HW251642   9.026   5.458   0.118 -0.8848 -0.8802 -0.6840
16208SOL     OW51643   0.282   2.617   3.605  0.1794  0.7557  0.1751
16208SOL    HW151644   0.296   2.653   3.693 -0.2985 -1.3573  1.1580
16208SOL    HW251645   0.337   2.539   3.602 -0.6163  0.2217 -1.0191
16209SOL     OW51646   3.367   2.075   3.322  0.4285  0.3594  0.5365
16209SOL    HW151647   3.429   2.003   3.311 -1.1954 -0.9255 -0.2629
16209SOL    HW251648   3.364   2.089   3.417  2.9821  1.3861  0.5139
16210SOL     OW51649   2.332   7.014   0.764 -0.2619 -0.1980 -0.1383
16210SOL    HW151650   2.390   7.041   0.693  2.1464 -0.0832  1.7548
16210SOL    HW251651   2.379   7.041   0.844 -1.9718 -1.9734  1.5333
16211SOL     OW51652   6.052   9.426   5.462 -0.6857 -0.0668 -0.0593
16211SOL    HW151653   6.075   9.454   5.551 -3.8617 -2.7925  1.7270
16211SOL    HW251654   5.971   9.474   5.442 -0.2029  0.2324 -1.3611
16212SOL     OW51655   3.278   4.961   7.137 -0.0945 -0.8472  0.0266
16212SOL    HW151656   3.193   5.001   7.124  0.1077 -0.1602  0.8509
16212SOL    HW251657   3.340   5.021   7.094 -0.0970 -1.7405 -1.2709
16213SOL     OW51658   1.629   6.142   5.959 -0.2714 -0.5058  0.2108
16213SOL    HW151659   1.676   6.062   5.980 -0.1812 -0.8457 -1.1950
16213SOL    HW251660   1.559   6.148   6.024 -0.0496 -1.5197  0.5457
16214SOL     OW51661   6.981   8.850   0.640 -0.4540 -0.3254 -0.7854
16214SOL    HW151662   7.028   8.925   0.602  1.5628 -0.7677  0.7601
16214SOL    HW251663   7.008   8.775   0.586  0.8308 -0.6200  0.2491
16215SOL     OW51664   6.888   3.060   8.971 -0.0421  0.1136  0.1717
16215SOL    HW151665   6.898   3.021   8.884  1.2570 -1.2862  0.9190
16215SOL    HW251666   6.873   3.153   8.955 -2.0711 -0.5064 -1.6201
16216SOL     OW51667   9.428   8.785   3.708  0.0446  0.2585 -0.3020
16216SOL    HW151668   9.387   8.867   3.735 -0.3689  0.1124 -0.4801
16216SOL    HW251669   9.519   8.809   3.691  0.1676  0.4729  0.6117
16217SOL     OW51670   2.720   5.264   4.187 -0.6516  0.4178  0.1474
16217SOL    HW151671   2.641   5.211   4.177  0.0453 -0.7111  0.5070
16217SOL    HW251672   2.711   5.304   4.274 -1.5608  1.5714 -0.4516
16218SOL     OW51673   7.317   1.191   3.119  0.3241 -0.7839  0.6433
16218SOL    HW151674   7.271   1.217   3.040  0.4698 -0.3850  0.6827
16218SOL    HW251675   7.408   1.178   3.091  0.4223 -0.4209  0.7822
16219SOL     OW51676   0.532   0.819   5.877 -0.1584  0.6991 -0.2100
16219SOL    HW151677   0.488   0.737   5.858 -0.7335  0.8112  0.6040
16219SOL    HW251678   0.622   0.795   5.898 -0.4458  0.2282  0.4890
16220SOL     OW51679   7.126   9.397   7.898 -0.1590 -0.6218  0.2982
16220SOL    HW151680   7.183   9.411   7.974  1.0261 -0.6314 -0.5786
16220SOL    HW251681   7.042   9.435   7.924  0.6685  0.7154  1.0513
16221SOL     OW51682   4.812   8.780   1.035 -0.0827  0.6446  1.0999
16221SOL    HW151683   4.790   8.864   1.075 -0.2384 -0.0115  2.4373
16221SOL    HW251684   4.843   8.726   1.108  0.5167 -0.2887  0.1730
16222SOL     OW51685   5.519   2.260   6.088 -0.0954  0.2446  0.3432
16222SOL    HW151686   5.577   2.199   6.042  1.1661  0.4738  1.5799
16222SOL    HW251687   5.462   2.296   6.020  1.7872  0.6465 -1.0738
16223SOL     OW51688   3.297   5.969   4.480  0.0795 -0.1216  0.5767
16223SOL    HW151689   3.237   5.975   4.554 -0.1744 -0.0945  0.3714
16223SOL    HW251690   3.336   6.056   4.473 -0.6471  0.1752  0.0590
16224SOL     OW51691   4.328   0.425   6.874  0.3936  0.2634 -0.0501
16224SOL    HW151692   4.257   0.475   6.915  0.9162 -0.4102  1.7077
16224SOL    HW251693   4.286   0.347   6.840  0.0238  0.6399 -0.4702
16225SOL     OW51694   4.393   1.232   6.481  0.0154  0.1560 -0.2527
16225SOL    HW151695   4.461   1.244   6.414 -0.6508 -0.8982 -1.1147
16225SOL    HW251696   4.414   1.148   6.521 -0.6892 -0.0809 -0.3936
16226SOL     OW51697   3.813   0.473   7.820 -0.3590  0.1341 -0.1832
16226SOL    HW151698   3.784   0.559   7.851 -0.0504  0.6447 -1.3043
16226SOL    HW251699   3.752   0.411   7.861  0.1649  0.7631  1.6250
16227SOL     OW51700   1.742   4.957   6.689  0.0297 -0.0584 -0.2268
16227SOL    HW151701   1.718   4.926   6.602 -2.6007  0.0515  0.4334
16227SOL    HW251702   1.767   4.878   6.737  0.3214 -0.2629 -0.7104
16228SOL     OW51703   4.768   4.672   5.304  0.4412  0.0650  0.0044
16228SOL    HW151704   4.737   4.587   5.272 -0.7421 -0.7685  3.1755
16228SOL    HW251705   4.863   4.665   5.302  0.3562 -1.3356  0.1677
16229SOL     OW51706   5.347   4.222   2.211  0.2746 -0.2350 -0.3115
16229SOL    HW151707   5.336   4.269   2.128  0.2079 -0.1731 -0.2683
16229SOL    HW251708   5.402   4.147   2.189 -1.3815 -1.3341 -0.8329
16230SOL     OW51709   4.693   3.087   5.403 -0.4732 -0.0556  0.1971
16230SOL    HW151710   4.735   3.019   5.351 -0.4252 -1.1999  1.6914
16230SOL    HW251711   4.761   3.115   5.465 -0.6272  1.0542 -0.1205
16231SOL     OW51712   2.092   5.008   3.076 -0.3948  0.1587 -0.1543
16231SOL    HW151713   2.072   4.979   2.987  0.2529 -0.0979 -0.2160
16231SOL    HW251714   2.046   5.092   3.084  1.2596  1.2328 -1.4664
16232SOL     OW51715   3.500   0.273   6.962  0.5411  0.3281  0.2479
16232SOL    HW151716   3.558   0.202   6.988  0.0718 -0.7824 -1.5847
16232SOL    HW251717   3.424   0.229   6.924 -0.7259  1.7811  1.0535
16233SOL     OW51718   8.998   0.078   2.511  0.0853 -0.2800  0.2264
16233SOL    HW151719   8.985   0.034   2.426  3.1805  0.0920 -0.5001
16233SOL    HW251720   8.960   0.018   2.575 -1.0559 -1.2251 -1.2938
16234SOL     OW51721   0.050   8.797   7.559  0.1900  0.3600  0.2862
16234SOL    HW151722   0.073   8.758   7.642 -0.3285  0.8998  0.6930
16234SOL    HW251723   0.092   8.883   7.560  0.0899  0.4137  0.0409
16235SOL     OW51724   6.131   5.933   6.165 -0.4208  0.3035  0.3563
16235SOL    HW151725   6.164   5.991   6.097  1.2893  0.6175  1.4207
16235SOL    HW251726   6.102   5.855   6.118 -1.2266  1.3597 -0.9207
16236SOL     OW51727   2.810   5.950   5.541  0.4079  0.2028  0.5824
16236SOL    HW151728   2.896   5.926   5.507  0.9841  1.2320  1.2661
16236SOL    HW251729   2.820   5.944   5.636  0.3161  2.2258  0.7309
16237SOL     OW51730   8.006   7.319   8.929 -0.4127 -0.3626  0.1704
16237SOL    HW151731   7.943   7.256   8.895  0.1896 -0.4669 -0.7650
16237SOL    HW251732   8.060   7.269   8.990 -0.5814 -0.5153  0.1918
16238SOL     OW51733   7.815   0.920   2.348  0.1575  0.2553 -0.4139
16238SOL    HW151734   7.783   0.829   2.341  0.6731  0.1930 -2.2554
16238SOL    HW251735   7.745   0.972   2.308  0.0457  0.6264  0.2745
16239SOL     OW51736   9.218   1.506   8.019 -0.3950  0.1100  0.2554
16239SOL    HW151737   9.124   1.490   8.027 -0.2545 -0.2933  1.1852
16239SOL    HW251738   9.225   1.601   8.004 -1.0808 -0.2564 -2.6901
16240SOL     OW51739   5.727   2.025   6.021  0.5228  0.1999 -0.0187
16240SOL    HW151740   5.724   1.997   5.930  2.3731 -1.2247  0.3340
16240SOL    HW251741   5.666   1.968   6.067 -0.8995  1.3492 -0.4630
16241SOL     OW51742   2.233   2.615   0.207  0.0650 -0.4068  0.5901
16241SOL    HW151743   2.162   2.594   0.146 -0.3730 -1.6642  1.5087
16241SOL    HW251744   2.188   2.640   0.288  0.6715 -0.4761  0.9511
16242SOL     OW51745   2.778   5.586   4.500  0.5674  0.4277 -0.2715
16242SOL    HW151746   2.825   5.518   4.452  1.6650  0.8323  0.2166
16242SOL    HW251747   2.819   5.668   4.473  1.9719  0.5805  2.1615
16243SOL     OW51748   3.360   4.867   5.791 -0.3418 -0.3323 -0.1534
16243SOL    HW151749   3.324   4.944   5.747  1.1677  0.6614  0.3011
16243SOL    HW251750   3.357   4.889   5.884  0.1986 -0.7665 -0.0292
16244SOL     OW51751   1.274   1.241   7.991 -0.0850 -0.0398 -0.0283
16244SOL    HW151752   1.269   1.316   7.932  0.8809  1.9672  2.3650
16244SOL    HW251753   1.364   1.209   7.982  0.6502  1.4621  1.7307
16245SOL     OW51754   3.936   0.506   4.755 -0.2399  0.4603  0.5549
16245SOL    HW151755   3.852   0.461   4.742  0.0380  0.0746  0.0691
16245SOL    HW251756   3.914   0.599   4.757 -0.5338  0.4197 -0.7267
16246SOL     OW51757   5.295   6.119   1.667 -0.0224 -0.6848  0.2428
16246SOL    HW151758   5.225   6.184   1.664  1.5318  1.0860  1.1371
16246SOL    HW251759   5.342   6.130   1.584  0.5237 -0.3356  0.5953
16247SOL     OW51760   1.657   0.527   1.045 -0.0159 -0.6548 -0.2909
16247SOL    HW151761   1.607   0.456   1.006 -1.3827 -0.9111  1.8145
16247SOL    HW251762   1.709   0.485   1.113  0.8172  0.0383 -0.4960
16248SOL     OW51763   4.247   8.949   5.827 -0.7646  0.3485 -0.0448
16248SOL    HW151764   4.200   8.873   5.863  0.3893 -1.7265 -2.7379
16248SOL    HW251765   4.190   8.981   5.757 -1.1797  1.9389  0.9900
16249SOL     OW51766   9.389   9.433   7.515  0.1952 -1.0850 -0.2708
16249SOL    HW151767   9.427   9.492   7.580  0.8558 -3.0440  1.1694
16249SOL    HW251768   9.418   9.468   7.431  1.2602  0.1554  0.5904
16250SOL     OW51769   1.020   8.799   1.408  0.1829  0.5287  0.3294
16250SOL    HW151770   0.943   8.785   1.353  0.7150 -0.8380 -0.1002
16250SOL    HW251771   1.086   8.740   1.371  1.5994  2.0650  0.3676
16251SOL     OW51772   7.702   7.344   2.220  0.1016  0.1184  0.4724
16251SOL    HW151773   7.618   7.326   2.178  1.4809 -1.2341 -1.8257
16251SOL    HW251774   7.726   7.431   2.189  0.8833 -0.6755 -1.2117
16252SOL     OW51775   6.536   0.806   2.393 -0.0463 -0.2979 -0.0980
16252SOL    HW151776   6.469   0.830   2.457  0.4298  0.9074 -0.0227
16252SOL    HW251777   6.617   0.842   2.429  0.3201 -0.0919 -1.1036
16253SOL     OW51778   3.104   1.698   5.771  0.1983  0.0453 -0.0287
16253SOL    HW151779   3.094   1.616   5.818 -1.0313  0.7218  0.9174
16253SOL    HW251780   3.045   1.690   5.696 -1.4692  0.8529  1.1725
16254SOL     OW51781   2.025   4.169   2.215 -0.1660  0.4036 -0.8833
16254SOL    HW151782   2.015   4.260   2.245 -1.1463  0.5894 -1.7433
16254SOL    HW251783   1.936   4.141   2.195  0.0678 -0.9379 -0.1225
16255SOL     OW51784   8.807   1.444   9.270  0.1956 -0.2207  0.1959
16255SOL    HW151785   8.775   1.529   9.298  0.1415 -0.7133  1.6817
16255SOL    HW251786   8.894   1.436   9.310 -0.4742 -1.5414  1.4105
16256SOL     OW51787   2.426   1.839   4.107  0.0604  0.1908 -0.3818
16256SOL    HW151788   2.427   1.776   4.035 -1.5712  0.4485 -0.6497
16256SOL    HW251789   2.405   1.787   4.184 -1.0168  0.3348 -0.5610
16257SOL     OW51790   3.495   3.964   2.630 -0.0188  0.4866  0.1604
16257SOL    HW151791   3.549   3.920   2.564 -0.6746 -0.6741  0.3874
16257SOL    HW251792   3.426   4.008   2.580 -1.1031 -1.2301  0.1401
16258SOL     OW51793   9.309   0.108   6.809 -0.5541 -0.5245 -0.3720
16258SOL    HW151794   9.273   0.069   6.889 -1.2571 -0.7631 -0.7998
16258SOL    HW251795   9.396   0.068   6.801 -0.4944 -0.5283  0.2509
16259SOL     OW51796   4.146   6.254   2.245  0.5315  0.0928 -0.3429
16259SOL    HW151797   4.185   6.171   2.270  1.1357  0.0088 -1.5345
16259SOL    HW251798   4.211   6.296   2.189 -0.2247  0.8798 -0.6539
16260SOL     OW51799   0.780   7.946   7.080  0.1167  0.5640 -0.0736
16260SOL    HW151800   0.815   7.866   7.119 -0.6651  0.3664  0.2423
16260SOL    HW251801   0.738   7.917   6.999 -3.0347  0.1224  1.6389
16261SOL     OW51802   4.018   4.633   5.234  0.1641 -0.1256  0.4226
16261SOL    HW151803   4.082   4.699   5.204 -1.7944  1.8151  0.3497
16261SOL    HW251804   3.997   4.583   5.155 -2.5125  2.8547 -0.8727
16262SOL     OW51805   1.179   7.127   7.272 -0.5268  0.6557  0.1963
16262SOL    HW151806   1.154   7.193   7.337  0.8585  1.8893 -0.5088
16262SOL    HW251807   1.109   7.131   7.206 -0.5070  1.3497  0.2133
16263SOL     OW51808   7.865   7.176   1.254 -0.3012  0.6861  0.3197
16263SOL    HW151809   7.943   7.195   1.306 -0.5120  1.1464  0.4731
16263SOL    HW251810   7.866   7.242   1.185 -0.2259  0.3087 -0.0454
16264SOL     OW51811   8.449   3.994   2.209  0.4723 -0.1746 -0.1874
16264SOL    HW151812   8.493   4.010   2.293  0.3809 -0.7287 -0.0324
16264SOL    HW251813   8.400   4.074   2.193  0.7830  0.0799  0.1063
16265SOL     OW51814   2.976   1.336   3.302 -0.3896 -0.0506 -0.6310
16265SOL    HW151815   3.030   1.408   3.268 -0.6243  0.5194  0.1869
16265SOL    HW251816   2.888   1.372   3.306 -0.4018 -0.1617  0.3876
16266SOL     OW51817   8.907   2.902   0.018  0.0247  0.2718  0.0976
16266SOL    HW151818   8.882   2.854  -0.061  0.8251  1.9198 -1.2004
16266SOL    HW251819   8.826   2.910   0.069 -0.3886 -1.2383 -0.3118
16267SOL     OW51820   3.792   3.883   2.963 -0.2305  0.4535 -0.4614
16267SOL    HW151821   3.858   3.951   2.978  1.9377 -1.8706  0.8979
16267SOL    HW251822   3.753   3.869   3.049  0.2587 -0.9202 -0.4560
16268SOL     OW51823   4.019   7.421   3.567 -0.5589  0.2013  0.2306
16268SOL    HW151824   3.978   7.352   3.618 -0.9882 -0.1553 -0.5931
16268SOL    HW251825   4.113   7.409   3.580 -0.6295 -0.6169 -0.0184
16269SOL     OW51826   1.836   7.890   7.131 -0.3032  0.0518 -0.0998
16269SOL    HW151827   1.753   7.857   7.095  0.7677 -2.1537 -0.5814
16269SOL    HW251828   1.831   7.870   7.224 -0.3475  0.0025 -0.1124
16270SOL     OW51829   9.010   7.194   6.569  0.3431  0.2742 -0.1413
16270SOL    HW151830   8.930   7.157   6.608  0.1385 -0.6291 -1.3755
16270SOL    HW251831   8.980   7.269   6.518  0.2896 -0.0362 -0.5657
16271SOL     OW51832   0.959   8.464   3.786 -0.0909 -0.4522 -0.4974
16271SOL    HW151833   1.038   8.424   3.751  0.1276 -0.5055  0.0524
16271SOL    HW251834   0.977   8.476   3.879 -0.1645  0.8801 -0.6452
16272SOL     OW51835   2.741   5.740   7.903 -0.1664 -0.2539 -0.4883
16272SOL    HW151836   2.655   5.734   7.861 -0.3746 -0.1669 -0.0710
16272SOL    HW251837   2.788   5.664   7.870 -0.0127  0.3127 -1.6063
16273SOL     OW51838   0.574   3.299   7.172 -0.0066 -0.1431  0.2218
16273SOL    HW151839   0.624   3.218   7.177 -0.4731 -0.4541 -0.0847
16273SOL    HW251840   0.580   3.326   7.081  0.5237  0.4116  0.4196
16274SOL     OW51841   4.021   0.641   8.910 -0.3209 -0.2564  0.1077
16274SOL    HW151842   4.054   0.553   8.890 -1.3983 -0.6606  0.0847
16274SOL    HW251843   4.090   0.700   8.878  0.8573 -1.1165  1.0121
16275SOL     OW51844   3.755   5.495   5.795 -0.0333  0.1765  0.0825
16275SOL    HW151845   3.710   5.495   5.711 -0.9359  0.9638  0.5498
16275SOL    HW251846   3.781   5.404   5.809  0.2198  0.0678 -1.0947
16276SOL     OW51847   0.911   1.355   4.583 -0.4848  0.7666  0.3485
16276SOL    HW151848   1.001   1.322   4.594 -0.5977  0.3895  0.1283
16276SOL    HW251849   0.883   1.378   4.672  0.4515  2.5128  0.2210
16277SOL     OW51850   9.431   8.850   8.460 -0.8601 -0.1264 -0.5707
16277SOL    HW151851   9.506   8.803   8.496 -1.0007  0.3367  0.3657
16277SOL    HW251852   9.384   8.881   8.538 -2.5665 -1.2729 -1.1376
16278SOL     OW51853   8.686   0.814   7.353 -0.4239 -0.9351  0.2902
16278SOL    HW151854   8.607   0.770   7.383  0.3091 -1.1341  1.9842
16278SOL    HW251855   8.752   0.745   7.346  0.2239 -0.4294  1.1630
16279SOL     OW51856   1.490   2.466   8.817  0.0217 -0.0702  0.4695
16279SOL    HW151857   1.569   2.422   8.847  0.8455  0.2966 -1.1246
16279SOL    HW251858   1.466   2.421   8.736 -1.4326 -0.2050  0.9599
16280SOL     OW51859   6.873   4.077   1.601 -0.3105  0.0821 -0.4038
16280SOL    HW151860   6.781   4.050   1.608  0.5289 -2.6050  0.9045
16280SOL    HW251861   6.920   3.996   1.578  1.6236  1.6143 -1.9858
16281SOL     OW51862   8.279   7.075   2.566 -0.3761 -0.3340 -0.1034
16281SOL    HW151863   8.370   7.090   2.538  0.1144 -1.0205  1.0463
16281SOL    HW251864   8.271   7.127   2.647 -0.4937 -1.5443  0.6804
16282SOL     OW51865   1.002   4.864   0.467 -0.3079  0.1488 -0.9312
16282SOL    HW151866   0.927   4.813   0.498 -1.7255  1.4344 -2.1300
16282SOL    HW251867   1.073   4.801   0.459 -1.3387 -1.1525 -0.0489
16283SOL     OW51868   0.054   2.087   7.182 -0.3035  0.0798 -0.1718
16283SOL    HW151869  -0.041   2.075   7.179 -0.3825  0.5919  0.1632
16283SOL    HW251870   0.073   2.145   7.109 -0.5670  1.9720  1.2276
16284SOL     OW51871   2.908   7.022   0.483 -0.0245  0.0098 -0.2829
16284SOL    HW151872   2.941   7.048   0.569 -3.0869  0.8560  0.7200
16284SOL    HW251873   2.864   7.101   0.450 -3.2873 -1.7558 -0.3564
16285SOL     OW51874   5.934   1.348   3.572 -0.2813  0.0530 -0.4116
16285SOL    HW151875   5.843   1.347   3.600 -0.6520 -0.6339 -1.6346
16285SOL    HW251876   5.981   1.302   3.642 -1.4697 -3.3528 -1.7749
16286SOL     OW51877   7.172   0.777   7.518  0.0877 -0.2125  0.0935
16286SOL    HW151878   7.198   0.797   7.428  0.5281 -0.9865  0.0441
16286SOL    HW251879   7.169   0.862   7.561  0.6178  0.0928 -0.4564
16287SOL     OW51880   6.975   2.255   8.508 -0.1192 -0.1482  0.3770
16287SOL    HW151881   6.956   2.335   8.459 -0.0451 -0.2756  0.1394
16287SOL    HW251882   7.003   2.286   8.594  1.8750  0.1651 -0.3562
16288SOL     OW51883   6.416   3.656   6.952  0.0920  0.2716 -0.0260
16288SOL    HW151884   6.340   3.713   6.947  0.8979  1.3066 -0.5717
16288SOL    HW251885   6.443   3.642   6.861  0.4524 -0.2355  0.1482
16289SOL     OW51886   8.834   8.790   5.334  0.2471 -0.2630 -0.5305
16289SOL    HW151887   8.873   8.852   5.395 -0.7107  1.4779 -1.6406
16289SOL    HW251888   8.746   8.825   5.317 -0.8586 -2.7095 -0.0716
16290SOL     OW51889   8.684   6.433   5.458  0.6004  0.3580  0.2191
16290SOL    HW151890   8.594   6.465   5.454  0.3662 -0.3660 -0.5148
16290SOL    HW251891   8.688   6.383   5.539  0.4229  0.6405  0.4026
16291SOL     OW51892   5.525   8.356   4.929  0.2143 -0.1212  0.4349
16291SOL    HW151893   5.596   8.368   4.866 -0.2328 -0.5460 -0.1598
16291SOL    HW251894   5.451   8.403   4.890  0.4421  1.2183  1.5488
16292SOL     OW51895   4.882   3.297   1.696 -0.1322  0.6259 -0.2952
16292SOL    HW151896   4.919   3.341   1.773 -1.2811  1.0639  0.0251
16292SOL    HW251897   4.902   3.205   1.709 -0.8821  0.6169  0.8676
16293SOL     OW51898   7.386   7.913   3.880  0.1763  0.3075 -0.2410
16293SOL    HW151899   7.402   7.879   3.968 -0.5942  0.3194 -0.0900
16293SOL    HW251900   7.370   8.006   3.893  1.3021  0.5575 -0.5447
16294SOL     OW51901   5.594   5.200   6.027 -0.2395  0.2975 -0.0011
16294SOL    HW151902   5.551   5.165   5.949 -0.5563  1.0475 -0.1702
16294SOL    HW251903   5.542   5.277   6.050  0.4015  0.6071  0.4131
16295SOL     OW51904   1.518   7.325   5.674  0.9453  0.2904  0.7644
16295SOL    HW151905   1.514   7.233   5.645  2.4569 -0.1090  1.7588
16295SOL    HW251906   1.592   7.362   5.625  0.0144  1.1395 -0.0245
16296SOL     OW51907   1.652   2.534   3.459 -0.7158 -0.6786  0.0204
16296SOL    HW151908   1.667   2.491   3.374 -0.2543  0.2490 -0.3678
16296SOL    HW251909   1.725   2.504   3.514 -1.7656 -2.3674  0.5168
16297SOL     OW51910   1.348   4.056   3.333  0.4458  0.2885  0.3629
16297SOL    HW151911   1.317   4.019   3.250  0.6131  2.7017 -0.8323
16297SOL    HW251912   1.442   4.040   3.334  0.0826 -1.9336  1.2799
16298SOL     OW51913   7.878   8.253   6.602  0.2763 -0.0997  0.1209
16298SOL    HW151914   7.964   8.235   6.564 -0.0329 -0.5289 -0.3853
16298SOL    HW251915   7.895   8.317   6.671  0.7083  1.5619 -1.4820
16299SOL     OW51916   3.872   1.738   2.028 -0.9102 -0.3421  0.1458
16299SOL    HW151917   3.940   1.678   1.996 -1.2641 -1.8051  2.0590
16299SOL    HW251918   3.915   1.824   2.031  0.4210 -0.9824 -0.0412
16300SOL     OW51919   3.122   2.623   8.582 -0.3565  0.3487 -0.6607
16300SOL    HW151920   3.039   2.646   8.624  0.6595  0.8964  1.1031
16300SOL    HW251921   3.160   2.557   8.639  0.1860 -0.2787 -1.7372
16301SOL     OW51922   2.949   4.749   3.825 -0.0874 -1.1005  0.3536
16301SOL    HW151923   3.002   4.821   3.859 -2.9319  1.3975 -0.3549
16301SOL    HW251924   2.898   4.720   3.901 -1.2876 -0.2124 -0.1056
16302SOL     OW51925   4.714   2.685   4.509 -0.0270 -0.0578 -0.0919
16302SOL    HW151926   4.648   2.717   4.570 -0.2513 -2.0256  0.7297
16302SOL    HW251927   4.673   2.694   4.423 -0.3710  1.1250  0.1849
16303SOL     OW51928   4.790   8.123   5.499  0.2838 -0.0611 -1.1004
16303SOL    HW151929   4.698   8.097   5.504 -0.3258  2.0668 -0.3847
16303SOL    HW251930   4.824   8.107   5.587  0.1122  0.7919 -0.8733
16304SOL     OW51931   4.048   2.407   0.878  0.1669 -0.0590 -0.3761
16304SOL    HW151932   4.142   2.413   0.860 -0.0910  0.4511 -1.6018
16304SOL    HW251933   4.031   2.313   0.887  0.8652 -0.1241  0.2570
16305SOL     OW51934   4.858   4.933   5.984 -0.2371 -0.6543 -0.8689
16305SOL    HW151935   4.785   4.949   5.925 -0.5467  0.3314 -0.2126
16305SOL    HW251936   4.839   4.984   6.062  1.3530 -0.0480 -0.8552
16306SOL     OW51937   8.641   3.761   0.194  1.2383 -0.2643  0.1726
16306SOL    HW151938   8.671   3.829   0.254  0.6028  0.9137 -0.8301
16306SOL    HW251939   8.665   3.793   0.107 -0.3752 -0.6154 -0.4197
16307SOL     OW51940   0.668   8.080   0.286  0.0325 -0.0573 -0.0864
16307SOL    HW151941   0.719   8.002   0.264  0.6401  0.5354 -0.8136
16307SOL    HW251942   0.608   8.051   0.354  0.5693 -1.0479 -0.0258
16308SOL     OW51943   5.887   8.242   7.056  0.1866 -0.1092 -0.3289
16308SOL    HW151944   5.942   8.288   6.992  0.4952 -0.7309 -0.5077
16308SOL    HW251945   5.911   8.150   7.047 -0.0107 -0.2397  0.4461
16309SOL     OW51946   4.161   6.293   5.754 -0.1175  0.0960  0.5534
16309SOL    HW151947   4.229   6.243   5.798  0.1475  2.2158  2.6417
16309SOL    HW251948   4.079   6.252   5.780  0.1802 -0.3094  0.8538
16310SOL     OW51949   5.746   7.500   5.902  0.0284  0.2571  0.0916
16310SOL    HW151950   5.736   7.586   5.943  0.9943  0.5775 -0.3424
16310SOL    HW251951   5.711   7.513   5.813  0.0604  0.1661  0.0670
16311SOL     OW51952   5.904   8.812   8.600 -0.3511  0.0527  0.0895
16311SOL    HW151953   5.909   8.892   8.653  0.1421  1.1265 -1.5602
16311SOL    HW251954   5.913   8.842   8.510  0.9849 -1.9897 -0.4886
16312SOL     OW51955   2.462   3.576   8.717 -0.3185 -0.4427  0.4391
16312SOL    HW151956   2.537   3.574   8.656 -0.4090  0.3321  0.2976
16312SOL    HW251957   2.389   3.542   8.665 -0.5881  1.0035 -0.1774
16313SOL     OW51958   6.914   6.046   0.404  0.6498 -0.5897 -0.0909
16313SOL    HW151959   6.908   6.111   0.334 -1.8423 -0.5635  0.0992
16313SOL    HW251960   6.825   6.011   0.412  1.5658 -2.8135  0.9742
16314SOL     OW51961   1.217   7.139   0.789 -0.1593 -0.0187  0.2483
16314SOL    HW151962   1.207   7.219   0.842  0.4917 -0.1312  0.5532
16314SOL    HW251963   1.312   7.132   0.776 -0.2627 -0.4322 -0.2599
16315SOL     OW51964   0.583   1.869   3.571 -0.5811  0.0040  0.2653
16315SOL    HW151965   0.595   1.859   3.477 -1.2151  0.9445  0.0822
16315SOL    HW251966   0.599   1.781   3.606 -1.5626 -0.6366 -0.8368
16316SOL     OW51967   0.221   2.994   7.979  0.0895 -0.7228 -0.1187
16316SOL    HW151968   0.276   3.071   7.972 -2.0675  1.0116  1.4650
16316SOL    HW251969   0.151   3.009   7.915 -0.2622 -1.4246  0.0972
16317SOL     OW51970   8.711   1.217   3.440  0.1829  0.4255 -0.5707
16317SOL    HW151971   8.784   1.217   3.501  0.2517  2.2971 -0.6191
16317SOL    HW251972   8.690   1.125   3.427  0.5197 -0.0012  1.8395
16318SOL     OW51973   4.114   6.490   5.280  0.2802  0.1947  0.0891
16318SOL    HW151974   4.131   6.428   5.351 -0.5095  0.5108  0.5543
16318SOL    HW251975   4.072   6.438   5.212  0.0872  0.1149  0.2707
16319SOL     OW51976   7.660   7.308   1.020 -0.1961  0.3102  0.0259
16319SOL    HW151977   7.748   7.342   1.032 -0.2492 -0.2492  2.1667
16319SOL    HW251978   7.603   7.386   1.025  0.3063  1.0512 -4.0218
16320SOL     OW51979   1.445   7.751   0.124 -0.6009  0.0528 -0.1518
16320SOL    HW151980   1.462   7.845   0.120 -0.7127  0.0500 -0.7272
16320SOL    HW251981   1.532   7.711   0.119 -0.6597  0.0823 -1.5992
16321SOL     OW51982   4.767   1.989   4.477  0.7030  0.1433  0.1308
16321SOL    HW151983   4.856   1.964   4.500  0.7243 -0.9433 -1.1271
16321SOL    HW251984   4.731   1.914   4.431 -0.9082  0.5291  0.7022
16322SOL     OW51985   2.028   3.697   2.665 -0.0727  0.0937 -0.7494
16322SOL    HW151986   1.933   3.696   2.671 -0.0541 -0.9400 -0.3588
16322SOL    HW251987   2.054   3.606   2.681  1.0376  0.5476  0.1519
16323SOL     OW51988   1.598   8.972   6.670 -0.4770  0.0126 -0.6675
16323SOL    HW151989   1.634   9.049   6.714  1.3967 -1.4993  0.5420
16323SOL    HW251990   1.514   8.957   6.714 -0.4584  0.8412 -0.3307
16324SOL     OW51991   4.776   3.086   8.719  0.5254 -0.8992 -0.0843
16324SOL    HW151992   4.821   3.135   8.650 -0.4213  0.5156  0.2948
16324SOL    HW251993   4.797   3.134   8.799  0.8499 -2.0066  0.5053
16325SOL     OW51994   3.660   8.679   6.249 -0.1935  0.1647  0.1983
16325SOL    HW151995   3.742   8.673   6.299  0.0013 -1.1737 -0.2593
16325SOL    HW251996   3.681   8.736   6.175  1.1684 -2.4736 -1.5083
16326SOL     OW51997   4.516   1.835   2.459  0.2424  0.2567 -0.3367
16326SOL    HW151998   4.497   1.924   2.490  0.7410  0.1997  0.1429
16326SOL    HW251999   4.451   1.819   2.391 -0.3053  0.7185  0.0757
16327SOL     OW52000   0.845   2.645   4.497  0.0138  0.3375  0.0470
16327SOL    HW152001   0.791   2.721   4.518 -0.6052  0.1707 -0.9024
16327SOL    HW252002   0.785   2.571   4.500  0.8076 -0.2559  1.8961
16328SOL     OW52003   1.920   3.560   6.260  0.1568  0.4417  0.4765
16328SOL    HW152004   1.880   3.551   6.346  1.7396 -0.3011  1.1365
16328SOL    HW252005   1.866   3.504   6.203 -0.1321 -0.0524  1.2236
16329SOL     OW52006   2.874   5.743   9.267  0.0357  0.1843  0.1277
16329SOL    HW152007   2.873   5.838   9.273 -1.0622  0.0843  1.9080
16329SOL    HW252008   2.963   5.719   9.293 -0.0795  0.6640  0.9898
16330SOL     OW52009   0.867   4.197   0.339  0.1676 -0.5274  0.3570
16330SOL    HW152010   0.875   4.291   0.357 -0.5757 -0.1300 -1.2465
16330SOL    HW252011   0.777   4.176   0.364 -0.2823 -0.3713 -1.0878
16331SOL     OW52012   5.646   9.249   4.472  0.2629 -0.5682  0.1101
16331SOL    HW152013   5.569   9.273   4.421  0.4701  1.6820  0.8130
16331SOL    HW252014   5.720   9.266   4.413  0.3857  0.1276  0.4590
16332SOL     OW52015   0.033   4.549   7.813  0.6282 -0.0252 -0.1693
16332SOL    HW152016  -0.024   4.472   7.818 -0.7100  0.9277 -0.8121
16332SOL    HW252017   0.046   4.575   7.905 -2.8260  1.8472 -0.1514
16333SOL     OW52018   1.502   5.685   7.437 -0.2313  0.0312 -0.7691
16333SOL    HW152019   1.468   5.618   7.496 -1.1937  2.0526  1.0154
16333SOL    HW252020   1.532   5.755   7.494  0.9261  1.0776 -2.6026
16334SOL     OW52021   8.296   2.458   8.041  0.3443  0.3652  0.2898
16334SOL    HW152022   8.255   2.511   8.109  1.2032 -0.8437  1.7808
16334SOL    HW252023   8.223   2.422   7.991 -0.3269  0.6767  1.0346
16335SOL     OW52024   7.829   6.765   7.717  0.1558  0.3690  0.0329
16335SOL    HW152025   7.741   6.765   7.753 -1.3567  1.6070 -3.4156
16335SOL    HW252026   7.836   6.850   7.672  1.4348 -1.4873 -3.4557
16336SOL     OW52027   3.536   5.566   4.349  0.4013 -0.0168  0.3356
16336SOL    HW152028   3.460   5.517   4.381  0.9982 -0.6753  0.7657
16336SOL    HW252029   3.605   5.546   4.412  0.6049  1.5426  0.6226
16337SOL     OW52030   2.116   0.219   3.539  0.3844 -0.2343  0.5782
16337SOL    HW152031   2.052   0.257   3.599  1.8708  0.2118  1.9184
16337SOL    HW252032   2.161   0.294   3.500 -0.1087 -0.5345 -0.5738
16338SOL     OW52033   5.758   2.750   6.719 -0.0194 -0.4210 -0.0360
16338SOL    HW152034   5.814   2.813   6.673  0.4762 -1.5424 -0.9789
16338SOL    HW252035   5.673   2.793   6.724  0.1066 -0.0129 -1.3974
16339SOL     OW52036   1.800   3.230   0.018 -0.0821 -0.3175 -0.2711
16339SOL    HW152037   1.780   3.175   0.094 -0.1646 -1.1484 -0.8835
16339SOL    HW252038   1.743   3.306   0.028 -0.0801 -0.4164  0.5098
16340SOL     OW52039   8.596   7.651   4.668 -0.2472 -0.1301  0.1887
16340SOL    HW152040   8.692   7.647   4.663 -0.2414  1.4852 -1.6542
16340SOL    HW252041   8.566   7.599   4.594 -0.7883 -0.1583  0.4276
16341SOL     OW52042   1.280   1.067   8.307  0.5085  0.2752 -0.3496
16341SOL    HW152043   1.275   1.119   8.387  2.7530  0.9470 -0.5970
16341SOL    HW252044   1.251   1.126   8.238 -2.4050 -0.6201  0.0543
16342SOL     OW52045   5.333   6.828   1.062  0.0621 -0.2731 -0.0919
16342SOL    HW152046   5.422   6.859   1.079 -0.2496  1.4186 -1.4164
16342SOL    HW252047   5.306   6.874   0.983 -1.9930 -0.7716  0.2817
16343SOL     OW52048   5.266   3.561   1.711 -0.2140 -0.6042 -0.0542
16343SOL    HW152049   5.250   3.532   1.801 -0.3247  2.4763  0.9619
16343SOL    HW252050   5.361   3.551   1.700 -0.2397 -1.2666  0.3111
16344SOL     OW52051   8.844   5.398   0.329  0.1585 -0.2989  0.1160
16344SOL    HW152052   8.886   5.356   0.253  0.4482  1.5164 -0.7629
16344SOL    HW252053   8.755   5.418   0.299  0.3892  0.7593  0.1058
16345SOL     OW52054   4.062   7.818   4.357  0.1756 -0.2958 -0.4307
16345SOL    HW152055   3.978   7.856   4.332 -0.8990 -0.8911  2.1307
16345SOL    HW252056   4.109   7.890   4.400  0.4923 -0.3068 -0.7510
16346SOL     OW52057   8.533   3.485   3.176  0.4304  0.4122 -1.0110
16346SOL    HW152058   8.625   3.493   3.201  0.1666  0.6809 -0.1356
16346SOL    HW252059   8.496   3.572   3.190  0.0227  0.2916 -1.3093
16347SOL     OW52060   1.689   2.566   5.879 -0.1246 -0.2222  0.3654
16347SOL    HW152061   1.751   2.534   5.813  0.7200  3.0655 -0.5119
16347SOL    HW252062   1.603   2.544   5.843  0.4064 -1.6616 -0.0872
16348SOL     OW52063   0.582   4.731   1.791  1.0652 -0.3425 -0.6427
16348SOL    HW152064   0.642   4.673   1.837  1.1302  0.3561  0.1665
16348SOL    HW252065   0.611   4.819   1.815  0.2967  0.0096 -0.9966
16349SOL     OW52066   4.796   4.530   7.070  0.2680  0.0462  0.3217
16349SOL    HW152067   4.831   4.513   7.157  0.2682 -1.0655  0.1129
16349SOL    HW252068   4.873   4.538   7.014  0.2984  1.6443  0.5662
16350SOL     OW52069   4.535   3.786   2.734  0.2981 -0.0620 -0.2728
16350SOL    HW152070   4.551   3.826   2.820 -1.8144  0.0879  0.0932
16350SOL    HW252071   4.530   3.861   2.674  0.3031 -0.0581 -0.2683
16351SOL     OW52072   0.808   3.206   0.310 -0.3827  0.4030 -0.4517
16351SOL    HW152073   0.839   3.283   0.359  0.1007  0.7528 -1.3067
16351SOL    HW252074   0.809   3.135   0.375 -2.4863  1.4713  0.8016
16352SOL     OW52075   2.166   2.264   4.960 -0.3337  0.0670 -0.5591
16352SOL    HW152076   2.189   2.235   4.871 -0.2676  0.8508 -0.8006
16352SOL    HW252077   2.091   2.210   4.984  0.5311 -1.1614 -0.5302
16353SOL     OW52078   0.412   8.028   2.465  0.0350  0.3740 -0.1939
16353SOL    HW152079   0.372   8.098   2.517  1.9645  1.6102 -0.3342
16353SOL    HW252080   0.367   8.032   2.381  0.1784  1.4806 -0.2213
16354SOL     OW52081   7.982   4.489   5.438 -0.6331 -0.1373 -0.0466
16354SOL    HW152082   8.056   4.484   5.378 -1.4064 -1.5908 -0.9097
16354SOL    HW252083   7.906   4.502   5.382 -0.8504  3.3521  0.9643
16355SOL     OW52084   4.406   8.557   0.588 -0.2935 -0.1755 -0.4559
16355SOL    HW152085   4.424   8.498   0.661 -0.4387 -0.4136 -0.6092
16355SOL    HW252086   4.455   8.636   0.608 -1.1853  0.1631  0.4190
16356SOL     OW52087   6.325   8.257   5.946 -0.1045  0.1298 -0.2307
16356SOL    HW152088   6.310   8.270   6.040 -1.1801  0.7297 -0.4732
16356SOL    HW252089   6.341   8.164   5.937  1.2767  0.2604  0.7132
16357SOL     OW52090   6.229   3.867   8.176 -0.2559 -0.1085  0.2040
16357SOL    HW152091   6.139   3.864   8.143  0.0205 -1.2054 -0.4743
16357SOL    HW252092   6.222   3.847   8.269 -0.6918 -0.3756  0.1130
16358SOL     OW52093   5.600   8.602   4.276 -0.0936 -0.0090 -0.3972
16358SOL    HW152094   5.530   8.665   4.293  1.1027  1.8823 -2.2878
16358SOL    HW252095   5.677   8.638   4.320  0.1388 -1.1803  0.1905
16359SOL     OW52096   2.609   7.134   2.111  0.2875 -0.2299 -0.2251
16359SOL    HW152097   2.700   7.138   2.142 -0.0662  0.2907  0.7854
16359SOL    HW252098   2.597   7.043   2.083  0.5870 -0.7716  1.3435
16360SOL     OW52099   6.597   1.778   2.973  0.0500  0.0969 -0.9737
16360SOL    HW152100   6.570   1.802   2.884  0.1424  0.2718 -0.9536
16360SOL    HW252101   6.652   1.850   3.002 -0.1966  0.1639 -0.6739
16361SOL     OW52102   7.873   3.197   2.294  0.5277 -0.8701 -0.4197
16361SOL    HW152103   7.816   3.120   2.289  2.1760 -2.2457  0.9832
16361SOL    HW252104   7.932   3.187   2.219  0.1013 -0.4185 -0.8197
16362SOL     OW52105   5.966   5.696   3.401 -0.0888 -0.0871 -0.1708
16362SOL    HW152106   6.032   5.762   3.383  0.8759 -1.1300 -0.5148
16362SOL    HW252107   5.901   5.741   3.454  0.6105  1.1069 -0.3168
16363SOL     OW52108   7.964   9.193   7.479 -0.7376 -0.1213  0.8651
16363SOL    HW152109   7.876   9.228   7.492 -0.3057  1.0476  0.6900
16363SOL    HW252110   8.020   9.270   7.476 -0.0461 -0.6974 -1.8091
16364SOL     OW52111   9.102   2.673   8.746  0.1184  0.1289  0.0273
16364SOL    HW152112   9.108   2.626   8.663  0.2821 -0.8113  0.5674
16364SOL    HW252113   9.019   2.643   8.785  0.3470  0.0838  0.4897
16365SOL     OW52114   1.431   7.323   6.573 -0.2672 -0.2599  0.9578
16365SOL    HW152115   1.495   7.303   6.505 -1.5725  0.4117 -0.4963
16365SOL    HW252116   1.368   7.251   6.569 -1.2003  0.5814  0.3952
16366SOL     OW52117   0.944   7.705   4.255 -0.3814  0.0107  0.5724
16366SOL    HW152118   0.999   7.663   4.322  1.0621 -2.0366 -1.8351
16366SOL    HW252119   1.001   7.769   4.213  0.0362 -1.7324 -1.5671
16367SOL     OW52120   1.946   4.691   1.474 -0.7090 -0.2296  0.8527
16367SOL    HW152121   1.882   4.631   1.512 -0.3529 -2.1639 -1.4790
16367SOL    HW252122   1.914   4.707   1.386  0.7119  0.8011  0.5104
16368SOL     OW52123   2.925   3.515   2.574  0.3757 -0.3912  0.5447
16368SOL    HW152124   2.926   3.509   2.478  1.4558  1.0640  0.4395
16368SOL    HW252125   2.854   3.458   2.601 -0.3570 -0.3255 -1.1735
16369SOL     OW52126   7.383   2.285   3.003 -0.3337  0.2428 -0.2289
16369SOL    HW152127   7.457   2.338   2.974  0.5229 -1.1446 -0.6465
16369SOL    HW252128   7.342   2.254   2.922 -1.9223  1.7191 -0.0168
16370SOL     OW52129   7.979   5.955   9.285 -0.7498  0.2256 -0.0618
16370SOL    HW152130   8.026   5.896   9.226 -1.5472 -0.3476 -0.1281
16370SOL    HW252131   7.902   5.905   9.312 -1.1196  1.0206  0.3463
16371SOL     OW52132   0.216   7.777   0.311 -0.4261  0.4108 -0.0221
16371SOL    HW152133   0.133   7.732   0.324 -0.2746 -0.4915 -1.9913
16371SOL    HW252134   0.260   7.727   0.243  0.5781  2.4045 -0.8829
16372SOL     OW52135   1.033   5.199   6.392  0.1157  0.1951 -0.1034
16372SOL    HW152136   0.976   5.209   6.316 -0.6581 -0.7780  0.3495
16372SOL    HW252137   1.009   5.270   6.450 -1.7248 -1.1181  0.7729
16373SOL     OW52138   8.879   7.390   4.942  0.4831 -1.1804  0.0319
16373SOL    HW152139   8.926   7.331   4.882  2.3068  0.5002 -0.2524
16373SOL    HW252140   8.948   7.443   4.982 -1.2621  2.2396 -1.3302
16374SOL     OW52141   1.569   1.057   4.283 -0.5074 -0.4880  0.4609
16374SOL    HW152142   1.531   0.970   4.295  1.8580 -1.9218 -2.0538
16374SOL    HW252143   1.545   1.081   4.194  0.4019  0.6468  0.5122
16375SOL     OW52144   3.869   2.180   5.600  0.0053 -0.0589  0.5849
16375SOL    HW152145   3.826   2.260   5.569 -0.8823 -1.0600 -0.8343
16375SOL    HW252146   3.935   2.161   5.534 -0.4993 -1.0706  0.3663
16376SOL     OW52147   0.556   0.373   8.182 -0.3635  0.6017  0.0589
16376SOL    HW152148   0.611   0.305   8.142 -1.1890 -1.1842  1.9014
16376SOL    HW252149   0.617   0.427   8.231 -0.0652 -0.8443  1.3506
16377SOL     OW52150   3.964   8.404   7.065  0.2508  0.0042  0.2799
16377SOL    HW152151   3.889   8.366   7.019 -0.4993  0.1395  1.3855
16377SOL    HW252152   4.039   8.383   7.009 -0.5413 -0.5351 -0.5999
16378SOL     OW52153   4.567   8.441   0.052  0.1343 -0.3728  0.4293
16378SOL    HW152154   4.492   8.425   0.109 -0.2785 -0.5296 -0.1518
16378SOL    HW252155   4.621   8.362   0.059  0.1633 -0.3257  0.7207
16379SOL     OW52156   0.668   5.465   4.674 -0.0867  0.1157 -0.7686
16379SOL    HW152157   0.612   5.525   4.625  0.7343 -1.3060 -3.5666
16379SOL    HW252158   0.634   5.378   4.654  1.6101 -0.6199 -0.5922
16380SOL     OW52159   5.240   5.371   5.926 -0.2643  0.1136  0.2275
16380SOL    HW152160   5.321   5.399   5.967  0.9950 -1.5483 -1.0409
16380SOL    HW252161   5.211   5.446   5.874  0.9530  0.4143 -0.0171
16381SOL     OW52162   2.442   8.989   4.677 -0.4513  0.2299 -0.2635
16381SOL    HW152163   2.500   8.962   4.749 -0.9918 -1.1167 -0.3248
16381SOL    HW252164   2.435   9.084   4.687  1.4113  0.3686  0.0092
16382SOL     OW52165   1.025   3.997   2.256 -0.2089 -0.3363 -0.2021
16382SOL    HW152166   0.952   3.941   2.282 -0.5267  0.4937  0.6980
16382SOL    HW252167   1.019   4.000   2.160 -3.5941  2.6852  0.0149
16383SOL     OW52168   7.417   8.891   4.192 -0.2540  0.2069 -0.2877
16383SOL    HW152169   7.472   8.941   4.132 -0.0638  0.2566 -0.0736
16383SOL    HW252170   7.331   8.887   4.149  0.1711 -0.7170 -1.0870
16384SOL     OW52171   0.215   4.172   3.863 -1.0027 -0.0408  0.0504
16384SOL    HW152172   0.257   4.244   3.817  1.9033 -2.3211 -1.0371
16384SOL    HW252173   0.150   4.138   3.802 -0.6832  0.1382 -0.3894
16385SOL     OW52174   5.427   1.609   0.280  0.0573  0.0907 -0.6549
16385SOL    HW152175   5.482   1.636   0.354 -1.6419  0.2496  0.5637
16385SOL    HW252176   5.475   1.535   0.242  1.3706  0.5298  0.0825
16386SOL     OW52177   6.020   7.083   1.945  0.3796  0.0010 -0.2021
16386SOL    HW152178   5.948   7.025   1.972  0.2082  0.9583  1.4358
16386SOL    HW252179   5.981   7.170   1.943  1.0100  0.2671 -1.2584
16387SOL     OW52180   7.241   6.599   6.185 -0.5506  0.3186  0.8335
16387SOL    HW152181   7.320   6.600   6.238 -1.2978 -0.4660  1.9866
16387SOL    HW252182   7.205   6.511   6.197  0.4425 -0.6313 -2.7728
16388SOL     OW52183   5.322   2.775   2.824  0.1925 -0.9315  0.0706
16388SOL    HW152184   5.291   2.686   2.843  3.1479 -2.0477 -0.2071
16388SOL    HW252185   5.243   2.829   2.834 -1.0401 -3.1172  3.3840
16389SOL     OW52186   7.105   1.438   8.698  0.0875  0.0649  0.4494
16389SOL    HW152187   7.128   1.438   8.605 -1.2704  0.8002  0.1114
16389SOL    HW252188   7.103   1.530   8.723  1.5004 -0.1709  1.4821
16390SOL     OW52189   3.590   1.282   0.989 -0.1042 -0.0836  0.4386
16390SOL    HW152190   3.658   1.216   0.993  0.9516  0.8680 -1.2570
16390SOL    HW252191   3.524   1.245   0.930  0.7749  0.5849 -1.0095
16391SOL     OW52192   0.506   3.007   0.793  0.1808 -0.1282 -0.4846
16391SOL    HW152193   0.486   2.941   0.726  2.0344 -0.3296 -0.8718
16391SOL    HW252194   0.436   2.996   0.858 -0.4244 -1.4116 -1.3118
16392SOL     OW52195   0.802   1.050   7.490 -0.4716  0.1337 -0.1664
16392SOL    HW152196   0.827   0.960   7.466  1.0383  0.9215 -1.6112
16392SOL    HW252197   0.872   1.105   7.455 -2.3597  2.0683 -0.9948
16393SOL     OW52198   7.759   6.310   7.794  0.2093 -0.7958 -0.5888
16393SOL    HW152199   7.827   6.336   7.856 -1.9592 -2.1414  2.4374
16393SOL    HW252200   7.801   6.246   7.737  2.3331  0.7559 -0.8227
16394SOL     OW52201   8.375   1.246   8.858  0.3856 -0.4601  0.3335
16394SOL    HW152202   8.336   1.333   8.855 -0.3561 -0.7932  0.4187
16394SOL    HW252203   8.469   1.262   8.845  0.0878  0.2277 -1.0297
16395SOL     OW52204   0.228   0.088   2.045  0.2487 -0.3128 -0.0939
16395SOL    HW152205   0.145   0.052   2.015 -0.7153  1.1354  0.8140
16395SOL    HW252206   0.233   0.062   2.137  0.9636 -0.6726 -0.2300
16396SOL     OW52207   3.706   8.940   3.575 -0.1399 -0.0685 -0.1728
16396SOL    HW152208   3.673   8.853   3.555 -0.1840 -0.5126  1.7121
16396SOL    HW252209   3.737   8.974   3.491 -0.0436 -1.9262 -0.9141
16397SOL     OW52210   2.160   0.539   3.449  0.2731 -0.2967  0.1205
16397SOL    HW152211   2.154   0.622   3.401  2.4489 -0.1272  0.0625
16397SOL    HW252212   2.150   0.564   3.541 -0.3751 -0.1438  0.0093
16398SOL     OW52213   6.632   9.338   7.640 -0.1951  0.0334  0.3346
16398SOL    HW152214   6.717   9.300   7.660 -0.2760 -1.2572 -1.5793
16398SOL    HW252215   6.571   9.296   7.701  0.0240 -1.5164 -0.5036
16399SOL     OW52216   1.175   3.010   2.648  0.2577 -0.5411 -0.5371
16399SOL    HW152217   1.108   2.944   2.627 -1.1899  0.9577 -0.7540
16399SOL    HW252218   1.146   3.046   2.732 -0.5427  1.8107 -1.8037
16400SOL     OW52219   0.322   0.054   5.213 -0.4415 -0.4250 -0.4612
16400SOL    HW152220   0.307  -0.017   5.276 -2.6831 -0.9839 -1.5644
16400SOL    HW252221   0.327   0.133   5.267 -1.0726 -1.0467  0.5386
16401SOL     OW52222   6.277   8.292   6.208 -0.5629  0.2808 -0.4273
16401SOL    HW152223   6.188   8.326   6.209 -0.2296  1.4163 -3.4544
16401SOL    HW252224   6.331   8.360   6.248 -0.8632  0.1095  0.2805
16402SOL     OW52225   6.491   5.811   2.280 -0.4332  0.3486 -0.4192
16402SOL    HW152226   6.562   5.845   2.334 -0.5053  0.0696 -0.1523
16402SOL    HW252227   6.479   5.721   2.309 -1.5323  0.6808  0.1873
16403SOL     OW52228   8.753   7.379   9.331  0.8153 -0.3242  0.2630
16403SOL    HW152229   8.712   7.366   9.416 -0.1209 -3.4414 -0.5746
16403SOL    HW252230   8.845   7.358   9.345  0.5073 -1.6993  0.3859
16404SOL     OW52231   8.712   0.752   1.047 -0.0664 -0.3275  0.6550
16404SOL    HW152232   8.716   0.828   1.105 -1.4331  0.4662 -0.2460
16404SOL    HW252233   8.689   0.679   1.104  0.8907  0.0134  1.4712
16405SOL     OW52234   0.409   2.168   2.469 -0.8195 -0.1256  0.9061
16405SOL    HW152235   0.423   2.261   2.450  0.9418 -0.4931  0.3289
16405SOL    HW252236   0.479   2.123   2.422 -2.7730 -1.9204 -0.3783
16406SOL     OW52237   0.836   8.543   0.122  0.2177  0.5187  0.0532
16406SOL    HW152238   0.828   8.522   0.029 -0.3060  0.5618  0.0873
16406SOL    HW252239   0.851   8.458   0.164  0.2853  0.4789 -0.0476
16407SOL     OW52240   8.767   4.486   1.451  0.1420 -0.0109  0.0158
16407SOL    HW152241   8.820   4.437   1.387  0.0228  1.1072 -0.9563
16407SOL    HW252242   8.782   4.578   1.429 -1.7287  0.3310  0.1182
16408SOL     OW52243   3.940   3.086   8.018 -0.6847 -0.7587  0.2671
16408SOL    HW152244   3.919   3.088   8.111 -0.7239 -0.6957  0.2572
16408SOL    HW252245   3.887   3.015   7.982 -3.1597  1.3267 -0.3272
16409SOL     OW52246   7.360   0.347   2.576  0.2155  0.5257 -0.5994
16409SOL    HW152247   7.327   0.380   2.493 -3.5333 -0.5756  0.3637
16409SOL    HW252248   7.311   0.396   2.642 -0.0037 -1.6993  0.9201
16410SOL     OW52249   7.749   5.169   8.387  0.1044  0.0250  0.7889
16410SOL    HW152250   7.754   5.180   8.482  0.9071 -0.2555  0.7786
16410SOL    HW252251   7.655   5.157   8.370  0.0484 -0.8800  1.6562
16411SOL     OW52252   8.501   4.767   0.519 -0.0821 -0.5031 -0.4900
16411SOL    HW152253   8.565   4.795   0.454  0.2085 -0.2163 -0.0818
16411SOL    HW252254   8.543   4.783   0.603 -1.0404  0.5510 -0.1880
16412SOL     OW52255   0.873   8.170   1.542 -0.3007  0.3799  0.0423
16412SOL    HW152256   0.928   8.126   1.607  0.0773  2.2795  1.0689
16412SOL    HW252257   0.936   8.208   1.480 -0.6178 -0.4953 -0.8198
16413SOL     OW52258   5.492   1.409   5.278 -0.3217  0.2604  0.8105
16413SOL    HW152259   5.534   1.392   5.193 -0.2605  0.4050  0.8119
16413SOL    HW252260   5.406   1.445   5.256 -0.6210 -0.4517  0.8068
16414SOL     OW52261   1.969   0.155   6.178 -0.8204  0.3800  0.5571
16414SOL    HW152262   2.011   0.197   6.103 -1.0194  0.2962  0.3993
16414SOL    HW252263   1.921   0.081   6.141 -0.9061  0.3295  0.7675
16415SOL     OW52264   1.195   8.788   4.423  0.1672 -0.5351 -0.0136
16415SOL    HW152265   1.111   8.821   4.454  0.2317 -0.3922  0.0055
16415SOL    HW252266   1.256   8.805   4.494  0.3835  0.0869 -0.3443
16416SOL     OW52267   2.714   4.948   8.237  0.6837  0.1562 -0.3160
16416SOL    HW152268   2.742   4.883   8.301 -2.1703 -0.9279 -0.0660
16416SOL    HW252269   2.628   4.917   8.209  0.6970  2.1051 -2.6273
16417SOL     OW52270   8.689   6.348   5.073  0.0335  0.1500 -0.8346
16417SOL    HW152271   8.665   6.440   5.082 -1.3148 -0.1670 -1.2204
16417SOL    HW252272   8.637   6.315   5.000  0.8786 -0.7969 -1.0324
16418SOL     OW52273   0.431   8.985   4.223  0.1259  0.1156 -0.0592
16418SOL    HW152274   0.487   9.032   4.285 -0.7860  0.1108  0.7684
16418SOL    HW252275   0.442   9.033   4.141  0.5728  0.7087  0.3380
16419SOL     OW52276   9.027   4.618   4.403 -0.0881 -0.0179  0.7476
16419SOL    HW152277   9.080   4.641   4.326  1.8967 -3.4957  0.9523
16419SOL    HW252278   9.092   4.597   4.470 -1.7150 -2.6713  1.5586
16420SOL     OW52279   8.364   4.838   3.643 -0.3087 -0.1044  0.2596
16420SOL    HW152280   8.271   4.817   3.636  0.3042 -2.2340 -2.6634
16420SOL    HW252281   8.397   4.781   3.712 -0.8219 -0.7671 -0.0343
16421SOL     OW52282   0.903   8.287   0.012 -0.7689 -0.2062  0.1470
16421SOL    HW152283   0.945   8.343  -0.053 -0.7797 -0.0613  0.2648
16421SOL    HW252284   0.918   8.198  -0.019  0.1918 -0.1838  0.5305
16422SOL     OW52285   7.272   6.075   2.815  0.8250  0.0183 -0.3039
16422SOL    HW152286   7.310   6.000   2.770  2.0238  1.3561 -1.5559
16422SOL    HW252287   7.188   6.089   2.771  1.0156 -0.0157 -0.6739
16423SOL     OW52288   9.265   8.624   8.200 -0.8088  0.1315 -0.2058
16423SOL    HW152289   9.320   8.585   8.132  1.3341 -1.7222  2.4647
16423SOL    HW252290   9.275   8.718   8.188  1.2248 -0.1728 -1.1976
16424SOL     OW52291   1.588   0.943   8.402 -0.1060 -0.8480 -0.0645
16424SOL    HW152292   1.563   0.882   8.332 -1.7482  0.0663 -0.3067
16424SOL    HW252293   1.589   1.029   8.360 -0.4209 -0.3807  0.8702
16425SOL     OW52294   6.992   0.414   0.055 -0.1924 -0.0811  0.1376
16425SOL    HW152295   7.028   0.491   0.098  0.6794 -1.1394  1.3806
16425SOL    HW252296   6.900   0.435   0.040 -0.1838  0.8526  1.3034
16426SOL     OW52297   8.444   9.075   3.982 -0.4414 -0.1960  0.1518
16426SOL    HW152298   8.522   9.036   4.023  0.8851  0.7736 -1.3678
16426SOL    HW252299   8.422   9.149   4.039  1.4568  1.2160 -0.8866
16427SOL     OW52300   8.480   5.160   1.207  0.1334 -0.1440  0.1613
16427SOL    HW152301   8.477   5.177   1.113  2.9354 -1.7672 -0.2892
16427SOL    HW252302   8.428   5.080   1.218  0.7371 -0.5851 -0.1782
16428SOL     OW52303   1.325   0.236   8.631  0.0324 -0.0380 -0.2350
16428SOL    HW152304   1.340   0.210   8.540  1.8760 -0.9666  0.3038
16428SOL    HW252305   1.379   0.176   8.682  0.3869  1.5858  1.3563
16429SOL     OW52306   0.989   0.751   7.584  0.2786 -0.7333  0.4012
16429SOL    HW152307   0.985   0.753   7.679 -1.3018  0.0981  0.3294
16429SOL    HW252308   0.975   0.659   7.561 -1.0947 -0.6487  0.9019
16430SOL     OW52309   8.980   6.001   9.155 -0.0205  0.0749  0.5871
16430SOL    HW152310   9.009   5.983   9.244  1.5256 -0.6462 -0.0497
16430SOL    HW252311   8.886   6.019   9.164  0.1214  0.0673  2.3525
16431SOL     OW52312   7.772   2.554   3.490 -0.6676  0.1153 -0.0026
16431SOL    HW152313   7.744   2.548   3.582 -0.4232 -0.7738  0.0193
16431SOL    HW252314   7.822   2.474   3.475 -1.2948 -0.0807 -1.1114
16432SOL     OW52315   2.831   7.691   7.167 -0.3493  0.9147  0.4812
16432SOL    HW152316   2.833   7.766   7.107 -0.5359  1.0055  0.5875
16432SOL    HW252317   2.920   7.658   7.167  0.2643  2.4853  2.1397
16433SOL     OW52318   6.533   1.412   2.375  0.7403 -0.4289  0.0627
16433SOL    HW152319   6.589   1.451   2.307  0.5540 -0.2300  0.0210
16433SOL    HW252320   6.574   1.329   2.395  1.8877  0.3825  1.1112
16434SOL     OW52321   4.561   1.869   0.463 -0.3157 -0.5188 -0.3297
16434SOL    HW152322   4.564   1.920   0.544 -0.9693 -3.6477  1.7524
16434SOL    HW252323   4.642   1.817   0.464  0.3317  0.4043 -2.3839
16435SOL     OW52324   7.442   4.216   3.348 -0.4478  0.4424  0.0066
16435SOL    HW152325   7.404   4.206   3.260 -1.7867  0.7727  0.5256
16435SOL    HW252326   7.495   4.295   3.343  0.9413 -0.5262 -0.9876
16436SOL     OW52327   1.265   4.403   1.661 -0.1844  0.2353  0.0881
16436SOL    HW152328   1.261   4.350   1.581  0.3229 -0.1977  0.3421
16436SOL    HW252329   1.338   4.463   1.647 -1.2515  1.3907 -0.5119
16437SOL     OW52330   5.870   3.092   4.879 -0.7737 -0.3925 -0.2618
16437SOL    HW152331   5.859   3.187   4.880  0.2940 -0.2664  0.5027
16437SOL    HW252332   5.797   3.060   4.931 -0.8254  0.0464 -0.0559
16438SOL     OW52333   7.916   7.795   2.874 -0.4918 -0.0068  0.3767
16438SOL    HW152334   7.821   7.792   2.887 -0.5014 -2.6130 -0.1359
16438SOL    HW252335   7.953   7.779   2.961 -0.4909  1.2872  0.6309
16439SOL     OW52336   4.259   0.165   6.776  0.5100  0.4467  0.3033
16439SOL    HW152337   4.264   0.074   6.747  0.4437 -0.3064  2.5238
16439SOL    HW252338   4.166   0.182   6.786  0.5366  0.6773  0.1704
16440SOL     OW52339   2.267   9.320   5.641 -0.6433 -0.2902  0.3379
16440SOL    HW152340   2.240   9.232   5.667 -2.3688  0.8921  2.6877
16440SOL    HW252341   2.215   9.339   5.563  0.7392 -1.8410 -1.0021
16441SOL     OW52342   4.337   6.674   3.423 -0.0222  0.0258 -0.3197
16441SOL    HW152343   4.365   6.750   3.371 -0.1700 -0.4388 -1.0734
16441SOL    HW252344   4.257   6.703   3.466  0.8680  0.8997  0.7786
16442SOL     OW52345   1.399   2.193   9.320 -0.3040  0.3787  0.3456
16442SOL    HW152346   1.433   2.238   9.243 -1.6079  2.7106  1.1098
16442SOL    HW252347   1.360   2.112   9.285 -0.1501  1.0178 -1.3295
16443SOL     OW52348   8.940   6.451   4.515  0.6042 -0.2569  0.3983
16443SOL    HW152349   8.982   6.381   4.466 -0.3531 -0.6565  0.1445
16443SOL    HW252350   8.850   6.421   4.528 -0.2450  1.5667 -1.0130
16444SOL     OW52351   5.124   8.426   7.372 -0.5892 -0.1551 -0.1750
16444SOL    HW152352   5.171   8.396   7.294 -0.8515 -1.1642  0.0563
16444SOL    HW252353   5.193   8.444   7.435 -0.4816 -1.1082 -0.0217
16445SOL     OW52354   9.375   7.012   1.889  0.0323 -0.0407 -0.0991
16445SOL    HW152355   9.459   6.965   1.894 -0.5233 -1.0219  0.3220
16445SOL    HW252356   9.339   7.004   1.977 -0.2282  0.8961 -0.1249
16446SOL     OW52357   3.522   4.368   7.958  0.9045 -0.1826 -0.5912
16446SOL    HW152358   3.539   4.444   7.902  0.0910 -0.3746 -1.1114
16446SOL    HW252359   3.609   4.340   7.987  1.2839  0.3309 -1.2083
16447SOL     OW52360   4.033   3.483   2.351 -0.2602 -0.1363  0.0790
16447SOL    HW152361   4.113   3.522   2.315 -0.0994 -0.7381 -0.2429
16447SOL    HW252362   4.061   3.438   2.430 -0.4862  0.5898  0.5756
16448SOL     OW52363   9.227   2.413   2.382 -0.4239 -0.2380 -0.2206
16448SOL    HW152364   9.304   2.359   2.396 -0.7173 -0.4654  0.5664
16448SOL    HW252365   9.261   2.501   2.369 -0.0397 -0.2710  0.5027
16449SOL     OW52366   6.058   1.241   9.275 -0.0674 -0.0563  0.3060
16449SOL    HW152367   6.153   1.247   9.286 -0.1489  0.2490  0.8427
16449SOL    HW252368   6.035   1.318   9.224 -0.1913  0.5640  1.2767
16450SOL     OW52369   3.944   2.551   3.335  0.1479 -0.0270 -0.6015
16450SOL    HW152370   3.964   2.644   3.336  0.7850 -0.1632  0.3450
16450SOL    HW252371   3.860   2.544   3.289  0.1967  0.9877 -0.8352
16451SOL     OW52372   9.212   9.038   9.164 -0.3218 -0.0641 -0.0590
16451SOL    HW152373   9.294   9.003   9.129 -0.4871 -0.0482 -0.4627
16451SOL    HW252374   9.238   9.084   9.244  0.0963  0.1352 -0.3077
16452SOL     OW52375   6.568   0.298   3.168  0.2523 -0.5866  0.0445
16452SOL    HW152376   6.516   0.222   3.143 -0.6966  0.6578 -1.9754
16452SOL    HW252377   6.529   0.370   3.118  3.4448  0.5352 -0.9381
16453SOL     OW52378   0.627   5.692   7.253 -0.2118 -0.4473 -0.1275
16453SOL    HW152379   0.639   5.761   7.318 -0.0998 -0.6177  0.0318
16453SOL    HW252380   0.554   5.640   7.287 -0.0325 -0.6449 -0.0471
16454SOL     OW52381   9.378   3.315   8.707  0.3616 -0.0389  0.5003
16454SOL    HW152382   9.431   3.256   8.654  0.4460  0.1084  0.4171
16454SOL    HW252383   9.293   3.316   8.665  0.1802 -0.5704  0.8512
16455SOL     OW52384   5.895   7.163   3.481 -0.2892 -0.1001  0.4427
16455SOL    HW152385   5.883   7.222   3.407  0.4965 -0.4417  0.0352
16455SOL    HW252386   5.868   7.214   3.557 -2.8224 -0.3357 -0.2613
16456SOL     OW52387   3.476   7.814   2.721 -0.0898 -0.0908  0.6140
16456SOL    HW152388   3.566   7.826   2.752  0.4413  1.9793 -1.5554
16456SOL    HW252389   3.448   7.731   2.760  1.7564  0.6237  3.5874
16457SOL     OW52390   7.151   3.013   8.310 -0.4120 -0.6533 -0.0906
16457SOL    HW152391   7.201   2.965   8.245  0.3220  0.9577 -0.7208
16457SOL    HW252392   7.216   3.062   8.360 -1.1464 -0.4387  0.6792
16458SOL     OW52393   5.459   8.929   8.789 -0.4035 -0.3752  0.0861
16458SOL    HW152394   5.533   8.965   8.838 -1.0567  1.1287 -0.0238
16458SOL    HW252395   5.497   8.903   8.705  0.3526 -1.2885  0.6931
16459SOL     OW52396   7.146   4.174   7.799 -0.9017  0.2796 -0.3267
16459SOL    HW152397   7.139   4.140   7.710  1.9780  1.8961 -1.2218
16459SOL    HW252398   7.123   4.267   7.791  0.1580  0.6218  0.4522
16460SOL     OW52399   2.316   5.314   7.326  0.1479 -0.3694  0.4473
16460SOL    HW152400   2.241   5.300   7.268  0.8342 -0.0009 -0.5509
16460SOL    HW252401   2.360   5.391   7.290  1.9083 -1.5258  0.0460
16461SOL     OW52402   2.277   4.724   4.662 -0.0390 -0.3593  0.9737
16461SOL    HW152403   2.360   4.756   4.697 -0.0712  1.7051 -0.7218
16461SOL    HW252404   2.210   4.765   4.717  0.0129 -0.7782  1.3538
16462SOL     OW52405   7.654   8.403   1.123  0.3934 -0.1467  0.3970
16462SOL    HW152406   7.646   8.322   1.072  1.1161  0.5375 -0.8483
16462SOL    HW252407   7.747   8.425   1.118 -0.1296  1.8554 -1.0350
16463SOL     OW52408   5.118   5.834   5.857 -0.1141 -0.1784  0.3589
16463SOL    HW152409   5.027   5.857   5.838  0.6507  1.3907 -1.5373
16463SOL    HW252410   5.169   5.909   5.827  1.9505 -1.7320 -0.1679
16464SOL     OW52411   0.113   6.299   3.918  0.2506  0.2059  0.0477
16464SOL    HW152412   0.109   6.359   3.843  1.6026  0.0205 -0.1833
16464SOL    HW252413   0.178   6.339   3.977  0.8907 -0.8359  0.0607
16465SOL     OW52414   2.603   2.886   1.007 -0.2062  0.0865 -0.0477
16465SOL    HW152415   2.604   2.975   1.041  0.0060  0.1895 -0.3271
16465SOL    HW252416   2.660   2.888   0.931  1.3890 -0.7230  1.0821
16466SOL     OW52417   0.397   5.598   2.797  0.1225  0.0347 -0.1632
16466SOL    HW152418   0.394   5.612   2.702  0.2090  2.1293  0.1344
16466SOL    HW252419   0.331   5.658   2.832  1.2358  0.4523  1.2421
16467SOL     OW52420   7.322   3.332   3.277  0.3852  0.2478 -0.4068
16467SOL    HW152421   7.347   3.261   3.219 -1.2192  0.7807 -1.7881
16467SOL    HW252422   7.265   3.388   3.224 -0.4669  1.1760  1.4279
16468SOL     OW52423   0.566   9.041   1.058  0.3788 -0.0854 -0.1480
16468SOL    HW152424   0.479   9.054   1.019  1.0912 -0.4619 -1.9136
16468SOL    HW252425   0.566   8.949   1.084  0.2918 -0.1144 -0.2467
16469SOL     OW52426   8.449   1.533   3.807  0.6499 -0.2927  0.7024
16469SOL    HW152427   8.473   1.472   3.877  2.4444  0.0882  0.4385
16469SOL    HW252428   8.480   1.492   3.727  0.1072  0.0546  0.3092
16470SOL     OW52429   0.547   0.661   9.140 -0.2699  0.1175  0.1895
16470SOL    HW152430   0.572   0.569   9.153  3.7948  1.3984  2.1798
16470SOL    HW252431   0.592   0.687   9.060  1.1308  1.1952  1.3065
16471SOL     OW52432   6.642   8.438   3.166  0.2520  0.2526 -0.3761
16471SOL    HW152433   6.618   8.383   3.241  0.4340  1.8786  0.8838
16471SOL    HW252434   6.648   8.526   3.201 -0.7764  1.2260 -2.5476
16472SOL     OW52435   7.054   3.116   9.230  0.7864  0.0929  0.6894
16472SOL    HW152436   7.046   3.209   9.209  0.1810  0.3146  1.8562
16472SOL    HW252437   6.964   3.085   9.237  0.9830 -0.9478 -1.1994
16473SOL     OW52438   5.662   0.131   2.364 -0.0425 -0.4810  0.2661
16473SOL    HW152439   5.757   0.127   2.360 -0.0361 -0.5633  0.4735
16473SOL    HW252440   5.644   0.188   2.439 -0.1497  0.2242 -0.2941
16474SOL     OW52441   8.709   5.822   1.102 -0.1863 -0.0869  0.3572
16474SOL    HW152442   8.697   5.771   1.022 -0.1786 -1.3997  1.1810
16474SOL    HW252443   8.733   5.910   1.071  0.9227 -0.8632 -1.0538
16475SOL     OW52444   1.033   0.193   0.021  0.0367  0.6164 -0.1500
16475SOL    HW152445   0.947   0.194  -0.020 -0.3069  0.6378  0.5717
16475SOL    HW252446   1.094   0.182  -0.052 -0.6456 -0.6912 -0.5449
16476SOL     OW52447   4.629   5.377   7.459 -0.4664  0.5377 -0.0815
16476SOL    HW152448   4.659   5.452   7.407 -0.0566  0.3114 -0.1705
16476SOL    HW252449   4.692   5.371   7.531  0.6954 -0.9779 -1.1938
16477SOL     OW52450   6.240   8.460   4.623 -0.0022 -0.0472 -0.0740
16477SOL    HW152451   6.270   8.466   4.532 -0.9152 -2.5914 -0.5769
16477SOL    HW252452   6.305   8.406   4.667 -0.4802 -0.2689  0.3722
16478SOL     OW52453   2.878   8.789   2.369 -0.2432 -0.4196  0.5746
16478SOL    HW152454   2.899   8.780   2.462  2.5337 -0.2411  0.0157
16478SOL    HW252455   2.827   8.711   2.348  0.2255 -1.1187  1.9570
16479SOL     OW52456   6.561   1.522   4.590  0.9742  0.1281 -0.2736
16479SOL    HW152457   6.482   1.515   4.537 -0.6901  1.0155  1.9660
16479SOL    HW252458   6.582   1.432   4.614 -0.9455  0.0506  1.2684
16480SOL     OW52459   7.137   3.573   8.975  0.0109 -0.0152 -0.5663
16480SOL    HW152460   7.149   3.529   9.059  1.6994  0.3158 -0.6125
16480SOL    HW252461   7.129   3.502   8.912  0.0305 -0.2616 -0.2930
16481SOL     OW52462   9.234   7.040   1.383 -0.2220  0.0705  0.0211
16481SOL    HW152463   9.165   6.982   1.415  0.1258  0.7971  2.1386
16481SOL    HW252464   9.296   7.046   1.456  2.0081 -0.4225 -1.7592
16482SOL     OW52465   3.816   1.039   6.087 -0.1982 -0.3497 -0.2076
16482SOL    HW152466   3.770   1.039   6.172  0.3877  0.8757  0.1159
16482SOL    HW252467   3.829   0.946   6.067 -0.5440 -0.6543  0.9342
16483SOL     OW52468   0.227   2.969   3.057  0.4227 -0.0625 -0.1020
16483SOL    HW152469   0.192   3.058   3.058 -1.2320 -0.7072  1.2344
16483SOL    HW252470   0.261   2.958   2.968  1.2675  2.1154 -0.0783
16484SOL     OW52471   1.844   8.159   8.930  0.2484 -0.2124 -0.4570
16484SOL    HW152472   1.816   8.068   8.921 -0.5598  0.0585 -0.7272
16484SOL    HW252473   1.940   8.155   8.931  0.2081 -1.3386  2.5113
16485SOL     OW52474   3.753   8.068   8.460 -0.0890 -0.3771 -0.0975
16485SOL    HW152475   3.824   8.113   8.508  1.3007 -2.9564  0.3393
16485SOL    HW252476   3.707   8.019   8.528 -1.1493 -0.1977 -0.6887
16486SOL     OW52477   6.792   5.003   6.871  0.4038 -0.5297  0.1889
16486SOL    HW152478   6.819   5.001   6.779  1.9054 -1.8096  0.6387
16486SOL    HW252479   6.769   4.912   6.891  1.6050 -0.5596  1.5054
16487SOL     OW52480   3.860   1.613   3.276 -0.1994 -0.2862  0.4239
16487SOL    HW152481   3.848   1.556   3.200  0.3095 -1.9147  1.5147
16487SOL    HW252482   3.945   1.654   3.263 -0.6948  0.4500 -0.5175
16488SOL     OW52483   3.751   3.403   3.308  0.2302 -0.0839  0.4260
16488SOL    HW152484   3.746   3.450   3.225  1.4388 -0.4210  0.1475
16488SOL    HW252485   3.780   3.468   3.371  1.0068 -0.2163  0.2220
16489SOL     OW52486   7.679   3.537   0.276  0.0759 -0.0764  0.3538
16489SOL    HW152487   7.665   3.632   0.271  0.4297 -0.0752 -0.8911
16489SOL    HW252488   7.740   3.519   0.205 -0.8033 -1.3956 -0.0768
16490SOL     OW52489   4.607   2.009   6.135 -0.2445  0.3306  0.3153
16490SOL    HW152490   4.674   1.990   6.202  2.2421  1.0822 -1.8629
16490SOL    HW252491   4.623   1.944   6.067 -1.4185  0.8541 -0.4684
16491SOL     OW52492   6.477   2.473   7.989  0.5463 -0.1796  0.1836
16491SOL    HW152493   6.434   2.546   8.033  0.5819 -0.7500  1.1886
16491SOL    HW252494   6.569   2.499   7.984  0.3222  0.4368 -0.7026
16492SOL     OW52495   2.088   7.526   2.743  0.2990  0.2935  0.0447
16492SOL    HW152496   2.097   7.431   2.732 -0.0441  0.3315 -0.5736
16492SOL    HW252497   2.030   7.553   2.672 -0.9016  0.7352  1.1942
16493SOL     OW52498   2.411   8.114   7.515  0.0975  0.3247 -0.7380
16493SOL    HW152499   2.385   8.171   7.442  1.8431  1.0152 -0.8400
16493SOL    HW252500   2.441   8.033   7.472 -2.9805 -0.9883 -0.5690
16494SOL     OW52501   1.181   3.970   8.671 -0.1276 -0.1175 -0.1367
16494SOL    HW152502   1.106   4.007   8.717 -0.4910  0.1595 -0.9410
16494SOL    HW252503   1.248   3.958   8.739 -0.9217 -0.4430  0.6009
16495SOL     OW52504   4.070   8.053   5.590  0.4637 -0.1233  0.3276
16495SOL    HW152505   4.071   8.116   5.662 -1.0577  0.7509 -0.3908
16495SOL    HW252506   3.982   8.060   5.554  1.3940 -0.1296 -2.0059
16496SOL     OW52507   0.280   1.569   5.792  0.4303  0.7871  0.5849
16496SOL    HW152508   0.211   1.629   5.767 -1.3900 -0.9689  1.2667
16496SOL    HW252509   0.236   1.500   5.842  1.8071 -3.0910 -3.2723
16497SOL     OW52510   0.752   6.486   2.422 -0.1752  0.0345 -0.5122
16497SOL    HW152511   0.827   6.430   2.441  0.4648  0.1639 -2.5524
16497SOL    HW252512   0.784   6.575   2.435 -0.4968  0.0310  0.3462
16498SOL     OW52513   1.140   5.000   6.073  0.4883 -0.7925 -0.3352
16498SOL    HW152514   1.213   5.040   6.025 -0.2771 -1.1892 -1.8598
16498SOL    HW252515   1.074   5.069   6.078  0.2162 -1.0229 -0.6551
16499SOL     OW52516   0.517   0.645   0.805  0.1707  0.2078  0.0532
16499SOL    HW152517   0.601   0.688   0.788  0.0651 -0.2933 -1.8713
16499SOL    HW252518   0.535   0.581   0.874  0.9583  1.3407  0.9114
16500SOL     OW52519   8.277   5.446   1.507  0.6854  0.7385 -0.2987
16500SOL    HW152520   8.286   5.500   1.585  1.9755  0.9319 -0.5790
16500SOL    HW252521   8.186   5.416   1.510  0.5395  1.2568  0.9336
16501SOL     OW52522   5.892   1.286   7.179 -0.0747  0.3088  0.1886
16501SOL    HW152523   5.846   1.317   7.101 -1.7055 -1.6099  0.3327
16501SOL    HW252524   5.935   1.205   7.151 -1.5094 -0.9467  1.4931
16502SOL     OW52525   2.860   8.999   7.082 -0.1259  0.0809 -0.6703
16502SOL    HW152526   2.920   9.059   7.126 -0.4513  0.3073 -0.5266
16502SOL    HW252527   2.879   8.913   7.120 -1.0903  0.4271  0.6707
16503SOL     OW52528   4.366   5.270   1.234  0.1269  0.3261 -0.1661
16503SOL    HW152529   4.388   5.209   1.163  1.0707  0.2119  0.2176
16503SOL    HW252530   4.273   5.288   1.221  0.2152  0.0696 -1.2503
16504SOL     OW52531   7.935   9.346   1.108  0.3005  0.1673  0.0820
16504SOL    HW152532   7.924   9.351   1.203  0.1519  0.5678  0.0460
16504SOL    HW252533   8.029   9.354   1.094  0.3604 -0.2896  0.2184
16505SOL     OW52534   9.220   0.303   0.949  0.6576 -0.0084 -0.3402
16505SOL    HW152535   9.296   0.246   0.963 -0.0394 -1.4503 -2.2317
16505SOL    HW252536   9.255   0.392   0.957  2.8514 -0.6028 -2.5267
16506SOL     OW52537   8.243   8.752   2.629  0.1221 -0.3996  0.2884
16506SOL    HW152538   8.257   8.721   2.540  0.0572 -0.4060  0.2811
16506SOL    HW252539   8.310   8.708   2.682  2.2977  2.1002 -0.3028
16507SOL     OW52540   7.280   9.347   8.441  0.1257  0.2140 -0.2115
16507SOL    HW152541   7.219   9.384   8.378  0.6700  1.2323 -0.1508
16507SOL    HW252542   7.367   9.364   8.404  0.4941  1.7142  1.2482
16508SOL     OW52543   7.791   1.046   0.014  0.3811 -0.5584  0.6022
16508SOL    HW152544   7.884   1.024   0.018  0.8606  1.2316 -0.2101
16508SOL    HW252545   7.778   1.079  -0.075 -0.5641  1.1524  1.3591
16509SOL     OW52546   7.700   6.854   5.142  1.1828 -0.0724 -0.0981
16509SOL    HW152547   7.754   6.927   5.175 -0.9799  2.1216 -1.2613
16509SOL    HW252548   7.620   6.858   5.194  0.3106 -0.4885 -1.3885
16510SOL     OW52549   1.573   3.314   2.292 -0.3230  0.4037 -0.1099
16510SOL    HW152550   1.591   3.387   2.232  2.8219 -0.3341 -0.1513
16510SOL    HW252551   1.542   3.243   2.235  4.6900 -1.0214 -1.3572
16511SOL     OW52552   4.803   2.153   3.235  0.1325 -0.1515  0.0844
16511SOL    HW152553   4.786   2.247   3.234 -1.8766 -0.4808  0.6649
16511SOL    HW252554   4.804   2.130   3.328  0.3865 -0.7452 -0.0634
16512SOL     OW52555   5.125   5.523   5.038 -0.1545 -0.2221 -0.0810
16512SOL    HW152556   5.139   5.568   4.955  0.3133  1.3994  0.8415
16512SOL    HW252557   5.202   5.467   5.048 -0.0358 -0.1473 -0.5837
16513SOL     OW52558   5.977   8.595   4.229  0.0751 -0.0800 -0.0490
16513SOL    HW152559   5.924   8.624   4.155 -0.0881 -0.2401  0.0041
16513SOL    HW252560   5.927   8.620   4.306  1.4146  2.3496  0.0777
16514SOL     OW52561   3.415   6.098   7.287 -0.2700 -0.1221  0.1570
16514SOL    HW152562   3.505   6.070   7.300  0.0073 -0.2045 -1.8864
16514SOL    HW252563   3.411   6.186   7.325  0.9040  0.2426 -0.5511
16515SOL     OW52564   3.994   5.408   4.781 -0.4845  0.4132  0.0685
16515SOL    HW152565   4.069   5.395   4.724 -1.3514 -2.9168 -0.4439
16515SOL    HW252566   4.031   5.429   4.866  0.9928  0.3340 -0.5527
16516SOL     OW52567   1.221   0.432   7.242  0.1059  0.0899 -0.0135
16516SOL    HW152568   1.184   0.364   7.298 -1.4967  0.8204 -0.1413
16516SOL    HW252569   1.148   0.460   7.187  1.5396 -0.3180 -2.1964
16517SOL     OW52570   4.211   2.390   8.907  0.1974 -0.0998 -0.5783
16517SOL    HW152571   4.267   2.396   8.984 -1.8385 -0.0242  0.9268
16517SOL    HW252572   4.161   2.471   8.907 -0.7487 -0.6738 -1.2374
16518SOL     OW52573   0.627   5.175   5.451 -0.3102  0.3818 -0.4257
16518SOL    HW152574   0.692   5.106   5.434 -1.7641 -1.3205  0.7408
16518SOL    HW252575   0.571   5.175   5.373 -1.5265 -1.1806  0.4261
16519SOL     OW52576   7.653   7.101   3.750 -0.0278 -0.4504 -0.1139
16519SOL    HW152577   7.625   7.014   3.778  0.7832 -0.5174  0.5128
16519SOL    HW252578   7.606   7.117   3.668 -0.2495 -1.4388 -0.1783
16520SOL     OW52579   1.847   9.332   5.082 -0.0956 -0.1635  0.2833
16520SOL    HW152580   1.826   9.410   5.133  0.8224  0.6371 -0.5482
16520SOL    HW252581   1.927   9.298   5.123 -0.3236 -0.5027  0.4517
16521SOL     OW52582   8.830   4.143   2.534  0.5739  0.2763 -0.1758
16521SOL    HW152583   8.823   4.232   2.569 -1.1396  0.0297  0.1470
16521SOL    HW252584   8.844   4.089   2.611 -1.0597 -0.0213 -0.0644
16522SOL     OW52585   8.109   1.803   0.412  0.1767  0.6725  0.1997
16522SOL    HW152586   8.048   1.760   0.472  1.2413 -1.4492 -0.1817
16522SOL    HW252587   8.069   1.888   0.393 -2.1054 -0.2396  0.8094
16523SOL     OW52588   2.128   2.629   5.905 -0.2095 -0.3494 -0.1981
16523SOL    HW152589   2.064   2.672   5.962  0.4618  0.2605  0.0990
16523SOL    HW252590   2.076   2.565   5.856 -0.8316 -0.7440  0.9426
16524SOL     OW52591   2.573   0.017   2.688 -0.1474  0.5770 -0.2692
16524SOL    HW152592   2.571   0.112   2.678  0.5361  0.5995 -0.2258
16524SOL    HW252593   2.602  -0.015   2.603 -0.2060  0.4181 -0.2292
16525SOL     OW52594   1.748   8.167   1.570  0.2944  0.1210 -0.3583
16525SOL    HW152595   1.687   8.096   1.587 -0.4190  1.3644  2.4622
16525SOL    HW252596   1.832   8.136   1.604 -0.2499  1.0268  1.8406
16526SOL     OW52597   7.972   6.206   8.537  0.0205 -0.1668 -0.3092
16526SOL    HW152598   8.019   6.190   8.455  2.2851  0.2707  0.8627
16526SOL    HW252599   7.982   6.300   8.552 -0.1775 -0.2867  0.5834
16527SOL     OW52600   6.949   2.857   7.698  0.2654 -0.3353  0.2536
16527SOL    HW152601   6.866   2.859   7.650  0.7798 -0.3235 -0.6376
16527SOL    HW252602   6.952   2.769   7.736 -0.9373  0.2145  1.6955
16528SOL     OW52603   2.459   5.207   7.069 -0.3224 -0.1465  0.0552
16528SOL    HW152604   2.373   5.246   7.078 -1.1217 -1.6576 -0.7969
16528SOL    HW252605   2.464   5.142   7.138 -0.1009 -0.4819 -0.2709
16529SOL     OW52606   4.543   3.204   3.093 -0.4398  0.2747  0.0958
16529SOL    HW152607   4.638   3.211   3.104 -0.5751  1.3487  0.6839
16529SOL    HW252608   4.526   3.110   3.085  0.5059 -0.0234  1.5017
16530SOL     OW52609   6.759   4.207   3.753 -0.1376  0.3499 -0.8054
16530SOL    HW152610   6.771   4.284   3.809  2.1137 -0.4639 -0.1326
16530SOL    HW252611   6.837   4.154   3.769 -0.7846 -1.1813 -2.6813
16531SOL     OW52612   2.580   1.119   6.032  0.4322 -0.5729 -0.6692
16531SOL    HW152613   2.554   1.028   6.044  0.2885 -0.4354  0.0930
16531SOL    HW252614   2.498   1.166   6.018  0.2985 -0.2261  1.1616
16532SOL     OW52615   8.804   7.810   5.955 -0.0527 -0.1104 -0.3447
16532SOL    HW152616   8.871   7.861   5.909  0.8315  0.9383  2.0268
16532SOL    HW252617   8.842   7.793   6.041 -2.2852 -0.7206  0.5406
16533SOL     OW52618   6.954   4.628   3.580 -0.4780 -0.4294 -0.6938
16533SOL    HW152619   7.024   4.654   3.521 -0.6615  0.1351 -0.6729
16533SOL    HW252620   6.992   4.561   3.637  0.2035  0.2889 -0.3084
16534SOL     OW52621   3.059   8.904   4.504 -0.3279  0.2021 -0.2628
16534SOL    HW152622   3.110   8.876   4.428  1.7113 -1.7872  1.7703
16534SOL    HW252623   2.989   8.958   4.467 -0.5139 -2.2551 -3.7317
16535SOL     OW52624   1.877   2.173   4.879 -0.0855  0.0307  0.4679
16535SOL    HW152625   1.822   2.206   4.950  0.0885 -0.2162  0.7205
16535SOL    HW252626   1.861   2.233   4.806  0.8557  1.1613  1.1842
16536SOL     OW52627   5.802   4.973   3.428 -0.0933 -0.0755  0.1802
16536SOL    HW152628   5.749   4.895   3.442 -0.5150 -0.3404 -2.5267
16536SOL    HW252629   5.753   5.044   3.469 -0.4593 -0.9741  1.3201
16537SOL     OW52630   2.123   8.427   7.975  0.0937 -0.3376 -0.4887
16537SOL    HW152631   2.148   8.440   8.066  2.3032  0.7156 -1.2268
16537SOL    HW252632   2.032   8.395   7.979  0.1023 -0.0843  2.0422
16538SOL     OW52633   5.405   1.712   5.086 -0.5160  0.2483  0.2813
16538SOL    HW152634   5.452   1.788   5.120 -0.2213  1.5378 -2.7908
16538SOL    HW252635   5.457   1.683   5.011 -0.7657 -2.8758  1.2212
16539SOL     OW52636   2.628   8.388   7.306 -0.7617 -0.4515 -0.0934
16539SOL    HW152637   2.657   8.320   7.366 -0.1768  0.0274  0.1662
16539SOL    HW252638   2.680   8.465   7.329 -1.5337  0.1358 -0.2767
16540SOL     OW52639   6.615   3.170   4.873 -0.1543  0.4587 -0.2078
16540SOL    HW152640   6.699   3.128   4.854 -0.5671 -1.0392  1.2181
16540SOL    HW252641   6.584   3.200   4.787  1.7559  0.9046 -0.7627
16541SOL     OW52642   1.816   4.572   3.410  0.0621  0.6532  0.4954
16541SOL    HW152643   1.897   4.595   3.456  0.5197  0.7480 -0.3584
16541SOL    HW252644   1.759   4.538   3.479  0.4259  1.6180  1.2842
16542SOL     OW52645   3.685   6.054   4.428  0.4475 -0.2243 -0.3962
16542SOL    HW152646   3.608   6.101   4.460  0.1875  0.2205 -1.6601
16542SOL    HW252647   3.662   6.027   4.339  1.3947 -0.9031 -0.4466
16543SOL     OW52648   7.849   1.035   1.050  0.0488 -0.1548 -0.1564
16543SOL    HW152649   7.783   0.976   1.015 -0.4092 -0.6180  1.4804
16543SOL    HW252650   7.911   0.979   1.095  1.0968  0.3660 -0.9187
16544SOL     OW52651   8.595   4.037   2.439  0.2523 -0.9393  0.0856
16544SOL    HW152652   8.672   4.082   2.473  1.2056 -3.4066  1.2639
16544SOL    HW252653   8.527   4.052   2.505  0.2556 -0.3576 -0.0395
16545SOL     OW52654   7.740   0.856   9.054  0.7692  0.3218  0.3695
16545SOL    HW152655   7.669   0.820   9.107  1.3672 -2.7317 -0.7580
16545SOL    HW252656   7.811   0.870   9.116  0.4788 -0.4024  0.8779
16546SOL     OW52657   4.020   6.909   2.939  0.1860 -0.8745 -0.2368
16546SOL    HW152658   4.040   6.984   2.996 -2.1245 -0.3474 -0.0914
16546SOL    HW252659   4.019   6.833   2.998  0.0200 -0.6499  0.0520
16547SOL     OW52660   7.880   1.473   7.463 -0.0635  0.4696  0.3142
16547SOL    HW152661   7.957   1.435   7.421  0.9259  2.8999 -0.1034
16547SOL    HW252662   7.906   1.484   7.555 -0.2555  0.4217  0.3745
16548SOL     OW52663   3.747   4.216   1.852 -0.1078 -0.9237 -0.3854
16548SOL    HW152664   3.681   4.147   1.856 -0.0597 -0.9783 -0.5438
16548SOL    HW252665   3.830   4.172   1.872 -0.2889 -0.6176  1.0885
16549SOL     OW52666   4.245   0.533   2.884 -0.1101  0.6278 -0.1600
16549SOL    HW152667   4.289   0.583   2.953  0.7871  0.4230 -0.5663
16549SOL    HW252668   4.258   0.585   2.805 -1.8813  1.2838 -0.0253
16550SOL     OW52669   6.629   4.152   0.228 -0.4818 -0.2950  0.0223
16550SOL    HW152670   6.694   4.177   0.163 -1.5751 -2.1494 -1.8397
16550SOL    HW252671   6.668   4.077   0.273 -1.3551 -1.5206 -1.2155
16551SOL     OW52672   6.107   4.466   3.412  0.8622  0.3323  0.4582
16551SOL    HW152673   6.112   4.542   3.470  0.4472 -0.4596  1.5501
16551SOL    HW252674   6.023   4.425   3.433 -0.4328  1.3972 -2.4426
16552SOL     OW52675   9.411   0.664   6.881  0.1906 -0.1481  0.4712
16552SOL    HW152676   9.432   0.746   6.837 -0.0475 -0.4996 -0.3103
16552SOL    HW252677   9.315   0.659   6.876  0.3010 -1.2499 -0.9178
16553SOL     OW52678   6.965   1.020   7.944 -0.1665  0.4669 -0.2690
16553SOL    HW152679   6.896   0.997   8.007 -0.2944 -1.1024 -0.9562
16553SOL    HW252680   6.921   1.018   7.859  0.1627  1.9013 -0.4841
16554SOL     OW52681   1.063   5.263   7.932  0.3252  0.6234 -0.0737
16554SOL    HW152682   1.100   5.196   7.874  1.2233  0.5689  0.5554
16554SOL    HW252683   1.038   5.215   8.011 -0.2476  0.8115 -0.1432
16555SOL     OW52684   2.583   8.086   0.654  0.2699  0.0852  0.5221
16555SOL    HW152685   2.634   8.149   0.603 -0.9648  0.6855 -0.0105
16555SOL    HW252686   2.493   8.120   0.650  0.0247 -0.2373  2.5040
16556SOL     OW52687   7.402   9.211   3.421  0.4309 -0.8743  0.4153
16556SOL    HW152688   7.330   9.149   3.407 -0.4894  0.0291  0.9973
16556SOL    HW252689   7.440   9.224   3.334 -2.5526  1.4943 -0.6569
16557SOL     OW52690   3.968   8.246   2.396 -0.0246  0.0397 -0.0486
16557SOL    HW152691   3.978   8.233   2.490  1.0427  1.9749  0.1396
16557SOL    HW252692   4.027   8.181   2.357  0.6438  0.1941  0.6784
16558SOL     OW52693   2.832   4.840   6.138 -0.0460 -0.4127  0.1894
16558SOL    HW152694   2.819   4.879   6.052  0.0819 -0.9583 -0.0827
16558SOL    HW252695   2.914   4.791   6.130  1.2789  1.5274  1.3537
16559SOL     OW52696   6.191   5.206   2.680  0.1703  0.3642 -0.0756
16559SOL    HW152697   6.176   5.114   2.699 -0.9640  0.3641 -0.9189
16559SOL    HW252698   6.217   5.244   2.764 -0.3015 -0.5293  0.4802
16560SOL     OW52699   9.077   7.373   8.289 -0.2272  0.3587 -0.5904
16560SOL    HW152700   9.020   7.430   8.340 -1.0151 -0.1363 -0.9225
16560SOL    HW252701   9.061   7.397   8.198  0.8404  0.9203 -0.6443
16561SOL     OW52702   0.305   2.379   7.279  0.3136  0.3469 -0.3594
16561SOL    HW152703   0.253   2.437   7.223  0.7835  1.0575 -0.0620
16561SOL    HW252704   0.370   2.342   7.220  0.1221  0.2467 -0.5119
16562SOL     OW52705   6.286   7.787   6.754 -0.5468 -0.4518  0.4566
16562SOL    HW152706   6.335   7.730   6.695  1.0972  0.7455  0.6356
16562SOL    HW252707   6.235   7.844   6.696 -0.2250 -0.4024  0.2242
16563SOL     OW52708   8.338   7.073   3.495 -0.2060 -0.2514  0.6762
16563SOL    HW152709   8.259   7.069   3.548 -3.0000  1.6970 -3.0819
16563SOL    HW252710   8.357   7.166   3.485 -0.1981 -0.4956 -2.2208
16564SOL     OW52711   7.523   3.716   0.825 -0.7961 -0.2275 -0.0137
16564SOL    HW152712   7.513   3.725   0.920 -1.3529 -0.2924 -0.0624
16564SOL    HW252713   7.436   3.734   0.790 -0.1961  1.5677 -0.6506
16565SOL     OW52714   9.394   1.063   1.522  0.0531  0.2738 -0.0788
16565SOL    HW152715   9.360   1.146   1.555 -1.0764 -0.0813 -0.3088
16565SOL    HW252716   9.392   1.004   1.598 -0.7411 -0.0113 -0.3196
16566SOL     OW52717   6.070   0.110   4.823  0.4609 -0.2240 -0.2083
16566SOL    HW152718   6.081   0.160   4.904  0.8738  1.0479 -1.0498
16566SOL    HW252719   6.126   0.034   4.834  0.9998  0.2668  0.4383
16567SOL     OW52720   4.443   6.768   5.545 -0.4726  0.0912  0.0901
16567SOL    HW152721   4.534   6.763   5.513 -0.5226 -3.1394  0.2283
16567SOL    HW252722   4.451   6.797   5.636  0.4065  0.2950 -0.0465
16568SOL     OW52723   8.655   4.000   0.943  0.2624 -0.9579 -0.3636
16568SOL    HW152724   8.743   4.027   0.970 -0.9614  0.9656  1.9096
16568SOL    HW252725   8.670   3.931   0.878  3.4422 -0.2321 -0.4977
16569SOL     OW52726   3.865   8.541   8.735  0.5512 -0.1642 -0.4143
16569SOL    HW152727   3.811   8.519   8.659  0.4149  0.7918 -0.5921
16569SOL    HW252728   3.950   8.502   8.716  0.2309 -0.7890 -0.5966
16570SOL     OW52729   8.049   6.031   5.376 -0.4786 -0.7957 -0.0167
16570SOL    HW152730   7.996   6.011   5.298  0.5689 -0.7805 -0.7366
16570SOL    HW252731   8.091   5.948   5.398 -0.3198 -0.6604  0.1849
16571SOL     OW52732   3.744   0.153   3.485  0.0496 -0.3357 -0.1125
16571SOL    HW152733   3.726   0.227   3.428  0.9502 -0.2026 -0.2169
16571SOL    HW252734   3.806   0.099   3.437 -0.9563 -1.4157 -0.2451
16572SOL     OW52735   2.178   8.068   0.231 -0.4657  0.1905 -0.2113
16572SOL    HW152736   2.097   8.044   0.186  1.5429 -1.4751 -3.1041
16572SOL    HW252737   2.154   8.072   0.323 -3.5138 -1.6785 -0.8466
16573SOL     OW52738   3.988   7.576   1.588 -0.5912 -0.0056 -0.1119
16573SOL    HW152739   4.070   7.569   1.638 -0.3064  1.1544 -0.3926
16573SOL    HW252740   3.934   7.503   1.619 -0.6110  0.9862  2.2238
16574SOL     OW52741   6.997   5.819   4.360 -0.3390 -0.1000  0.0080
16574SOL    HW152742   6.903   5.822   4.375 -0.3092 -0.0398  0.1783
16574SOL    HW252743   7.019   5.726   4.365 -0.6956 -0.2991 -1.8856
16575SOL     OW52744   5.715   5.658   6.454  0.1479 -0.0170  0.0443
16575SOL    HW152745   5.718   5.593   6.384  3.0855  0.7192 -0.5615
16575SOL    HW252746   5.717   5.606   6.535 -0.5557 -0.7581 -0.4032
16576SOL     OW52747   5.860   0.581   3.203  0.3162  0.5505  0.0567
16576SOL    HW152748   5.942   0.532   3.199  0.3772  0.5858  0.7581
16576SOL    HW252749   5.873   0.654   3.143  0.7203  0.4347  0.0011
16577SOL     OW52750   0.896   6.940   2.856 -0.6589 -0.2678  0.2266
16577SOL    HW152751   0.849   6.865   2.819  1.2644 -1.1660 -0.4784
16577SOL    HW252752   0.909   6.999   2.782  0.7156 -0.7687  0.0498
16578SOL     OW52753   2.528   4.036   0.126 -0.2084 -0.1129  0.0108
16578SOL    HW152754   2.589   3.963   0.136  1.4165  1.3598  1.1003
16578SOL    HW252755   2.533   4.058   0.033  0.2612 -0.5538 -0.0743
16579SOL     OW52756   4.057   4.383   7.181  0.1186 -0.0365 -0.0404
16579SOL    HW152757   4.093   4.331   7.252  1.7140 -0.1910 -0.9280
16579SOL    HW252758   4.039   4.320   7.111 -0.1020  0.3045 -0.2946
16580SOL     OW52759   2.132   8.169   2.534  0.2945 -0.0231 -0.3878
16580SOL    HW152760   2.108   8.226   2.460  0.3630  0.0421 -0.3612
16580SOL    HW252761   2.226   8.184   2.545  0.2361  0.1565 -0.1270
16581SOL     OW52762   7.006   8.793   3.007  0.2420 -0.2681 -0.0683
16581SOL    HW152763   7.084   8.739   3.014  0.9979  0.9904  1.3588
16581SOL    HW252764   6.997   8.835   3.093 -1.1509  0.7381 -0.6798
16582SOL     OW52765   8.599   2.277   2.869  0.0551 -0.4233  0.3282
16582SOL    HW152766   8.541   2.299   2.942  2.2098 -0.1797  2.0214
16582SOL    HW252767   8.666   2.220   2.908  1.9418  0.7280 -1.1412
16583SOL     OW52768   1.598   6.678   2.661  0.2554  0.0201  0.5856
16583SOL    HW152769   1.643   6.665   2.577 -1.1258 -1.7669  0.0797
16583SOL    HW252770   1.662   6.651   2.726  0.7650 -0.2013  0.0026
16584SOL     OW52771   8.779   2.090   2.990 -0.0076 -0.2867 -0.0699
16584SOL    HW152772   8.747   2.116   3.077  1.1851 -3.5525  1.4184
16584SOL    HW252773   8.874   2.085   3.000  0.0818 -1.3846 -1.3480
16585SOL     OW52774   0.672   1.838   8.099 -0.2842 -0.2136  0.1352
16585SOL    HW152775   0.735   1.781   8.143  3.7480  2.1593 -2.2415
16585SOL    HW252776   0.635   1.784   8.029  0.6254 -1.0672  0.3103
16586SOL     OW52777   2.411   2.535   1.017 -0.3946  0.2531 -0.1529
16586SOL    HW152778   2.364   2.618   1.022 -1.0925 -0.1688  0.3587
16586SOL    HW252779   2.347   2.474   0.982 -0.3972 -0.4583  1.0909
16587SOL     OW52780   1.874   8.624   3.543 -0.5399 -0.4678 -0.0397
16587SOL    HW152781   1.802   8.681   3.571 -0.1307  0.1923 -0.3117
16587SOL    HW252782   1.831   8.551   3.499 -1.0915 -0.5562  0.6379
16588SOL     OW52783   9.338   4.017   1.784 -0.1077 -0.4417 -0.9339
16588SOL    HW152784   9.318   4.038   1.875 -0.2092  2.1196 -1.4962
16588SOL    HW252785   9.253   4.000   1.744 -0.1604 -0.4730 -0.8048
16589SOL     OW52786   7.302   7.833   1.958 -0.0934  0.2173 -0.3877
16589SOL    HW152787   7.347   7.794   2.033 -1.7501  0.8436  0.9690
16589SOL    HW252788   7.372   7.851   1.894  1.2977 -0.5885  0.8826
16590SOL     OW52789   9.065   4.106   6.755 -0.3149 -0.1890 -0.0243
16590SOL    HW152790   9.101   4.136   6.672 -1.1823  0.9493 -0.0004
16590SOL    HW252791   9.141   4.096   6.812  0.0219  1.6412 -0.1375
16591SOL     OW52792   9.197   7.622   7.666  0.1243  0.3967  0.2191
16591SOL    HW152793   9.164   7.691   7.609 -1.0032  1.0200  1.5944
16591SOL    HW252794   9.128   7.556   7.666 -0.2619  0.7850  1.5106
16592SOL     OW52795   1.738   0.053   9.059 -0.4346 -0.0105 -0.2713
16592SOL    HW152796   1.726   0.132   9.006 -0.7413 -0.9351 -1.5899
16592SOL    HW252797   1.764  -0.015   8.997 -0.3767 -1.0091  0.8167
16593SOL     OW52798   5.039   4.257   1.367  0.2172  0.3509  0.3540
16593SOL    HW152799   5.100   4.274   1.439  2.2142 -0.6942 -1.0433
16593SOL    HW252800   5.089   4.203   1.305 -2.0947 -0.4386 -0.8916
16594SOL     OW52801   9.230   2.244   2.879 -0.0629  0.1017 -0.2968
16594SOL    HW152802   9.322   2.225   2.894  0.0506  1.1797  0.5122
16594SOL    HW252803   9.186   2.160   2.886  0.9102 -0.4866 -1.1439
16595SOL     OW52804   7.716   2.226   8.640 -0.2775 -0.1892  0.1562
16595SOL    HW152805   7.706   2.180   8.557 -2.3759 -2.7573  1.7626
16595SOL    HW252806   7.642   2.286   8.645 -1.0239 -1.1628  0.8616
16596SOL     OW52807   4.758   6.204   5.696  0.4651  0.3397  0.2396
16596SOL    HW152808   4.686   6.175   5.752  0.1100  1.2579  0.2666
16596SOL    HW252809   4.795   6.123   5.660 -2.0503 -0.0275 -1.6112
16597SOL     OW52810   0.030   2.987   5.775 -0.3462 -0.0202  0.1015
16597SOL    HW152811  -0.018   2.910   5.746  0.8816 -0.5342 -0.6155
16597SOL    HW252812   0.054   3.033   5.694  1.1331 -0.2538  0.3878
16598SOL     OW52813   2.752   0.385   0.948  0.2287 -0.7470 -0.3334
16598SOL    HW152814   2.683   0.432   0.902  0.1912 -0.6046 -0.1282
16598SOL    HW252815   2.813   0.453   0.976  0.5046 -0.8824 -0.6076
16599SOL     OW52816   3.199   9.050   2.190  0.3434  0.9947  0.0826
16599SOL    HW152817   3.129   8.985   2.187  1.6318 -0.3656 -1.0637
16599SOL    HW252818   3.192   9.087   2.278 -1.5322  0.5770  0.1430
16600SOL     OW52819   9.042   8.922   2.711 -0.7237 -0.0263 -0.2356
16600SOL    HW152820   9.085   8.984   2.769 -0.5590  0.0394 -0.4315
16600SOL    HW252821   9.101   8.847   2.708  0.2436  0.7593 -1.8959
16601SOL     OW52822   3.464   3.177   0.046  0.0950 -0.2117 -0.7353
16601SOL    HW152823   3.513   3.132   0.115 -0.2362  1.0329  0.3055
16601SOL    HW252824   3.496   3.137  -0.035  0.1273 -2.0313  0.1439
16602SOL     OW52825   5.539   5.161   5.701  0.0878 -0.0548  0.4026
16602SOL    HW152826   5.479   5.123   5.764 -0.1507 -0.0203  0.1985
16602SOL    HW252827   5.618   5.107   5.707 -0.6330 -1.2481 -0.6410
16603SOL     OW52828   2.735   3.510   0.188 -0.5916 -0.7094 -0.1560
16603SOL    HW152829   2.790   3.532   0.113 -0.8900 -0.6888 -0.3725
16603SOL    HW252830   2.770   3.428   0.221 -1.3707 -1.4884 -1.2191
16604SOL     OW52831   3.793   1.379   2.359 -0.7444 -0.0411 -0.1222
16604SOL    HW152832   3.701   1.405   2.363 -1.0017 -1.2046  2.1372
16604SOL    HW252833   3.790   1.284   2.352  0.2891 -0.0206 -0.8247
16605SOL     OW52834   2.548   7.021   5.544  0.4519 -0.0468  0.0804
16605SOL    HW152835   2.483   7.092   5.549 -0.6088 -1.0454  0.8945
16605SOL    HW252836   2.506   6.948   5.589  2.2039 -0.6898  0.6781
16606SOL     OW52837   0.677   3.966   0.475  0.0776 -0.3740  0.0366
16606SOL    HW152838   0.635   3.926   0.552  1.3390 -1.0056  0.4177
16606SOL    HW252839   0.751   3.908   0.457  1.4404  1.3467  0.0741
16607SOL     OW52840   5.837   7.034   5.123 -0.2683  0.1281 -0.2035
16607SOL    HW152841   5.910   7.061   5.179 -2.3521  2.5115  1.4977
16607SOL    HW252842   5.792   7.115   5.101 -1.9509 -1.2141 -1.8850
16608SOL     OW52843   2.734   6.453   8.560  0.0222 -1.2295  0.5393
16608SOL    HW152844   2.713   6.361   8.573  0.6590 -1.4097  0.3108
16608SOL    HW252845   2.828   6.454   8.542 -0.1085 -0.6061 -0.1321
16609SOL     OW52846   6.950   5.699   1.797 -0.3310  0.6105 -0.3170
16609SOL    HW152847   6.999   5.669   1.720  0.1462 -1.6979  0.8394
16609SOL    HW252848   6.987   5.784   1.818 -0.5294  1.3177 -2.6912
16610SOL     OW52849   6.914   3.462   0.580 -0.2543  0.8982 -0.8130
16610SOL    HW152850   6.933   3.452   0.673 -3.7804 -2.1474 -0.2940
16610SOL    HW252851   6.871   3.547   0.573  3.4005  2.8787 -0.3591
16611SOL     OW52852   2.028   4.092   3.119  0.2117  0.0761  0.4168
16611SOL    HW152853   2.073   4.150   3.056  1.5648 -0.7885  0.5764
16611SOL    HW252854   2.019   4.009   3.072 -1.9368  0.4516  0.1075
16612SOL     OW52855   2.244   9.422   6.112 -0.2112 -0.2316 -0.0527
16612SOL    HW152856   2.164   9.427   6.163 -0.6874  0.7364 -0.8791
16612SOL    HW252857   2.219   9.452   6.024  1.1585  0.5417 -0.2009
16613SOL     OW52858   0.158   8.481   1.775  0.3941  0.0960 -0.7710
16613SOL    HW152859   0.147   8.408   1.835 -0.1306  0.5547 -0.3145
16613SOL    HW252860   0.110   8.455   1.696 -2.0813  1.1027  0.3738
16614SOL     OW52861   8.557   0.784   3.678  0.1443  0.2500 -0.5638
16614SOL    HW152862   8.548   0.690   3.692  0.2086  0.2308 -0.6496
16614SOL    HW252863   8.635   0.808   3.729  0.8920  0.0258 -1.5735
16615SOL     OW52864   0.553   5.921   3.449 -0.0579 -0.0182  0.4840
16615SOL    HW152865   0.576   6.013   3.437 -1.3840  0.2986  0.2601
16615SOL    HW252866   0.466   5.923   3.488 -0.2796 -1.1849  0.0829
16616SOL     OW52867   0.960   6.991   8.753  0.4490  0.4092 -0.3845
16616SOL    HW152868   0.993   6.951   8.673  0.7655 -1.6885  0.7645
16616SOL    HW252869   0.966   6.922   8.819 -2.0088  1.3750  0.9142
16617SOL     OW52870   9.092   2.950   1.683 -0.0821 -0.0793  0.0884
16617SOL    HW152871   9.084   2.862   1.721 -0.7702  0.5441  1.4281
16617SOL    HW252872   9.157   2.940   1.613 -0.7935 -1.8372 -0.3484
16618SOL     OW52873   9.238   6.706   3.256 -0.3943 -0.1880  0.4495
16618SOL    HW152874   9.298   6.631   3.262  0.0832 -0.1957 -3.3522
16618SOL    HW252875   9.180   6.684   3.184 -1.4163  2.3331  0.4744
16619SOL     OW52876   2.734   0.003   5.631 -0.3836  1.0904 -0.2870
16619SOL    HW152877   2.704  -0.029   5.546  0.7570  0.0266 -0.3134
16619SOL    HW252878   2.805   0.064   5.610  1.4870 -0.9281 -0.0646
16620SOL     OW52879   2.184   4.275   8.549 -0.0517  0.1787 -0.4124
16620SOL    HW152880   2.267   4.314   8.574 -0.6346  1.3142 -0.2101
16620SOL    HW252881   2.163   4.314   8.464  0.5515 -1.5531 -1.3770
16621SOL     OW52882   5.995   3.240   6.230 -0.1664 -0.2563  0.3201
16621SOL    HW152883   6.012   3.334   6.238 -1.4425  0.1554 -1.4257
16621SOL    HW252884   5.919   3.225   6.286  0.5617 -0.4041  1.2618
16622SOL     OW52885   4.225   3.702   8.192  0.4021 -0.0041 -0.1124
16622SOL    HW152886   4.276   3.783   8.189  0.8976 -0.2970  0.4469
16622SOL    HW252887   4.207   3.688   8.285 -1.0870  0.3400 -0.3423
16623SOL     OW52888   6.340   0.416   1.518  0.1990  0.2607 -0.1824
16623SOL    HW152889   6.315   0.435   1.608 -0.2197 -0.0588 -0.2327
16623SOL    HW252890   6.293   0.336   1.496 -0.3866  0.8174 -0.9818
16624SOL     OW52891   1.711   3.779   8.830  0.3662 -0.4706 -0.5128
16624SOL    HW152892   1.681   3.844   8.893 -1.2609  0.4845 -2.2265
16624SOL    HW252893   1.789   3.817   8.791  2.2599 -1.7223  1.9536
16625SOL     OW52894   7.760   8.964   5.372 -0.3629 -0.1612  0.0478
16625SOL    HW152895   7.837   8.995   5.326  0.4272 -1.5652  0.3932
16625SOL    HW252896   7.686   9.000   5.323  0.4420  4.4312  1.9235
16626SOL     OW52897   5.614   5.741   1.559  0.0310 -0.3875  0.2552
16626SOL    HW152898   5.645   5.758   1.648 -0.4612  0.3680  0.2867
16626SOL    HW252899   5.520   5.759   1.562 -0.2351 -1.6246 -0.1045
16627SOL     OW52900   2.355   4.450   0.990  0.1975 -0.2461  0.1159
16627SOL    HW152901   2.445   4.420   1.004  0.9787  0.5008 -2.8200
16627SOL    HW252902   2.347   4.527   1.047  1.6629  0.0732 -0.0689
16628SOL     OW52903   4.300   6.399   8.705 -0.2540  0.3469  0.2860
16628SOL    HW152904   4.380   6.450   8.715  0.0403  0.1010 -0.7687
16628SOL    HW252905   4.327   6.309   8.723 -0.3186  0.2804  0.0500
16629SOL     OW52906   7.573   7.633   2.437  0.6082  0.0717 -0.4121
16629SOL    HW152907   7.517   7.599   2.366 -0.7914 -0.2486  0.8082
16629SOL    HW252908   7.581   7.726   2.418 -1.0779  0.2899 -0.1433
16630SOL     OW52909   3.117   5.322   5.266  0.2534 -0.2729  0.3868
16630SOL    HW152910   3.072   5.342   5.184  0.8809  0.4485  0.2062
16630SOL    HW252911   3.124   5.407   5.310 -0.6396 -0.7568  1.4741
16631SOL     OW52912   3.259   0.949   9.133 -0.1299  0.0391 -0.2362
16631SOL    HW152913   3.324   0.890   9.172  0.2303 -0.7546 -1.9594
16631SOL    HW252914   3.297   0.973   9.048 -2.3365 -0.8818 -1.5240
16632SOL     OW52915   0.488   8.912   6.712 -0.4106 -0.3814  0.4786
16632SOL    HW152916   0.522   8.923   6.623  3.1696 -0.8623  1.7423
16632SOL    HW252917   0.491   8.818   6.728 -2.2197 -0.4232  0.7234
16633SOL     OW52918   5.366   2.300   3.548 -0.0324 -0.6137 -0.0746
16633SOL    HW152919   5.429   2.331   3.483 -1.1818  0.0942 -0.8628
16633SOL    HW252920   5.391   2.344   3.629  1.3761 -1.4609 -0.0286
16634SOL     OW52921   4.828   0.605   8.982 -0.2624  0.4393  0.2101
16634SOL    HW152922   4.909   0.655   8.972 -1.0682  1.7210 -0.0434
16634SOL    HW252923   4.807   0.612   9.076  0.0316 -0.0669  0.3132
16635SOL     OW52924   5.626   4.935   9.175 -0.3551  0.0873  0.4870
16635SOL    HW152925   5.547   4.889   9.203 -1.4135  1.5107 -0.1373
16635SOL    HW252926   5.625   5.017   9.225 -0.7325  1.3418 -1.5078
16636SOL     OW52927   4.125   2.716   8.731 -0.5358  0.0724 -0.5004
16636SOL    HW152928   4.205   2.737   8.779 -0.3854  0.0666 -0.7482
16636SOL    HW252929   4.144   2.741   8.641 -0.6814 -0.2651 -0.6274
16637SOL     OW52930   2.908   6.997   2.869 -0.4114  0.0652 -0.6254
16637SOL    HW152931   2.938   7.052   2.942  0.9827 -1.0650 -0.3107
16637SOL    HW252932   2.817   7.022   2.855 -1.0273 -0.3828  2.1933
16638SOL     OW52933   7.804   4.655   1.978 -0.0993 -0.4623  0.2887
16638SOL    HW152934   7.802   4.729   2.038 -0.8507  0.2185 -0.5481
16638SOL    HW252935   7.717   4.655   1.937  0.4157 -0.8721 -0.8273
16639SOL     OW52936   7.371   5.681   7.521 -0.4612 -0.3348  0.0858
16639SOL    HW152937   7.404   5.605   7.473  2.0307  1.7240 -1.6022
16639SOL    HW252938   7.409   5.671   7.609  0.3280 -0.7447 -0.2961
16640SOL     OW52939   3.840   4.531   8.700 -0.1956  0.6680  0.5271
16640SOL    HW152940   3.763   4.564   8.745  1.7505  1.3913  3.4914
16640SOL    HW252941   3.838   4.437   8.715 -1.2475  0.4913 -0.6526
16641SOL     OW52942   4.756   4.753   0.853  0.4459 -0.4843 -0.3145
16641SOL    HW152943   4.733   4.660   0.856  0.9295 -0.6719 -2.1871
16641SOL    HW252944   4.747   4.777   0.761  0.0096  1.4092  0.2083
16642SOL     OW52945   5.405   6.029   1.907 -0.6919  0.1053  0.4776
16642SOL    HW152946   5.492   6.025   1.867 -0.8661 -1.8749  0.2460
16642SOL    HW252947   5.350   6.070   1.841 -0.0837  0.7446  0.3588
16643SOL     OW52948   0.528   5.055   6.322  0.0575 -0.3321  0.1764
16643SOL    HW152949   0.517   5.149   6.334  0.3681 -0.1566 -0.8344
16643SOL    HW252950   0.523   5.019   6.410 -2.9581  0.3111  0.3246
16644SOL     OW52951   0.980   0.548   1.539  1.2432  0.3042 -0.0799
16644SOL    HW152952   1.045   0.481   1.556  2.8387  1.6402 -0.7544
16644SOL    HW252953   0.896   0.507   1.560  2.2358 -1.6923  0.0284
16645SOL     OW52954   2.850   4.509   7.739 -0.1683 -0.1521  0.1889
16645SOL    HW152955   2.921   4.447   7.755 -0.7096 -0.3492  1.9656
16645SOL    HW252956   2.777   4.455   7.711 -0.6255 -0.3227  1.6896
16646SOL     OW52957   6.983   5.710   2.600 -0.4033 -0.4831 -0.3166
16646SOL    HW152958   6.897   5.752   2.591 -0.2885 -0.3117 -0.6160
16646SOL    HW252959   7.001   5.672   2.514  0.8710  1.5192 -0.9855
16647SOL     OW52960   3.147   2.494   3.500 -0.2488  0.6277  0.6579
16647SOL    HW152961   3.065   2.531   3.467 -0.0649  0.3208 -0.1630
16647SOL    HW252962   3.127   2.402   3.516  0.6860 -0.1083 -2.2339
16648SOL     OW52963   3.265   2.199   0.661 -0.4550  0.5754  0.4552
16648SOL    HW152964   3.360   2.189   0.669 -0.3136  2.1045  0.8560
16648SOL    HW252965   3.232   2.191   0.750 -0.4068  2.7836  0.6923
16649SOL     OW52966   3.591   0.039   9.430 -0.2593 -0.3519  0.9485
16649SOL    HW152967   3.631   0.071   9.510  0.8580 -0.4757  0.4498
16649SOL    HW252968   3.530  -0.029   9.459  1.6102 -1.8218  1.5577
16650SOL     OW52969   6.498   5.951   4.766 -0.6477 -0.0760 -0.1127
16650SOL    HW152970   6.459   6.033   4.794  0.0225  0.2187 -0.0478
16650SOL    HW252971   6.574   5.939   4.823 -0.1427 -0.2172 -0.7987
16651SOL     OW52972   7.252   7.439   6.598 -0.6324  0.4849 -0.2861
16651SOL    HW152973   7.272   7.475   6.685 -0.1959 -0.1220 -0.1304
16651SOL    HW252974   7.309   7.362   6.590 -0.0137  1.0556 -1.4752
16652SOL     OW52975   1.097   6.457   2.911 -0.1224  0.1326 -0.0427
16652SOL    HW152976   1.179   6.506   2.922 -1.2470  1.6561  1.9803
16652SOL    HW252977   1.080   6.421   2.998 -2.1987  0.7894 -0.1646
16653SOL     OW52978   1.882   2.374   6.539  0.1331  0.1900  0.1806
16653SOL    HW152979   1.961   2.330   6.571  0.9482  1.2759 -0.2906
16653SOL    HW252980   1.907   2.466   6.533 -1.6251  0.7558  1.3584
16654SOL     OW52981   6.016   6.903   3.487  0.0401 -0.6083 -0.2500
16654SOL    HW152982   5.974   6.984   3.458  0.4638 -0.3310 -0.0846
16654SOL    HW252983   5.984   6.890   3.576 -0.1177 -0.6864 -0.3172
16655SOL     OW52984   4.981   5.345   3.376 -0.3121 -0.0159 -0.2208
16655SOL    HW152985   4.917   5.300   3.321 -0.4500 -0.4765  0.3135
16655SOL    HW252986   4.928   5.385   3.446 -0.3084  1.8414 -1.2631
16656SOL     OW52987   2.979   8.631   7.667 -0.2650 -0.6571 -0.3558
16656SOL    HW152988   3.042   8.591   7.727  1.2879  0.5709 -1.1096
16656SOL    HW252989   3.016   8.718   7.649 -1.4981 -0.4243 -1.8506
16657SOL     OW52990   6.030   3.822   6.686  0.7195  0.8862  0.2229
16657SOL    HW152991   6.117   3.847   6.717 -0.4280  2.1587  2.5282
16657SOL    HW252992   5.990   3.904   6.656  0.3366  0.3092 -0.8636
16658SOL     OW52993   0.389   7.000   8.747 -0.1004 -0.3468 -1.0069
16658SOL    HW152994   0.377   6.951   8.665  0.4162 -0.5789 -0.9484
16658SOL    HW252995   0.465   6.959   8.788  0.7598  0.9571 -1.2872
16659SOL     OW52996   4.520   9.391   4.141  0.2076 -0.1391 -0.8234
16659SOL    HW152997   4.568   9.396   4.224 -1.9059  0.2474  0.4032
16659SOL    HW252998   4.586   9.362   4.078  1.8259 -0.5907  1.0027
16660SOL     OW52999   4.797   4.346   4.750  0.2885  0.4340 -0.1370
16660SOL    HW153000   4.847   4.428   4.755 -0.9951  1.2369 -0.0896
16660SOL    HW253001   4.801   4.322   4.657  1.6919 -0.1092  0.0585
16661SOL     OW53002   4.439   7.808   5.029  0.3914  0.0435 -0.0041
16661SOL    HW153003   4.374   7.877   5.043 -2.2954 -2.4096  0.1408
16661SOL    HW253004   4.394   7.727   5.054  2.6104 -2.0571 -2.4560
16662SOL     OW53005   3.021   3.261   8.379 -0.4420 -0.0617 -0.4283
16662SOL    HW153006   3.040   3.303   8.296 -0.2417 -0.9038 -0.8118
16662SOL    HW253007   3.086   3.192   8.387  1.2798  1.7468  1.7231
16663SOL     OW53008   0.480   1.523   2.174  0.1085 -0.0595 -0.0923
16663SOL    HW153009   0.400   1.547   2.220  0.1015  1.6115 -0.9350
16663SOL    HW253010   0.549   1.526   2.241 -0.0243  1.6018 -0.0189
16664SOL     OW53011   0.154   2.230   3.551 -0.6391 -0.2495  0.4952
16664SOL    HW153012   0.106   2.309   3.526 -1.3759 -0.7477  0.3207
16664SOL    HW253013   0.089   2.160   3.543  0.1693 -0.9520  0.0546
16665SOL     OW53014   1.816   4.478   5.031 -0.1622 -0.3760 -0.3474
16665SOL    HW153015   1.889   4.473   5.092 -0.3889  0.1560 -0.0277
16665SOL    HW253016   1.857   4.476   4.944  0.1905 -0.6607 -0.1752
16666SOL     OW53017   8.515   3.469   1.453 -0.1832 -0.2325 -0.5488
16666SOL    HW153018   8.605   3.491   1.479  0.0778 -0.2037 -1.4602
16666SOL    HW253019   8.524   3.389   1.400 -0.7369 -0.4562 -0.3102
16667SOL     OW53020   5.986   3.100   9.412  0.5895  0.3228  0.3316
16667SOL    HW153021   6.046   3.172   9.431  0.0521  0.0131  3.4009
16667SOL    HW253022   5.899   3.135   9.430  0.1200 -0.3506 -0.5729
16668SOL     OW53023   6.095   8.438   3.064 -0.1208 -0.3875 -0.5859
16668SOL    HW153024   6.179   8.480   3.051  0.3406 -0.5816  1.6041
16668SOL    HW253025   6.066   8.467   3.151 -0.9940 -2.5021 -0.1361
16669SOL     OW53026   9.004   7.967   1.736  0.6233 -0.3867  0.1571
16669SOL    HW153027   8.915   7.948   1.708 -0.2167  0.8798  1.8475
16669SOL    HW253028   9.046   8.005   1.658 -0.9195  0.8443 -0.1105
16670SOL     OW53029   8.624   3.237   1.302  0.0484  0.3910 -0.2469
16670SOL    HW153030   8.655   3.148   1.316 -0.5884  0.1493 -0.3627
16670SOL    HW253031   8.683   3.292   1.354  0.5252 -0.0833 -0.2849
16671SOL     OW53032   3.327   2.421   3.058 -0.1231 -0.0874 -0.0198
16671SOL    HW153033   3.353   2.443   2.969 -1.9932  1.9618 -0.1164
16671SOL    HW253034   3.233   2.442   3.062  0.1036  0.6841  2.6561
16672SOL     OW53035   1.478   5.101   0.898  0.0621 -0.2149  0.4040
16672SOL    HW153036   1.473   5.194   0.876 -0.0771 -1.4550 -5.5666
16672SOL    HW253037   1.387   5.072   0.903  0.1257 -0.3101  1.1059
16673SOL     OW53038   1.611   0.879   7.650  0.4051  0.0284  0.3875
16673SOL    HW153039   1.526   0.920   7.668  1.3185  1.6510  1.0929
16673SOL    HW253040   1.605   0.794   7.692 -0.9978 -0.0026  0.1642
16674SOL     OW53041   3.063   2.473   4.481 -0.2320 -0.4695  0.0193
16674SOL    HW153042   3.114   2.393   4.496  0.6149 -0.1320 -0.9442
16674SOL    HW253043   2.985   2.463   4.535  1.1809 -0.6950  2.0798
16675SOL     OW53044   6.396   3.896   5.962 -0.5749 -0.3687 -0.5956
16675SOL    HW153045   6.340   3.826   5.929 -0.7382 -0.0340 -1.0278
16675SOL    HW253046   6.471   3.897   5.902  0.7206 -1.9265  0.9494
16676SOL     OW53047   7.971   5.094   0.911  0.4025 -0.0506  0.1462
16676SOL    HW153048   7.928   5.144   0.842 -0.2016 -0.8994 -0.1021
16676SOL    HW253049   8.046   5.053   0.867  1.7801  1.8100  0.6857
16677SOL     OW53050   2.032   6.030   8.784 -0.5631  0.1690 -0.1061
16677SOL    HW153051   2.041   6.098   8.717 -0.6251 -1.1891 -1.5134
16677SOL    HW253052   2.067   5.951   8.744  1.2728 -0.2381  2.1960
16678SOL     OW53053   3.159   9.287   8.794  0.1781 -0.6208 -0.5363
16678SOL    HW153054   3.119   9.268   8.709  1.0053 -0.6354 -0.9350
16678SOL    HW253055   3.250   9.309   8.772 -0.1543  1.4808  0.1389
16679SOL     OW53056   5.332   0.358   4.375  0.2072  0.3649 -0.0396
16679SOL    HW153057   5.273   0.413   4.323 -0.3366 -0.7011 -0.5652
16679SOL    HW253058   5.389   0.420   4.419 -1.1933  1.4095  0.3461
16680SOL     OW53059   2.141   4.011   4.612  0.2301  0.0883 -0.2355
16680SOL    HW153060   2.184   3.946   4.668 -1.2044 -0.7982 -0.1536
16680SOL    HW253061   2.202   4.024   4.539  1.5254  0.3063  0.8629
16681SOL     OW53062   4.242   5.861   2.571  0.2007  0.2851 -0.0037
16681SOL    HW153063   4.293   5.785   2.597 -0.3398 -0.4645 -1.0874
16681SOL    HW253064   4.175   5.869   2.639 -0.0911 -0.5721 -0.1747
16682SOL     OW53065   0.052   6.888   2.898 -0.0328 -0.1635  0.4487
16682SOL    HW153066   0.027   6.884   2.991  2.3350 -0.7991  1.1019
16682SOL    HW253067   0.143   6.919   2.899 -0.1521  0.3153 -1.6947
16683SOL     OW53068   1.930   7.140   9.375 -0.2118 -0.6755  0.2107
16683SOL    HW153069   1.843   7.137   9.336 -0.1033 -0.9743 -0.0204
16683SOL    HW253070   1.989   7.118   9.302  0.0885 -0.0577  0.2693
16684SOL     OW53071   1.409   2.704   5.664  0.4480  0.8649  0.1206
16684SOL    HW153072   1.316   2.726   5.677  0.4630  0.8310  0.2863
16684SOL    HW253073   1.455   2.757   5.729  0.2094 -2.1890  2.8735
16685SOL     OW53074   7.939   5.388   6.755 -0.2734 -0.4923 -0.3828
16685SOL    HW153075   7.954   5.428   6.670 -1.0157  0.1844 -0.2049
16685SOL    HW253076   7.930   5.462   6.815 -1.2767 -0.9294  0.0183
16686SOL     OW53077   8.875   1.822   0.051  0.1481 -0.3137 -0.2972
16686SOL    HW153078   8.930   1.794  -0.022  0.7843 -0.5627  0.2737
16686SOL    HW253079   8.934   1.823   0.127 -0.4098  0.3232  0.1406
16687SOL     OW53080   0.725   4.146   1.239  0.1969 -0.4313 -0.3930
16687SOL    HW153081   0.764   4.059   1.248  0.9212 -0.0292  0.4855
16687SOL    HW253082   0.795   4.206   1.267 -0.8842  0.3343  0.7151
16688SOL     OW53083   5.509   2.858   0.211  0.1740 -0.5936 -0.3549
16688SOL    HW153084   5.567   2.789   0.243  1.3456  0.0659 -1.0205
16688SOL    HW253085   5.500   2.841   0.118  1.3838  0.8008 -0.7388
16689SOL     OW53086   2.582   7.158   0.221 -0.1822  0.4528  0.0628
16689SOL    HW153087   2.495   7.117   0.218 -0.1577  0.5081 -2.0706
16689SOL    HW253088   2.635   7.105   0.162  1.6512 -0.4189  2.4193
16690SOL     OW53089   2.601   9.119   3.791 -0.1669 -0.3039  0.5441
16690SOL    HW153090   2.521   9.096   3.744  0.1247 -0.5157  0.1446
16690SOL    HW253091   2.572   9.144   3.879 -1.0184  2.7783 -0.5571
16691SOL     OW53092   2.798   1.096   5.338 -0.3390 -0.8328  0.6755
16691SOL    HW153093   2.837   1.099   5.251  0.7419 -1.1333  1.1522
16691SOL    HW253094   2.751   1.013   5.340 -2.6603  0.3894 -0.5899
16692SOL     OW53095   7.358   7.055   2.351 -0.3523 -0.2010 -0.3519
16692SOL    HW153096   7.379   7.043   2.443  0.0319  2.7035 -0.0161
16692SOL    HW253097   7.370   6.968   2.312  2.1023 -0.8938  1.8108
16693SOL     OW53098   1.908   6.666   1.627 -0.2436 -0.1893 -0.2685
16693SOL    HW153099   1.847   6.671   1.700 -1.6971 -0.3717 -1.4319
16693SOL    HW253100   1.898   6.750   1.581 -1.0013 -0.9306 -1.5067
16694SOL     OW53101   2.270   3.698   3.987  0.1062  0.2782 -0.4750
16694SOL    HW153102   2.187   3.721   3.945 -0.7138 -1.2801  0.2456
16694SOL    HW253103   2.277   3.603   3.977 -0.0713 -0.1310  2.7907
16695SOL     OW53104   9.300   5.791   6.296 -0.3428  0.9189  0.9398
16695SOL    HW153105   9.248   5.810   6.374 -2.9860  4.9493 -1.6010
16695SOL    HW253106   9.237   5.758   6.232  1.1441  0.9020 -0.5685
16696SOL     OW53107   7.571   8.836   7.205  0.0911  0.1060 -0.3554
16696SOL    HW153108   7.594   8.844   7.112 -0.4166  0.1554 -0.4758
16696SOL    HW253109   7.644   8.879   7.250  0.0859  0.5515 -0.7547
16697SOL     OW53110   1.995   3.504   8.099 -0.2820  0.2819  0.5009
16697SOL    HW153111   2.019   3.533   8.011 -0.5791  0.0578  0.3453
16697SOL    HW253112   2.059   3.436   8.120 -0.6894 -0.2103  0.1459
16698SOL     OW53113   5.712   8.457   3.600 -0.2234 -0.0432  0.1528
16698SOL    HW153114   5.780   8.496   3.654  1.4970  0.5349 -2.3637
16698SOL    HW253115   5.726   8.363   3.608  1.3324  0.0929 -0.9406
16699SOL     OW53116   0.117   9.395   6.823 -0.0916 -0.4097 -0.8295
16699SOL    HW153117   0.139   9.486   6.805  0.7329 -0.8977 -2.3565
16699SOL    HW253118   0.189   9.364   6.879  1.1028 -0.8931 -2.6005
16700SOL     OW53119   0.107   0.699   1.929  0.2504  0.4408 -1.0499
16700SOL    HW153120   0.043   0.657   1.872  0.7875 -1.0708 -0.5574
16700SOL    HW253121   0.182   0.640   1.929  0.5935  0.8454  0.5390
16701SOL     OW53122   6.741   3.508   0.252 -0.0110  0.6632  0.3046
16701SOL    HW153123   6.696   3.500   0.336  0.6100  0.0127  0.5765
16701SOL    HW253124   6.754   3.418   0.223 -0.0466  0.8780 -0.4003
16702SOL     OW53125   0.389   5.963   9.366 -0.0672 -0.1641 -0.0707
16702SOL    HW153126   0.363   5.871   9.369 -0.0794 -0.1240  2.4717
16702SOL    HW253127   0.484   5.961   9.383  0.0071  0.2581 -0.4284
16703SOL     OW53128   4.126   1.338   0.070  0.2982 -0.4481 -0.2396
16703SOL    HW153129   4.071   1.338   0.149 -1.2928 -0.0070 -1.3310
16703SOL    HW253130   4.206   1.382   0.097 -0.9265  1.2936  0.6644
16704SOL     OW53131   0.783   3.278   5.659 -0.0291 -0.0424  0.8009
16704SOL    HW153132   0.749   3.248   5.575  2.4583 -2.6139  0.6118
16704SOL    HW253133   0.739   3.222   5.723  1.4274 -1.1921  0.8129
16705SOL     OW53134   4.314   5.102   2.511  0.5382  0.6201 -0.8318
16705SOL    HW153135   4.392   5.083   2.460  1.4081  1.7343  0.0787
16705SOL    HW253136   4.292   5.193   2.490  0.6091  0.9256  0.3841
16706SOL     OW53137   2.395   3.510   1.574 -0.0501  0.0947  0.4395
16706SOL    HW153138   2.467   3.564   1.541  1.3987 -2.4684 -0.6727
16706SOL    HW253139   2.325   3.521   1.509  0.6373 -0.2275 -0.3632
16707SOL     OW53140   0.631   5.506   3.688  0.0573  0.2930 -0.5595
16707SOL    HW153141   0.572   5.437   3.658  0.7687 -0.0458 -1.1842
16707SOL    HW253142   0.580   5.587   3.681 -1.2250 -0.3018  1.4155
16708SOL     OW53143   8.599   8.849   7.878 -0.3470  0.3694  0.0294
16708SOL    HW153144   8.535   8.916   7.904 -2.1260 -1.1283 -0.3164
16708SOL    HW253145   8.683   8.894   7.877 -1.5060  2.5834 -0.1999
16709SOL     OW53146   3.298   4.866   6.286 -0.2125  0.1810 -0.6437
16709SOL    HW153147   3.296   4.895   6.377  0.2151 -0.7409 -0.3322
16709SOL    HW253148   3.349   4.785   6.288  1.5145  1.2059 -2.0146
16710SOL     OW53149   0.086   5.920   5.951 -0.9967  0.0649 -0.1729
16710SOL    HW153150   0.008   5.938   5.899 -0.7776 -1.4781 -1.0439
16710SOL    HW253151   0.132   5.851   5.904  2.5337  3.0543 -1.3650
16711SOL     OW53152   7.170   5.888   8.379  0.4053 -0.5801 -0.4323
16711SOL    HW153153   7.106   5.955   8.407  1.5721  0.9912 -1.4332
16711SOL    HW253154   7.197   5.846   8.461 -1.2166 -0.6428  0.1025
16712SOL     OW53155   5.741   1.676   5.262 -0.2960  0.1420  0.2752
16712SOL    HW153156   5.716   1.744   5.199  0.7173  1.4778  1.2871
16712SOL    HW253157   5.736   1.595   5.212 -1.3157  0.9774 -1.0235
16713SOL     OW53158   0.288   6.143   3.725 -0.2273  0.0800 -0.0221
16713SOL    HW153159   0.221   6.193   3.770 -0.7541 -0.2234 -0.4626
16713SOL    HW253160   0.336   6.098   3.795 -1.6994 -1.2203  0.1746
16714SOL     OW53161   1.686   6.384   7.288 -0.5469 -0.1276  0.4117
16714SOL    HW153162   1.617   6.324   7.258 -0.6545  0.6781 -1.0056
16714SOL    HW253163   1.705   6.438   7.211  0.2336  1.0110  1.3966
16715SOL     OW53164   4.170   1.495   3.412 -0.0863  0.6097  0.1875
16715SOL    HW153165   4.144   1.490   3.320 -1.3743 -0.8142  0.6132
16715SOL    HW253166   4.236   1.427   3.423 -0.0243  0.6945  0.3451
16716SOL     OW53167   7.479   2.471   7.344 -0.1025 -0.6117  0.2673
16716SOL    HW153168   7.429   2.504   7.419 -2.2802  2.0849 -2.2351
16716SOL    HW253169   7.536   2.544   7.319  2.4654 -2.3697  0.7717
16717SOL     OW53170   6.925   7.981   3.111  0.5627 -0.2485 -0.5286
16717SOL    HW153171   6.957   7.927   3.183  1.1220  0.4446 -0.2548
16717SOL    HW253172   7.004   8.000   3.058  0.7082  1.8157  0.3797
16718SOL     OW53173   2.581   1.587   2.674  0.0099 -0.3859 -0.0355
16718SOL    HW153174   2.528   1.572   2.596 -0.5253  0.7472  0.1049
16718SOL    HW253175   2.519   1.612   2.742  0.7427  1.5270 -0.0248
16719SOL     OW53176   4.398   4.656   5.808 -0.2647  0.5482 -0.4818
16719SOL    HW153177   4.433   4.736   5.770  1.2585  0.2331  0.2167
16719SOL    HW253178   4.332   4.626   5.746 -0.1610  1.8255 -1.2128
16720SOL     OW53179   6.958   7.146   7.320 -0.3812  0.3592  0.6332
16720SOL    HW153180   6.915   7.073   7.277  0.7165  0.3693 -0.5433
16720SOL    HW253181   7.018   7.106   7.383  0.1926  0.2397  0.0152
16721SOL     OW53182   4.034   6.504   4.018  0.1811  0.1707  0.1481
16721SOL    HW153183   4.065   6.420   3.986  0.2430 -0.2254  1.2178
16721SOL    HW253184   4.110   6.562   4.013  0.6751 -0.3645  1.2300
16722SOL     OW53185   3.134   1.408   6.816  0.3604 -0.5284  0.2694
16722SOL    HW153186   3.156   1.321   6.850 -2.2957 -1.6125 -0.6702
16722SOL    HW253187   3.087   1.451   6.888  1.0527 -0.0955  0.4769
16723SOL     OW53188   2.098   6.077   7.851  0.1649 -0.1888 -0.2334
16723SOL    HW153189   2.034   6.130   7.899  0.5861  1.2327 -1.2350
16723SOL    HW253190   2.055   5.992   7.841 -1.2671  0.5190 -0.2299
16724SOL     OW53191   7.882   0.465   3.679  0.2220 -0.3671  0.5665
16724SOL    HW153192   7.943   0.461   3.606 -0.9956 -1.0613 -0.4261
16724SOL    HW253193   7.823   0.391   3.666 -0.3946 -0.1326  1.8994
16725SOL     OW53194   3.119   1.180   9.159 -0.5071 -0.0258  0.6167
16725SOL    HW153195   3.171   1.100   9.148  0.2903  0.6070 -0.2585
16725SOL    HW253196   3.183   1.247   9.184 -0.9558  0.6777 -0.1198
16726SOL     OW53197   3.408   7.151   1.668 -0.2294  0.3145  0.0905
16726SOL    HW153198   3.326   7.191   1.697 -0.6614 -1.2451  1.0826
16726SOL    HW253199   3.402   7.151   1.572 -0.9407  1.0829  0.1270
16727SOL     OW53200   1.678   6.048   0.645  0.0839 -0.3135  0.1232
16727SOL    HW153201   1.707   6.087   0.563 -1.5140 -0.8155 -0.7109
16727SOL    HW253202   1.677   6.120   0.707  0.7443  0.1860 -0.4428
16728SOL     OW53203   6.212   8.836   7.707  0.6494 -0.1215 -0.9267
16728SOL    HW153204   6.189   8.922   7.742 -1.0061 -0.7353 -0.4650
16728SOL    HW253205   6.295   8.815   7.749 -0.8661 -0.4557  2.0661
16729SOL     OW53206   0.550   1.315   9.237  0.0008  0.1864 -0.0086
16729SOL    HW153207   0.616   1.381   9.213 -0.2523 -0.0886 -1.5022
16729SOL    HW253208   0.466   1.358   9.222 -0.1636 -0.2000 -0.1979
16730SOL     OW53209   1.773   1.986   7.738 -0.3270  0.0192 -0.0186
16730SOL    HW153210   1.798   2.067   7.782  1.6433 -0.3479 -0.3815
16730SOL    HW253211   1.823   1.987   7.656 -1.3962 -0.8711 -0.6989
16731SOL     OW53212   0.813   7.208   5.222  0.3038  0.7957 -0.0430
16731SOL    HW153213   0.907   7.218   5.237  0.5974 -1.4597 -0.0998
16731SOL    HW253214   0.781   7.164   5.301 -0.6861  1.4365 -0.0824
16732SOL     OW53215   4.256   8.747   5.061 -0.1195 -0.2995 -0.6208
16732SOL    HW153216   4.198   8.673   5.040 -0.3781 -0.7824  1.7104
16732SOL    HW253217   4.196   8.821   5.073  0.0406  0.0108 -1.6785
16733SOL     OW53218   6.901   1.466   0.791 -0.1676 -0.3475 -0.5260
16733SOL    HW153219   6.917   1.434   0.701 -0.1735  1.5668 -1.2195
16733SOL    HW253220   6.981   1.514   0.814 -0.8735  0.6662 -0.1741
16734SOL     OW53221   0.969   6.138   5.635 -0.0694 -0.9035 -0.4577
16734SOL    HW153222   0.901   6.147   5.569  1.1069  1.3300 -1.4353
16734SOL    HW253223   1.045   6.183   5.597  1.2276 -1.2932  1.5946
16735SOL     OW53224   1.956   4.516   6.796  0.1812 -0.4552  0.1166
16735SOL    HW153225   1.993   4.459   6.863 -1.7731 -1.6788  0.1818
16735SOL    HW253226   1.861   4.502   6.802 -0.1959  1.3699 -1.1508
16736SOL     OW53227   5.190   6.965   0.877  0.2843  0.4788 -0.0788
16736SOL    HW153228   5.199   7.058   0.893  1.0996  0.2547  0.8252
16736SOL    HW253229   5.193   6.955   0.782 -0.3882  1.4201 -0.2018
16737SOL     OW53230   6.339   6.053   0.593 -0.0542  0.4454  0.3339
16737SOL    HW153231   6.403   5.985   0.617 -1.1136 -1.6814 -2.5701
16737SOL    HW253232   6.254   6.010   0.601 -0.9456  2.2627  0.9584
16738SOL     OW53233   7.936   3.933   5.167  0.4412 -0.1530 -0.1359
16738SOL    HW153234   7.989   3.962   5.241  2.0074 -3.0463 -0.0738
16738SOL    HW253235   7.982   3.968   5.090  0.2877  0.5753  0.0963
16739SOL     OW53236   1.735   7.465   4.774  0.2838 -0.1251  0.4051
16739SOL    HW153237   1.715   7.386   4.724  1.2507  0.5309 -1.0359
16739SOL    HW253238   1.655   7.518   4.769  0.4349  0.0228 -0.6397
16740SOL     OW53239   4.259   4.424   6.650  0.7181 -0.2761 -0.2192
16740SOL    HW153240   4.236   4.512   6.621  2.5064 -0.3786 -2.1130
16740SOL    HW253241   4.298   4.436   6.736  0.7591  0.7680 -0.3799
16741SOL     OW53242   8.971   6.736   4.871  0.5331  0.2972 -0.5498
16741SOL    HW153243   9.030   6.680   4.921 -0.6939  0.0309  0.6253
16741SOL    HW253244   8.944   6.804   4.934  0.4747  1.0638 -1.3941
16742SOL     OW53245   8.386   7.819   0.625  0.0895  0.3785  0.1984
16742SOL    HW153246   8.394   7.885   0.694 -1.3339  0.5286  0.2350
16742SOL    HW253247   8.380   7.870   0.544 -0.4340  0.2675  0.1697
16743SOL     OW53248   3.080   1.433   2.640 -0.2697 -0.2692  0.1039
16743SOL    HW153249   3.011   1.407   2.701  1.1749  0.4011  2.0763
16743SOL    HW253250   3.037   1.433   2.554 -3.5762  3.1279  1.6123
16744SOL     OW53251   2.373   7.094   2.868  0.4413 -0.6388 -0.4585
16744SOL    HW153252   2.408   7.013   2.831 -0.5667 -1.6287  0.7004
16744SOL    HW253253   2.287   7.070   2.902 -0.3021  1.1708 -0.9936
16745SOL     OW53254   3.223   2.461   8.779 -0.1891  0.5510  0.1341
16745SOL    HW153255   3.145   2.415   8.809  0.2844  1.6445  3.2662
16745SOL    HW253256   3.294   2.425   8.833  1.1977  0.8648 -1.4117
16746SOL     OW53257   1.343   5.697   8.435 -0.4639  0.0621  0.2918
16746SOL    HW153258   1.373   5.744   8.513  1.5047  0.3407 -0.6061
16746SOL    HW253259   1.252   5.725   8.423 -0.2005  1.4242  1.4345
16747SOL     OW53260   3.745   9.376   6.601 -0.0048  0.2302  0.0343
16747SOL    HW153261   3.664   9.423   6.619 -0.4583 -0.4818 -0.1288
16747SOL    HW253262   3.750   9.309   6.669 -0.4752 -0.8802 -0.9907
16748SOL     OW53263   8.412   2.326   5.005  0.0705  0.2312 -0.4084
16748SOL    HW153264   8.469   2.376   4.947 -0.8793  1.1771 -0.5431
16748SOL    HW253265   8.421   2.368   5.090  1.9466 -1.5495  0.3045
16749SOL     OW53266   8.565   9.263   2.830  0.2646  0.3864 -0.1508
16749SOL    HW153267   8.580   9.351   2.866 -2.6045  1.2949 -1.0437
16749SOL    HW253268   8.503   9.277   2.759  0.9485 -2.2131 -1.3032
16750SOL     OW53269   6.825   3.026   5.270 -0.1156 -0.2893 -0.1232
16750SOL    HW153270   6.885   3.084   5.222  1.1596 -1.4103  0.0748
16750SOL    HW253271   6.797   2.961   5.206 -0.2471 -0.4125  0.0572
16751SOL     OW53272   4.949   0.246   3.591 -0.4101 -0.3169 -0.3128
16751SOL    HW153273   4.898   0.306   3.537 -0.6831 -1.2797 -1.1373
16751SOL    HW253274   5.000   0.303   3.649  0.6548  0.7585 -2.2682
16752SOL     OW53275   2.509   0.695   7.162  0.8693  0.2132  0.1796
16752SOL    HW153276   2.447   0.676   7.233  2.0403 -1.7403  0.7178
16752SOL    HW253277   2.580   0.743   7.204  0.4689  1.1152 -0.1502
16753SOL     OW53278   9.436   2.456   9.306 -0.4668 -0.6873 -0.0187
16753SOL    HW153279   9.389   2.532   9.341  1.9016 -0.3339  2.6111
16753SOL    HW253280   9.476   2.488   9.225 -0.3985  0.5691  0.4974
16754SOL     OW53281   3.076   9.109   4.266  0.3456  0.3693  0.2214
16754SOL    HW153282   3.102   9.157   4.345 -0.7770 -0.3554  1.0327
16754SOL    HW253283   3.157   9.101   4.216  1.1343  0.5682  1.4428
16755SOL     OW53284   5.449   8.868   5.554 -0.2309  0.6705 -0.2502
16755SOL    HW153285   5.510   8.860   5.627 -1.3211  0.6483  0.6627
16755SOL    HW253286   5.403   8.784   5.551 -1.6225  1.3946  0.3328
16756SOL     OW53287   6.731   0.569   6.782 -0.5084 -0.2328  0.2642
16756SOL    HW153288   6.651   0.554   6.731 -1.2089 -1.8115  1.7929
16756SOL    HW253289   6.699   0.596   6.868  0.6593  2.4367 -0.0958
16757SOL     OW53290   4.313   2.724   5.629 -0.0717  0.0329 -0.8399
16757SOL    HW153291   4.273   2.652   5.580 -1.0327 -2.1701  2.9578
16757SOL    HW253292   4.408   2.709   5.620 -0.2562 -1.6159 -0.2829
16758SOL     OW53293   5.452   7.201   1.889 -0.0607  0.1440 -0.1845
16758SOL    HW153294   5.443   7.230   1.980 -1.9443 -1.9170  0.3163
16758SOL    HW253295   5.449   7.105   1.894  0.7312 -0.0239 -2.3470
16759SOL     OW53296   6.889   4.585   6.042  0.2643  0.0654 -0.3944
16759SOL    HW153297   6.854   4.606   5.956 -0.3909 -1.0984 -0.4223
16759SOL    HW253298   6.812   4.566   6.095  0.6864  0.3900  0.3469
16760SOL     OW53299   5.362   2.672   8.244 -0.2899 -0.0423 -0.0712
16760SOL    HW153300   5.421   2.745   8.259 -1.5380  0.7027  1.3274
16760SOL    HW253301   5.417   2.603   8.207  1.4687  0.5836  1.3475
16761SOL     OW53302   6.583   6.128   1.862 -0.3102 -0.2688  0.3520
16761SOL    HW153303   6.577   6.219   1.892 -1.3625 -0.0145 -0.5994
16761SOL    HW253304   6.552   6.131   1.772  3.3116 -0.9215 -0.9992
16762SOL     OW53305   4.744   2.988   0.160 -0.0141 -0.5067  0.0863
16762SOL    HW153306   4.765   2.897   0.139  2.1396  0.1112 -0.5976
16762SOL    HW253307   4.825   3.022   0.197 -1.1497  0.8391  1.3846
16763SOL     OW53308   4.027   1.108   5.214 -0.2355 -0.1043 -0.0113
16763SOL    HW153309   4.069   1.103   5.128  0.2926  1.9039  0.0999
16763SOL    HW253310   4.086   1.060   5.273 -0.5323 -1.3654 -0.7234
16764SOL     OW53311   0.384   3.203   2.803 -0.0109  0.0801  0.3266
16764SOL    HW153312   0.463   3.255   2.787 -0.5834 -0.0418 -3.2536
16764SOL    HW253313   0.415   3.112   2.806 -0.0600 -0.0109 -1.5980
16765SOL     OW53314   2.560   6.963   5.999 -0.9112  0.9457  0.0683
16765SOL    HW153315   2.465   6.960   6.009 -1.0793 -0.1567 -1.6830
16765SOL    HW253316   2.583   6.877   5.963  0.4343  2.1428 -1.9918
16766SOL     OW53317   5.644   1.130   4.140  0.9765 -0.6557  0.0635
16766SOL    HW153318   5.567   1.168   4.098  2.0911  2.1963  0.4711
16766SOL    HW253319   5.628   1.144   4.234  1.1816 -1.6669  0.2493
16767SOL     OW53320   0.935   6.341   8.947 -0.2924  0.0961 -0.3811
16767SOL    HW153321   0.930   6.267   8.887 -2.7367  0.6210 -0.8942
16767SOL    HW253322   0.900   6.308   9.029 -0.6774  0.4748 -0.3929
16768SOL     OW53323   3.053   8.391   1.572  0.1574  0.0051  0.1074
16768SOL    HW153324   2.995   8.454   1.528  0.2374  0.3742  0.5282
16768SOL    HW253325   2.995   8.318   1.596 -0.4333  1.0330  1.8495
16769SOL     OW53326   8.245   5.125   6.913 -0.0344  0.3523  0.0120
16769SOL    HW153327   8.287   5.047   6.951 -1.7582  0.4337  2.2369
16769SOL    HW253328   8.304   5.152   6.843  1.5562 -1.8658  0.4135
16770SOL     OW53329   6.672   3.743   8.684  0.4609 -0.0842 -0.3393
16770SOL    HW153330   6.587   3.721   8.645  0.0532  0.4156  0.2618
16770SOL    HW253331   6.732   3.678   8.647 -0.6403 -1.9564  1.0588
16771SOL     OW53332   3.390   2.857   0.449  0.0614 -0.1815 -0.2991
16771SOL    HW153333   3.338   2.848   0.368  1.0388  0.4884 -1.0153
16771SOL    HW253334   3.331   2.828   0.518 -0.6930 -1.0809 -1.2870
16772SOL     OW53335   4.046   5.636   4.507 -0.2069  0.4238 -0.7490
16772SOL    HW153336   3.957   5.610   4.532  0.5072 -1.3651  0.0153
16772SOL    HW253337   4.036   5.674   4.420 -1.7961  0.6733 -0.4737
16773SOL     OW53338   4.840   0.903   9.415  0.0919  0.0371  0.2875
16773SOL    HW153339   4.766   0.853   9.449 -0.4958  1.4169  1.0992
16773SOL    HW253340   4.887   0.932   9.493  0.3949  0.7752 -0.1617
16774SOL     OW53341   0.448   3.805   2.364 -0.3946 -0.3184 -0.2477
16774SOL    HW153342   0.408   3.791   2.450 -0.3391 -0.0645 -0.1782
16774SOL    HW253343   0.526   3.857   2.383 -1.6821  1.8643 -0.6946
16775SOL     OW53344   7.665   8.782   8.554  0.4700 -0.1276 -0.0019
16775SOL    HW153345   7.728   8.728   8.507  0.2083 -0.0970 -0.3954
16775SOL    HW253346   7.610   8.819   8.485 -0.3091 -0.5770  0.3764
16776SOL     OW53347   8.981   2.319   2.264  0.5887  0.5064 -0.3457
16776SOL    HW153348   9.068   2.359   2.261 -0.5791  2.9873 -2.2679
16776SOL    HW253349   8.920   2.392   2.273 -1.2890 -1.2893  2.4881
16777SOL     OW53350   1.037   7.443   7.852 -0.2160 -0.0041  1.0983
16777SOL    HW153351   1.112   7.422   7.906 -1.4167 -0.6766  2.5319
16777SOL    HW253352   1.040   7.379   7.781  1.1686  0.6692  0.5273
16778SOL     OW53353   7.652   1.720   1.148 -0.0247 -0.3777  0.3183
16778SOL    HW153354   7.698   1.766   1.077  0.6326  0.8685  1.5312
16778SOL    HW253355   7.715   1.654   1.178  0.2391  0.0584  0.7140
16779SOL     OW53356   7.092   3.698   3.303  0.0091 -0.1136 -0.1071
16779SOL    HW153357   7.132   3.631   3.247  0.7096 -0.5797  0.9378
16779SOL    HW253358   7.101   3.663   3.392  0.6745  1.5139  0.4794
16780SOL     OW53359   5.294   8.757   4.738  0.1810 -0.0036  0.0574
16780SOL    HW153360   5.360   8.812   4.780 -0.5501  2.0714 -1.4151
16780SOL    HW253361   5.217   8.765   4.795  0.9170 -1.8607  1.3904
16781SOL     OW53362   9.342   5.680   5.871 -0.4267  0.0059  1.1290
16781SOL    HW153363   9.271   5.672   5.935  0.1996 -0.9783  1.7153
16781SOL    HW253364   9.346   5.774   5.851 -1.4310  0.1554  1.6106
16782SOL     OW53365   9.073   6.534   0.350  0.1666 -0.0296  0.1174
16782SOL    HW153366   9.064   6.443   0.377 -0.8027 -0.0027 -0.0998
16782SOL    HW253367   9.010   6.582   0.404  1.6120  0.7130  1.1788
16783SOL     OW53368   3.526   8.185   0.659 -0.1661  0.2780 -0.1751
16783SOL    HW153369   3.590   8.143   0.717 -0.8435  0.7951  0.9796
16783SOL    HW253370   3.442   8.148   0.685 -0.3869 -0.0500 -1.3627
16784SOL     OW53371   1.129   2.239   4.292  0.2872 -0.3410  0.8260
16784SOL    HW153372   1.110   2.176   4.362 -1.2815  0.6110  1.2827
16784SOL    HW253373   1.106   2.193   4.212 -0.0109 -0.6702  1.0989
16785SOL     OW53374   4.958   9.261   7.076  0.8565  0.6046 -0.1841
16785SOL    HW153375   5.003   9.193   7.126 -0.8789  0.3477  1.0554
16785SOL    HW253376   4.893   9.214   7.023 -1.3446  1.3815  1.7522
16786SOL     OW53377   0.675   2.126   0.763  0.0742  0.1772  0.2828
16786SOL    HW153378   0.736   2.200   0.758 -0.2426  0.3909 -0.6073
16786SOL    HW253379   0.626   2.131   0.681 -2.6394  1.3309  1.8938
16787SOL     OW53380   8.156   7.889   5.482 -0.1465  0.1390 -0.5305
16787SOL    HW153381   8.117   7.900   5.569 -0.7714 -1.2243 -0.6281
16787SOL    HW253382   8.243   7.851   5.500  0.2440  1.0677 -0.4366
16788SOL     OW53383   8.710   2.746   4.481 -0.4856 -0.3049 -0.3426
16788SOL    HW153384   8.781   2.806   4.504 -0.5468 -1.0625  1.9833
16788SOL    HW253385   8.666   2.728   4.564 -0.4565 -3.5262 -0.9538
16789SOL     OW53386   3.916   0.001   2.985 -0.1560  0.3041 -0.2429
16789SOL    HW153387   3.824  -0.026   2.974 -0.5646  1.5619  0.0263
16789SOL    HW253388   3.934   0.055   2.909  0.6389 -0.6478 -0.7360
16790SOL     OW53389   8.282   2.921   3.084 -0.1193 -0.3525 -0.0932
16790SOL    HW153390   8.244   2.975   3.154 -1.7234 -0.1165 -1.1217
16790SOL    HW253391   8.257   2.832   3.106 -0.9219 -0.2403 -0.5564
16791SOL     OW53392   4.220   3.828   1.501  0.0244 -0.0678  0.1304
16791SOL    HW153393   4.235   3.834   1.595 -1.1416  1.3663  0.2367
16791SOL    HW253394   4.251   3.740   1.478 -0.8426 -0.9127  2.0607
16792SOL     OW53395   4.777   4.973   5.316  0.2691 -0.9099 -0.8178
16792SOL    HW153396   4.744   4.883   5.321  0.3403 -0.9901 -1.7368
16792SOL    HW253397   4.831   4.975   5.237  3.3061 -1.0333  1.1608
16793SOL     OW53398   8.071   3.679   2.063  0.1895  0.1458  0.3634
16793SOL    HW153399   7.985   3.707   2.035  0.5122  0.6708 -0.1048
16793SOL    HW253400   8.069   3.687   2.158  0.3327  1.9292  0.2353
16794SOL     OW53401   8.917   8.847   4.589 -0.7110 -0.0653  0.4091
16794SOL    HW153402   8.980   8.819   4.523  0.3498  0.5680  1.1415
16794SOL    HW253403   8.901   8.769   4.642 -2.4887 -0.9073 -1.2977
16795SOL     OW53404   4.992   5.548   7.418 -0.1924 -0.5786 -0.3828
16795SOL    HW153405   5.026   5.496   7.345  1.1132  0.1142 -0.2816
16795SOL    HW253406   5.007   5.493   7.495  2.1085  0.3217 -0.1481
16796SOL     OW53407   9.273   1.617   6.267 -0.0023 -0.2411 -0.0262
16796SOL    HW153408   9.238   1.572   6.345  1.7977 -1.2500  0.2272
16796SOL    HW253409   9.299   1.546   6.209  2.0485  0.4831 -0.0083
16797SOL     OW53410   6.272   9.035   3.374  0.0359 -0.1885 -0.0730
16797SOL    HW153411   6.341   9.100   3.363 -0.1414 -0.2242 -1.4228
16797SOL    HW253412   6.202   9.064   3.316 -0.6513 -0.7568  0.4643
16798SOL     OW53413   0.138   0.804   2.689 -0.0047 -0.1321 -0.4600
16798SOL    HW153414   0.216   0.823   2.741  0.3127  1.4409 -1.4746
16798SOL    HW253415   0.070   0.859   2.727  0.1883  0.8968 -1.5663
16799SOL     OW53416   4.688   1.343   6.546 -0.0277 -0.8428 -0.5011
16799SOL    HW153417   4.765   1.291   6.526  0.4441  0.0692 -1.0817
16799SOL    HW253418   4.627   1.282   6.588  1.1756 -1.4594  0.3553
16800SOL     OW53419   0.698   2.053   6.908 -0.4458 -0.4443 -0.4377
16800SOL    HW153420   0.610   2.016   6.913 -0.3500 -0.8632 -1.7432
16800SOL    HW253421   0.686   2.138   6.864 -0.2258 -0.3958 -0.4035
16801SOL     OW53422   7.330   5.079   8.420 -0.1482  0.5896  0.5752
16801SOL    HW153423   7.295   5.040   8.499 -0.7679  0.8382  0.4258
16801SOL    HW253424   7.254   5.092   8.363  0.2846  0.4242 -0.0563
16802SOL     OW53425   5.439   6.393   2.629 -0.5125 -0.2733  0.2617
16802SOL    HW153426   5.403   6.331   2.693 -0.2348  0.3399  1.0309
16802SOL    HW253427   5.431   6.478   2.672  0.0819  0.0960 -0.3511
16803SOL     OW53428   1.461   4.075   0.905  0.7962 -0.6490  0.3584
16803SOL    HW153429   1.454   4.053   0.812  3.1891 -0.8336  0.2049
16803SOL    HW253430   1.421   4.162   0.912  1.0337 -0.4309 -0.9152
16804SOL     OW53431   3.592   5.724   2.073 -0.1806  0.1273  0.0981
16804SOL    HW153432   3.567   5.632   2.064 -1.0388  0.3162  0.5631
16804SOL    HW253433   3.613   5.752   1.983  2.3062 -1.1373  0.2360
16805SOL     OW53434   2.120   0.009   7.854 -0.6287  0.3068  0.3573
16805SOL    HW153435   2.154  -0.068   7.900  1.0221  1.7493  1.6236
16805SOL    HW253436   2.106   0.074   7.923 -2.2362  1.0834 -0.6648
16806SOL     OW53437   2.038   4.051   6.235 -0.7765  0.1872 -0.2739
16806SOL    HW153438   2.019   3.982   6.298 -0.4164 -1.1521 -1.5976
16806SOL    HW253439   2.132   4.041   6.216 -0.9615  0.3066 -1.2964
16807SOL     OW53440   3.488   2.239   5.395 -0.2521  0.5079 -0.5986
16807SOL    HW153441   3.448   2.161   5.435 -0.6839 -0.2943 -2.5457
16807SOL    HW253442   3.436   2.312   5.427 -0.0293 -0.0284  1.0249
16808SOL     OW53443   4.389   4.854   9.090 -0.6291  0.6622 -0.0163
16808SOL    HW153444   4.443   4.783   9.057 -0.0351  0.6142  1.0303
16808SOL    HW253445   4.299   4.824   9.077 -0.3887  0.0616 -0.2923
16809SOL     OW53446   1.996   9.105   2.365 -0.3911 -0.7326  0.2346
16809SOL    HW153447   2.060   9.035   2.378 -0.2947 -0.6876  0.0060
16809SOL    HW253448   2.017   9.170   2.432 -0.7040 -1.0857  0.6732
16810SOL     OW53449   8.405   7.935   2.259 -0.7749 -0.1309 -0.4037
16810SOL    HW153450   8.387   7.976   2.344  0.3060 -1.9043  0.7035
16810SOL    HW253451   8.336   7.870   2.248 -1.0019  0.1950 -0.9950
16811SOL     OW53452   4.971   5.023   1.275  0.0612  0.1629  0.3403
16811SOL    HW153453   5.001   5.041   1.186 -2.9955  0.4535 -0.6705
16811SOL    HW253454   4.976   5.108   1.319  2.2870 -0.1267  0.7190
16812SOL     OW53455   5.405   9.069   0.897 -0.4652 -0.2231  0.0377
16812SOL    HW153456   5.387   9.050   0.989  0.8482  0.6895  0.5152
16812SOL    HW253457   5.320   9.071   0.855 -1.0196 -1.5157  1.0641
16813SOL     OW53458   1.061   1.479   4.315 -0.5116  0.2330 -0.1558
16813SOL    HW153459   1.103   1.393   4.308 -0.1946  0.5579 -2.3622
16813SOL    HW253460   0.968   1.462   4.299 -0.1567  0.5836 -2.7597
16814SOL     OW53461   1.241   6.148   6.160  0.5628 -0.3336 -0.3229
16814SOL    HW153462   1.156   6.114   6.135  0.6422  0.7682 -2.2172
16814SOL    HW253463   1.223   6.211   6.229 -0.3008  0.6614 -1.4335
16815SOL     OW53464   7.621   5.746   8.410  0.1984  0.4630 -0.6675
16815SOL    HW153465   7.604   5.777   8.321 -1.1880 -0.3987 -0.7341
16815SOL    HW253466   7.603   5.652   8.405  1.6314  0.1325  0.1689
16816SOL     OW53467   5.424   9.336   8.595 -0.9018 -0.3863  0.0853
16816SOL    HW153468   5.496   9.329   8.533 -0.4494 -2.0141  0.7651
16816SOL    HW253469   5.436   9.422   8.637  0.6475 -0.6572  0.1985
16817SOL     OW53470   6.855   1.930   7.960  0.8486  0.2929  0.0544
16817SOL    HW153471   6.900   1.849   7.982 -1.6218 -0.8137  1.1640
16817SOL    HW253472   6.828   1.967   8.045  0.2862  1.2987 -0.5461
16818SOL     OW53473   7.814   2.625   9.356  0.3242  0.2445  0.0658
16818SOL    HW153474   7.873   2.677   9.301  1.3201  0.1185  1.0082
16818SOL    HW253475   7.804   2.676   9.436 -0.4224  0.0023  0.1320
16819SOL     OW53476   3.677   4.298   9.269  0.0915 -0.0077 -0.0543
16819SOL    HW153477   3.647   4.388   9.259 -1.4385 -0.4066  0.8041
16819SOL    HW253478   3.771   4.305   9.284  0.2280  1.3412 -1.4733
16820SOL     OW53479   8.636   6.998   6.439  0.0478 -0.0233  0.4698
16820SOL    HW153480   8.579   6.955   6.375  1.6859 -1.4756 -0.0596
16820SOL    HW253481   8.607   7.089   6.440 -1.9274 -0.6216 -0.1716
16821SOL     OW53482   0.564   7.322   5.795  0.5952 -0.0647 -0.3758
16821SOL    HW153483   0.531   7.376   5.867  0.4285  0.3135 -0.7334
16821SOL    HW253484   0.577   7.235   5.834  1.0252  0.2726  0.2400
16822SOL     OW53485   0.410   6.139   1.616 -0.2413 -0.1402  0.0303
16822SOL    HW153486   0.451   6.115   1.533 -0.8746 -0.8074 -0.1012
16822SOL    HW253487   0.481   6.175   1.669  0.2162  0.0449 -0.7087
16823SOL     OW53488   5.637   7.756   3.959  0.4014  0.5602 -0.0922
16823SOL    HW153489   5.543   7.752   3.945  0.3612 -1.6384  0.6786
16823SOL    HW253490   5.653   7.846   3.987 -1.6504  0.5697  1.1302
16824SOL     OW53491   4.847   3.775   1.131  0.8043  0.3375 -0.1364
16824SOL    HW153492   4.766   3.818   1.104  1.5493  2.3091  0.7035
16824SOL    HW253493   4.879   3.734   1.051 -2.0412 -2.2440 -0.0626
16825SOL     OW53494   5.116   1.581   6.771  0.1520  0.1038 -0.6326
16825SOL    HW153495   5.121   1.655   6.711 -0.8676 -0.0751 -0.9530
16825SOL    HW253496   5.023   1.571   6.789  0.1628 -1.7481 -1.4228
16826SOL     OW53497   1.839   0.554   4.826  0.0737  0.0669 -0.2987
16826SOL    HW153498   1.766   0.561   4.765 -0.8027  0.8637  0.8137
16826SOL    HW253499   1.820   0.476   4.879  0.7299 -0.5079 -0.8919
16827SOL     OW53500   8.255   6.377   1.415  0.5497 -0.0531  0.0189
16827SOL    HW153501   8.259   6.293   1.460 -0.2203  0.7306  1.5814
16827SOL    HW253502   8.235   6.440   1.484 -0.1927  1.2330 -1.3465
16828SOL     OW53503   0.573   9.312   7.599  0.3780 -0.1698  0.3124
16828SOL    HW153504   0.512   9.258   7.648 -2.4149  1.0664 -1.6892
16828SOL    HW253505   0.602   9.258   7.526  0.7245 -0.3316  0.5683
16829SOL     OW53506   7.155   1.913   1.671 -0.4702  0.3256 -0.3739
16829SOL    HW153507   7.239   1.889   1.630  0.4196  3.0536 -0.2640
16829SOL    HW253508   7.177   1.925   1.763 -0.9835  1.0363 -0.3455
16830SOL     OW53509   2.750   9.080   4.178 -0.5827 -0.0435 -0.1928
16830SOL    HW153510   2.844   9.087   4.199 -0.6035  0.7930 -0.3486
16830SOL    HW253511   2.749   9.044   4.090 -0.3884  0.3566 -0.3635
16831SOL     OW53512   5.253   4.515   4.307 -0.1395 -0.0321  0.2258
16831SOL    HW153513   5.307   4.495   4.230 -1.1437 -0.4552 -0.3791
16831SOL    HW253514   5.163   4.506   4.276 -0.6427  3.9484  0.3187
16832SOL     OW53515   0.447   0.221   3.145 -0.0690 -0.1775  0.2020
16832SOL    HW153516   0.372   0.177   3.105  0.1543  0.3447 -0.8182
16832SOL    HW253517   0.500   0.250   3.070  0.9989 -0.2884  0.9074
16833SOL     OW53518   9.021   4.722   0.598 -0.0593  0.0496 -0.4003
16833SOL    HW153519   9.073   4.662   0.546 -0.2873  0.3860 -1.0196
16833SOL    HW253520   9.079   4.798   0.612 -0.4385  0.5033 -1.2452
16834SOL     OW53521   6.113   2.233   7.632 -0.8421  0.7368  0.4778
16834SOL    HW153522   6.023   2.240   7.664 -0.6503  0.7168  1.0244
16834SOL    HW253523   6.153   2.318   7.653 -0.4427  0.3893  1.1471
16835SOL     OW53524   5.504   1.879   7.029  0.5144  0.7157 -0.1473
16835SOL    HW153525   5.470   1.790   7.028 -0.2594  1.0001  0.3526
16835SOL    HW253526   5.598   1.869   7.043  0.2346  0.0275  1.2610
16836SOL     OW53527   8.603   6.030   5.900  0.2516  0.3158  0.5279
16836SOL    HW153528   8.511   6.056   5.902 -0.2578 -1.2416 -1.2575
16836SOL    HW253529   8.611   5.965   5.970 -0.8658 -2.1759 -1.6169
16837SOL     OW53530   2.892   2.620   5.794 -0.6981  0.5390 -0.5868
16837SOL    HW153531   2.881   2.715   5.804  0.4051  0.8102 -1.7304
16837SOL    HW253532   2.964   2.598   5.853  1.0707  0.9511 -2.5110
16838SOL     OW53533   4.465   5.609   4.696 -0.1862 -0.2375 -0.0615
16838SOL    HW153534   4.502   5.697   4.692  0.2099 -0.4172 -0.3551
16838SOL    HW253535   4.414   5.602   4.615 -3.0297  0.9671  1.5648
16839SOL     OW53536   5.282   3.598   1.421  0.3751 -0.1504  0.2358
16839SOL    HW153537   5.238   3.578   1.503 -0.5454 -2.0218 -0.6751
16839SOL    HW253538   5.349   3.530   1.413 -0.4617 -0.8355 -1.2215
16840SOL     OW53539   0.621   6.677   8.647 -0.4609 -0.4927  0.1664
16840SOL    HW153540   0.653   6.762   8.676  1.3169 -0.5433 -1.5676
16840SOL    HW253541   0.672   6.613   8.696  1.0828 -0.5579 -1.4600
16841SOL     OW53542   0.416   2.971   0.140 -0.2346  0.1049 -0.5016
16841SOL    HW153543   0.468   2.970   0.059 -0.7613 -0.9795 -0.8263
16841SOL    HW253544   0.327   2.992   0.112 -0.5429 -0.8892 -0.2739
16842SOL     OW53545   3.624   4.537   7.075  0.7565  0.1271  0.7378
16842SOL    HW153546   3.535   4.573   7.079 -0.0531 -2.0255  3.3758
16842SOL    HW253547   3.666   4.568   7.155  1.4056 -1.2861  0.9519
16843SOL     OW53548   1.602   5.246   5.625 -0.5042  0.3384  0.1731
16843SOL    HW153549   1.582   5.330   5.584 -0.3397  0.1123 -0.3767
16843SOL    HW253550   1.543   5.184   5.581 -1.1888  0.3053  1.1368
16844SOL     OW53551   6.102   0.984   2.347  0.0590  0.5984  0.0860
16844SOL    HW153552   6.124   0.913   2.406 -0.3726  0.2801 -0.1410
16844SOL    HW253553   6.028   1.028   2.388 -1.7315 -1.0157 -1.3425
16845SOL     OW53554   7.592   8.176   4.318  0.2673 -0.0327  0.7464
16845SOL    HW153555   7.565   8.266   4.334 -1.6262 -0.2728 -0.9232
16845SOL    HW253556   7.546   8.125   4.384  0.7511  0.1175  1.2092
16846SOL     OW53557   3.384   0.780   3.477 -0.3448 -0.0482  0.9690
16846SOL    HW153558   3.382   0.705   3.417 -1.7034 -0.7940  1.9357
16846SOL    HW253559   3.341   0.850   3.428  1.1722  0.1997 -0.0407
16847SOL     OW53560   1.817   0.199   6.730  0.0694  0.2921  0.5987
16847SOL    HW153561   1.829   0.145   6.808  0.7548 -0.5398 -0.0757
16847SOL    HW253562   1.883   0.168   6.668 -0.2291  1.1826 -0.1939
16848SOL     OW53563   6.230   7.082   6.143 -0.1147  0.5790 -0.0714
16848SOL    HW153564   6.306   7.095   6.086 -0.4995  1.1730 -0.4562
16848SOL    HW253565   6.181   7.011   6.101 -0.0881  0.6075 -0.1504
16849SOL     OW53566   9.399   4.833   0.970 -0.1912 -0.0411 -0.5177
16849SOL    HW153567   9.357   4.781   1.038 -0.2324 -0.5907 -0.9629
16849SOL    HW253568   9.364   4.921   0.982 -0.2935 -0.1628  0.0919
16850SOL     OW53569   3.204   6.281   9.083  0.7738  0.4486  0.3552
16850SOL    HW153570   3.198   6.283   8.988 -0.8004  1.4494  0.4570
16850SOL    HW253571   3.255   6.359   9.105 -1.4322  1.8838  0.4834
16851SOL     OW53572   7.632   2.076   9.034  0.0859 -0.1928 -0.1927
16851SOL    HW153573   7.704   2.135   9.010 -0.9865  0.4518 -1.8996
16851SOL    HW253574   7.609   2.102   9.123 -3.0022  4.8128 -2.2381
16852SOL     OW53575   6.848   4.075   3.356  0.4108  0.0631  0.1546
16852SOL    HW153576   6.827   4.035   3.272 -0.9377 -0.2386  0.6186
16852SOL    HW253577   6.764   4.077   3.403  1.4461 -1.3047  2.1367
16853SOL     OW53578   1.339   8.925   3.331 -0.1651  0.2041 -0.5370
16853SOL    HW153579   1.303   8.967   3.409 -1.3984 -1.1140 -0.3632
16853SOL    HW253580   1.401   8.988   3.296  0.2742  0.8870  1.4104
16854SOL     OW53581   6.339   2.349   1.399 -0.8931  0.0413  0.4152
16854SOL    HW153582   6.401   2.277   1.412  0.4311  1.3760  1.8390
16854SOL    HW253583   6.328   2.355   1.304  1.6240  0.0880  0.0719
16855SOL     OW53584   8.473   6.397   1.886 -0.2055  0.1123  0.4031
16855SOL    HW153585   8.507   6.357   1.806 -2.0558 -0.9732  0.1418
16855SOL    HW253586   8.548   6.399   1.945  0.1236 -3.1417  0.1741
16856SOL     OW53587   5.676   4.114   0.731 -0.0033  0.0148 -0.1389
16856SOL    HW153588   5.743   4.126   0.664 -0.9773  1.0499 -0.9512
16856SOL    HW253589   5.612   4.183   0.713 -0.3260  0.2441  1.7895
16857SOL     OW53590   8.580   4.371   3.686  0.2095 -0.6409 -0.2209
16857SOL    HW153591   8.491   4.356   3.654  0.6823 -0.5092 -1.6026
16857SOL    HW253592   8.636   4.358   3.610  1.3277 -0.0662  0.4911
16858SOL     OW53593   3.050   6.060   9.093  0.5719  0.3298  0.0682
16858SOL    HW153594   2.959   6.089   9.089  0.4415 -0.2909 -1.6110
16858SOL    HW253595   3.101   6.141   9.089  0.1349  0.5651 -0.7591
16859SOL     OW53596   4.907   2.584   5.818 -0.4669 -0.2562  0.7238
16859SOL    HW153597   4.883   2.572   5.726 -0.0975 -0.3171  0.6323
16859SOL    HW253598   4.863   2.665   5.843 -0.7784 -0.3752  0.5666
16860SOL     OW53599   1.447   0.810   8.192 -0.0030 -0.1448 -0.2413
16860SOL    HW153600   1.434   0.721   8.160 -0.6215  0.2841 -1.2209
16860SOL    HW253601   1.358   0.844   8.205  0.2372 -0.3024  1.9310
16861SOL     OW53602   1.542   8.830   7.595  0.2848  0.9351 -0.0492
16861SOL    HW153603   1.505   8.763   7.652  0.7737  0.1863 -0.6008
16861SOL    HW253604   1.637   8.822   7.607  0.4144  0.4743 -1.2937
16862SOL     OW53605   1.002   9.225   4.911 -0.2622  0.1627 -0.3171
16862SOL    HW153606   1.002   9.269   4.996 -1.7756 -1.3594  0.5002
16862SOL    HW253607   1.021   9.295   4.849 -0.9613  1.6697  1.1098
16863SOL     OW53608   7.020   6.619   3.403  0.1753  0.0188 -0.4721
16863SOL    HW153609   6.956   6.548   3.405  2.2710 -1.9033 -0.1201
16863SOL    HW253610   6.970   6.697   3.431 -1.6183 -1.7062  1.2895
16864SOL     OW53611   1.289   8.406   2.379  0.6324  0.3732 -0.1238
16864SOL    HW153612   1.367   8.352   2.365  0.5468  0.0665  0.5736
16864SOL    HW253613   1.261   8.385   2.468 -0.6857 -0.0641 -0.6440
16865SOL     OW53614   0.841   2.200   3.823  0.0960 -0.2510 -0.1629
16865SOL    HW153615   0.756   2.239   3.805  0.6172  0.4603 -1.1037
16865SOL    HW253616   0.852   2.132   3.757  0.4360 -0.0683 -0.2955
16866SOL     OW53617   3.950   5.069   5.262 -0.1898  0.6706  0.1707
16866SOL    HW153618   3.968   5.140   5.200  1.0765 -0.6903 -1.0654
16866SOL    HW253619   4.036   5.034   5.285 -0.7155  0.5016  1.9254
16867SOL     OW53620   4.477   5.257   8.062 -0.5162  0.1896  0.1210
16867SOL    HW153621   4.553   5.315   8.066 -0.5261  0.3187 -1.1275
16867SOL    HW253622   4.425   5.291   7.989 -1.4776 -0.2564  0.5801
16868SOL     OW53623   7.317   8.074   4.927 -0.1759 -0.4030  0.0372
16868SOL    HW153624   7.303   8.152   4.874 -0.4930 -1.0507 -0.8428
16868SOL    HW253625   7.233   8.029   4.928 -0.1797 -0.4032  1.1025
16869SOL     OW53626   2.622   7.699   2.304 -0.9109  0.4255  0.3782
16869SOL    HW153627   2.569   7.760   2.356 -2.2781  0.6086 -1.1967
16869SOL    HW253628   2.577   7.695   2.219  0.0977 -1.5031 -0.0775
16870SOL     OW53629   7.349   1.054   4.339  0.0846  0.6199  0.3278
16870SOL    HW153630   7.427   1.040   4.284 -0.5849 -0.6653 -0.3169
16870SOL    HW253631   7.369   1.132   4.389  1.8407  0.2581  0.2230
16871SOL     OW53632   7.124   8.062   2.884  0.1203 -0.6132 -1.0446
16871SOL    HW153633   7.133   8.090   2.793  0.9017 -0.4923 -0.9333
16871SOL    HW253634   7.202   8.010   2.901  0.0820 -0.4534 -0.3754
16872SOL     OW53635   6.023   8.998   5.567  0.1069  0.4310 -0.2242
16872SOL    HW153636   5.937   8.957   5.555 -0.1511  0.6254  0.9061
16872SOL    HW253637   6.050   8.972   5.655  2.5947 -2.1528 -1.6855
16873SOL     OW53638   2.006   4.952   2.294  0.0689  0.5466 -0.2772
16873SOL    HW153639   2.081   4.979   2.241  2.0853 -1.1016  1.6267
16873SOL    HW253640   1.936   4.935   2.231  0.8117  3.5743 -1.9745
16874SOL     OW53641   2.017   3.159   9.322  0.2327 -0.3277  0.0729
16874SOL    HW153642   2.096   3.131   9.368  0.8599  3.2062  1.3215
16874SOL    HW253643   1.961   3.195   9.391 -1.2985 -0.2550 -1.1726
16875SOL     OW53644   8.443   6.994   5.168  0.4521 -0.1225 -0.1768
16875SOL    HW153645   8.495   6.917   5.145  0.6982  0.2313 -0.8392
16875SOL    HW253646   8.360   6.980   5.123 -0.3452 -1.0823  1.5455
16876SOL     OW53647   7.776   6.526   9.290  0.5744  0.5537 -0.2675
16876SOL    HW153648   7.722   6.448   9.283 -0.7805  1.2620  1.6959
16876SOL    HW253649   7.751   6.581   9.216  1.1414 -0.6182 -1.3360
16877SOL     OW53650   6.280   7.060   4.992  0.8498 -0.1632  0.1139
16877SOL    HW153651   6.200   7.012   4.970  0.3233  0.1661  1.2422
16877SOL    HW253652   6.351   6.998   4.977  0.4840 -0.1078 -1.9961
16878SOL     OW53653   3.954   1.039   8.191 -0.3857 -0.9699  0.2107
16878SOL    HW153654   3.904   1.007   8.266 -0.0029 -0.9878  0.4569
16878SOL    HW253655   4.043   1.050   8.224 -0.3977 -0.1699 -0.0126
16879SOL     OW53656   6.494   1.463   5.716 -0.0093  0.3047  0.6470
16879SOL    HW153657   6.569   1.512   5.750  0.2190  0.7356 -0.4550
16879SOL    HW253658   6.524   1.429   5.632 -1.1011  0.6071  0.1228
16880SOL     OW53659   8.138   1.424   1.730 -0.3771  0.1159 -0.0042
16880SOL    HW153660   8.219   1.459   1.767 -0.6476 -0.7488  1.4540
16880SOL    HW253661   8.080   1.500   1.721  0.0509  0.4889  0.4258
16881SOL     OW53662   2.594   3.173   4.496  0.4371 -0.3781  0.1485
16881SOL    HW153663   2.607   3.268   4.492 -0.2778 -0.2369  0.9836
16881SOL    HW253664   2.671   3.140   4.543  1.8596 -0.4874 -2.2069
16882SOL     OW53665   2.601   8.004   3.541  0.2216 -0.9417 -0.1998
16882SOL    HW153666   2.569   8.043   3.460 -0.1092 -1.3867 -0.2803
16882SOL    HW253667   2.540   7.933   3.560 -1.8485  1.3862  2.3419
16883SOL     OW53668   4.231   3.096   5.041 -0.0196  0.6501  0.0866
16883SOL    HW153669   4.325   3.113   5.029 -0.0559  1.4684  0.8664
16883SOL    HW253670   4.192   3.121   4.958  0.5259 -0.2720 -0.4542
16884SOL     OW53671   1.147   0.469   9.308 -0.1943  0.6037  0.1228
16884SOL    HW153672   1.074   0.449   9.366 -0.4681  1.1090 -0.0492
16884SOL    HW253673   1.128   0.421   9.228  0.0399  0.1369  0.3407
16885SOL     OW53674   9.186   0.622   3.239 -0.3120  0.8700 -0.0874
16885SOL    HW153675   9.136   0.605   3.159 -2.3329  1.9125  0.8950
16885SOL    HW253676   9.254   0.684   3.213 -1.7609  2.2107 -0.7554
16886SOL     OW53677   4.972   8.354   5.694 -0.4356  0.0995  0.2718
16886SOL    HW153678   4.946   8.407   5.619 -1.0111 -0.0557  0.3615
16886SOL    HW253679   4.890   8.329   5.735 -0.2131 -1.6298 -0.3047
16887SOL     OW53680   4.274   7.675   1.262 -0.3335 -0.5683 -0.1019
16887SOL    HW153681   4.250   7.767   1.259 -1.1729 -0.8342 -1.6767
16887SOL    HW253682   4.321   7.659   1.180 -1.3812 -1.8602 -0.4703
16888SOL     OW53683   6.741   0.378   8.552 -0.3356 -0.2822  0.1771
16888SOL    HW153684   6.717   0.341   8.467  0.0141 -0.9256  0.3583
16888SOL    HW253685   6.833   0.400   8.543 -0.0694 -1.1929  0.6914
16889SOL     OW53686   2.005   8.890   7.175  0.3117 -0.1071  0.0987
16889SOL    HW153687   2.034   8.881   7.084 -0.3917  1.3536 -0.2851
16889SOL    HW253688   2.041   8.974   7.203  0.9957 -0.8092  1.3639
16890SOL     OW53689   5.000   2.388   8.585  0.3502 -0.1432  0.4271
16890SOL    HW153690   4.995   2.307   8.533 -0.4965  0.8317 -1.0369
16890SOL    HW253691   5.070   2.438   8.544  0.4615  0.1186  0.9455
16891SOL     OW53692   7.348   8.900   4.759  0.0356  0.1063  0.2313
16891SOL    HW153693   7.434   8.857   4.765  0.8859  1.9291  1.5100
16891SOL    HW253694   7.295   8.859   4.826  0.5922  0.4699  0.8988
16892SOL     OW53695   8.505   9.007   3.300 -0.5374 -0.1925 -0.4174
16892SOL    HW153696   8.484   9.093   3.265 -0.0232  1.6305  3.4527
16892SOL    HW253697   8.598   9.012   3.322 -0.8515 -1.1999  1.2433
16893SOL     OW53698   5.062   1.185   7.494 -0.2694 -0.2482  0.4909
16893SOL    HW153699   5.004   1.261   7.489  0.5679  0.3558 -0.1467
16893SOL    HW253700   5.019   1.127   7.557 -0.9284  0.7394  0.9739
16894SOL     OW53701   3.608   1.509   4.853 -0.0197  0.3798  0.3749
16894SOL    HW153702   3.656   1.589   4.872  0.0288  0.6753 -0.9791
16894SOL    HW253703   3.671   1.439   4.867  0.1166  0.6082  0.9363
16895SOL     OW53704   1.188   7.866   7.071 -0.3924 -0.3889 -0.1091
16895SOL    HW153705   1.132   7.811   7.015 -0.2533  0.3976 -1.0455
16895SOL    HW253706   1.198   7.947   7.021  2.5800 -0.9479 -0.5221
16896SOL     OW53707   5.306   8.519   5.930 -0.2795  0.4588 -0.1335
16896SOL    HW153708   5.353   8.478   6.002  2.1124  1.4609 -1.0775
16896SOL    HW253709   5.225   8.467   5.921 -0.3862  0.0188  2.8962
16897SOL     OW53710   1.463   0.452   1.260 -0.4253  0.1704  0.2281
16897SOL    HW153711   1.552   0.417   1.262 -1.2297 -1.8639  1.6721
16897SOL    HW253712   1.467   0.525   1.198  2.1505 -0.1320  0.0050
16898SOL     OW53713   0.288   5.651   3.480  0.3612 -0.1807 -0.7701
16898SOL    HW153714   0.206   5.646   3.431 -0.5871  0.7019  0.6640
16898SOL    HW253715   0.316   5.560   3.490 -0.8739 -0.5536 -0.5877
16899SOL     OW53716   3.286   5.673   1.834 -0.8202 -0.1654 -0.7306
16899SOL    HW153717   3.339   5.746   1.864 -0.8848  0.5648 -2.3599
16899SOL    HW253718   3.254   5.632   1.914  1.8325 -0.3531  0.2848
16900SOL     OW53719   3.136   2.092   9.223 -0.3267  0.7323  0.5919
16900SOL    HW153720   3.098   2.015   9.181  0.5034  1.0231 -0.7307
16900SOL    HW253721   3.140   2.069   9.316 -1.5697 -0.1895  0.4394
16901SOL     OW53722   0.475   0.243   4.100  0.6102 -0.5859 -0.1102
16901SOL    HW153723   0.513   0.329   4.117 -0.0260 -0.2233 -0.4877
16901SOL    HW253724   0.386   0.262   4.070  0.2654 -1.4011  0.3777
16902SOL     OW53725   7.594   2.494   2.815  0.1579  0.1916 -0.0764
16902SOL    HW153726   7.552   2.554   2.753  0.7088 -0.6902 -1.3414
16902SOL    HW253727   7.648   2.437   2.759  0.7680 -0.5359  1.2396
16903SOL     OW53728   4.908   8.589   3.456  0.2641 -0.0317 -0.0138
16903SOL    HW153729   4.865   8.629   3.381 -0.0481  1.6904  1.0447
16903SOL    HW253730   4.866   8.630   3.532  1.9145 -0.2900  1.0699
16904SOL     OW53731   1.115   1.865   3.231  0.1193 -0.2485 -0.0044
16904SOL    HW153732   1.117   1.917   3.311 -1.5690 -0.2863  0.0792
16904SOL    HW253733   1.195   1.891   3.184  0.6032  0.5179  1.2124
16905SOL     OW53734   5.996   3.565   5.812  0.0282 -0.7661  0.3293
16905SOL    HW153735   5.951   3.521   5.740  0.7385  1.5003 -1.5568
16905SOL    HW253736   5.925   3.598   5.868 -0.6173  0.5132 -1.2264
16906SOL     OW53737   8.682   4.380   2.581 -0.1910 -0.2293 -0.0081
16906SOL    HW153738   8.764   4.429   2.588 -0.4704  0.4200 -1.0978
16906SOL    HW253739   8.618   4.433   2.628  0.1490 -1.0522  1.3866
16907SOL     OW53740   3.208   2.245   4.956 -0.3180 -0.4065 -0.0749
16907SOL    HW153741   3.273   2.195   4.905 -1.3612 -2.1998  0.3048
16907SOL    HW253742   3.227   2.222   5.047 -0.1514  0.7229  0.1815
16908SOL     OW53743   4.355   5.760   8.757  0.0662 -0.0320  0.0898
16908SOL    HW153744   4.402   5.814   8.820  1.5402 -2.5735  1.2352
16908SOL    HW253745   4.404   5.770   8.675 -0.2676  1.1258  0.0209
16909SOL     OW53746   8.665   7.490   8.436  0.0208  0.1670  0.4007
16909SOL    HW153747   8.754   7.496   8.472  0.2163 -0.6387  0.0683
16909SOL    HW253748   8.676   7.509   8.343  0.0579 -1.2947  0.1009
16910SOL     OW53749   6.414   4.301   3.633 -0.4858  0.4093  0.5550
16910SOL    HW153750   6.322   4.288   3.659  0.1942 -0.5000  2.6271
16910SOL    HW253751   6.436   4.387   3.667 -0.6368  0.7407 -0.1757
16911SOL     OW53752   1.961   1.915   4.841 -0.0713 -0.4495  0.4072
16911SOL    HW153753   1.877   1.870   4.833 -0.7669  1.0255 -0.7868
16911SOL    HW253754   1.938   2.005   4.862  1.2399 -0.1651  0.6475
16912SOL     OW53755   6.459   7.034   5.416 -0.6269 -0.4342 -0.1855
16912SOL    HW153756   6.426   7.123   5.402 -0.9747 -0.4090  0.7740
16912SOL    HW253757   6.517   7.018   5.341  0.5178  1.1227  0.3411
16913SOL     OW53758   2.386   1.312   5.406  0.4267  0.4897  0.0696
16913SOL    HW153759   2.411   1.281   5.319  2.0160  0.3860  0.5518
16913SOL    HW253760   2.337   1.240   5.445 -0.8244  0.7707 -0.9720
16914SOL     OW53761   5.401   3.804   8.655 -0.1250  0.4032  0.0061
16914SOL    HW153762   5.457   3.743   8.704 -2.4434 -0.4475  1.7200
16914SOL    HW253763   5.313   3.767   8.664 -0.9756  1.7294 -2.5809
16915SOL     OW53764   8.422   4.766   7.690 -0.2366  0.2621 -0.1454
16915SOL    HW153765   8.506   4.759   7.735  0.2853  1.3051 -0.9420
16915SOL    HW253766   8.396   4.676   7.674 -0.5396 -0.1658  2.4281
16916SOL     OW53767   4.120   9.265   4.772 -0.2582  0.4435  0.2945
16916SOL    HW153768   4.046   9.319   4.800 -0.3502 -0.0887  1.0794
16916SOL    HW253769   4.173   9.324   4.718 -2.8293 -0.0169 -2.8500
16917SOL     OW53770   3.527   3.317   0.337 -0.0684  0.0184  0.1846
16917SOL    HW153771   3.445   3.323   0.386  0.1279  0.5660  0.4532
16917SOL    HW253772   3.543   3.223   0.328 -1.3645 -0.0996 -0.9655
16918SOL     OW53773   3.462   0.522   1.331 -0.0469  0.1246  0.3941
16918SOL    HW153774   3.400   0.468   1.381 -1.4729  2.1620  0.9134
16918SOL    HW253775   3.545   0.476   1.338 -1.2553 -2.0573  0.7014
16919SOL     OW53776   3.217   7.121   6.674 -0.3780 -0.1247  0.1516
16919SOL    HW153777   3.299   7.087   6.637 -0.8052 -0.7744 -0.2089
16919SOL    HW253778   3.157   7.046   6.670 -1.1764  0.5312 -0.1764
16920SOL     OW53779   7.859   3.636   3.897  0.4555  0.1640 -0.5414
16920SOL    HW153780   7.771   3.653   3.929  1.0848  0.5747  0.9949
16920SOL    HW253781   7.876   3.545   3.920  0.4328  0.0859 -0.8347
16921SOL     OW53782   1.493   0.911   5.718  0.1223  0.0630 -0.4488
16921SOL    HW153783   1.528   0.923   5.630 -2.1902  2.5190 -1.1091
16921SOL    HW253784   1.474   1.000   5.749  3.7213 -0.4559  3.7785
16922SOL     OW53785   0.740   7.537   1.009  0.3424  0.1023  0.2425
16922SOL    HW153786   0.764   7.510   1.098  0.8449 -1.4131 -0.3268
16922SOL    HW253787   0.778   7.624   0.999  1.3830 -0.2424  1.0919
16923SOL     OW53788   4.028   6.619   1.258  0.2435 -0.2075 -0.5412
16923SOL    HW153789   4.082   6.682   1.210 -0.5695  0.6964 -0.2925
16923SOL    HW253790   4.091   6.569   1.310  0.8868  0.5809 -0.5317
16924SOL     OW53791   5.010   1.080   2.792  0.1753  0.1237 -0.4916
16924SOL    HW153792   5.071   1.086   2.719  0.5383 -1.7273 -0.3611
16924SOL    HW253793   5.061   1.102   2.870  0.3142  0.0360 -0.5591
16925SOL     OW53794   7.160   4.886   2.771  0.0902  0.5228  0.5427
16925SOL    HW153795   7.069   4.869   2.796 -0.3294  0.6482 -0.8328
16925SOL    HW253796   7.210   4.816   2.811 -0.6928  0.1344  0.8428
16926SOL     OW53797   3.569   4.458   4.580  0.3205  0.0368 -0.2917
16926SOL    HW153798   3.642   4.494   4.530  0.1014  0.7487 -0.1029
16926SOL    HW253799   3.589   4.479   4.671  0.5389 -0.9382 -0.1111
16927SOL     OW53800   2.328   3.455   2.016  0.4694  0.6158 -0.7037
16927SOL    HW153801   2.269   3.402   1.963  0.9146 -1.6002  0.9093
16927SOL    HW253802   2.391   3.491   1.954 -0.6524  0.3782 -2.0117
16928SOL     OW53803   2.390   1.763   1.397  0.4854  0.4773  0.2088
16928SOL    HW153804   2.323   1.804   1.343  0.0971  1.0070  1.0867
16928SOL    HW253805   2.372   1.794   1.486  0.4201 -1.3106  0.8295
16929SOL     OW53806   8.871   1.611   4.609 -0.3779  0.0430  0.4486
16929SOL    HW153807   8.872   1.683   4.672 -0.4022  0.8568 -0.4764
16929SOL    HW253808   8.930   1.639   4.539  0.0544 -1.0867  0.3572
16930SOL     OW53809   0.044   1.903   0.608  0.6487 -0.7103  0.0367
16930SOL    HW153810   0.043   1.865   0.696  0.1477 -0.3254  0.2002
16930SOL    HW253811   0.136   1.900   0.582  1.0848  0.8104  1.3079
16931SOL     OW53812   8.506   0.673   1.520 -0.5943 -0.5060 -0.2749
16931SOL    HW153813   8.532   0.666   1.428 -0.9865  3.3479 -0.7371
16931SOL    HW253814   8.441   0.743   1.522 -1.2134 -1.0960  2.8444
16932SOL     OW53815   0.993   3.062   7.954  0.2437  0.0737  0.3187
16932SOL    HW153816   0.931   2.990   7.951  0.6813 -0.2652 -2.3407
16932SOL    HW253817   0.942   3.140   7.931 -0.1418  0.5850  2.7789
16933SOL     OW53818   7.510   8.647   3.140 -0.0061 -0.6174  0.4411
16933SOL    HW153819   7.518   8.563   3.094 -0.5526 -2.4352  3.5144
16933SOL    HW253820   7.600   8.673   3.160  0.1993 -0.1100 -1.0783
16934SOL     OW53821   8.657   2.946   2.442  0.1202  0.0656 -0.6229
16934SOL    HW153822   8.591   3.013   2.426  0.3287  0.3731 -0.1974
16934SOL    HW253823   8.622   2.895   2.516  0.1352 -0.0620 -0.7033
16935SOL     OW53824   9.143   6.351   2.380  0.1089  0.2690 -0.7682
16935SOL    HW153825   9.118   6.279   2.438 -0.2319  0.2330 -0.9593
16935SOL    HW253826   9.087   6.341   2.303 -1.3684  1.9086  0.0465
16936SOL     OW53827   1.807   6.973   4.174  0.4329 -0.8441  0.4358
16936SOL    HW153828   1.828   6.898   4.119  1.4069  0.3518 -0.8793
16936SOL    HW253829   1.854   6.956   4.256  2.1165 -0.8509 -0.4879
16937SOL     OW53830   9.161   5.412   1.579  0.2574 -0.0120 -0.6207
16937SOL    HW153831   9.129   5.353   1.511 -0.7071 -0.4247  0.1859
16937SOL    HW253832   9.243   5.447   1.543 -0.6989  0.4685 -2.3797
16938SOL     OW53833   8.436   0.982   6.575 -0.1589  0.0083  0.0031
16938SOL    HW153834   8.402   1.071   6.565  0.2180  0.4639  2.5333
16938SOL    HW253835   8.360   0.925   6.560 -0.6497  0.7951 -0.5042
16939SOL     OW53836   4.684   9.048   0.695 -0.8564 -0.7444 -0.2365
16939SOL    HW153837   4.753   8.985   0.676  1.1888  1.1506  0.8043
16939SOL    HW253838   4.648   9.021   0.779 -0.0751 -0.5998  0.1417
16940SOL     OW53839   7.379   4.956   7.686 -0.1452 -0.8786 -0.0257
16940SOL    HW153840   7.467   4.924   7.702 -0.4120 -1.1748  0.9230
16940SOL    HW253841   7.387   5.051   7.690  0.1987 -0.8964 -0.3082
16941SOL     OW53842   8.442   5.284   8.356  0.9907  0.0479  0.5699
16941SOL    HW153843   8.486   5.215   8.306 -1.5887 -0.4976 -1.0212
16941SOL    HW253844   8.427   5.245   8.442 -1.0271 -1.6536 -0.5201
16942SOL     OW53845   1.651   8.885   2.038  0.2449 -0.3993 -0.5123
16942SOL    HW153846   1.713   8.844   1.977 -1.8433 -0.8306 -2.3915
16942SOL    HW253847   1.631   8.970   1.999 -2.5559 -1.4471 -1.4688
16943SOL     OW53848   4.086   5.837   4.684 -0.4753  0.3924 -0.3627
16943SOL    HW153849   4.080   5.759   4.630 -2.9635 -0.9777  1.7627
16943SOL    HW253850   4.000   5.879   4.675  0.3477  2.1473 -0.3653
16944SOL     OW53851   2.914   1.342   5.672  0.2910 -0.6251 -0.1516
16944SOL    HW153852   2.855   1.269   5.650 -1.0342  0.4072 -0.0760
16944SOL    HW253853   2.917   1.341   5.768 -0.0033 -0.3599 -0.1408
16945SOL     OW53854   1.423   1.650   5.768 -0.2348 -0.1045 -0.0240
16945SOL    HW153855   1.383   1.675   5.685 -0.6449 -1.5081 -0.2576
16945SOL    HW253856   1.365   1.582   5.802 -0.0156  0.3944  1.3726
16946SOL     OW53857   3.552   4.026   7.890 -0.1425 -0.4244 -0.2434
16946SOL    HW153858   3.476   4.074   7.858  0.6686  1.9923  1.2538
16946SOL    HW253859   3.627   4.066   7.845  0.4855 -0.8469  0.4045
16947SOL     OW53860   5.680   4.444   5.581 -0.1661 -0.0704  0.1483
16947SOL    HW153861   5.661   4.515   5.520 -0.7164 -0.8816 -0.6271
16947SOL    HW253862   5.595   4.409   5.606  0.0157  0.5931  1.8121
16948SOL     OW53863   9.359   6.649   2.939  0.2414  0.3932 -0.3050
16948SOL    HW153864   9.396   6.638   3.027  0.3883  1.3928 -0.2362
16948SOL    HW253865   9.395   6.732   2.909  1.3134 -0.6065 -1.8675
16949SOL     OW53866   9.110   6.448   0.920 -0.1715 -0.8433  0.1706
16949SOL    HW153867   9.150   6.498   0.849  0.2084 -1.5034 -0.0854
16949SOL    HW253868   9.123   6.502   0.998 -0.6224 -0.1028 -0.2654
16950SOL     OW53869   9.249   3.546   3.484 -0.5107  0.2807 -0.0083
16950SOL    HW153870   9.219   3.508   3.402 -0.7089  1.3364 -0.4350
16950SOL    HW253871   9.329   3.498   3.505 -1.0336 -0.7224 -0.2538
16951SOL     OW53872   1.560   6.468   7.830 -0.6070 -0.0989 -0.4678
16951SOL    HW153873   1.642   6.490   7.787 -0.1937 -1.2244 -0.2630
16951SOL    HW253874   1.568   6.375   7.852 -0.7965  0.4365  2.0338
16952SOL     OW53875   7.268   6.302   8.161  0.4383  0.3076  0.1495
16952SOL    HW153876   7.223   6.379   8.197 -4.4087 -0.1250 -4.2696
16952SOL    HW253877   7.323   6.337   8.091  0.9856  0.1241  0.4927
16953SOL     OW53878   3.741   0.436   4.387  0.0302  0.4417 -0.1665
16953SOL    HW153879   3.821   0.392   4.361 -0.0863  0.9057 -1.3557
16953SOL    HW253880   3.670   0.379   4.358 -0.0873  0.2306  0.5125
16954SOL     OW53881   3.173   8.145   3.177 -0.1232  0.0794  0.0199
16954SOL    HW153882   3.257   8.154   3.221  0.5368  1.6094 -1.5098
16954SOL    HW253883   3.137   8.233   3.175 -0.3070 -0.0203 -2.1297
16955SOL     OW53884   9.371   8.549   2.339  0.1191  0.0825 -0.2352
16955SOL    HW153885   9.331   8.463   2.351 -0.2796  0.2645 -0.2563
16955SOL    HW253886   9.403   8.549   2.249 -0.7699  0.3230 -0.5562
16956SOL     OW53887   3.245   4.216   4.336  0.6575 -0.1094  0.2728
16956SOL    HW153888   3.247   4.287   4.400  1.9371 -0.1295  0.2592
16956SOL    HW253889   3.178   4.156   4.370 -0.4608  1.1018  0.2610
16957SOL     OW53890   3.566   8.857   3.826  0.4517 -0.6180  0.4612
16957SOL    HW153891   3.606   8.874   3.911  1.8743 -0.6642 -0.1994
16957SOL    HW253892   3.632   8.883   3.762 -1.0511  0.5105 -0.6619
16958SOL     OW53893   7.702   3.953   5.423  0.4965  0.3118 -0.0606
16958SOL    HW153894   7.749   4.027   5.386  0.0712  0.7548  0.2777
16958SOL    HW253895   7.620   3.948   5.373  0.2163  0.5021  0.3763
16959SOL     OW53896   6.837   2.377   5.475  0.8050 -0.0934  0.3271
16959SOL    HW153897   6.865   2.335   5.557 -2.5531 -1.0923  1.0536
16959SOL    HW253898   6.809   2.304   5.420 -1.5201  0.8926  0.1566
16960SOL     OW53899   3.122   8.378   0.568  0.0930  0.4431 -0.3496
16960SOL    HW153900   3.055   8.314   0.543 -1.8163  0.3721  4.3335
16960SOL    HW253901   3.077   8.462   0.570  0.8518  0.8528  0.1156
16961SOL     OW53902   5.482   7.050   2.512  0.3037 -0.5704 -0.2154
16961SOL    HW153903   5.551   7.115   2.503 -0.1872 -0.1491 -0.9576
16961SOL    HW253904   5.457   7.027   2.423 -2.2863  1.1953 -0.0048
16962SOL     OW53905   2.200   4.919   0.385  0.3933  0.3192  0.6823
16962SOL    HW153906   2.194   4.979   0.459 -0.5300 -0.0363  0.8872
16962SOL    HW253907   2.237   4.839   0.422  1.4835  0.6885  0.4363
16963SOL     OW53908   1.055   7.673   6.921 -0.3709 -0.2059  0.5372
16963SOL    HW153909   0.980   7.615   6.912 -1.2653  0.5706  2.5728
16963SOL    HW253910   1.122   7.637   6.863 -2.2521 -1.0130 -1.1591
16964SOL     OW53911   1.427   7.508   7.570 -0.2041 -0.1544  0.3725
16964SOL    HW153912   1.518   7.497   7.541 -0.1432  0.1895  0.4329
16964SOL    HW253913   1.425   7.466   7.656  0.1969  0.8796  0.8993
16965SOL     OW53914   5.146   3.715   8.696 -0.1888 -0.3330  0.4225
16965SOL    HW153915   5.136   3.744   8.605  0.9668 -1.3273 -0.0281
16965SOL    HW253916   5.087   3.771   8.745 -0.0078  0.9526 -0.8005
16966SOL     OW53917   4.071   1.788   3.268  0.0464 -0.0357 -0.5262
16966SOL    HW153918   4.047   1.853   3.334  0.6291 -0.1208 -0.2240
16966SOL    HW253919   4.150   1.824   3.227  0.0866 -0.3165 -0.6966
16967SOL     OW53920   3.554   7.307   7.411 -0.0112 -0.1622 -0.2587
16967SOL    HW153921   3.570   7.305   7.505 -0.5455  0.1064 -0.1605
16967SOL    HW253922   3.487   7.374   7.399 -0.3028 -0.5418 -0.7782
16968SOL     OW53923   9.206   5.834   2.229 -0.1508  0.9907 -0.0833
16968SOL    HW153924   9.263   5.764   2.196  1.4631  2.3946 -0.3892
16968SOL    HW253925   9.173   5.877   2.150 -1.2045  0.5281  0.1017
16969SOL     OW53926   6.849   3.060   4.820 -0.0397  0.3173 -0.2619
16969SOL    HW153927   6.833   2.969   4.846  1.5230  0.5497  1.6312
16969SOL    HW253928   6.895   3.054   4.737 -0.4694 -0.5938 -0.4429
16970SOL     OW53929   2.695   6.034   4.255  0.3645 -0.6475  0.2535
16970SOL    HW153930   2.773   6.073   4.294 -0.7462  2.0992 -0.1197
16970SOL    HW253931   2.625   6.048   4.319 -0.4894 -0.1734 -0.7453
16971SOL     OW53932   8.297   7.418   2.955  0.1820  0.0932 -0.2585
16971SOL    HW153933   8.313   7.512   2.942 -0.3070  0.4048  1.3581
16971SOL    HW253934   8.208   7.414   2.991 -0.2403 -1.0829 -1.3889
16972SOL     OW53935   7.525   6.821   0.755 -0.2144 -0.1538 -0.3774
16972SOL    HW153936   7.477   6.745   0.788  1.4944 -0.4470  1.5155
16972SOL    HW253937   7.488   6.896   0.801  2.3256 -0.5879  2.5186
16973SOL     OW53938   2.255   7.007   2.529  0.0003  0.1152  0.1229
16973SOL    HW153939   2.318   7.065   2.571 -0.1412 -0.8821  1.7883
16973SOL    HW253940   2.307   6.932   2.499 -0.3412 -0.5977  1.2852
16974SOL     OW53941   7.310   4.314   7.074 -0.1467 -0.3572  0.1623
16974SOL    HW153942   7.327   4.229   7.115  1.5613  0.3986  1.0962
16974SOL    HW253943   7.343   4.305   6.985 -2.5300 -1.5405 -0.6444
16975SOL     OW53944   3.013   4.195   8.623  0.3186 -0.1618  0.1383
16975SOL    HW153945   3.012   4.271   8.565  2.3487 -0.1506  0.0756
16975SOL    HW253946   2.922   4.165   8.625 -0.1203  0.9668 -1.5389
16976SOL     OW53947   3.757   2.938   8.812 -0.3431  0.3618  0.3097
16976SOL    HW153948   3.695   2.867   8.827 -2.0310  0.4524 -5.2064
16976SOL    HW253949   3.708   3.018   8.832 -0.4778  0.2453  0.4451
16977SOL     OW53950   8.036   8.656   8.772 -0.2552  0.3383 -0.3212
16977SOL    HW153951   8.065   8.617   8.690 -0.1517 -1.3947  0.5091
16977SOL    HW253952   8.024   8.581   8.831 -2.6644  1.3165  0.5216
16978SOL     OW53953   8.940   4.941   5.557 -0.1693  0.4001 -0.0886
16978SOL    HW153954   9.003   4.882   5.599 -0.8739  0.3397  0.8873
16978SOL    HW253955   8.990   5.021   5.540  0.4495 -0.0251 -0.2700
16979SOL     OW53956   9.240   6.211   9.137  0.7498  0.3070 -0.4455
16979SOL    HW153957   9.197   6.202   9.222 -0.3552 -1.7656 -1.1798
16979SOL    HW253958   9.182   6.269   9.087  0.3817 -0.0234 -0.4118
16980SOL     OW53959   3.793   8.366   0.171 -0.3837  0.2423  0.0046
16980SOL    HW153960   3.730   8.298   0.148  0.3613 -1.2147  2.1138
16980SOL    HW253961   3.741   8.445   0.182 -1.6789 -0.6470  0.3559
16981SOL     OW53962   6.722   4.991   3.898 -0.0979  0.2217 -0.6053
16981SOL    HW153963   6.711   5.084   3.879 -0.9971  0.2069 -0.2152
16981SOL    HW253964   6.792   4.962   3.841  0.3200  1.1895 -0.5815
16982SOL     OW53965   4.308   8.602   3.053 -0.1943 -0.0563  0.1049
16982SOL    HW153966   4.337   8.633   2.967 -1.9534  0.5649 -0.2785
16982SOL    HW253967   4.357   8.654   3.115  0.2946  0.2427 -0.5224
16983SOL     OW53968   3.047   7.156   0.241  0.0459 -0.6555 -0.0667
16983SOL    HW153969   3.027   7.092   0.309 -1.0899 -1.2538 -0.9639
16983SOL    HW253970   3.059   7.105   0.162 -0.0537  0.1735 -0.6236
16984SOL     OW53971   0.317   0.292   4.917  0.1400 -0.0734 -0.0004
16984SOL    HW153972   0.336   0.198   4.920  0.1382 -0.1367 -1.6844
16984SOL    HW253973   0.279   0.306   4.831  1.3015  1.6912 -0.2422
16985SOL     OW53974   5.712   6.088   2.423  0.3044  0.0213 -0.4661
16985SOL    HW153975   5.724   6.177   2.389  1.2755 -0.4729 -1.4478
16985SOL    HW253976   5.801   6.055   2.436 -0.0525 -0.6598  0.3023
16986SOL     OW53977   6.455   1.850   4.538 -0.0991  0.0472  0.0694
16986SOL    HW153978   6.383   1.800   4.498  0.2537  1.1658 -2.0300
16986SOL    HW253979   6.462   1.814   4.627 -0.9789 -2.4484 -0.8123
16987SOL     OW53980   1.336   6.618   2.975  0.3090 -0.3897  0.1065
16987SOL    HW153981   1.362   6.580   3.059  1.2541  0.1919  0.0770
16987SOL    HW253982   1.394   6.578   2.911  0.7683  0.4935 -0.0330
16988SOL     OW53983   4.572   4.342   3.226 -0.4594 -0.4273 -0.6836
16988SOL    HW153984   4.556   4.295   3.144 -0.6449 -3.0263  0.7923
16988SOL    HW253985   4.652   4.303   3.260  0.6232  1.8822 -0.4586
16989SOL     OW53986   2.715   4.164   8.596 -0.3169  0.3196 -0.4906
16989SOL    HW153987   2.675   4.168   8.510  1.1385 -1.6209 -1.2829
16989SOL    HW253988   2.664   4.098   8.644  1.2890 -1.4943 -1.2060
16990SOL     OW53989   4.061   7.157   5.992 -0.4535  0.3763 -0.6083
16990SOL    HW153990   3.974   7.125   6.017 -0.7496 -0.3014 -2.4537
16990SOL    HW253991   4.103   7.179   6.075 -2.0691 -0.1234  0.3584
16991SOL     OW53992   2.858   6.843   7.557  0.0805  0.0360  0.9181
16991SOL    HW153993   2.923   6.819   7.623  0.5544 -1.3661 -0.0433
16991SOL    HW253994   2.833   6.760   7.517 -1.5712  0.6709  0.5928
16992SOL     OW53995   8.043   3.706   1.761  0.2137  0.7931  0.2429
16992SOL    HW153996   8.105   3.640   1.793  0.3101 -0.3421 -2.1190
16992SOL    HW253997   8.001   3.740   1.839  2.9760  0.7313  1.8295
16993SOL     OW53998   5.913   2.893   0.755  0.0283 -0.1645  0.3093
16993SOL    HW153999   5.909   2.988   0.753  0.5792 -0.1424  0.0640
16993SOL    HW254000   5.854   2.864   0.686  0.0618  0.0060  0.2109
16994SOL     OW54001   9.164   4.665   8.918  0.4273  0.4232 -0.1505
16994SOL    HW154002   9.123   4.597   8.864  0.4167  0.7535 -0.5682
16994SOL    HW254003   9.168   4.741   8.860  1.1999  0.5331  0.0436
16995SOL     OW54004   1.756   5.035   7.767 -0.1923 -0.1741  0.5581
16995SOL    HW154005   1.717   4.949   7.750 -0.0378  0.0552 -1.0597
16995SOL    HW254006   1.848   5.016   7.785  0.1900 -0.2337 -1.3592
16996SOL     OW54007   5.123   1.764   4.277 -0.5834 -0.0600  0.4732
16996SOL    HW154008   5.213   1.770   4.246 -0.4385 -0.7850  0.7553
16996SOL    HW254009   5.131   1.763   4.373 -0.8672 -0.5539  0.4918
16997SOL     OW54010   7.768   8.866   4.966 -0.1926 -0.2965  0.1750
16997SOL    HW154011   7.738   8.861   4.876 -1.2499 -1.5778  0.5852
16997SOL    HW254012   7.798   8.957   4.976  0.5849 -0.3437 -1.6421
16998SOL     OW54013   2.585   4.791   0.418 -0.3351  0.0616  0.2675
16998SOL    HW154014   2.676   4.784   0.391 -0.7201 -0.2111 -1.0229
16998SOL    HW254015   2.567   4.885   0.421  0.4103  0.1663  2.0594
16999SOL     OW54016   5.007   1.261   6.245  0.2627 -0.6729 -0.1627
16999SOL    HW154017   5.010   1.197   6.174 -0.8273 -1.0142  0.0804
16999SOL    HW254018   5.076   1.324   6.224  0.6002 -1.3130 -1.0013
17000SOL     OW54019   7.743   2.537   7.002 -0.2471  0.3689 -0.0577
17000SOL    HW154020   7.823   2.543   7.055 -0.1719  0.1419 -0.1435
17000SOL    HW254021   7.674   2.515   7.064 -0.2898  0.8251  0.0567
17001SOL     OW54022   0.251   2.298   4.233 -0.1246 -0.3181  0.0640
17001SOL    HW154023   0.229   2.377   4.281  0.6725 -0.0443 -0.0170
17001SOL    HW254024   0.345   2.305   4.216  0.2065 -1.8548  1.1142
17002SOL     OW54025   7.050   2.555   2.736  0.3805  0.1769 -0.1740
17002SOL    HW154026   7.095   2.477   2.703 -0.8658 -0.6252 -0.0284
17002SOL    HW254027   7.076   2.561   2.828  0.8538  0.2009 -0.3102
17003SOL     OW54028   2.422   0.346   0.610  0.2443 -0.0452  0.4633
17003SOL    HW154029   2.509   0.350   0.570  0.7758 -1.8626  1.3593
17003SOL    HW254030   2.365   0.309   0.542  0.8291 -1.6963  0.8293
17004SOL     OW54031   2.171   7.360   4.444  0.2542  0.3568  0.7837
17004SOL    HW154032   2.103   7.296   4.463 -0.7305  1.8894  2.4962
17004SOL    HW254033   2.212   7.328   4.363 -0.8398 -1.9047  1.0992
17005SOL     OW54034   1.380   5.854   2.983  0.4038  0.1147 -0.2254
17005SOL    HW154035   1.410   5.945   2.978  1.7166 -0.3979 -1.7283
17005SOL    HW254036   1.460   5.802   2.977 -0.2767 -1.1428  1.2984
17006SOL     OW54037   8.774   8.575   7.160 -0.3051  0.0763  0.4545
17006SOL    HW154038   8.698   8.518   7.155  1.0380 -1.7922  0.4328
17006SOL    HW254039   8.832   8.531   7.223  1.2045  0.8765 -0.3465
17007SOL     OW54040   8.361   1.238   6.509  0.2896  0.2166  0.3178
17007SOL    HW154041   8.409   1.316   6.536 -0.5954  0.0770  2.3375
17007SOL    HW254042   8.311   1.266   6.433 -0.2355  1.6989  1.1900
17008SOL     OW54043   8.459   1.604   6.385  0.0318 -0.0963 -0.4921
17008SOL    HW154044   8.501   1.685   6.414 -1.1389  0.4330 -0.2656
17008SOL    HW254045   8.486   1.594   6.294 -1.4688  1.6387 -1.1373
17009SOL     OW54046   4.617   0.045   9.057 -0.5836  0.2551  0.2090
17009SOL    HW154047   4.701   0.075   9.022  0.4258 -2.2979  0.3910
17009SOL    HW254048   4.619  -0.050   9.047 -3.2695  0.1160  0.6476
17010SOL     OW54049   8.055   5.978   1.698  0.0525 -0.5133 -0.3187
17010SOL    HW154050   7.981   5.973   1.759  0.6666 -2.5698  0.2780
17010SOL    HW254051   8.047   6.065   1.658 -1.2186  0.2752  1.5889
17011SOL     OW54052   3.396   8.478   0.834  1.0860 -0.3605  1.0277
17011SOL    HW154053   3.426   8.472   0.924  1.4272 -2.9496  0.7828
17011SOL    HW254054   3.449   8.414   0.786  0.3190  0.3536 -0.8383
17012SOL     OW54055   2.860   4.084   3.857  0.4262  0.4512  0.1881
17012SOL    HW154056   2.866   4.175   3.887  1.9121  0.1850  0.7492
17012SOL    HW254057   2.770   4.058   3.878  0.3210  1.4567  1.0347
17013SOL     OW54058   1.647   1.828   3.549  0.8685 -0.0188 -0.5396
17013SOL    HW154059   1.591   1.760   3.511 -0.1095  0.3875  0.1644
17013SOL    HW254060   1.649   1.897   3.482 -1.0801  0.8138  0.2319
17014SOL     OW54061   2.125   7.286   0.444  0.2655  0.3016  0.0537
17014SOL    HW154062   2.210   7.279   0.488  0.5210 -0.1887 -0.4989
17014SOL    HW254063   2.061   7.282   0.514  0.6809 -0.0589  0.4188
17015SOL     OW54064   0.767   2.354   9.057  0.2999 -0.4982 -0.6363
17015SOL    HW154065   0.725   2.359   8.971 -1.9163 -0.8043  0.3990
17015SOL    HW254066   0.853   2.394   9.044 -0.2910  0.1217 -2.8285
17016SOL     OW54067   6.518   6.373   1.993  0.4989  0.1135 -0.0750
17016SOL    HW154068   6.491   6.433   1.923  1.0637  0.3156 -0.1181
17016SOL    HW254069   6.442   6.368   2.050 -0.0233 -0.1641 -0.7756
17017SOL     OW54070   3.597   6.923   5.409  0.4631 -0.7222  0.1446
17017SOL    HW154071   3.541   6.850   5.435 -0.8438  0.5375  0.9362
17017SOL    HW254072   3.609   6.912   5.315  0.2791 -1.9466  0.2504
17018SOL     OW54073   8.814   4.231   5.319 -0.0475  0.3788 -0.1711
17018SOL    HW154074   8.829   4.177   5.241  0.7321  0.0585  0.1996
17018SOL    HW254075   8.901   4.247   5.355 -0.5401 -1.0385  1.7074
17019SOL     OW54076   6.425   4.188   2.225  0.2352 -0.8743 -0.6964
17019SOL    HW154077   6.389   4.102   2.203  0.4933 -1.2251  0.2293
17019SOL    HW254078   6.507   4.169   2.270 -0.6574 -0.2144  1.2731
17020SOL     OW54079   0.010   2.246   2.491  0.0495  0.6204 -0.7765
17020SOL    HW154080  -0.077   2.217   2.517 -0.1688  1.0270 -1.0398
17020SOL    HW254081   0.019   2.332   2.532  0.0059  0.9314 -1.4012
17021SOL     OW54082   6.697   4.019   4.808  0.6002 -0.2946  0.0040
17021SOL    HW154083   6.719   4.063   4.891  0.6504  0.0302 -0.1803
17021SOL    HW254084   6.623   3.962   4.830  0.5499 -0.1360  0.2495
17022SOL     OW54085   0.538   9.151   8.589  0.1197 -0.3860 -0.1359
17022SOL    HW154086   0.583   9.235   8.599 -0.8677 -0.0948  2.3561
17022SOL    HW254087   0.445   9.175   8.582 -0.2061 -1.2699  1.0680
17023SOL     OW54088   9.163   3.044   7.738  0.3824  0.6370 -0.2761
17023SOL    HW154089   9.109   2.988   7.683  2.6707  1.2426 -3.2381
17023SOL    HW254090   9.117   3.128   7.739 -0.3070  0.2666 -0.1843
17024SOL     OW54091   6.444   0.971   8.665 -0.7165 -0.0157  0.2357
17024SOL    HW154092   6.496   0.993   8.588 -0.3870 -0.4023  0.3516
17024SOL    HW254093   6.363   0.934   8.630 -0.4625 -0.4241  0.0854
17025SOL     OW54094   8.981   5.270   0.149  0.1639 -0.2361  0.5157
17025SOL    HW154095   8.925   5.195   0.133  1.3308 -0.7249 -1.4672
17025SOL    HW254096   9.069   5.241   0.123  0.4740  2.1099 -1.2798
17026SOL     OW54097   0.850   9.148   0.230 -0.3297  0.4670 -0.0191
17026SOL    HW154098   0.870   9.071   0.177 -2.2955 -0.1393  0.0685
17026SOL    HW254099   0.872   9.123   0.319  2.8099  1.4249 -0.4472
17027SOL     OW54100   5.229   7.050   2.573  0.2352  0.2357 -0.0604
17027SOL    HW154101   5.323   7.059   2.558  0.2610  1.3720  0.6966
17027SOL    HW254102   5.192   7.040   2.485  0.9328  1.1083 -0.4699
17028SOL     OW54103   8.581   9.354   4.023  0.2942  0.1136  0.0273
17028SOL    HW154104   8.590   9.366   3.929 -1.0007  0.5113 -0.0564
17028SOL    HW254105   8.505   9.296   4.033 -0.0543  0.6922  0.8454
17029SOL     OW54106   0.540   4.078   3.445 -0.2359  0.3149 -0.3523
17029SOL    HW154107   0.486   4.013   3.401  0.5269  0.2448 -1.1793
17029SOL    HW254108   0.606   4.027   3.492 -0.1232  0.4627 -0.3494
17030SOL     OW54109   3.271   8.310   7.809  0.0290 -0.6082 -0.5819
17030SOL    HW154110   3.275   8.405   7.822  1.1208 -0.5809 -1.1144
17030SOL    HW254111   3.220   8.279   7.883 -1.0289  0.4790 -0.8193
17031SOL     OW54112   2.222   3.532   3.608 -0.3220  0.8559 -0.2718
17031SOL    HW154113   2.284   3.599   3.581  0.9137 -0.4454 -0.7181
17031SOL    HW254114   2.271   3.477   3.669 -0.8687 -0.4762 -1.0119
17032SOL     OW54115   3.187   0.000   0.690  0.0865 -0.0572 -0.3303
17032SOL    HW154116   3.203  -0.032   0.601 -0.9924 -1.2548 -0.0932
17032SOL    HW254117   3.092   0.008   0.696  0.2212  1.1812  0.3270
17033SOL     OW54118   0.595   1.636   4.174  0.0803 -0.4716  0.1208
17033SOL    HW154119   0.554   1.665   4.255 -0.0101  0.3247 -0.2073
17033SOL    HW254120   0.525   1.640   4.108  0.7117  1.0423 -0.4704
17034SOL     OW54121   5.962   7.751   1.604 -0.2182  0.4534 -0.0362
17034SOL    HW154122   5.897   7.792   1.547  0.4119  0.5529 -0.6900
17034SOL    HW254123   5.952   7.657   1.589  0.1182  0.4912 -0.5053
17035SOL     OW54124   7.739   8.532   3.599  0.0190 -0.2328 -0.3835
17035SOL    HW154125   7.802   8.593   3.638  0.0625 -0.6683  0.2289
17035SOL    HW254126   7.655   8.559   3.635 -0.3440  1.1515 -2.1610
17036SOL     OW54127   0.772   3.736   1.529  0.0317  0.3866  0.4331
17036SOL    HW154128   0.816   3.661   1.488  0.0397  0.8671 -0.4412
17036SOL    HW254129   0.683   3.734   1.492  0.0794  0.8967  0.2938
17037SOL     OW54130   5.660   3.428   7.311 -0.3683  0.3862  0.0652
17037SOL    HW154131   5.725   3.464   7.251  0.6491  1.0631  1.5234
17037SOL    HW254132   5.598   3.382   7.255  0.6186  0.8876 -1.4776
17038SOL     OW54133   5.724   1.119   8.486 -0.4240 -0.6929 -0.3828
17038SOL    HW154134   5.722   1.092   8.394  0.0728 -0.7008 -0.3875
17038SOL    HW254135   5.776   1.051   8.530 -0.9891 -0.9056 -0.0278
17039SOL     OW54136   2.149   0.869   0.875  0.0829  0.4954 -0.3695
17039SOL    HW154137   2.100   0.950   0.858 -1.1727 -0.0624  0.5411
17039SOL    HW254138   2.173   0.837   0.788 -2.1970  0.1515 -0.9023
17040SOL     OW54139   8.499   8.616   0.963  0.3604  0.2015 -0.2667
17040SOL    HW154140   8.544   8.532   0.969  0.5078  0.2763 -0.3395
17040SOL    HW254141   8.502   8.639   0.870 -0.3435 -0.0759 -0.3618
17041SOL     OW54142   4.639   4.786   6.784 -0.3689 -0.0902 -0.1299
17041SOL    HW154143   4.595   4.787   6.700 -0.6219  1.5855  0.0065
17041SOL    HW254144   4.605   4.708   6.829 -0.1779 -1.0247 -1.5834
17042SOL     OW54145   6.893   1.334   7.291 -0.2712 -0.0672  0.2964
17042SOL    HW154146   6.987   1.315   7.283 -0.5546 -1.2020 -0.4483
17042SOL    HW254147   6.889   1.429   7.303  1.0989 -0.2346  2.5214
17043SOL     OW54148   2.592   2.659   8.400 -0.4633 -0.2848 -0.1767
17043SOL    HW154149   2.645   2.647   8.321  1.4468  0.6445  0.9238
17043SOL    HW254150   2.523   2.720   8.374 -0.5628 -0.9100 -1.4271
17044SOL     OW54151   7.210   4.096   4.748 -0.7186 -0.0928 -0.0079
17044SOL    HW154152   7.181   4.013   4.788 -0.1130  0.8260  2.3888
17044SOL    HW254153   7.303   4.084   4.733 -1.0545 -0.6628 -1.7920
17045SOL     OW54154   7.021   3.068   4.593 -0.3393 -0.0720 -0.4089
17045SOL    HW154155   7.008   3.049   4.500  1.3011  1.8785 -1.0714
17045SOL    HW254156   7.088   3.005   4.621 -2.5970 -2.3490  0.1421
17046SOL     OW54157   3.081   6.930   4.434 -0.6195 -0.0505  0.2137
17046SOL    HW154158   3.172   6.918   4.462 -0.4781 -2.0152 -0.9663
17046SOL    HW254159   3.052   7.009   4.480  1.7302  0.7219  0.4704
17047SOL     OW54160   5.533   4.831   1.477  0.4155 -0.4732  0.3439
17047SOL    HW154161   5.438   4.820   1.476  0.4273 -0.7775  1.5730
17047SOL    HW254162   5.565   4.782   1.401 -0.2675 -1.7817  0.8869
17048SOL     OW54163   0.290   8.339   3.559 -0.3695 -0.0594 -0.7191
17048SOL    HW154164   0.270   8.403   3.628 -1.3581 -0.9212 -0.1953
17048SOL    HW254165   0.343   8.272   3.602 -1.1053 -0.6711 -0.7532
17049SOL     OW54166   8.930   2.343   7.511  0.8110 -0.1441 -0.2436
17049SOL    HW154167   9.016   2.341   7.470  2.4182 -0.9688  2.9890
17049SOL    HW254168   8.874   2.389   7.448  3.0477 -1.5699 -3.3952
17050SOL     OW54169   0.873   1.285   3.692  0.3208 -0.8889 -0.4164
17050SOL    HW154170   0.854   1.274   3.785  0.0558 -2.2671 -0.6311
17050SOL    HW254171   0.902   1.376   3.684  4.1227 -1.8073  1.6664
17051SOL     OW54172   7.324   2.864   8.707 -0.1392 -0.1193 -0.4801
17051SOL    HW154173   7.230   2.861   8.691 -0.2623  0.9137  0.0168
17051SOL    HW254174   7.345   2.957   8.712  0.8456 -0.3471 -0.2178
17052SOL     OW54175   3.527   2.767   2.711 -0.5873  0.2779  0.1513
17052SOL    HW154176   3.510   2.789   2.620  2.6273  0.4475 -0.4879
17052SOL    HW254177   3.504   2.846   2.760 -0.0823  1.0348 -0.8084
17053SOL     OW54178   7.610   0.073   1.986  0.0987  0.7336 -0.2702
17053SOL    HW154179   7.702   0.099   1.979 -0.0251  1.3778  0.3666
17053SOL    HW254180   7.565   0.152   2.017 -0.8345  0.7183 -1.5556
17054SOL     OW54181   0.455   6.190   8.508  0.4619  0.2362  0.8136
17054SOL    HW154182   0.387   6.132   8.542  0.4873  0.5118  1.3432
17054SOL    HW254183   0.409   6.251   8.451  0.3405  0.1079  0.7738
17055SOL     OW54184   2.754   2.441   4.540  0.0460  0.1463 -0.4045
17055SOL    HW154185   2.673   2.470   4.584 -0.2928 -0.3384 -0.7059
17055SOL    HW254186   2.727   2.420   4.451  0.4110 -0.5074 -0.3623
17056SOL     OW54187   1.644   5.809   4.181  0.4101  0.2744  0.4860
17056SOL    HW154188   1.694   5.729   4.200  0.2036  0.8185  3.5897
17056SOL    HW254189   1.591   5.786   4.104  1.0691 -2.2451  0.7185
17057SOL     OW54190   7.500   6.436   4.195 -0.1037 -1.1540  0.6835
17057SOL    HW154191   7.444   6.510   4.172  1.3481 -0.3826 -0.4864
17057SOL    HW254192   7.534   6.458   4.282  0.5990 -0.2527  0.1939
17058SOL     OW54193   2.530   0.948   0.151 -0.0624  0.2335  0.6167
17058SOL    HW154194   2.561   0.995   0.073 -1.1075 -0.2034 -0.0594
17058SOL    HW254195   2.445   0.912   0.126 -1.3087  1.7189  2.5846
17059SOL     OW54196   1.997   8.181   5.336 -0.1097  0.1430 -0.8270
17059SOL    HW154197   2.035   8.106   5.290  1.5667  0.9823 -0.8600
17059SOL    HW254198   2.047   8.187   5.417 -1.0460  0.5076 -0.2637
17060SOL     OW54199   3.251   7.968   7.545  0.3061  0.2732 -0.5771
17060SOL    HW154200   3.182   7.954   7.609  0.8661 -0.2047 -0.0654
17060SOL    HW254201   3.210   7.950   7.460 -0.2726  0.2918 -0.2997
17061SOL     OW54202   0.821   0.007   2.683  0.2106  0.2753  0.0018
17061SOL    HW154203   0.906   0.035   2.649 -0.6563 -0.1699 -2.6648
17061SOL    HW254204   0.837  -0.011   2.776  2.8668  0.8231 -0.3101
17062SOL     OW54205   2.395   0.216   5.268  0.1598  0.2076  0.0396
17062SOL    HW154206   2.446   0.212   5.349  2.5978  1.6150 -1.3659
17062SOL    HW254207   2.422   0.139   5.219 -0.6630 -0.1713  0.1733
17063SOL     OW54208   4.721   6.690   8.681  0.2057 -0.2302  0.1598
17063SOL    HW154209   4.744   6.712   8.771 -1.6659  2.0941  0.1331
17063SOL    HW254210   4.749   6.599   8.670  4.4398  0.7611  1.7030
17064SOL     OW54211   6.712   0.612   9.290  0.2005  0.2659 -0.1726
17064SOL    HW154212   6.792   0.646   9.251  0.6810 -0.5073  0.1270
17064SOL    HW254213   6.645   0.623   9.222  0.5768  0.8131 -0.4573
17065SOL     OW54214   3.158   0.442   0.901 -0.4966  0.1640 -0.6679
17065SOL    HW154215   3.081   0.472   0.950 -2.6990  0.2558 -4.0309
17065SOL    HW254216   3.188   0.365   0.950 -2.2201  0.5858  1.1475
17066SOL     OW54217   5.742   3.985   7.603 -0.7255  0.2109  0.0839
17066SOL    HW154218   5.717   3.938   7.682 -0.1321 -0.6622 -0.2458
17066SOL    HW254219   5.836   3.971   7.595 -0.6378  0.9728 -0.3354
17067SOL     OW54220   5.453   0.336   6.344  0.1185 -0.4885  0.1659
17067SOL    HW154221   5.432   0.410   6.402 -1.9490 -0.7132 -0.2528
17067SOL    HW254222   5.368   0.303   6.316  1.0636 -1.8924 -1.1163
17068SOL     OW54223   7.540   0.854   4.627  0.1413  0.1469  0.0411
17068SOL    HW154224   7.572   0.771   4.662  0.0367 -0.5001 -1.3365
17068SOL    HW254225   7.609   0.882   4.566  0.4610  1.3901  0.9597
17069SOL     OW54226   1.250   0.243   6.223 -0.1685  0.3742  0.6029
17069SOL    HW154227   1.310   0.303   6.266 -1.0888  0.9583  1.0984
17069SOL    HW254228   1.165   0.288   6.225 -0.1533  0.6379 -2.2777
17070SOL     OW54229   6.199   4.545   7.792  0.0743  0.4453  0.4701
17070SOL    HW154230   6.280   4.505   7.760  0.5202  0.1001  1.9758
17070SOL    HW254231   6.169   4.485   7.861  0.0505  2.0375  1.8719
17071SOL     OW54232   1.020   1.644   3.908 -0.0387  0.2594 -0.1769
17071SOL    HW154233   1.044   1.627   3.817 -0.3760  0.6059 -0.3302
17071SOL    HW254234   0.933   1.604   3.917  0.8530 -1.6056  0.5646
17072SOL     OW54235   7.353   7.541   1.396 -0.0860 -0.4523  0.0843
17072SOL    HW154236   7.348   7.482   1.320 -3.1555 -0.2886  0.0747
17072SOL    HW254237   7.374   7.626   1.359  3.4801 -1.3036 -0.0018
17073SOL     OW54238   3.619   4.576   9.222 -0.3389  0.0146 -0.6880
17073SOL    HW154239   3.661   4.661   9.235  2.0123 -1.5510  2.4747
17073SOL    HW254240   3.654   4.545   9.138  0.7366  1.0507 -0.6355
17074SOL     OW54241   6.936   1.102   8.445  0.6604  0.4264 -0.1859
17074SOL    HW154242   6.883   1.111   8.366 -1.1255 -0.2051  0.9181
17074SOL    HW254243   6.879   1.059   8.509  2.1019  0.8077  1.4251
17075SOL     OW54244   8.459   4.270   3.933 -0.2144  0.1157  0.3083
17075SOL    HW154245   8.453   4.236   3.844 -0.7421 -1.0977  0.8062
17075SOL    HW254246   8.533   4.224   3.971 -0.1230  0.4820  0.5757
17076SOL     OW54247   3.194   6.099   7.096  0.0567  0.0018 -0.3170
17076SOL    HW154248   3.273   6.095   7.150 -0.9791 -1.4205  1.1287
17076SOL    HW254249   3.171   6.008   7.080 -0.4449  0.4073 -1.9998
17077SOL     OW54250   3.119   4.920   2.340  0.1507 -0.3860 -0.9416
17077SOL    HW154251   3.127   4.990   2.275  0.4927  1.9241  1.4950
17077SOL    HW254252   3.210   4.894   2.358  0.0364 -1.3036 -1.6359
17078SOL     OW54253   6.491   3.053   5.350 -0.2304  0.1712 -0.2476
17078SOL    HW154254   6.537   3.027   5.270  0.4528  1.3035 -0.2371
17078SOL    HW254255   6.398   3.041   5.329 -0.1002  1.2408 -1.5060
17079SOL     OW54256   6.368   6.600   6.289  0.3218 -0.1012  0.2848
17079SOL    HW154257   6.317   6.530   6.248 -1.3826  0.8302  0.7858
17079SOL    HW254258   6.307   6.673   6.296  1.1556  0.4031  2.6538
17080SOL     OW54259   7.741   6.843   1.176  0.0426 -0.3840  0.5359
17080SOL    HW154260   7.705   6.924   1.141 -1.3839 -1.1455  0.1807
17080SOL    HW254261   7.836   6.850   1.163 -0.1432  0.9133 -0.1368
17081SOL     OW54262   4.256   8.936   3.191 -0.1450  0.3596 -0.1475
17081SOL    HW154263   4.200   8.914   3.117  0.4532 -0.2437 -0.4257
17081SOL    HW254264   4.231   9.026   3.215  1.2401  1.4604 -2.5713
17082SOL     OW54265   7.416   8.858   9.141  0.0227  0.0509  0.3742
17082SOL    HW154266   7.446   8.917   9.210  0.1416 -1.9211  2.0623
17082SOL    HW254267   7.487   8.794   9.131 -0.3518 -0.1755 -1.0161
17083SOL     OW54268   2.946   1.821   8.032  0.0679  0.7696 -0.3293
17083SOL    HW154269   2.971   1.887   7.967  1.1901  0.0455 -0.6382
17083SOL    HW254270   3.029   1.781   8.059 -0.5804 -0.3586  0.0227
17084SOL     OW54271   5.580   6.121   3.298  0.1210  0.5917  0.1489
17084SOL    HW154272   5.497   6.167   3.294 -0.9419 -1.3037 -0.1858
17084SOL    HW254273   5.574   6.067   3.377  0.8050  0.0634 -0.1508
17085SOL     OW54274   5.268   3.600   7.795 -0.0031  0.3266  0.2469
17085SOL    HW154275   5.340   3.620   7.855  0.8205  0.4690 -0.7749
17085SOL    HW254276   5.283   3.658   7.720  0.9297 -2.1961 -1.6039
17086SOL     OW54277   0.441   7.838   3.548 -0.0658 -0.0467  0.2601
17086SOL    HW154278   0.385   7.761   3.558 -0.1540  0.1225  1.0938
17086SOL    HW254279   0.505   7.812   3.482 -0.2877 -0.7268  0.3065
17087SOL     OW54280   0.028   8.789   4.113  0.0263  0.3015  0.4046
17087SOL    HW154281  -0.031   8.767   4.040  2.1592  0.5425 -1.4458
17087SOL    HW254282   0.041   8.883   4.105 -0.7696  0.5503  1.9287
17088SOL     OW54283   0.013   1.962   3.157  0.1042  0.1010  0.0429
17088SOL    HW154284  -0.050   2.004   3.215  1.1079  2.3886 -0.4655
17088SOL    HW254285   0.020   2.021   3.082  2.4272 -0.3738 -0.1521
17089SOL     OW54286   3.464   6.892   8.228 -0.1772 -0.1065 -0.1194
17089SOL    HW154287   3.401   6.861   8.163 -0.4771  0.6918 -0.2211
17089SOL    HW254288   3.503   6.812   8.264 -1.8536 -0.6527  0.5460
17090SOL     OW54289   8.342   3.607   8.837  0.1021  0.2592  0.3869
17090SOL    HW154290   8.274   3.549   8.803 -0.5939  0.6874  1.0213
17090SOL    HW254291   8.387   3.640   8.760  0.0405 -0.5679 -0.0087
17091SOL     OW54292   2.942   9.125   0.827  0.1229  0.4458 -0.0129
17091SOL    HW154293   2.951   9.193   0.760  1.3263  0.7667  0.4675
17091SOL    HW254294   2.864   9.151   0.877 -0.9721  0.0259 -1.4823
17092SOL     OW54295   1.568   3.267   5.105  0.1061  0.0198 -0.7319
17092SOL    HW154296   1.561   3.244   5.012  0.5935  0.2565 -0.8318
17092SOL    HW254297   1.613   3.352   5.105 -1.5358  0.9138 -0.3737
17093SOL     OW54298   0.952   3.243   3.147  0.3199 -0.2263  0.1608
17093SOL    HW154299   0.873   3.252   3.093  0.4248  1.4788  0.2496
17093SOL    HW254300   0.924   3.270   3.234  0.5610 -1.3938  0.6049
17094SOL     OW54301   0.455   2.041   2.083  0.1110  0.1077 -0.3386
17094SOL    HW154302   0.453   1.948   2.058 -0.7750  0.0190  0.0363
17094SOL    HW254303   0.363   2.067   2.082  0.3965  1.1017 -0.8769
17095SOL     OW54304   2.420   5.455   0.275  0.1905  0.6466  0.0837
17095SOL    HW154305   2.406   5.529   0.216 -1.5404  1.5627  1.5683
17095SOL    HW254306   2.515   5.450   0.287  0.4096  1.7092 -1.1643
17096SOL     OW54307   6.210   8.941   1.449  0.0372 -0.4494  0.1440
17096SOL    HW154308   6.148   8.972   1.383 -1.0168 -1.8744  0.4204
17096SOL    HW254309   6.265   8.878   1.402  0.4804 -0.0871  0.1828
17097SOL     OW54310   5.533   0.162   2.808 -0.4200  0.6135 -0.1150
17097SOL    HW154311   5.477   0.121   2.741 -4.0344  2.1071  1.8397
17097SOL    HW254312   5.577   0.089   2.850 -3.9348 -1.0674  0.8594
17098SOL     OW54313   8.062   0.729   8.137 -0.3169  0.0031  0.4408
17098SOL    HW154314   8.067   0.644   8.181 -1.7535  0.5923  1.8003
17098SOL    HW254315   8.132   0.780   8.176 -0.3466 -0.1150  0.6530
17099SOL     OW54316   4.808   3.138   4.045  0.5514 -0.4015 -0.6437
17099SOL    HW154317   4.811   3.213   4.104 -0.8974 -0.8907  0.0703
17099SOL    HW254318   4.885   3.086   4.070  0.9581  0.2978 -0.4125
17100SOL     OW54319   7.087   3.885   2.088  0.1169  0.0123 -0.0858
17100SOL    HW154320   7.172   3.886   2.132 -0.0198  2.5258  0.1585
17100SOL    HW254321   7.083   3.969   2.041 -1.9748 -0.3452 -0.5946
17101SOL     OW54322   3.273   1.746   0.036  0.7847  0.2166 -0.4056
17101SOL    HW154323   3.334   1.694  -0.017  1.2888 -1.1518  1.4333
17101SOL    HW254324   3.258   1.691   0.114  0.1350  2.1866  0.8826
17102SOL     OW54325   4.118   4.856   8.478  1.1798  0.0068  0.0867
17102SOL    HW154326   4.139   4.947   8.499  1.0611  0.3548 -1.2802
17102SOL    HW254327   4.182   4.830   8.412 -0.0440 -0.2531 -1.0250
17103SOL     OW54328   5.898   6.639   4.796  0.3988  0.2327  0.2720
17103SOL    HW154329   5.870   6.548   4.800  0.2529  0.2094 -1.1886
17103SOL    HW254330   5.833   6.686   4.849 -1.6074 -0.0297 -1.8502
17104SOL     OW54331   3.470   2.516   1.976  0.1134 -0.2128 -0.2004
17104SOL    HW154332   3.448   2.460   1.901 -1.2211 -0.3260  0.2545
17104SOL    HW254333   3.485   2.455   2.048  0.2149 -0.0583 -0.0913
17105SOL     OW54334   8.115   9.093   0.996  0.1902 -0.4292  0.5951
17105SOL    HW154335   8.134   9.159   0.930 -1.9685 -0.3436  0.0374
17105SOL    HW254336   8.030   9.057   0.971  1.4751 -3.7108  0.6443
17106SOL     OW54337   4.649   9.030   8.007  0.1047  0.2544  0.0678
17106SOL    HW154338   4.670   9.067   8.093  1.4204 -1.3340  0.4583
17106SOL    HW254339   4.600   8.949   8.027  1.7590 -0.9407 -0.6135
17107SOL     OW54340   5.086   8.047   2.277  0.6006  1.0010  0.1583
17107SOL    HW154341   5.004   8.089   2.303  0.0969  0.6248 -0.7762
17107SOL    HW254342   5.058   7.976   2.218  1.5223  0.1821  0.6966
17108SOL     OW54343   1.076   0.012   8.051  0.2288 -0.1442 -0.2364
17108SOL    HW154344   1.006  -0.047   8.080  0.3766 -0.5624 -0.7397
17108SOL    HW254345   1.155  -0.042   8.049  0.3212  0.0055 -0.9100
17109SOL     OW54346   4.573   4.909   3.848  0.4346 -0.7622  0.1202
17109SOL    HW154347   4.610   4.997   3.857 -0.7639 -0.2852  0.4524
17109SOL    HW254348   4.625   4.855   3.907  0.5034 -0.0742  0.6958
17110SOL     OW54349   5.865   9.274   3.510  0.5306  0.4164  0.5322
17110SOL    HW154350   5.843   9.215   3.438  2.0907  0.6722 -0.1559
17110SOL    HW254351   5.822   9.357   3.487  1.0717  0.5137 -0.1285
17111SOL     OW54352   1.023   5.875   4.437  0.2997 -0.4962 -0.1765
17111SOL    HW154353   0.992   5.965   4.451 -1.9116 -1.3310  0.5997
17111SOL    HW254354   0.966   5.841   4.368  0.4310 -1.6146  0.2527
17112SOL     OW54355   7.493   2.916   6.243 -0.0097  0.5796 -0.3138
17112SOL    HW154356   7.487   3.005   6.208 -3.2989  0.2184 -0.8155
17112SOL    HW254357   7.571   2.879   6.201 -0.1219  2.3316 -2.1416
17113SOL     OW54358   9.318   8.675   3.917 -0.2795  0.3926 -0.3074
17113SOL    HW154359   9.224   8.667   3.902 -0.0409 -0.2118 -1.5594
17113SOL    HW254360   9.357   8.674   3.829  0.8959  0.6132  0.1964
17114SOL     OW54361   5.021   2.503   0.430 -0.2915  0.1361  0.4453
17114SOL    HW154362   5.039   2.413   0.455  0.3170  0.2728  0.5211
17114SOL    HW254363   5.024   2.552   0.513  2.0877  0.6472  0.0934
17115SOL     OW54364   2.585   7.140   0.703 -0.1631  0.6550  0.3671
17115SOL    HW154365   2.680   7.142   0.692 -0.0520  0.0873  1.1518
17115SOL    HW254366   2.571   7.165   0.794 -0.7018 -0.2094  0.5287
17116SOL     OW54367   1.926   7.251   7.526 -0.2946  0.0052 -0.0821
17116SOL    HW154368   2.002   7.264   7.583 -1.1159  1.2009  0.7770
17116SOL    HW254369   1.962   7.254   7.438  0.3931  2.5726  0.2526
17117SOL     OW54370   4.207   6.737   4.838 -0.2744  0.2506 -0.1288
17117SOL    HW154371   4.114   6.753   4.851 -0.2793  0.4826 -0.4312
17117SOL    HW254372   4.242   6.725   4.926  0.0475  3.7610  0.2959
17118SOL     OW54373   5.020   3.950   1.580 -0.3667 -0.3714  0.0693
17118SOL    HW154374   4.975   3.918   1.502  0.4552  0.9683 -0.9822
17118SOL    HW254375   5.035   4.043   1.562  0.9698 -0.3375  1.2921
17119SOL     OW54376   4.183   5.699   9.158  0.1524 -0.3397 -0.0689
17119SOL    HW154377   4.267   5.653   9.166  0.8132  0.6542 -1.2168
17119SOL    HW254378   4.201   5.787   9.190 -0.0560  0.3360 -1.7827
17120SOL     OW54379   3.340   8.715   8.583 -0.1442 -0.3868  0.4138
17120SOL    HW154380   3.387   8.637   8.611  1.8751 -0.3631 -2.7716
17120SOL    HW254381   3.390   8.788   8.621  0.9428 -0.4704 -0.8230
17121SOL     OW54382   2.821   5.916   5.819  0.0184  0.0593 -0.0707
17121SOL    HW154383   2.852   5.992   5.869 -2.0811  0.9248 -0.0262
17121SOL    HW254384   2.825   5.843   5.880  1.4690  0.2572  0.0746
17122SOL     OW54385   0.870   1.748   3.495 -0.2296  0.1077  0.2185
17122SOL    HW154386   0.886   1.828   3.546  0.3239 -0.7858  1.4664
17122SOL    HW254387   0.834   1.780   3.412 -0.3244  1.6403  0.8237
17123SOL     OW54388   7.139   4.936   8.183 -0.7158 -0.1385  0.2541
17123SOL    HW154389   7.160   4.909   8.093  0.4007  2.5910 -0.3411
17123SOL    HW254390   7.173   4.865   8.238 -1.1779 -1.7094 -1.4558
17124SOL     OW54391   7.364   7.814   1.484  0.2880 -0.1242  0.2099
17124SOL    HW154392   7.328   7.742   1.536  1.6834  0.1894  1.6357
17124SOL    HW254393   7.388   7.881   1.548 -0.2763  1.3162 -1.0451
17125SOL     OW54394   0.722   3.901   4.694 -0.1145  0.2794  0.5297
17125SOL    HW154395   0.736   3.898   4.600  3.0587  0.7873  0.9216
17125SOL    HW254396   0.737   3.811   4.723  1.3253  0.6052  0.8268
17126SOL     OW54397   7.883   8.396   1.946  0.0152  0.1178  0.1005
17126SOL    HW154398   7.945   8.454   1.903  0.6279  0.2912  1.1978
17126SOL    HW254399   7.915   8.388   2.036 -0.7682 -0.9076  0.3079
17127SOL     OW54400   2.730   9.257   6.863  0.1754 -0.1924  0.1849
17127SOL    HW154401   2.722   9.320   6.935 -0.1781 -0.2031  0.1560
17127SOL    HW254402   2.651   9.270   6.811 -0.2400 -1.1338  0.5584
17128SOL     OW54403   8.799   1.533   7.617  0.6020  0.1604  0.4068
17128SOL    HW154404   8.720   1.580   7.591  0.9445  0.5622  0.0799
17128SOL    HW254405   8.793   1.448   7.573  1.6553  1.1980 -1.8213
17129SOL     OW54406   1.079   5.628   7.166 -0.3546  0.6754 -0.7675
17129SOL    HW154407   1.045   5.553   7.117  0.4246 -0.2863  0.1560
17129SOL    HW254408   1.103   5.592   7.251  1.2998  1.7018 -0.7815
17130SOL     OW54409   6.518   3.321   7.958 -0.6228 -0.4889  0.0131
17130SOL    HW154410   6.441   3.280   7.998 -3.3050  2.9355 -1.3200
17130SOL    HW254411   6.481   3.389   7.901  3.4113  0.7174 -1.3066
17131SOL     OW54412   0.123   6.983   6.913  0.2940 -0.4959  0.7599
17131SOL    HW154413   0.032   7.008   6.929  0.7032  0.8826  1.0602
17131SOL    HW254414   0.124   6.948   6.825 -0.3973  0.2182  0.4635
17132SOL     OW54415   2.650   4.419   0.699  0.2546 -0.4778 -0.1630
17132SOL    HW154416   2.566   4.401   0.658  0.8826 -0.9423 -1.2769
17132SOL    HW254417   2.669   4.340   0.751 -0.6896  0.2388  1.3017
17133SOL     OW54418   8.465   6.743   7.301 -0.3765 -0.5912 -0.5105
17133SOL    HW154419   8.420   6.810   7.249  1.8678  0.0569 -1.6952
17133SOL    HW254420   8.396   6.701   7.352 -2.0864  1.3514 -1.1794
17134SOL     OW54421   9.303   6.519   3.987 -0.4223  0.2279 -0.2323
17134SOL    HW154422   9.310   6.458   4.061  2.2620 -1.3854 -1.7062
17134SOL    HW254423   9.317   6.464   3.910 -1.8033  2.1084 -1.8771
17135SOL     OW54424   7.030   4.568   2.507  0.1659 -0.4803 -0.0256
17135SOL    HW154425   6.968   4.586   2.577  0.5233 -3.1819  1.0657
17135SOL    HW254426   7.105   4.625   2.525 -0.2749 -0.2404  1.0697
17136SOL     OW54427   7.405   4.653   9.323  0.4383  0.1024  0.0981
17136SOL    HW154428   7.495   4.622   9.319  1.1079  1.7308  1.9264
17136SOL    HW254429   7.412   4.748   9.324 -1.4420  0.3012 -2.3203
17137SOL     OW54430   9.127   5.522   2.564 -0.0931 -1.0148 -0.5111
17137SOL    HW154431   9.127   5.431   2.536 -0.4480 -1.1508 -0.0633
17137SOL    HW254432   9.084   5.522   2.649 -0.0161 -0.4415 -0.4664
17138SOL     OW54433   8.780   5.068   3.442 -0.1958 -0.0534 -0.1822
17138SOL    HW154434   8.719   4.998   3.467  0.2637 -0.4022 -0.0400
17138SOL    HW254435   8.761   5.084   3.350  2.2343 -2.9563 -1.2842
17139SOL     OW54436   0.056   4.127   1.586 -0.7883 -0.3904 -0.8812
17139SOL    HW154437   0.109   4.077   1.524 -0.5266  0.0310 -1.0031
17139SOL    HW254438   0.015   4.061   1.642 -1.8599 -0.8324 -2.1632
17140SOL     OW54439   9.091   3.616   6.064  0.4152  0.0027  0.2345
17140SOL    HW154440   9.141   3.552   6.115 -0.7230 -0.2976  0.9742
17140SOL    HW254441   9.108   3.699   6.107 -1.4658 -0.4131  1.8218
17141SOL     OW54442   0.295   3.250   2.317  0.9227  0.0186 -0.3405
17141SOL    HW154443   0.247   3.253   2.234  1.3965 -0.0449 -0.6153
17141SOL    HW254444   0.386   3.268   2.293  1.0555  0.0280  0.1682
17142SOL     OW54445   1.627   0.447   2.511 -0.8630 -0.1036  0.2588
17142SOL    HW154446   1.606   0.408   2.596 -1.9314 -0.0770  0.0220
17142SOL    HW254447   1.542   0.452   2.466  0.0806 -2.8419 -1.9589
17143SOL     OW54448   1.680   8.968   3.000 -0.0055  0.0171 -0.6658
17143SOL    HW154449   1.669   8.981   2.906  1.6602  0.6879 -0.7983
17143SOL    HW254450   1.769   8.934   3.009 -0.3637 -0.6181  0.6241
17144SOL     OW54451   9.319   8.642   1.656  0.2544 -0.3317  0.6598
17144SOL    HW154452   9.292   8.573   1.717  2.2141 -1.3114  0.4543
17144SOL    HW254453   9.373   8.701   1.709 -1.7742  1.3159  0.9440
17145SOL     OW54454   0.418   4.090   4.357  0.4823  0.5760 -0.1247
17145SOL    HW154455   0.332   4.048   4.347  1.1055 -0.8331  0.2279
17145SOL    HW254456   0.431   4.137   4.276  0.3576 -1.0826 -1.1323
17146SOL     OW54457   0.150   3.249   2.103 -0.5696 -0.5477  0.0531
17146SOL    HW154458   0.063   3.258   2.064  0.7023 -0.0710 -2.8678
17146SOL    HW254459   0.177   3.160   2.081 -0.2265 -0.6123  0.7425
17147SOL     OW54460   0.100   8.806   8.776 -0.0051  0.4925  0.1517
17147SOL    HW154461   0.140   8.759   8.703 -1.2710 -0.2913 -0.0568
17147SOL    HW254462   0.033   8.746   8.809 -1.3157  1.9435  0.1851
17148SOL     OW54463   0.957   8.044   4.849 -0.2324 -0.2401 -0.1135
17148SOL    HW154464   0.898   7.970   4.834 -1.9296  0.9989  0.2131
17148SOL    HW254465   1.011   8.019   4.923  0.6809 -1.9915 -1.3341
17149SOL     OW54466   0.359   3.533   1.739  0.0426 -0.3242 -0.8729
17149SOL    HW154467   0.346   3.472   1.666 -0.2141 -0.2638 -0.8777
17149SOL    HW254468   0.379   3.477   1.814  1.4950 -0.3333 -1.2439
17150SOL     OW54469   2.808   6.986   5.671 -0.7574 -0.2754  0.1377
17150SOL    HW154470   2.760   6.914   5.629 -2.4470  0.3584  0.9455
17150SOL    HW254471   2.885   6.944   5.710 -0.9130 -1.3825 -0.7114
17151SOL     OW54472   0.225   9.148   4.523  0.2328  0.2430 -0.1040
17151SOL    HW154473   0.247   9.144   4.430 -0.4607  0.7813 -0.2986
17151SOL    HW254474   0.202   9.240   4.538 -0.6368 -0.0418  0.3716
17152SOL     OW54475   4.768   1.262   5.243  0.1474 -0.1838 -0.2906
17152SOL    HW154476   4.683   1.282   5.204  0.0833  1.3710  0.5964
17152SOL    HW254477   4.777   1.167   5.235 -1.7782 -0.3877 -0.1829
17153SOL     OW54478   0.120   3.289   7.161  0.3916  0.4539 -0.3297
17153SOL    HW154479   0.025   3.299   7.172  0.6129  0.0536  2.0920
17153SOL    HW254480   0.129   3.235   7.082 -1.4486 -0.8681  0.3302
17154SOL     OW54481   2.984   3.537   6.722  0.4441  0.0646 -0.3975
17154SOL    HW154482   2.976   3.445   6.745 -0.6891  0.9461  3.0376
17154SOL    HW254483   3.077   3.549   6.703  0.8901 -1.4351  0.7457
17155SOL     OW54484   8.972   1.643   7.761 -0.3090  0.2458 -0.5079
17155SOL    HW154485   8.915   1.598   7.700  0.2741  1.3191 -1.8761
17155SOL    HW254486   9.057   1.599   7.752 -0.9117 -1.4722  1.6562
17156SOL     OW54487   7.397   5.219   7.726  0.1067  0.4641  0.1229
17156SOL    HW154488   7.422   5.177   7.809  0.1713  1.7502  0.7662
17156SOL    HW254489   7.367   5.306   7.752  0.8179  1.1321 -1.2817
17157SOL     OW54490   3.133   4.396   2.967 -0.4437 -0.0410 -0.1872
17157SOL    HW154491   3.204   4.454   2.993 -1.6964  1.2298  0.5036
17157SOL    HW254492   3.084   4.446   2.902 -0.4524 -1.0794 -0.9857
17158SOL     OW54493   3.033   6.548   4.337 -0.6200 -0.8367  0.0836
17158SOL    HW154494   2.985   6.477   4.381  1.9781 -1.8675  1.3967
17158SOL    HW254495   3.117   6.551   4.382 -0.2857  2.4688 -0.6171
17159SOL     OW54496   0.240   7.125   5.395 -0.3058 -0.3343 -0.6693
17159SOL    HW154497   0.157   7.127   5.442 -0.6794 -0.6637 -1.3150
17159SOL    HW254498   0.305   7.149   5.461 -0.9743  0.5329 -0.3162
17160SOL     OW54499   3.988   0.340   1.020 -0.2190 -0.1957  0.2351
17160SOL    HW154500   4.038   0.404   0.968  0.3295 -1.0118 -0.2495
17160SOL    HW254501   3.997   0.258   0.972  0.8730 -1.1094  1.9652
17161SOL     OW54502   1.132   1.026   2.441 -0.3442 -0.5351  0.3387
17161SOL    HW154503   1.121   1.121   2.435  0.1132 -0.4625  0.6345
17161SOL    HW254504   1.227   1.013   2.438 -0.4010 -0.9761  0.4259
17162SOL     OW54505   6.455   8.412   2.377  0.3126  0.2157 -0.3699
17162SOL    HW154506   6.450   8.346   2.445 -0.6603 -1.8398 -2.3801
17162SOL    HW254507   6.386   8.475   2.399 -0.8431 -1.1104 -0.1510
17163SOL     OW54508   7.495   4.650   6.137  0.3600  0.1067  0.3263
17163SOL    HW154509   7.415   4.624   6.092  1.8524 -0.4274 -2.1686
17163SOL    HW254510   7.542   4.568   6.152  0.1983  0.3600  2.2990
17164SOL     OW54511   7.127   5.394   0.666  0.7590  0.0521  0.2548
17164SOL    HW154512   7.131   5.436   0.581  0.6753  0.3906  0.4171
17164SOL    HW254513   7.152   5.462   0.728 -1.1138  0.3848  0.6919
17165SOL     OW54514   1.395   8.203   8.393 -0.0636 -0.2952  0.1455
17165SOL    HW154515   1.451   8.143   8.442  0.7797  0.7633  0.4878
17165SOL    HW254516   1.454   8.247   8.332 -0.9047 -0.7499 -0.9993
17166SOL     OW54517   9.263   4.225   5.053  0.3585 -0.1814 -0.4117
17166SOL    HW154518   9.333   4.227   5.118  1.9157 -0.9292 -2.0264
17166SOL    HW254519   9.280   4.147   5.001 -2.2629 -0.9210 -0.2340
17167SOL     OW54520   6.962   9.092   3.543 -0.1609  0.7082  0.4622
17167SOL    HW154521   7.021   9.059   3.474  0.2746  1.5724  0.4101
17167SOL    HW254522   6.880   9.109   3.498 -0.1147  0.5277  0.3101
17168SOL     OW54523   9.253   7.938   3.815 -0.1492  0.0304 -0.0707
17168SOL    HW154524   9.308   7.865   3.787  1.1181  1.3199 -1.0316
17168SOL    HW254525   9.195   7.954   3.741 -0.4487 -0.0290  0.1531
17169SOL     OW54526   0.066   1.779   2.459 -0.3139 -0.2740  0.7079
17169SOL    HW154527   0.000   1.770   2.390  0.6943 -1.1229 -0.1409
17169SOL    HW254528   0.134   1.834   2.420 -0.3274  0.2847  1.4594
17170SOL     OW54529   8.320   0.739   5.226 -0.2804 -0.5631  0.0820
17170SOL    HW154530   8.338   0.820   5.274 -2.4587  0.3279 -0.5432
17170SOL    HW254531   8.391   0.733   5.162  0.1158  0.6490  0.3932
17171SOL     OW54532   7.582   4.806   6.824  0.1132  0.4710  0.1903
17171SOL    HW154533   7.606   4.898   6.811  2.2358 -0.2644 -1.1632
17171SOL    HW254534   7.574   4.797   6.919 -2.4037  2.5904  0.2576
17172SOL     OW54535   1.360   2.386   8.230  0.6105 -0.4005  0.5722
17172SOL    HW154536   1.439   2.347   8.269  1.5106  0.5793 -0.2413
17172SOL    HW254537   1.308   2.312   8.200  1.6180 -1.0228  0.3579
17173SOL     OW54538   6.987   2.946   5.764 -0.3583  0.1200  0.1596
17173SOL    HW154539   7.063   2.932   5.821  0.3904  1.2495 -0.5397
17173SOL    HW254540   6.986   2.870   5.706  2.2120  1.6367 -1.9923
17174SOL     OW54541   2.921   2.597   4.275  0.3601  0.7293 -0.2256
17174SOL    HW154542   2.957   2.578   4.361 -1.1058  0.5230  0.3579
17174SOL    HW254543   2.840   2.644   4.293 -0.7400 -0.6554 -1.4451
17175SOL     OW54544   6.597   0.440   5.899  0.0602 -0.0454 -0.1655
17175SOL    HW154545   6.526   0.431   5.836  0.3765  0.9466 -0.6754
17175SOL    HW254546   6.608   0.352   5.935 -0.0036 -0.6748 -1.6266
17176SOL     OW54547   8.358   1.629   7.911  0.5755 -0.0788 -0.2031
17176SOL    HW154548   8.281   1.640   7.967 -0.5281 -0.5569 -1.6219
17176SOL    HW254549   8.385   1.538   7.926  1.8218  0.5334  1.4728
17177SOL     OW54550   2.341   7.429   5.184  0.1637 -0.0247  0.5993
17177SOL    HW154551   2.329   7.361   5.117 -1.0594 -0.3542  1.1213
17177SOL    HW254552   2.254   7.468   5.194  0.4562  0.4040  1.5833
17178SOL     OW54553   7.323   5.143   5.219 -0.1167 -0.4552 -0.4529
17178SOL    HW154554   7.283   5.133   5.305  0.0999 -3.2242 -0.6248
17178SOL    HW254555   7.416   5.157   5.237 -0.5641  2.5872 -0.1729
17179SOL     OW54556   2.269   5.057   9.244 -0.0731 -0.2311  0.7968
17179SOL    HW154557   2.324   5.124   9.283 -1.9017  1.8969 -0.1812
17179SOL    HW254558   2.198   5.045   9.308 -0.6398 -0.0238  0.2100
17180SOL     OW54559   2.277   4.118   1.943 -0.5851 -0.9312  0.7553
17180SOL    HW154560   2.255   4.067   2.021  0.1757  0.1805  1.6990
17180SOL    HW254561   2.372   4.130   1.947 -0.5298 -0.8939 -0.3644
17181SOL     OW54562   3.230   5.729   5.840 -0.2275 -0.8466 -0.0460
17181SOL    HW154563   3.230   5.651   5.896 -1.8950 -1.2544 -0.5991
17181SOL    HW254564   3.321   5.759   5.842  0.3239 -2.4830  0.6152
17182SOL     OW54565   2.232   8.238   3.528 -0.2405 -0.7228 -0.1100
17182SOL    HW154566   2.168   8.167   3.522 -1.2410 -0.2364  3.7140
17182SOL    HW254567   2.186   8.309   3.572  1.7178  1.1883 -1.0304
17183SOL     OW54568   5.335   6.210   7.703  0.0455 -0.1054  0.1409
17183SOL    HW154569   5.383   6.163   7.636  1.7991 -0.0962  1.3499
17183SOL    HW254570   5.375   6.297   7.705 -3.4543  1.6548 -2.3817
17184SOL     OW54571   0.170   1.322   2.770 -0.4711  0.5892  0.3091
17184SOL    HW154572   0.098   1.372   2.732 -0.2785 -0.7635 -1.9150
17184SOL    HW254573   0.191   1.256   2.704  1.5861 -0.2077  1.7096
17185SOL     OW54574   1.735   6.437   6.862 -0.5819 -0.4080 -0.3681
17185SOL    HW154575   1.658   6.451   6.917 -0.9479  1.3918 -1.3039
17185SOL    HW254576   1.807   6.475   6.912 -0.6623 -0.1775 -0.4237
17186SOL     OW54577   8.782   3.095   0.710 -0.1150 -1.1276 -0.5810
17186SOL    HW154578   8.763   3.124   0.621  1.1069 -1.8216 -1.0772
17186SOL    HW254579   8.877   3.086   0.713  0.1981  2.1615  1.8426
17187SOL     OW54580   8.589   0.956   8.256 -0.2771 -0.0875  0.4302
17187SOL    HW154581   8.539   0.876   8.241  0.5203 -0.8799  1.8850
17187SOL    HW254582   8.657   0.955   8.188  0.1669 -1.0237  0.8731
17188SOL     OW54583   1.548   4.023   9.260  0.4092 -0.2761 -0.7441
17188SOL    HW154584   1.634   4.024   9.304 -0.3012  0.1869  0.6916
17188SOL    HW254585   1.506   4.104   9.290 -0.9489 -1.0335 -0.5795
17189SOL     OW54586   5.033   1.563   1.717  0.5743  0.0480 -0.0016
17189SOL    HW154587   5.045   1.568   1.623 -0.4482 -0.5947 -0.1790
17189SOL    HW254588   4.967   1.630   1.737  1.5803  0.9216  0.4093
17190SOL     OW54589   3.482   0.730   6.780  0.1427  0.3830 -0.5644
17190SOL    HW154590   3.418   0.790   6.819  1.4211  2.1935 -1.1967
17190SOL    HW254591   3.508   0.673   6.852  0.0431  1.5661  0.4279
17191SOL     OW54592   2.016   1.519   6.871 -0.5088  0.0116 -0.3347
17191SOL    HW154593   1.957   1.569   6.815 -0.6503  0.1682 -0.0499
17191SOL    HW254594   2.103   1.555   6.854 -0.3713 -0.7774 -1.3716
17192SOL     OW54595   5.821   5.283   2.265  0.1449 -0.1310 -0.3903
17192SOL    HW154596   5.893   5.266   2.325  1.0971  1.9091 -0.8950
17192SOL    HW254597   5.825   5.213   2.200 -0.4837 -1.9817  1.5012
17193SOL     OW54598   2.721   4.448   3.474 -0.2029  0.1604 -0.0297
17193SOL    HW154599   2.745   4.356   3.468  0.8247  0.5347 -1.8516
17193SOL    HW254600   2.653   4.460   3.408 -1.9735  0.2313  1.7397
17194SOL     OW54601   3.076   2.810   8.885 -0.2168  0.3273 -0.3535
17194SOL    HW154602   3.088   2.719   8.858 -1.5982 -0.2656  0.9857
17194SOL    HW254603   3.159   2.853   8.861  0.5632 -1.3349 -0.7233
17195SOL     OW54604   6.131   7.381   5.496 -0.6169  0.3827 -0.0576
17195SOL    HW154605   6.136   7.355   5.588  1.1376  1.4893  0.1944
17195SOL    HW254606   6.136   7.477   5.498  1.6774  0.3402 -1.3852
17196SOL     OW54607   0.590   0.096   6.028 -0.3888  0.3954  0.0756
17196SOL    HW154608   0.569   0.189   6.015  0.6429  0.4967 -0.9661
17196SOL    HW254609   0.653   0.076   5.959  0.3456 -0.7591  1.0527
17197SOL     OW54610   6.744   7.671   5.764  0.4458  0.2731 -0.7068
17197SOL    HW154611   6.747   7.609   5.691 -0.5498  0.1948 -0.6912
17197SOL    HW254612   6.832   7.667   5.803  1.0397  0.4576 -2.0074
17198SOL     OW54613   3.750   2.580   8.091  0.1044  0.4464 -0.5980
17198SOL    HW154614   3.779   2.521   8.160  0.8822  0.6971 -0.7052
17198SOL    HW254615   3.654   2.570   8.089  0.1463 -0.0933  0.0230
17199SOL     OW54616   7.457   6.244   4.687  0.0378 -1.3560  0.0512
17199SOL    HW154617   7.386   6.279   4.634  1.4882  0.2632 -0.8618
17199SOL    HW254618   7.427   6.254   4.777 -0.6011 -0.0133 -0.2996
17200SOL     OW54619   3.297   5.226   1.295  0.0701  0.0386 -0.1788
17200SOL    HW154620   3.370   5.197   1.349 -0.6436 -1.0897  0.1995
17200SOL    HW254621   3.319   5.316   1.271  0.9905  0.1247  0.9530
17201SOL     OW54622   7.906   2.436   5.098  0.1131 -0.0627  0.5944
17201SOL    HW154623   7.837   2.480   5.147 -0.0722  1.2709 -0.8518
17201SOL    HW254624   7.987   2.472   5.132  0.0843 -0.9181  1.6056
17202SOL     OW54625   8.166   7.563   4.787  0.0696 -0.0753 -0.2388
17202SOL    HW154626   8.082   7.606   4.767 -0.5613 -0.4939  1.4188
17202SOL    HW254627   8.219   7.631   4.827 -0.5000 -0.5070  1.2881
17203SOL     OW54628   0.531   8.877   4.957 -0.4684  0.3331 -0.9253
17203SOL    HW154629   0.438   8.895   4.941 -1.5237 -0.8524  3.2337
17203SOL    HW254630   0.536   8.781   4.958 -0.4815  0.2256  4.5474
17204SOL     OW54631   7.342   6.600   6.994 -0.4825 -0.3631 -0.5538
17204SOL    HW154632   7.431   6.630   6.974 -0.2058  1.1271  2.6063
17204SOL    HW254633   7.297   6.678   7.027 -1.8432 -1.8771  1.3191
17205SOL     OW54634   6.274   6.072   8.777 -0.1263 -0.0259  0.7143
17205SOL    HW154635   6.349   6.021   8.806 -1.1022 -0.9222  1.7035
17205SOL    HW254636   6.246   6.031   8.695  1.5323  1.4098 -0.6267
17206SOL     OW54637   3.990   8.249   7.763  0.5495 -0.0820  0.0234
17206SOL    HW154638   4.068   8.304   7.772  0.6343 -0.0238 -0.9737
17206SOL    HW254639   4.012   8.168   7.809  1.4572 -0.3223 -0.8079
17207SOL     OW54640   4.604   3.179   1.197  0.4923 -0.1075  0.1711
17207SOL    HW154641   4.592   3.093   1.238 -0.3024 -0.3344 -0.5207
17207SOL    HW254642   4.662   3.227   1.257 -0.2287 -0.6197  1.2955
17208SOL     OW54643   2.924   6.203   2.308 -0.0002 -0.4695 -0.9445
17208SOL    HW154644   2.980   6.173   2.237 -1.7595 -2.6544 -1.4554
17208SOL    HW254645   2.962   6.163   2.387  2.2531  2.3626 -0.4849
17209SOL     OW54646   3.910   7.676   9.245 -0.2486 -0.3289  0.3148
17209SOL    HW154647   3.943   7.669   9.155 -2.2673  1.4797 -0.6127
17209SOL    HW254648   3.841   7.610   9.250 -1.6919  1.0990 -0.2295
17210SOL     OW54649   5.746   3.731   5.513 -0.0909  0.2311 -0.7314
17210SOL    HW154650   5.719   3.821   5.495  0.4901  0.3138 -1.2072
17210SOL    HW254651   5.764   3.694   5.427 -4.3954 -1.6880 -0.9200
17211SOL     OW54652   1.959   4.377   1.435  0.8490 -0.1715  0.1973
17211SOL    HW154653   1.946   4.367   1.341  0.3359 -0.1108  0.2577
17211SOL    HW254654   2.024   4.310   1.458 -0.0825 -1.1377  0.0402
17212SOL     OW54655   2.183   1.711   4.801 -0.4856 -0.1831  0.7342
17212SOL    HW154656   2.103   1.763   4.804 -0.6567 -0.4795  1.5020
17212SOL    HW254657   2.254   1.775   4.811 -0.6648 -0.0130  0.9190
17213SOL     OW54658   0.279   4.132   6.985 -0.2802  0.4447  0.1544
17213SOL    HW154659   0.251   4.120   7.076 -1.9771 -0.6438 -0.4788
17213SOL    HW254660   0.323   4.050   6.963 -1.0879  0.1584 -0.4177
17214SOL     OW54661   4.388   0.161   5.604 -0.3067  0.2562 -0.0577
17214SOL    HW154662   4.482   0.147   5.591 -0.2283  1.4550 -0.8751
17214SOL    HW254663   4.359   0.086   5.656  0.5853 -1.5236 -2.0809
17215SOL     OW54664   4.059   2.002   7.196 -0.5145 -0.0789 -0.1475
17215SOL    HW154665   4.122   1.934   7.220 -1.1494 -0.1775  1.2985
17215SOL    HW254666   3.976   1.972   7.233 -1.4027  0.1245 -1.9063
17216SOL     OW54667   0.681   3.482   0.688 -0.3658 -0.3861  0.0721
17216SOL    HW154668   0.660   3.400   0.733 -1.5474 -0.1005  0.0638
17216SOL    HW254669   0.759   3.515   0.733 -0.8164 -0.7226  1.1124
17217SOL     OW54670   0.945   5.616   5.047  0.1367  0.0794 -0.6068
17217SOL    HW154671   1.031   5.575   5.059  0.3813  1.1683  1.7023
17217SOL    HW254672   0.961   5.686   4.984  1.2234  0.9946  0.6460
17218SOL     OW54673   7.669   6.073   8.703  0.0427  0.4557 -0.0204
17218SOL    HW154674   7.659   6.164   8.676  1.5285  0.7559  0.3840
17218SOL    HW254675   7.609   6.025   8.646 -0.2228  1.6006 -0.7347
17219SOL     OW54676   8.064   0.057   4.100 -0.0258  0.3405 -0.0402
17219SOL    HW154677   8.061  -0.039   4.099 -0.1302  0.3380  0.3444
17219SOL    HW254678   8.143   0.079   4.050 -0.0961  0.0585 -0.2754
17220SOL     OW54679   7.514   7.883   7.951  0.7471  0.4572  0.1003
17220SOL    HW154680   7.608   7.904   7.944  1.2899 -1.7290  0.6082
17220SOL    HW254681   7.510   7.788   7.944 -1.5860  0.6117 -1.2610
17221SOL     OW54682   8.691   5.433   8.118  0.3479  0.5097 -0.6589
17221SOL    HW154683   8.689   5.433   8.022  1.4701 -0.1493 -0.6931
17221SOL    HW254684   8.707   5.525   8.142  0.5470  0.5921 -1.1087
17222SOL     OW54685   7.520   5.121   3.193 -0.2321  0.0518  0.5013
17222SOL    HW154686   7.585   5.118   3.263 -0.3920  0.1973  0.6589
17222SOL    HW254687   7.465   5.044   3.207 -0.1056 -0.0591  0.3803
17223SOL     OW54688   6.644   0.883   5.925 -0.6668  0.3653 -0.1520
17223SOL    HW154689   6.559   0.844   5.907 -1.4698  0.0887  3.8271
17223SOL    HW254690   6.624   0.973   5.952  0.5300  1.0355 -1.4022
17224SOL     OW54691   4.225   5.015   7.306  0.2042  0.2083 -0.8205
17224SOL    HW154692   4.156   4.951   7.327  1.4781 -1.0875 -0.5059
17224SOL    HW254693   4.283   5.014   7.382  1.0201  0.6989 -1.4231
17225SOL     OW54694   3.829   8.234   6.345 -0.3465 -0.0025  0.3437
17225SOL    HW154695   3.799   8.252   6.435 -0.0597  2.4174 -0.0311
17225SOL    HW254696   3.764   8.276   6.290 -0.3120 -1.1754 -0.6123
17226SOL     OW54697   2.615   2.261   5.893 -0.5016 -0.2331  0.0805
17226SOL    HW154698   2.595   2.228   5.980 -1.2128  0.5802  0.2438
17226SOL    HW254699   2.625   2.183   5.839  1.0178 -0.7702  1.1039
17227SOL     OW54700   6.786   0.406   6.371 -0.0372 -0.5175  0.2493
17227SOL    HW154701   6.706   0.455   6.389  0.1561 -0.1705  0.1649
17227SOL    HW254702   6.847   0.471   6.335  0.9645 -0.3590  2.2061
17228SOL     OW54703   2.452   0.630   5.992  0.4387 -0.2202 -0.0512
17228SOL    HW154704   2.524   0.634   6.055  0.1442 -0.2598  0.2864
17228SOL    HW254705   2.441   0.537   5.973 -2.1035 -0.5890  2.8686
17229SOL     OW54706   0.722   4.028   9.223  0.4777 -0.0651  0.5776
17229SOL    HW154707   0.656   3.976   9.177  0.6273 -0.5567  0.9147
17229SOL    HW254708   0.794   3.967   9.238  0.5830  0.1911  1.1321
17230SOL     OW54709   4.442   0.359   8.188 -0.1645  0.2196  0.4080
17230SOL    HW154710   4.506   0.343   8.118 -0.4177 -0.2794  0.2869
17230SOL    HW254711   4.479   0.314   8.264  0.4336  1.3119  0.7736
17231SOL     OW54712   9.027   5.373   4.440 -0.2595  0.3136 -0.0247
17231SOL    HW154713   8.942   5.392   4.479  0.8259 -0.2084  2.7355
17231SOL    HW254714   9.085   5.440   4.476  1.0775 -1.0591  0.4488
17232SOL     OW54715   5.418   7.396   5.245  0.5541 -0.0601  0.0285
17232SOL    HW154716   5.457   7.362   5.325 -0.7158 -1.5248  0.0648
17232SOL    HW254717   5.481   7.375   5.176  1.0942  0.0998  0.4739
17233SOL     OW54718   2.893   6.317   1.948 -0.6977  0.0987  0.0100
17233SOL    HW154719   2.870   6.387   1.887 -2.1881  1.4249  2.0258
17233SOL    HW254720   2.814   6.263   1.953  0.7104 -2.2313 -2.1396
17234SOL     OW54721   7.197   2.513   4.940  0.0039 -0.1233 -0.1654
17234SOL    HW154722   7.238   2.556   4.864 -2.1402  0.7162 -0.8900
17234SOL    HW254723   7.226   2.564   5.015 -0.3430  0.9539 -0.7493
17235SOL     OW54724   7.854   2.730   0.972 -0.3040 -0.2647  0.2924
17235SOL    HW154725   7.939   2.764   0.943 -0.6969  1.2758  0.9095
17235SOL    HW254726   7.807   2.712   0.890  0.7499 -1.5143 -0.0572
17236SOL     OW54727   2.031   0.101   0.461  0.0005 -0.2971  0.2946
17236SOL    HW154728   2.033   0.195   0.444 -1.3376 -0.1052  1.1115
17236SOL    HW254729   1.948   0.072   0.424  0.9809 -1.4055 -1.0861
17237SOL     OW54730   2.994   3.486   9.088 -0.0212 -0.0301 -0.0286
17237SOL    HW154731   3.068   3.513   9.034  0.4069  0.3560  0.7436
17237SOL    HW254732   2.954   3.568   9.118  0.1782 -0.2341  0.8230
17238SOL     OW54733   7.491   4.183   8.945  0.1930  0.0770  0.4446
17238SOL    HW154734   7.456   4.269   8.921 -1.4011 -0.8899 -0.7307
17238SOL    HW254735   7.429   4.120   8.909  0.2803 -1.5546  3.0011
17239SOL     OW54736   5.084   4.505   2.458 -0.4238  0.1461  0.4773
17239SOL    HW154737   5.160   4.521   2.513  1.2589  0.0071 -1.7062
17239SOL    HW254738   5.084   4.410   2.444 -0.6018  0.2269 -0.0978
17240SOL     OW54739   8.614   3.460   3.532  0.4620 -0.0224  0.0335
17240SOL    HW154740   8.520   3.468   3.512  0.1585  0.9190  1.7093
17240SOL    HW254741   8.630   3.365   3.533 -0.0856 -0.1561 -1.8958
17241SOL     OW54742   0.295   7.906   6.827  0.0141  0.1242 -0.3565
17241SOL    HW154743   0.343   7.969   6.880  0.2135  0.9046 -1.4661
17241SOL    HW254744   0.321   7.924   6.737  1.1556 -2.4591 -0.5937
17242SOL     OW54745   7.978   8.209   6.166 -0.1514 -0.6871 -0.5810
17242SOL    HW154746   7.886   8.231   6.154  0.0905  0.5736 -0.2177
17242SOL    HW254747   8.025   8.287   6.135  0.7328 -0.6780  0.7833
17243SOL     OW54748   7.521   0.759   5.623  0.0036  0.2848 -0.1497
17243SOL    HW154749   7.584   0.822   5.658  1.4535 -1.2868  0.1523
17243SOL    HW254750   7.465   0.810   5.565  1.0130  1.8866  0.2652
17244SOL     OW54751   5.650   6.325   4.601 -0.3430 -0.1898  0.6052
17244SOL    HW154752   5.724   6.301   4.545 -0.9383  0.7904 -0.6186
17244SOL    HW254753   5.604   6.393   4.552  0.2710  2.1773  3.1466
17245SOL     OW54754   0.249   6.176   6.040 -0.3788 -0.1396 -0.3701
17245SOL    HW154755   0.211   6.088   6.032  1.7396 -1.0190 -1.1715
17245SOL    HW254756   0.249   6.210   5.951  0.0061  0.1427 -0.2644
17246SOL     OW54757   9.245   7.610   0.035  0.4343 -0.0406 -0.2223
17246SOL    HW154758   9.273   7.593  -0.055  1.7799 -1.4228  0.4315
17246SOL    HW254759   9.226   7.523   0.072 -1.4708  0.6167  0.4118
17247SOL     OW54760   4.211   6.519   1.444 -0.7500 -0.5531  0.3078
17247SOL    HW154761   4.283   6.509   1.382 -0.3064  1.7712  0.3972
17247SOL    HW254762   4.254   6.529   1.529 -1.1220  1.4277  0.2856
17248SOL     OW54763   5.547   6.062   5.720  0.1526  0.4569  0.0250
17248SOL    HW154764   5.570   6.123   5.651  0.4169  0.5491  0.1972
17248SOL    HW254765   5.621   6.002   5.726 -0.4120 -0.3281 -0.6407
17249SOL     OW54766   7.384   0.878   0.519  0.3489 -0.1177 -0.4544
17249SOL    HW154767   7.454   0.892   0.584 -2.3509  0.4942  2.4253
17249SOL    HW254768   7.365   0.784   0.524  0.1821 -0.0823 -0.4519
17250SOL     OW54769   5.969   2.775   7.612  0.3498  0.2534 -0.1019
17250SOL    HW154770   5.902   2.832   7.573  0.7012  0.3604 -0.5536
17250SOL    HW254771   6.052   2.818   7.590  0.8342 -2.0715 -3.2258
17251SOL     OW54772   5.801   4.104   5.101  0.2991 -0.0274 -0.2426
17251SOL    HW154773   5.724   4.064   5.059  0.6409 -0.1333 -0.7820
17251SOL    HW254774   5.768   4.182   5.144  0.2471  1.1737 -2.3651
17252SOL     OW54775   4.802   1.215   1.621 -0.1488 -0.5593  0.2810
17252SOL    HW154776   4.784   1.309   1.609 -0.4817 -0.4908  1.2171
17252SOL    HW254777   4.872   1.195   1.559 -0.3521  0.2229 -0.2045
17253SOL     OW54778   7.263   1.366   5.909  0.0528  0.0315  0.7186
17253SOL    HW154779   7.225   1.286   5.872 -1.8530  0.9263  0.7003
17253SOL    HW254780   7.254   1.431   5.839  0.3662  0.6167  1.2189
17254SOL     OW54781   4.972   4.866   2.536  0.0123  0.2807  0.5703
17254SOL    HW154782   4.910   4.927   2.498  1.3032  1.4896  0.3568
17254SOL    HW254783   4.943   4.780   2.505 -2.1070  0.7190  1.3023
17255SOL     OW54784   1.036   4.865   3.001 -0.3826  0.2632 -0.4678
17255SOL    HW154785   1.120   4.874   3.045  0.0696 -0.2915 -1.2019
17255SOL    HW254786   0.979   4.824   3.065  0.1461 -0.1519 -0.2621
17256SOL     OW54787   4.106   4.251   7.453  0.0601  0.3954  0.2224
17256SOL    HW154788   4.128   4.166   7.418 -0.2812  0.5808 -0.4510
17256SOL    HW254789   4.178   4.274   7.511  0.6830  0.1454 -0.4597
17257SOL     OW54790   1.260   5.048   5.800  0.1667 -0.5730  0.5956
17257SOL    HW154791   1.179   5.098   5.792  0.5058 -0.1695 -0.4761
17257SOL    HW254792   1.314   5.100   5.860  1.2392  1.3959 -1.9422
17258SOL     OW54793   9.009   7.498   0.325  0.0837  0.0356  0.5234
17258SOL    HW154794   8.966   7.449   0.396 -2.7901 -0.3601 -1.4167
17258SOL    HW254795   9.058   7.432   0.277 -0.7720 -0.3039  0.1096
17259SOL     OW54796   1.206   3.549   7.331 -0.0405  0.4850  0.3465
17259SOL    HW154797   1.157   3.624   7.365  4.8814  4.2527 -0.2945
17259SOL    HW254798   1.265   3.525   7.402 -0.4900 -1.8171 -0.0328
17260SOL     OW54799   0.639   8.550   4.460 -0.1683 -0.0426 -0.1177
17260SOL    HW154800   0.601   8.483   4.517 -1.6650  1.7738  1.0802
17260SOL    HW254801   0.600   8.533   4.374  0.1507 -1.2514 -0.0269
17261SOL     OW54802   9.263   1.049   2.251  0.0279 -0.0183  0.2599
17261SOL    HW154803   9.197   0.996   2.296  0.8656 -0.8507  0.5315
17261SOL    HW254804   9.296   0.992   2.182  0.5757  0.3322  0.2304
17262SOL     OW54805   4.239   4.196   9.053  0.3704  0.0300 -0.4047
17262SOL    HW154806   4.202   4.194   9.141  0.6044  2.7074 -0.2281
17262SOL    HW254807   4.333   4.195   9.066  0.4196 -1.6570 -0.7188
17263SOL     OW54808   8.335   3.517   9.226 -0.6714 -0.0080  0.0761
17263SOL    HW154809   8.352   3.605   9.192 -0.6400 -0.1592 -0.3058
17263SOL    HW254810   8.262   3.484   9.172 -0.2256 -0.4803 -0.2463
17264SOL     OW54811   0.791   1.696   4.569  0.4530  0.0896  0.1521
17264SOL    HW154812   0.766   1.623   4.513  0.7197  1.2773 -1.5504
17264SOL    HW254813   0.885   1.684   4.583  0.5650  0.3054 -0.4172
17265SOL     OW54814   2.364   5.735   2.879  0.0228  0.1662 -0.5334
17265SOL    HW154815   2.423   5.687   2.937 -2.1887 -0.6837  1.0884
17265SOL    HW254816   2.377   5.694   2.793  0.1678 -1.5434  0.2691
17266SOL     OW54817   1.963   1.682   9.426 -0.1616 -0.1307  0.2952
17266SOL    HW154818   2.037   1.712   9.479 -0.2584  1.8451 -0.6376
17266SOL    HW254819   1.916   1.763   9.402 -1.1220 -1.1354 -1.3023
17267SOL     OW54820   3.759   0.906   2.064  0.3449 -0.2082  0.7732
17267SOL    HW154821   3.803   0.938   1.985 -1.8903  0.9487 -0.0394
17267SOL    HW254822   3.666   0.920   2.047 -0.1587  0.2802  3.7122
17268SOL     OW54823   4.764   4.011   5.478  0.2627  0.1377  0.0273
17268SOL    HW154824   4.669   4.021   5.488 -0.0262 -0.7000 -1.7254
17268SOL    HW254825   4.790   4.085   5.423  0.5820  0.1614  0.2093
17269SOL     OW54826   4.042   4.920   8.215  0.0963  0.0641 -0.1838
17269SOL    HW154827   3.947   4.927   8.208  0.0266 -0.7627 -0.0996
17269SOL    HW254828   4.056   4.854   8.283  0.7238 -0.3973 -0.7532
17270SOL     OW54829   0.933   6.165   7.613  0.1981  0.0693  0.3046
17270SOL    HW154830   0.991   6.103   7.570  0.7062  0.6078  0.2099
17270SOL    HW254831   0.853   6.164   7.560  0.1561 -0.5910  0.3760
17271SOL     OW54832   0.138   5.563   8.540 -0.1684 -0.3564 -0.2218
17271SOL    HW154833   0.192   5.611   8.478  0.1974 -0.1063  0.2832
17271SOL    HW254834   0.134   5.620   8.617 -2.0814  0.1300 -0.6561
17272SOL     OW54835   7.914   0.214   3.042 -0.0582  0.1349  0.1749
17272SOL    HW154836   7.856   0.168   2.981 -0.4970  0.2310  0.5186
17272SOL    HW254837   7.903   0.168   3.125  0.4678  0.0655  0.2084
17273SOL     OW54838   1.755   2.796   5.969  0.9175  0.0123 -0.7313
17273SOL    HW154839   1.736   2.710   5.930  0.0291 -0.2946  0.3660
17273SOL    HW254840   1.701   2.857   5.918 -0.6438 -0.4557  0.3221
17274SOL     OW54841   3.767   8.352   1.206 -1.0116  0.3965 -0.0638
17274SOL    HW154842   3.800   8.267   1.178  0.2333  0.6603  0.5783
17274SOL    HW254843   3.790   8.358   1.299  0.1797  2.0293 -0.4443
17275SOL     OW54844   0.511   4.930   1.389  0.8445 -0.0920 -0.0773
17275SOL    HW154845   0.489   4.988   1.461  1.8080  1.5792 -1.0914
17275SOL    HW254846   0.530   4.845   1.430 -0.4500  0.3301  1.4250
17276SOL     OW54847   8.970   5.118   6.462  0.7718 -0.2059  0.2858
17276SOL    HW154848   8.977   5.145   6.370 -0.2683  0.5103  0.4110
17276SOL    HW254849   8.880   5.139   6.486  0.4800 -2.1456  0.9196
17277SOL     OW54850   7.309   6.239   1.495 -0.8301 -0.2192 -0.3594
17277SOL    HW154851   7.251   6.315   1.484  0.4197  0.9190  0.7208
17277SOL    HW254852   7.386   6.261   1.443 -0.0464 -0.2970  0.7598
17278SOL     OW54853   3.453   0.759   1.471 -0.0633  0.2659  0.1829
17278SOL    HW154854   3.454   0.825   1.402  4.0074  1.1217  0.9039
17278SOL    HW254855   3.470   0.676   1.426 -1.5229  0.2353 -0.3060
17279SOL     OW54856   1.463   8.703   8.596 -0.1095  0.7119  0.0816
17279SOL    HW154857   1.425   8.641   8.534 -1.4858  0.9581  0.6668
17279SOL    HW254858   1.454   8.661   8.681  0.5769  0.9494  0.2814
17280SOL     OW54859   1.499   7.600   4.027  0.0371 -0.1169  0.3905
17280SOL    HW154860   1.476   7.684   3.987  1.1776  0.4292  0.8526
17280SOL    HW254861   1.568   7.565   3.971  0.5295 -0.0958  0.9861
17281SOL     OW54862   8.267   3.263   5.582  0.3477 -0.7368 -0.1786
17281SOL    HW154863   8.229   3.189   5.535  2.1063 -1.2513 -0.8242
17281SOL    HW254864   8.320   3.309   5.517  2.0333 -0.9114  1.0115
17282SOL     OW54865   4.370   1.340   5.553  0.1021 -0.5486  0.2052
17282SOL    HW154866   4.350   1.395   5.629 -1.9489 -0.1017 -0.6403
17282SOL    HW254867   4.302   1.273   5.553 -0.9193  0.4413 -2.1857
17283SOL     OW54868   7.616   1.401   7.457 -0.0690  0.2366  0.7442
17283SOL    HW154869   7.579   1.416   7.370  0.8872 -0.8691  0.1177
17283SOL    HW254870   7.709   1.423   7.447  0.1978 -0.6285  1.2738
17284SOL     OW54871   0.903   3.283   8.574 -0.5876 -0.1800 -0.4046
17284SOL    HW154872   0.993   3.308   8.554 -1.1373 -0.0064 -2.8229
17284SOL    HW254873   0.864   3.360   8.615  0.5872 -0.5550  1.4722
17285SOL     OW54874   4.153   4.918   3.359 -0.5882 -0.5716 -0.1635
17285SOL    HW154875   4.143   4.971   3.437  0.5981  1.6580 -1.4660
17285SOL    HW254876   4.065   4.884   3.341 -1.1754  0.2016  1.2216
17286SOL     OW54877   1.238   7.693   6.204 -0.2466  0.4085 -0.1030
17286SOL    HW154878   1.294   7.616   6.197 -1.2366 -0.3347  0.2333
17286SOL    HW254879   1.267   7.736   6.284 -0.4489 -0.2089  0.3010
17287SOL     OW54880   3.559   5.861   6.012 -0.3673  0.4179  0.1876
17287SOL    HW154881   3.491   5.821   6.067 -1.4281  0.5286 -1.0248
17287SOL    HW254882   3.544   5.824   5.925  1.3394  0.1936 -0.0261
17288SOL     OW54883   3.780   5.488   4.937  0.2078  0.0844 -0.4763
17288SOL    HW154884   3.734   5.559   4.892  0.2250 -0.3888 -1.2469
17288SOL    HW254885   3.835   5.448   4.869  1.5373  0.4574  0.3649
17289SOL     OW54886   4.686   6.566   4.183 -0.0736 -0.3255  0.1870
17289SOL    HW154887   4.759   6.505   4.172 -0.1915 -0.1545 -1.7519
17289SOL    HW254888   4.728   6.649   4.204  0.3547 -0.1024 -1.4676
17290SOL     OW54889   5.811   8.393   5.305  0.6645 -0.2123  0.0741
17290SOL    HW154890   5.751   8.354   5.240  0.9102  1.5942 -1.2569
17290SOL    HW254891   5.887   8.336   5.304  0.3655 -0.6110 -0.7022
17291SOL     OW54892   8.505   7.022   8.212  0.3248 -0.5256  0.0646
17291SOL    HW154893   8.569   6.969   8.260 -0.3662 -2.6084 -1.2666
17291SOL    HW254894   8.556   7.062   8.141  1.0260  1.3498  1.5689
17292SOL     OW54895   9.304   9.141   5.490 -0.4222 -0.4729  0.4397
17292SOL    HW154896   9.312   9.064   5.435 -3.1551  0.1975 -0.9850
17292SOL    HW254897   9.378   9.197   5.467 -0.2924 -1.2086 -0.9076
17293SOL     OW54898   7.998   5.947   5.774 -0.2324 -0.1791 -0.4311
17293SOL    HW154899   7.999   6.018   5.711  1.4575 -0.2381 -0.4806
17293SOL    HW254900   8.090   5.922   5.786 -0.6417 -1.1902  0.8900
17294SOL     OW54901   3.653   3.567   2.655  0.4133 -0.0847 -0.1424
17294SOL    HW154902   3.710   3.554   2.579 -0.4627 -1.5279 -0.5732
17294SOL    HW254903   3.712   3.572   2.729  1.1648 -0.7340 -0.6871
17295SOL     OW54904   8.931   4.475   2.636 -0.3773 -0.5082  0.2062
17295SOL    HW154905   9.015   4.448   2.673 -0.6271 -0.0500  1.1185
17295SOL    HW254906   8.917   4.564   2.669 -0.3183  0.1528 -1.4839
17296SOL     OW54907   5.584   4.524   3.326  0.3011 -0.3935 -0.1030
17296SOL    HW154908   5.572   4.480   3.242  0.5094 -1.6431  0.5142
17296SOL    HW254909   5.649   4.471   3.372  0.3639  0.4098  0.7555
17297SOL     OW54910   1.968   2.934   6.805 -0.3316  0.2967 -0.4996
17297SOL    HW154911   2.060   2.959   6.812 -0.1161 -0.6033  0.0148
17297SOL    HW254912   1.921   3.016   6.792  0.3506  0.9806  1.2287
17298SOL     OW54913   2.333   7.945   3.130 -0.4578  0.0004  0.7815
17298SOL    HW154914   2.299   7.862   3.095 -2.7351  0.7243  1.1994
17298SOL    HW254915   2.298   8.012   3.072  1.4005  0.7106  0.4303
17299SOL     OW54916   8.748   1.968   1.060  0.1186  0.0663 -0.0107
17299SOL    HW154917   8.797   2.019   1.124 -0.8972  0.2366  0.6522
17299SOL    HW254918   8.740   2.026   0.984 -1.6832  1.2409  1.0111
17300SOL     OW54919   8.554   6.818   4.489 -0.2973 -0.1459 -0.4156
17300SOL    HW154920   8.583   6.727   4.486 -0.3001 -0.1421 -0.5938
17300SOL    HW254921   8.530   6.833   4.580 -0.7653 -0.4691 -0.4853
17301SOL     OW54922   5.172   6.699   5.382 -0.1251 -0.3289  0.6944
17301SOL    HW154923   5.212   6.785   5.365 -2.4873  0.4072 -1.4009
17301SOL    HW254924   5.109   6.716   5.451 -0.9177 -0.2606 -0.0371
17302SOL     OW54925   5.589   9.238   6.424  0.3246  0.3057  0.3374
17302SOL    HW154926   5.541   9.157   6.438  0.4490  0.1714 -0.0282
17302SOL    HW254927   5.659   9.215   6.363  1.8077  0.1204  2.0444
17303SOL     OW54928   3.488   5.687   7.042  0.3250 -0.0572 -0.1606
17303SOL    HW154929   3.487   5.774   7.082 -0.8096  0.9361 -2.2163
17303SOL    HW254930   3.411   5.643   7.078  0.8994 -0.1996  0.8853
17304SOL     OW54931   7.886   3.897   6.162 -0.0882 -0.0001  0.7182
17304SOL    HW154932   7.832   3.949   6.103  0.2782 -0.7602 -0.2973
17304SOL    HW254933   7.831   3.884   6.240 -1.3236 -0.6333 -0.2473
17305SOL     OW54934   4.920   9.267   9.119  0.3443  0.5098  0.1495
17305SOL    HW154935   4.971   9.346   9.102 -0.0838  0.7256 -0.1623
17305SOL    HW254936   4.951   9.205   9.053 -1.8439  1.5897 -2.0094
17306SOL     OW54937   8.262   7.911   1.655  0.3117 -0.0135  0.6298
17306SOL    HW154938   8.258   7.882   1.746  0.9534  0.8312  0.9321
17306SOL    HW254939   8.173   7.940   1.635 -0.3237 -2.0511  0.3575
17307SOL     OW54940   5.410   3.901   1.017 -0.2865 -0.2615 -0.1420
17307SOL    HW154941   5.385   3.904   1.110  0.1587 -0.4906 -0.0139
17307SOL    HW254942   5.348   3.840   0.977 -0.5362 -0.0935 -0.0132
17308SOL     OW54943   6.406   0.143   5.494 -0.5890 -0.2129 -0.2616
17308SOL    HW154944   6.475   0.187   5.445 -0.0074  1.2212  1.8098
17308SOL    HW254945   6.447   0.062   5.526 -0.5173 -0.4062 -0.8388
17309SOL     OW54946   2.128   2.032   3.261 -0.0936  0.0106  0.0169
17309SOL    HW154947   2.109   2.029   3.167 -2.1641 -1.1137  0.4365
17309SOL    HW254948   2.064   2.096   3.295 -0.2616 -0.6067  0.8513
17310SOL     OW54949   2.216   2.321   3.645  0.0297  0.1506  0.1558
17310SOL    HW154950   2.205   2.290   3.555  2.0053  0.7668 -0.3219
17310SOL    HW254951   2.272   2.255   3.686 -1.8314 -0.7508  1.2975
17311SOL     OW54952   8.841   2.539   3.211 -0.2199 -0.7210  0.4491
17311SOL    HW154953   8.769   2.564   3.268  0.1221 -0.0811  0.6096
17311SOL    HW254954   8.909   2.508   3.271  0.2168  0.1438  0.4080
17312SOL     OW54955   6.982   5.010   1.723 -0.2099  0.0146  0.6475
17312SOL    HW154956   7.006   4.950   1.652 -0.9363 -0.3794  0.7300
17312SOL    HW254957   6.952   5.089   1.678  1.5758  0.6584  0.5447
17313SOL     OW54958   2.766   3.334   2.636  0.2088  0.1182 -0.4845
17313SOL    HW154959   2.677   3.339   2.670 -0.4026  0.5694 -2.1277
17313SOL    HW254960   2.805   3.259   2.682 -0.3061  1.2001  1.8244
17314SOL     OW54961   7.729   4.759   6.421  0.1764  0.2540 -0.4347
17314SOL    HW154962   7.634   4.744   6.423 -0.0407  1.5818 -0.4448
17314SOL    HW254963   7.755   4.757   6.513  0.0262  0.5422 -0.3845
17315SOL     OW54964   2.192   0.318   0.076 -0.0014  0.0053 -0.2271
17315SOL    HW154965   2.123   0.351   0.018  0.1408 -0.1234 -0.4704
17315SOL    HW254966   2.236   0.251   0.024 -0.0330 -0.2835  0.1230
17316SOL     OW54967   6.958   5.235   7.857  0.1513  0.0037  0.3242
17316SOL    HW154968   6.997   5.266   7.775  2.2326 -1.5995  0.6434
17316SOL    HW254969   7.032   5.230   7.918 -0.8922 -1.2882  1.5170
17317SOL     OW54970   0.017   4.828   1.975 -0.2260  0.1034 -0.2946
17317SOL    HW154971  -0.017   4.767   2.040  1.5170  1.3510  1.8234
17317SOL    HW254972   0.085   4.778   1.929  0.0803 -0.0649  0.3357
17318SOL     OW54973   6.825   6.686   4.328  0.2315 -0.0857 -0.0241
17318SOL    HW154974   6.888   6.757   4.318 -0.0753  0.1507 -0.3084
17318SOL    HW254975   6.823   6.669   4.422 -0.7049  1.2347  0.2273
17319SOL     OW54976   0.337   1.392   0.641 -0.0657  0.1770 -0.2023
17319SOL    HW154977   0.316   1.323   0.703  2.3719 -0.7096 -0.3348
17319SOL    HW254978   0.258   1.400   0.587 -1.6698 -0.0336  2.0238
17320SOL     OW54979   3.158   5.536   4.668  0.0296 -0.6162 -0.1766
17320SOL    HW154980   3.111   5.605   4.621 -1.4382 -1.2460  0.3387
17320SOL    HW254981   3.246   5.538   4.632  0.0040  1.5218 -0.1873
17321SOL     OW54982   1.472   2.894   6.882 -0.1462 -0.5006 -0.4246
17321SOL    HW154983   1.393   2.933   6.843  0.5271 -0.7064 -2.0357
17321SOL    HW254984   1.494   2.822   6.823  1.8475  0.1997 -0.5589
17322SOL     OW54985   3.845   6.620   4.184  0.0158 -0.8175  0.1597
17322SOL    HW154986   3.793   6.692   4.147  3.0107  2.2506  1.7147
17322SOL    HW254987   3.890   6.583   4.108 -2.6816 -2.1708 -0.8868
17323SOL     OW54988   3.493   4.647   8.577 -0.8479  0.1173  0.2476
17323SOL    HW154989   3.472   4.560   8.544  0.4005 -0.5931  1.2657
17323SOL    HW254990   3.465   4.707   8.508 -1.1672 -1.1293 -0.7193
17324SOL     OW54991   5.272   2.604   1.363  0.1790 -0.4572  0.5010
17324SOL    HW154992   5.247   2.595   1.455  0.6972 -2.5149  0.4524
17324SOL    HW254993   5.227   2.533   1.319  0.8401 -0.1673 -0.6617
17325SOL     OW54994   8.919   4.417   6.364 -0.5078  0.3410 -0.7201
17325SOL    HW154995   8.875   4.341   6.403  1.8957  0.3553  2.2744
17325SOL    HW254996   8.863   4.491   6.387 -0.8762 -0.0794 -0.2374
17326SOL     OW54997   4.471   5.102   7.067  0.0629  0.0398  0.2815
17326SOL    HW154998   4.566   5.100   7.078  0.0461 -0.0183  0.4189
17326SOL    HW254999   4.437   5.099   7.157 -0.0703 -0.0884  0.2266
17327SOL     OW55000   2.795   2.560   1.519 -0.2884 -0.0476 -0.4170
17327SOL    HW155001   2.703   2.567   1.496 -0.1535 -1.2879 -1.4144
17327SOL    HW255002   2.841   2.601   1.446 -0.0331  0.1406 -0.1507
17328SOL     OW55003   7.774   3.851   4.870 -0.1883 -0.5375 -0.3983
17328SOL    HW155004   7.687   3.836   4.832 -0.2962 -1.9629  0.3566
17328SOL    HW255005   7.823   3.771   4.850 -0.0573 -1.0651  1.8733
17329SOL     OW55006   4.239   9.074   0.917 -0.3534  0.6697 -0.0122
17329SOL    HW155007   4.189   8.996   0.942 -0.1915  0.7837  0.7061
17329SOL    HW255008   4.208   9.142   0.977  0.1654  0.9169 -0.0163
17330SOL     OW55009   5.319   8.068   9.145  0.3154 -0.7900 -0.0086
17330SOL    HW155010   5.259   8.091   9.215 -0.9668  1.4302 -1.7655
17330SOL    HW255011   5.263   8.058   9.068  1.7323 -2.8326 -0.8219
17331SOL     OW55012   7.420   8.518   1.800  0.0440 -0.6392 -0.1530
17331SOL    HW155013   7.407   8.459   1.873  3.3230 -1.3905 -0.1101
17331SOL    HW255014   7.450   8.600   1.840  2.1038 -1.1367 -0.6345
17332SOL     OW55015   6.211   7.211   3.511  0.4549  0.3826  0.4320
17332SOL    HW155016   6.234   7.121   3.484  0.1884  0.3610  0.2684
17332SOL    HW255017   6.120   7.221   3.483  0.4156  0.6277  0.6536
17333SOL     OW55018   7.100   1.715   8.522 -0.3105  0.7404 -0.5382
17333SOL    HW155019   7.189   1.703   8.556 -0.6243  0.6526  0.2672
17333SOL    HW255020   7.101   1.803   8.484  0.5115  0.2051 -1.7756
17334SOL     OW55021   7.629   0.656   1.860  0.3897 -0.3116 -0.1457
17334SOL    HW155022   7.589   0.599   1.926 -0.7908  0.6757  0.0209
17334SOL    HW255023   7.703   0.696   1.905 -1.0475  1.1809  0.9482
17335SOL     OW55024   6.194   6.658   5.373 -0.2150 -0.2935 -0.5905
17335SOL    HW155025   6.285   6.687   5.366 -0.7808  1.0907 -2.5225
17335SOL    HW255026   6.181   6.645   5.467  1.1281  2.3804  0.0160
17336SOL     OW55027   8.672   3.117   1.801 -0.5688  0.1426  0.6827
17336SOL    HW155028   8.709   3.185   1.858 -0.5138 -1.5541  2.7391
17336SOL    HW255029   8.578   3.134   1.800 -0.4841  0.6101  0.6858
17337SOL     OW55030   8.543   0.213   4.930 -0.3429  0.5539 -0.7589
17337SOL    HW155031   8.503   0.178   4.851  0.2986  0.3862 -1.0132
17337SOL    HW255032   8.472   0.258   4.975 -0.3853  1.9948 -2.1993
17338SOL     OW55033   7.249   6.816   8.126  0.5737 -0.1212 -0.6833
17338SOL    HW155034   7.235   6.735   8.076  0.0837 -0.5808  0.1777
17338SOL    HW255035   7.336   6.846   8.099  1.1873 -1.4788 -0.2959
17339SOL     OW55036   1.580   2.922   7.409  0.4957  0.0183 -0.0026
17339SOL    HW155037   1.658   2.915   7.463 -0.6372 -1.3006  1.4863
17339SOL    HW255038   1.530   2.842   7.427 -0.6911  0.3228 -1.7532
17340SOL     OW55039   8.349   0.255   7.958 -0.3194 -0.4433  0.3162
17340SOL    HW155040   8.414   0.249   8.028  1.2418 -0.5769 -1.1078
17340SOL    HW255041   8.362   0.342   7.920 -0.2545 -0.8644 -0.6431
17341SOL     OW55042   4.635   5.348   1.339 -0.0330  0.2290 -0.4826
17341SOL    HW155043   4.661   5.333   1.248 -0.8565  1.1124 -0.8659
17341SOL    HW255044   4.542   5.324   1.342 -0.5369  2.1474 -0.3593
17342SOL     OW55045   3.431   0.039   2.989  0.5394 -0.4042  0.3100
17342SOL    HW155046   3.367  -0.005   3.045  2.3334 -1.0396  1.9499
17342SOL    HW255047   3.407   0.015   2.900 -1.7661 -0.2311  0.8569
17343SOL     OW55048   3.679   1.061   0.037  0.4428  0.4248  0.0169
17343SOL    HW155049   3.716   1.144   0.008 -1.0267  1.3237  0.6782
17343SOL    HW255050   3.663   1.073   0.130 -0.5660 -0.3105 -0.0539
17344SOL     OW55051   6.038   4.770   9.064 -0.0439 -0.4650 -0.1924
17344SOL    HW155052   6.000   4.780   9.151 -0.9315  0.2653 -0.6516
17344SOL    HW255053   6.080   4.684   9.065  0.1013 -0.3896  1.0045
17345SOL     OW55054   8.755   1.712   7.928 -0.4733 -0.3097 -0.2604
17345SOL    HW155055   8.827   1.697   7.868 -0.7748 -1.5979 -0.3060
17345SOL    HW255056   8.719   1.625   7.946 -2.6067  0.3748 -0.9810
17346SOL     OW55057   9.382   5.458   7.907  0.1887 -0.4778  0.0771
17346SOL    HW155058   9.448   5.416   7.852 -0.0343 -0.6195 -0.0789
17346SOL    HW255059   9.321   5.498   7.845  1.9000  2.5085  0.1706
17347SOL     OW55060   7.468   5.839   3.561 -0.3188 -0.4292  0.0894
17347SOL    HW155061   7.512   5.797   3.487 -1.8653  0.2682 -1.2671
17347SOL    HW255062   7.529   5.907   3.591 -0.0360 -0.1531 -1.0946
17348SOL     OW55063   8.024   4.001   4.848 -0.0237 -0.3817  0.4991
17348SOL    HW155064   8.037   3.922   4.794  0.1315 -0.1883  0.2542
17348SOL    HW255065   7.929   4.004   4.863  0.2132 -1.9690  2.5533
17349SOL     OW55066   4.012   8.245   0.586  0.4711  0.2521  0.0241
17349SOL    HW155067   3.999   8.306   0.513 -1.6202 -0.2761 -0.0876
17349SOL    HW255068   4.013   8.302   0.663 -2.1356  0.4424 -0.0167
17350SOL     OW55069   5.612   3.361   4.648 -0.0333 -0.2792  0.2412
17350SOL    HW155070   5.570   3.287   4.692 -1.1775 -0.0297 -0.4243
17350SOL    HW255071   5.540   3.417   4.621  0.6007 -0.8302 -2.6992
17351SOL     OW55072   7.300   4.778   4.113  0.0192 -0.5898  0.2455
17351SOL    HW155073   7.232   4.738   4.169 -0.8310  1.1140  0.4387
17351SOL    HW255074   7.281   4.871   4.115  0.5562 -0.4059 -2.1737
17352SOL     OW55075   3.121   8.204   0.904 -0.6756 -0.5095 -0.2908
17352SOL    HW155076   3.105   8.298   0.902 -0.0357 -0.3874  0.1306
17352SOL    HW255077   3.194   8.193   0.966 -0.4529 -1.2307 -0.6710
17353SOL     OW55078   4.175   3.035   3.704 -0.1470  0.2691 -0.4106
17353SOL    HW155079   4.094   3.084   3.717  0.2012  0.3190  1.5928
17353SOL    HW255080   4.181   2.977   3.779  2.5791  1.5028  0.3830
17354SOL     OW55081   1.677   7.404   2.842  0.1112  0.3139 -0.4548
17354SOL    HW155082   1.660   7.338   2.910  1.9419  0.3217  0.0439
17354SOL    HW255083   1.751   7.368   2.793 -0.1979  1.0582 -1.4538
17355SOL     OW55084   5.191   2.624   2.379  0.0371  0.5058 -0.2726
17355SOL    HW155085   5.135   2.684   2.429 -0.1974 -0.5137  0.7098
17355SOL    HW255086   5.258   2.596   2.442 -0.9727 -1.7416 -0.1463
17356SOL     OW55087   4.646   3.991   6.216  0.3477  0.0617  0.0168
17356SOL    HW155088   4.560   3.950   6.210  0.9255 -1.2044  0.1369
17356SOL    HW255089   4.662   4.027   6.129  0.4261 -1.2366 -0.5227
17357SOL     OW55090   7.451   1.537   2.229  0.2068  0.1978 -0.1290
17357SOL    HW155091   7.391   1.604   2.196  0.7003 -0.0252 -1.5393
17357SOL    HW255092   7.477   1.568   2.315  1.2194  2.3471 -1.1611
17358SOL     OW55093   0.685   3.364   7.430 -0.5362  0.1491  0.3067
17358SOL    HW155094   0.651   3.374   7.341 -1.9254  1.2345  0.9468
17358SOL    HW255095   0.710   3.452   7.457 -1.7865  0.1178  1.6374
17359SOL     OW55096   8.042   2.462   8.393  0.3201  0.0911 -0.2818
17359SOL    HW155097   7.956   2.501   8.375  1.1585  0.7924 -3.0621
17359SOL    HW255098   8.081   2.520   8.459 -1.7047 -0.8321  1.8171
17360SOL     OW55099   0.404   5.943   7.217  0.4458  0.0263 -0.2128
17360SOL    HW155100   0.491   5.970   7.189  0.5252  0.3902  0.3895
17360SOL    HW255101   0.399   5.967   7.309  0.0205 -0.7807 -0.0243
17361SOL     OW55102   5.061   0.260   9.149  0.7667  0.6790  0.2357
17361SOL    HW155103   5.141   0.209   9.150  1.6108  1.9843  2.9723
17361SOL    HW255104   5.087   0.346   9.116 -0.1614  0.1948 -1.8970
17362SOL     OW55105   4.159   6.623   8.693  0.6398  0.0131  0.2020
17362SOL    HW155106   4.218   6.698   8.690  0.7203 -0.0837 -0.9174
17362SOL    HW255107   4.218   6.547   8.693  0.5740 -0.0568  1.8223
17363SOL     OW55108   1.312   5.790   3.750 -0.2204 -0.0377  0.1007
17363SOL    HW155109   1.251   5.729   3.792  0.2456 -0.1380  0.6355
17363SOL    HW255110   1.257   5.840   3.690 -1.1775  1.0656  1.8382
17364SOL     OW55111   6.768   3.670   2.550 -0.1855 -0.3615 -0.1380
17364SOL    HW155112   6.833   3.605   2.519  1.7246  1.7468 -0.6839
17364SOL    HW255113   6.746   3.720   2.472  1.6065  2.3853  1.0469
17365SOL     OW55114   2.887   2.841   2.545 -0.0448 -0.0857 -0.2767
17365SOL    HW155115   2.878   2.794   2.628 -0.5755 -0.0870 -0.3321
17365SOL    HW255116   2.869   2.932   2.566 -0.6378 -0.1560 -0.4763
17366SOL     OW55117   9.275   8.202   5.181  0.1249 -0.2973  0.0823
17366SOL    HW155118   9.182   8.215   5.201 -0.0345 -1.4055  0.0858
17366SOL    HW255119   9.289   8.252   5.101 -0.2670  0.5956  0.5610
17367SOL     OW55120   6.499   2.420   4.117  0.2525  0.3510 -0.4643
17367SOL    HW155121   6.457   2.497   4.078 -0.8883  0.3951  0.7683
17367SOL    HW255122   6.434   2.388   4.181  0.8034 -1.5068 -0.8135
17368SOL     OW55123   4.361   3.006   7.500 -0.2411  0.2473 -0.0353
17368SOL    HW155124   4.284   2.990   7.445  0.0994 -0.0222 -0.4370
17368SOL    HW255125   4.425   2.941   7.471 -0.7550 -1.2394  2.0636
17369SOL     OW55126   3.412   4.760   3.463 -0.3152 -0.2239  0.3370
17369SOL    HW155127   3.409   4.825   3.393 -0.0124 -0.1163  0.4246
17369SOL    HW255128   3.378   4.680   3.423 -0.2580 -0.1314  0.1015
17370SOL     OW55129   4.435   0.006   1.655  0.2095 -0.0156  0.0422
17370SOL    HW155130   4.424  -0.053   1.580  3.7310 -1.3798  0.4947
17370SOL    HW255131   4.440  -0.052   1.731  2.9349  0.8526  0.5841
17371SOL     OW55132   8.018   0.257   0.830  0.2728 -0.3098 -0.0911
17371SOL    HW155133   7.960   0.195   0.874 -3.3658  2.2006 -1.1274
17371SOL    HW255134   7.984   0.263   0.741  2.2261  1.1390 -0.7735
17372SOL     OW55135   1.742   8.515   6.491 -0.0814 -1.0759 -0.1062
17372SOL    HW155136   1.703   8.510   6.404 -0.6130 -0.8874  0.1219
17372SOL    HW255137   1.836   8.500   6.476  0.0701  0.6258 -0.8993
17373SOL     OW55138   2.347   2.357   4.248 -0.6350  0.5491  0.2493
17373SOL    HW155139   2.266   2.387   4.207 -1.0299  0.0789  0.6804
17373SOL    HW255140   2.356   2.266   4.220 -0.9619  0.1917  1.2895
17374SOL     OW55141   9.221   3.493   7.337 -0.0720 -0.1803  0.4249
17374SOL    HW155142   9.307   3.528   7.359  1.5663 -2.6074 -1.8666
17374SOL    HW255143   9.205   3.525   7.248 -0.6361 -1.3352  0.1015
17375SOL     OW55144   2.431   9.279   7.677 -0.2306 -0.3828  0.2025
17375SOL    HW155145   2.420   9.373   7.693  0.7198 -0.1650 -0.4316
17375SOL    HW255146   2.444   9.242   7.764  1.7367  0.3918  0.2564
17376SOL     OW55147   2.370   4.254   7.321 -0.0951 -0.0121  0.1643
17376SOL    HW155148   2.414   4.269   7.237 -1.6624 -0.1991 -0.6917
17376SOL    HW255149   2.333   4.339   7.344  0.7690  0.1646  0.9330
17377SOL     OW55150   0.846   1.812   4.804  0.3933  0.3659  0.1376
17377SOL    HW155151   0.801   1.765   4.734  1.5573 -0.3359 -0.1497
17377SOL    HW255152   0.820   1.904   4.792  2.4852  0.6552 -2.7170
17378SOL     OW55153   6.402   5.528   0.542  0.1050  0.0909  0.4561
17378SOL    HW155154   6.344   5.460   0.575  1.0668 -1.2359 -0.5546
17378SOL    HW255155   6.380   5.538   0.450  0.6562  0.4452  0.3551
17379SOL     OW55156   1.464   5.666   2.059 -0.4169 -0.6370  0.1224
17379SOL    HW155157   1.428   5.753   2.042 -1.0391 -1.0408 -0.6470
17379SOL    HW255158   1.472   5.626   1.972  1.2145 -0.8196  0.3378
17380SOL     OW55159   4.455   2.715   2.993  0.0983 -0.1506 -0.3745
17380SOL    HW155160   4.432   2.655   2.921 -1.2741 -0.0761 -0.0073
17380SOL    HW255161   4.371   2.744   3.027  0.7447 -0.1546  1.2474
17381SOL     OW55162   5.881   2.537   1.787  0.3688  0.2005 -0.0359
17381SOL    HW155163   5.958   2.583   1.820 -0.5425  1.2306  0.7185
17381SOL    HW255164   5.845   2.493   1.864  0.4451 -0.6363 -0.4730
17382SOL     OW55165   9.346   5.794   5.211  0.2537  0.1189 -0.3402
17382SOL    HW155166   9.261   5.755   5.233  0.9300  0.0441  2.3103
17382SOL    HW255167   9.336   5.887   5.230  0.3148  0.3676 -1.4855
17383SOL     OW55168   9.047   2.782   6.148  0.0841  0.2810  0.1638
17383SOL    HW155169   8.967   2.830   6.123 -0.2513 -0.0844  0.5277
17383SOL    HW255170   9.082   2.830   6.222 -0.3416 -0.1232  0.6329
17384SOL     OW55171   7.141   8.220   5.410 -0.4913  0.0908  0.0132
17384SOL    HW155172   7.105   8.307   5.393  0.0315 -0.1703 -2.5220
17384SOL    HW255173   7.221   8.216   5.358  0.4881 -1.2478  1.5435
17385SOL     OW55174   3.009   4.908   1.119 -0.3553  0.1560  0.2401
17385SOL    HW155175   2.936   4.944   1.070  0.0941  0.4278 -0.2360
17385SOL    HW255176   3.069   4.874   1.053  0.1722  0.3643  0.5986
17386SOL     OW55177   0.328   7.869   8.105  0.3087 -0.2146  0.3328
17386SOL    HW155178   0.382   7.791   8.092 -0.7641 -0.5845 -2.2876
17386SOL    HW255179   0.334   7.916   8.022 -0.0948  1.8518  1.4370
17387SOL     OW55180   5.498   3.260   3.570 -0.3553  0.1253  0.3522
17387SOL    HW155181   5.589   3.271   3.544  0.1736  0.1817  2.1237
17387SOL    HW255182   5.475   3.171   3.544  0.2319  0.0812 -0.0153
17388SOL     OW55183   8.289   4.851   5.067  0.0042  0.0094  0.0086
17388SOL    HW155184   8.363   4.903   5.100  0.4901 -1.7787  1.8531
17388SOL    HW255185   8.329   4.770   5.036 -0.9905 -0.2030 -0.7295
17389SOL     OW55186   5.857   6.231   3.389 -0.1061 -0.6793  0.1291
17389SOL    HW155187   5.793   6.300   3.407  0.3284 -0.3515  0.4343
17389SOL    HW255188   5.913   6.267   3.320  0.4114 -0.5299  0.6142
17390SOL     OW55189   1.067   0.571   6.999 -0.3593 -0.1570 -0.2824
17390SOL    HW155190   1.044   0.637   7.065 -2.0430  0.9035 -1.8488
17390SOL    HW255191   0.985   0.556   6.951  0.6469 -1.4045 -1.6738
17391SOL     OW55192   1.626   6.944   4.528 -0.1601 -0.2200 -0.0116
17391SOL    HW155193   1.537   6.962   4.496  0.3187  0.3152 -1.0781
17391SOL    HW255194   1.677   7.019   4.498  0.5061 -0.1881  1.2204
17392SOL     OW55195   5.879   7.426   2.983 -0.0706  0.1195  0.2494
17392SOL    HW155196   5.880   7.460   2.893 -0.1277  0.6425  0.4459
17392SOL    HW255197   5.930   7.490   3.033 -1.0625  0.4674  0.8176
17393SOL     OW55198   9.197   8.768   6.550 -0.2527 -0.3574 -0.2466
17393SOL    HW155199   9.125   8.715   6.518  0.0691  0.0451 -1.6568
17393SOL    HW255200   9.172   8.858   6.529  0.4078 -0.1745 -0.2565
17394SOL     OW55201   6.316   0.839   6.820 -0.2007 -0.0837 -0.0318
17394SOL    HW155202   6.380   0.777   6.786  0.6929  0.4693  0.6045
17394SOL    HW255203   6.329   0.918   6.768  0.3960  0.3884  0.8054
17395SOL     OW55204   7.355   3.124   5.750  0.2257  0.0603 -0.1850
17395SOL    HW155205   7.282   3.067   5.776 -0.7418  0.8821 -1.0959
17395SOL    HW255206   7.332   3.210   5.786  1.0894  0.1660  0.1210
17396SOL     OW55207   7.827   3.956   6.700 -0.6052 -0.0245 -0.1860
17396SOL    HW155208   7.898   3.952   6.764 -0.4102 -0.2617 -0.4129
17396SOL    HW255209   7.843   3.881   6.643 -0.6422  0.3221 -0.6544
17397SOL     OW55210   8.423   3.721   6.486  0.2607 -0.0791  0.4492
17397SOL    HW155211   8.343   3.745   6.532 -0.0211 -0.1358 -0.0057
17397SOL    HW255212   8.477   3.677   6.552 -0.9469 -1.9205  0.2589
17398SOL     OW55213   4.700   2.759   0.424  0.5424 -0.8613  0.1452
17398SOL    HW155214   4.650   2.684   0.455 -2.4347  0.6091 -0.9259
17398SOL    HW255215   4.751   2.725   0.350 -1.9010 -1.5361 -1.2864
17399SOL     OW55216   0.287   8.911   0.262  0.3824 -0.1269  0.0048
17399SOL    HW155217   0.374   8.872   0.262  0.5268  0.1906  0.0604
17399SOL    HW255218   0.275   8.943   0.352  0.2886  0.0005 -0.0514
17400SOL     OW55219   1.595   8.010   8.545  0.0355  0.5422  0.0239
17400SOL    HW155220   1.670   7.965   8.583  0.7326  0.1860 -1.7038
17400SOL    HW255221   1.561   7.949   8.480 -0.3546  1.6234 -0.8024
17401SOL     OW55222   3.067   7.308   1.506  0.1690 -0.1361 -0.0199
17401SOL    HW155223   3.143   7.347   1.549 -0.0752 -1.0420  1.2683
17401SOL    HW255224   3.004   7.380   1.497  1.8953  1.1269 -2.9431
17402SOL     OW55225   4.712   4.869   8.352  0.2986  0.5448 -0.0473
17402SOL    HW155226   4.656   4.890   8.278  0.4642  2.0224  0.2306
17402SOL    HW255227   4.800   4.893   8.324  0.4008  0.8543  0.5294
17403SOL     OW55228   1.633   8.918   0.799 -0.4884 -0.1287  0.6493
17403SOL    HW155229   1.549   8.880   0.826 -0.3895 -0.3324  0.6726
17403SOL    HW255230   1.620   8.943   0.708 -0.1761 -1.3395  0.2535
17404SOL     OW55231   7.151   5.037   1.290  0.8619 -0.2779  0.4170
17404SOL    HW155232   7.203   5.058   1.213  0.9615 -1.2014  0.2251
17404SOL    HW255233   7.085   4.974   1.258  1.8381 -1.8270  1.3854
17405SOL     OW55234   9.304   2.235   6.105 -0.0390  0.5830  0.1547
17405SOL    HW155235   9.219   2.279   6.095  0.1683  0.7561 -0.8947
17405SOL    HW255236   9.285   2.160   6.161 -1.1264 -0.0413 -1.0297
17406SOL     OW55237   6.350   2.983   1.565 -0.6831  0.2139 -0.3710
17406SOL    HW155238   6.328   3.049   1.500  0.5644  1.3922  0.3676
17406SOL    HW255239   6.348   3.030   1.648  0.0549 -0.7180  0.1805
17407SOL     OW55240   7.334   2.280   4.551  0.4197  0.1903 -0.5778
17407SOL    HW155241   7.358   2.228   4.474  0.4014  1.5330 -1.5171
17407SOL    HW255242   7.406   2.267   4.612  1.0973  0.1686 -1.3692
17408SOL     OW55243   3.692   3.272   0.609  0.8933  0.1032 -0.1812
17408SOL    HW155244   3.672   3.261   0.516 -1.2555  0.8461  0.1638
17408SOL    HW255245   3.788   3.269   0.614  0.9969 -0.8077 -2.2898
17409SOL     OW55246   7.139   4.740   7.204 -0.2729  0.9250 -0.3309
17409SOL    HW155247   7.046   4.718   7.200 -0.2023  0.3191  1.1026
17409SOL    HW255248   7.182   4.673   7.151 -0.3439 -0.7565  1.6723
17410SOL     OW55249   1.626   1.003   1.297  0.3306 -0.1899  0.5148
17410SOL    HW155250   1.719   1.025   1.300  0.2579  0.1792  0.1020
17410SOL    HW255251   1.581   1.086   1.315  0.0709 -0.2144 -0.0170
17411SOL     OW55252   5.704   8.035   4.014  0.0163 -0.2057 -0.0793
17411SOL    HW155253   5.714   8.126   4.039 -1.3955 -0.1278  0.2437
17411SOL    HW255254   5.658   8.038   3.930 -0.9294 -0.6215  0.4046
17412SOL     OW55255   4.659   1.511   1.581  0.0844 -0.5696 -0.5518
17412SOL    HW155256   4.620   1.580   1.635  1.6999 -1.3821  1.6818
17412SOL    HW255257   4.606   1.434   1.599 -0.0369 -0.5939 -0.9899
17413SOL     OW55258   2.635   4.059   7.401 -0.0152 -0.3381 -0.1117
17413SOL    HW155259   2.615   4.075   7.309 -0.1669 -0.5352 -0.1123
17413SOL    HW255260   2.553   4.025   7.438 -0.4722  1.3249  0.4645
17414SOL     OW55261   5.852   0.715   3.419  0.3498 -0.5032  0.0891
17414SOL    HW155262   5.854   0.667   3.336 -1.3203  0.9353 -0.8075
17414SOL    HW255263   5.767   0.759   3.419  0.3357 -0.4914  2.5828
17415SOL     OW55264   3.127   1.495   5.374  0.4126 -0.3520 -0.5450
17415SOL    HW155265   3.071   1.546   5.432  0.6713  0.4316 -0.9865
17415SOL    HW255266   3.142   1.413   5.422  0.5068  0.2241  0.4219
17416SOL     OW55267   5.894   5.340   7.462 -0.3826 -0.1311  0.3325
17416SOL    HW155268   5.937   5.286   7.528  0.3857 -1.4185 -1.1959
17416SOL    HW255269   5.949   5.419   7.457 -0.0272 -0.3523  0.7203
17417SOL     OW55270   3.146   4.236   5.541  0.8623 -0.3735  0.5225
17417SOL    HW155271   3.068   4.194   5.506 -0.8441  3.3607 -0.3464
17417SOL    HW255272   3.118   4.274   5.624  1.6108  1.4450 -0.0432
17418SOL     OW55273   4.671   4.807   1.970 -0.8470 -0.1019 -0.0739
17418SOL    HW155274   4.661   4.882   1.912  0.0113  0.6374  0.7158
17418SOL    HW255275   4.660   4.731   1.913 -0.7157  0.6123 -1.0683
17419SOL     OW55276   5.052   3.745   6.252 -0.3099 -0.3819 -0.0450
17419SOL    HW155277   4.977   3.768   6.308 -0.7078 -1.4866 -0.1136
17419SOL    HW255278   5.128   3.756   6.308 -0.4895  1.1106 -0.0824
17420SOL     OW55279   7.484   6.693   2.040  0.2241 -0.0479 -0.1931
17420SOL    HW155280   7.395   6.726   2.028  0.8290  2.3224  1.4227
17420SOL    HW255281   7.478   6.600   2.020 -2.3925  0.2826 -1.1242
17421SOL     OW55282   5.479   8.789   7.029 -0.1904 -0.7682 -0.1872
17421SOL    HW155283   5.405   8.841   7.000 -1.1108 -2.9869 -2.0156
17421SOL    HW255284   5.446   8.740   7.105  0.6448  1.1838  1.4730
17422SOL     OW55285   1.870   3.854   7.601 -0.2233 -0.4775  0.2719
17422SOL    HW155286   1.816   3.933   7.595 -1.1246 -0.9755  1.6883
17422SOL    HW255287   1.814   3.790   7.644  0.4059 -1.9894 -1.1116
17423SOL     OW55288   1.930   7.161   6.623 -0.1956 -0.4561  0.9974
17423SOL    HW155289   1.990   7.184   6.694  0.1742  2.4507 -0.1812
17423SOL    HW255290   1.849   7.134   6.667  0.7879 -0.9855  2.5281
17424SOL     OW55291   9.199   1.374   3.298  0.3202 -0.0806  0.5071
17424SOL    HW155292   9.292   1.395   3.297 -0.0339  1.5757  0.8177
17424SOL    HW255293   9.196   1.280   3.316  2.0363 -0.9517 -3.2980
17425SOL     OW55294   2.300   6.890   9.405 -0.0610  0.0426 -0.0384
17425SOL    HW155295   2.231   6.954   9.391  0.3914  0.7839  1.0017
17425SOL    HW255296   2.371   6.918   9.347 -1.2500 -1.7072 -2.3751
17426SOL     OW55297   1.948   2.588   3.869 -0.2759  0.1878 -0.0083
17426SOL    HW155298   1.928   2.674   3.906  1.6312  1.3187 -1.4851
17426SOL    HW255299   2.043   2.586   3.865 -0.3022 -2.1586  0.3263
17427SOL     OW55300   8.900   6.774   3.432 -0.1756  0.0293 -0.8305
17427SOL    HW155301   8.838   6.793   3.503  0.3211  1.6742 -0.8266
17427SOL    HW255302   8.986   6.776   3.474  0.0417 -0.1688 -1.2614
17428SOL     OW55303   5.029   4.014   2.487 -0.3522 -0.0927  0.1827
17428SOL    HW155304   4.952   4.003   2.432  0.7409  0.8537 -1.6052
17428SOL    HW255305   4.995   4.018   2.577 -2.4138  0.9057 -0.6172
17429SOL     OW55306   7.105   8.195   1.888 -0.0363 -0.3916  0.2477
17429SOL    HW155307   7.199   8.208   1.901 -0.3639  1.7611  0.6408
17429SOL    HW255308   7.099   8.149   1.804  1.3546 -0.3198  0.0844
17430SOL     OW55309   7.440   9.368   8.669 -0.0920  0.2403  0.0987
17430SOL    HW155310   7.387   9.324   8.603  0.1522  0.7546 -0.4473
17430SOL    HW255311   7.497   9.300   8.704 -1.3886 -0.4212  0.9904
17431SOL     OW55312   4.149   0.970   0.471  0.2458 -0.4177 -0.2294
17431SOL    HW155313   4.078   0.973   0.407  0.1078 -1.2151 -0.1158
17431SOL    HW255314   4.105   0.962   0.556  0.4086  1.1898  0.0252
17432SOL     OW55315   7.760   4.980   1.510  0.5360  0.9469 -0.1134
17432SOL    HW155316   7.672   5.010   1.535  1.1785  1.8147  1.1789
17432SOL    HW255317   7.769   4.895   1.551  0.4925  1.0950  0.2052
17433SOL     OW55318   7.690   1.483   4.186 -0.5330  0.8997  0.1723
17433SOL    HW155319   7.665   1.457   4.275  2.1173  1.0173  0.9808
17433SOL    HW255320   7.632   1.556   4.166 -0.5319  1.4733  2.1619
17434SOL     OW55321   1.212   6.099   3.980  0.1652 -0.1008 -0.3601
17434SOL    HW155322   1.301   6.133   3.987 -0.8211  2.2970  0.9265
17434SOL    HW255323   1.218   6.011   4.016  1.8445  0.3436  0.5150
17435SOL     OW55324   8.689   2.958   4.063 -0.5399  0.2700  0.2733
17435SOL    HW155325   8.677   3.021   3.992 -0.7620 -0.2553 -0.1608
17435SOL    HW255326   8.601   2.927   4.083 -0.2122 -1.7404 -1.2195
17436SOL     OW55327   6.774   6.880   6.540 -0.4452 -0.2372 -0.0881
17436SOL    HW155328   6.763   6.974   6.559  0.4382  0.1701 -1.5329
17436SOL    HW255329   6.867   6.869   6.523 -0.5641 -1.3661 -0.0609
17437SOL     OW55330   8.761   8.142   6.998  0.5803  0.1766 -0.0748
17437SOL    HW155331   8.791   8.052   6.986 -2.4281 -0.8581 -0.3135
17437SOL    HW255332   8.800   8.169   7.082  2.1040 -1.0682 -0.3624
17438SOL     OW55333   2.948   5.628   6.595 -0.3033  0.0966  0.0844
17438SOL    HW155334   2.932   5.588   6.680  1.4500 -0.8604 -0.0146
17438SOL    HW255335   3.030   5.676   6.607  0.3900 -0.7259 -1.2884
17439SOL     OW55336   8.211   8.151   5.657  0.4327 -0.2210  0.1654
17439SOL    HW155337   8.270   8.150   5.582  0.4271 -0.4706  0.1654
17439SOL    HW255338   8.253   8.210   5.720  1.1187 -1.0697  0.5203
17440SOL     OW55339   1.793   4.110   5.217  0.1126 -0.2952 -0.7165
17440SOL    HW155340   1.822   4.063   5.295 -2.1355 -1.5817 -0.6095
17440SOL    HW255341   1.760   4.193   5.250  0.3887 -0.2885 -0.4521
17441SOL     OW55342   3.685   6.076   5.327 -0.1333  0.6420  0.5320
17441SOL    HW155343   3.695   6.137   5.399  2.4557  0.9129 -0.0147
17441SOL    HW255344   3.656   6.129   5.253  0.7300  0.9997  0.4407
17442SOL     OW55345   9.350   0.392   8.149 -0.1826 -0.4672  0.6190
17442SOL    HW155346   9.329   0.444   8.227 -0.5748 -0.5237  0.5516
17442SOL    HW255347   9.275   0.406   8.091 -0.6063 -1.6449  0.8727
17443SOL     OW55348   5.923   1.666   5.468  0.7904  0.9476 -0.2926
17443SOL    HW155349   6.010   1.637   5.438  0.5960  0.2288 -0.1769
17443SOL    HW255350   5.863   1.632   5.402  0.6738  2.1768 -0.8279
17444SOL     OW55351   4.483   3.944   7.133 -0.2976 -0.1459 -0.7068
17444SOL    HW155352   4.519   4.032   7.131 -0.0758 -0.2161 -0.0416
17444SOL    HW255353   4.560   3.887   7.139 -0.4971 -0.3035  0.5332
17445SOL     OW55354   1.410   2.282   9.043  0.2437  0.1031  0.2377
17445SOL    HW155355   1.439   2.364   9.005 -0.6943  0.9786  1.3740
17445SOL    HW255356   1.346   2.248   8.980 -0.4425  0.9722  0.4521
17446SOL     OW55357   2.668   3.717   8.446  0.0096 -0.0394 -0.6538
17446SOL    HW155358   2.724   3.787   8.482  0.5155  0.6382 -2.7305
17446SOL    HW255359   2.705   3.637   8.483 -0.6021  0.7551  1.7945
17447SOL     OW55360   3.790   8.651   3.852  0.6273  0.0861  0.6477
17447SOL    HW155361   3.828   8.708   3.919  1.3598  1.0777 -0.5854
17447SOL    HW255362   3.855   8.582   3.839 -0.0235 -0.7297  1.7699
17448SOL     OW55363   7.991   3.612   7.990 -0.0361 -0.2546 -0.4230
17448SOL    HW155364   8.007   3.534   7.936  0.4847 -0.2001 -0.3528
17448SOL    HW255365   7.916   3.589   8.043  0.0331 -0.6630 -0.4982
17449SOL     OW55366   4.173   3.546   4.882 -0.7417 -0.2998  0.3763
17449SOL    HW155367   4.102   3.532   4.819 -0.5911 -2.6895  0.6863
17449SOL    HW255368   4.143   3.618   4.936 -2.9083 -1.1883  0.4084
17450SOL     OW55369   2.501   4.811   8.114 -0.4083  0.5570 -0.0741
17450SOL    HW155370   2.444   4.734   8.121 -0.3573  0.5503  0.2628
17450SOL    HW255371   2.536   4.807   8.025  1.0044 -0.7872  0.5293
17451SOL     OW55372   3.845   9.008   5.905  0.1602 -0.1067 -0.6031
17451SOL    HW155373   3.877   8.925   5.870 -0.8011 -0.0410 -1.6494
17451SOL    HW255374   3.796   9.048   5.833 -0.8696  0.5538  0.4452
17452SOL     OW55375   1.552   4.570   8.614  0.2385  0.8052  1.0080
17452SOL    HW155376   1.518   4.489   8.653 -1.0338  1.3917  1.1580
17452SOL    HW255377   1.485   4.635   8.634 -0.1387  1.2665 -1.6002
17453SOL     OW55378   6.309   8.972   4.468  0.4171  0.3519 -0.0554
17453SOL    HW155379   6.215   8.954   4.457  0.4917 -1.1162  1.5325
17453SOL    HW255380   6.311   9.040   4.536  0.5168  0.0783  0.2161
17454SOL     OW55381   7.969   4.509   9.151 -0.3138  0.4314  0.5348
17454SOL    HW155382   8.033   4.515   9.221  0.4681  2.7787 -0.3335
17454SOL    HW255383   8.020   4.504   9.070 -1.1786  1.6279 -0.1181
17455SOL     OW55384   5.170   2.816   8.116  0.5210 -0.2291  0.3409
17455SOL    HW155385   5.186   2.792   8.025 -1.4892  1.3139 -0.4709
17455SOL    HW255386   5.215   2.748   8.167  2.7206 -0.4342 -1.7577
17456SOL     OW55387   8.720   7.816   5.007  0.3599  0.5207  0.1584
17456SOL    HW155388   8.745   7.873   4.934  1.4226  2.4019  1.9047
17456SOL    HW255389   8.644   7.860   5.047  0.5691  0.2063  0.9181
17457SOL     OW55390   2.993   7.665   9.183 -0.2945 -0.5241 -0.3384
17457SOL    HW155391   2.982   7.748   9.227 -0.6268 -0.8946  0.2849
17457SOL    HW255392   3.076   7.672   9.136 -0.1744  0.0346 -0.0317
17458SOL     OW55393   3.247   4.845   4.008  0.1716 -0.5423  0.3115
17458SOL    HW155394   3.289   4.804   3.932 -0.0006 -0.0801 -0.0330
17458SOL    HW255395   3.267   4.938   3.999 -0.3413 -0.4119  0.5242
17459SOL     OW55396   2.881   9.396   3.737  0.2293  0.0976 -0.8174
17459SOL    HW155397   2.962   9.345   3.751 -0.3315 -0.2376  1.3755
17459SOL    HW255398   2.834   9.347   3.670  0.1049 -1.8246  0.6373
17460SOL     OW55399   8.394   3.203   4.990  0.4953 -0.0885  0.6466
17460SOL    HW155400   8.465   3.259   4.958 -0.8001  1.2583  0.0679
17460SOL    HW255401   8.354   3.252   5.061 -1.1146  0.0788 -0.3459
17461SOL     OW55402   6.298   9.100   5.205 -0.3586 -0.1868 -0.3672
17461SOL    HW155403   6.381   9.127   5.245 -0.6542 -0.7067  0.6232
17461SOL    HW255404   6.279   9.015   5.245 -1.5448  0.0877 -0.3349
17462SOL     OW55405   7.074   5.608   2.360 -0.1171  0.3361  0.3001
17462SOL    HW155406   7.091   5.684   2.304  1.1597 -0.2846 -0.1697
17462SOL    HW255407   7.001   5.563   2.318  0.7060 -0.0139 -0.7864
17463SOL     OW55408   8.112   2.126   1.150 -0.7235 -0.7448 -0.5522
17463SOL    HW155409   8.037   2.157   1.202 -0.7803 -0.5110 -0.7683
17463SOL    HW255410   8.128   2.037   1.181 -0.8252 -0.6454 -0.2093
17464SOL     OW55411   4.104   1.202   1.376  0.0099 -0.1566  0.1410
17464SOL    HW155412   4.048   1.245   1.441  2.2718  1.8340  0.8500
17464SOL    HW255413   4.061   1.219   1.292 -0.5082  1.2281  0.6809
17465SOL     OW55414   7.994   6.833   4.291  0.4624  0.7402  0.0500
17465SOL    HW155415   8.044   6.911   4.315 -3.2476  2.8824  1.3307
17465SOL    HW255416   7.975   6.791   4.375 -0.3009  0.2596 -0.3658
17466SOL     OW55417   2.905   7.450   4.701 -0.3952 -0.1628 -0.5224
17466SOL    HW155418   2.893   7.545   4.699 -1.4850 -0.2326  1.1714
17466SOL    HW255419   2.951   7.434   4.783 -1.0080 -1.1675 -0.3676
17467SOL     OW55420   2.678   2.493   7.786  0.2541  0.2097 -0.7786
17467SOL    HW155421   2.604   2.447   7.825  0.3686  1.4417  0.9608
17467SOL    HW255422   2.754   2.438   7.807  0.1474  0.2035 -0.4043
17468SOL     OW55423   0.390   3.875   2.984  0.5259 -0.2542 -0.5900
17468SOL    HW155424   0.360   3.786   3.005 -1.4666  0.3866 -0.6545
17468SOL    HW255425   0.424   3.869   2.895 -1.8499 -0.4542 -1.5183
17469SOL     OW55426   3.024   4.238   1.113 -0.4184 -0.3361 -0.5490
17469SOL    HW155427   2.975   4.298   1.056 -1.2390 -0.0364  0.4514
17469SOL    HW255428   3.053   4.293   1.185  1.5957 -0.4781 -1.2376
17470SOL     OW55429   3.967   1.429   0.520 -0.2442  0.2283 -0.5485
17470SOL    HW155430   3.887   1.413   0.570 -0.0757 -1.8964 -0.9015
17470SOL    HW255431   4.037   1.426   0.585 -0.1944 -0.7444 -0.6405
17471SOL     OW55432   3.402   4.588   0.317 -0.0695  0.1722 -0.4096
17471SOL    HW155433   3.323   4.596   0.370  0.0189 -1.0565 -0.0602
17471SOL    HW255434   3.472   4.577   0.381  0.3891  1.2701 -0.7189
17472SOL     OW55435   4.421   9.047   4.374  0.0540 -0.9318 -0.6324
17472SOL    HW155436   4.421   8.960   4.414  0.9393 -0.8692 -0.4847
17472SOL    HW255437   4.506   9.053   4.329  0.0279 -0.1197 -0.5767
17473SOL     OW55438   7.939   8.937   5.675  0.1901 -0.2719 -0.5097
17473SOL    HW155439   7.972   8.993   5.606  1.0582  0.6825  0.6594
17473SOL    HW255440   8.004   8.868   5.683  2.1310  1.7546  1.9752
17474SOL     OW55441   3.411   0.799   3.727 -0.3797 -0.2865 -0.4270
17474SOL    HW155442   3.385   0.794   3.635 -0.3687 -0.6655 -0.4123
17474SOL    HW255443   3.475   0.870   3.731 -1.4009  0.6435 -0.4665
17475SOL     OW55444   3.213   1.613   7.296 -0.0508 -0.3623 -0.3105
17475SOL    HW155445   3.129   1.577   7.326  0.0627 -0.0251  0.4114
17475SOL    HW255446   3.204   1.707   7.307  0.6987 -0.3828  0.4612
17476SOL     OW55447   5.475   1.939   6.066 -0.3361  0.3734  0.1659
17476SOL    HW155448   5.452   1.973   5.980 -0.1047  0.1648  0.0214
17476SOL    HW255449   5.441   1.849   6.066  1.0648 -0.1648 -0.2934
17477SOL     OW55450   1.537   4.679   6.875  0.7929  0.2724 -0.1045
17477SOL    HW155451   1.446   4.706   6.866  0.5144 -0.7177 -0.3166
17477SOL    HW255452   1.534   4.600   6.928  1.6567  1.0099  1.0585
17478SOL     OW55453   7.122   6.082   2.416  0.2750 -0.5263  0.0745
17478SOL    HW155454   7.215   6.087   2.390  0.2648 -4.1671 -0.9254
17478SOL    HW255455   7.074   6.088   2.334 -0.1990 -2.0820  0.2189
17479SOL     OW55456   8.406   5.556   2.907 -0.4901  0.7302 -0.3209
17479SOL    HW155457   8.451   5.491   2.853 -0.6911  1.0947 -0.9318
17479SOL    HW255458   8.313   5.544   2.886 -0.8839 -1.3090  2.3414
17480SOL     OW55459   3.406   8.305   7.295 -0.5964  0.2084 -0.5226
17480SOL    HW155460   3.493   8.344   7.290 -0.1250 -0.9836 -1.8544
17480SOL    HW255461   3.397   8.278   7.386  0.4643  0.2248 -0.4125
17481SOL     OW55462   6.931   4.743   3.168 -0.8324  0.6472 -0.4543
17481SOL    HW155463   6.872   4.677   3.202 -0.6186  0.7141  0.0511
17481SOL    HW255464   6.884   4.826   3.178 -0.6776  0.6945 -0.0981
17482SOL     OW55465   0.224   1.546   7.207 -0.4342 -0.0125 -0.4031
17482SOL    HW155466   0.220   1.451   7.202 -1.1924  0.0292 -0.6515
17482SOL    HW255467   0.134   1.573   7.224 -0.2983  0.6880 -0.7803
17483SOL     OW55468   4.042   7.664   4.911  0.2257 -0.0418  0.4807
17483SOL    HW155469   4.026   7.572   4.889  0.9686 -0.9585  3.5568
17483SOL    HW255470   4.068   7.704   4.828  0.8955 -2.8380 -0.7259
17484SOL     OW55471   8.244   2.087   4.878  0.0849 -0.2389  0.2701
17484SOL    HW155472   8.309   2.149   4.910  0.8101 -1.1803  0.6583
17484SOL    HW255473   8.295   2.018   4.836 -0.6520 -0.9835  0.5650
17485SOL     OW55474   8.498   7.240   1.729 -0.1432  0.1974  0.2985
17485SOL    HW155475   8.538   7.324   1.704 -2.1949  0.8974 -0.7685
17485SOL    HW255476   8.439   7.262   1.801  0.0064 -0.5068  0.6402
17486SOL     OW55477   6.609   5.812   5.184  0.4194 -0.1148  0.2371
17486SOL    HW155478   6.630   5.811   5.090 -1.5442  0.4266 -0.2484
17486SOL    HW255479   6.557   5.733   5.197  1.0268 -0.3917  0.9491
17487SOL     OW55480   1.435   2.237   5.357 -0.1808  0.1707  1.0208
17487SOL    HW155481   1.342   2.256   5.344  0.1705  1.3663  0.1473
17487SOL    HW255482   1.466   2.305   5.417 -0.2646 -1.3097  2.7817
17488SOL     OW55483   0.420   5.406   1.763 -0.2606 -0.1280  0.1041
17488SOL    HW155484   0.421   5.489   1.810 -0.0357 -0.1182  0.0833
17488SOL    HW255485   0.510   5.395   1.730 -0.5432  0.1238 -0.7751
17489SOL     OW55486   4.516   2.345   0.090 -0.0469  0.3379  0.0152
17489SOL    HW155487   4.447   2.406   0.062  2.4684  3.9006  1.2065
17489SOL    HW255488   4.570   2.397   0.150  3.8115 -2.2564 -1.0805
17490SOL     OW55489   6.100   1.263   3.760  0.1624  0.0523 -0.3891
17490SOL    HW155490   6.102   1.259   3.856  0.6258 -0.7253 -0.4228
17490SOL    HW255491   6.192   1.273   3.735  0.0541  0.1436 -0.7591
17491SOL     OW55492   0.344   2.106   7.380 -0.1415  0.2926 -0.0083
17491SOL    HW155493   0.402   2.082   7.308  0.1348  0.5609  0.1234
17491SOL    HW255494   0.268   2.049   7.370  0.0250  0.1296 -0.3416
17492SOL     OW55495   6.449   3.170   8.948  0.2382  0.0466  0.2423
17492SOL    HW155496   6.413   3.219   8.874  2.2379  0.0806 -0.7221
17492SOL    HW255497   6.475   3.237   9.011  1.7408  0.1964 -0.5132
17493SOL     OW55498   7.113   2.739   6.081  0.7409  0.2126  0.0290
17493SOL    HW155499   7.093   2.656   6.038  1.9759  1.0422 -2.2082
17493SOL    HW255500   7.028   2.771   6.111 -0.0594 -0.7359 -1.1644
17494SOL     OW55501   5.141   8.107   6.453 -0.0748 -0.2199 -0.0566
17494SOL    HW155502   5.052   8.082   6.477  0.2348 -1.4075 -0.1310
17494SOL    HW255503   5.197   8.038   6.490  0.9432  1.2315  1.1690
17495SOL     OW55504   1.502   7.508   1.125  0.4223 -0.3671  0.3713
17495SOL    HW155505   1.420   7.486   1.080  0.7623 -0.2576 -0.2933
17495SOL    HW255506   1.490   7.471   1.213 -0.9207  0.8923  0.7487
17496SOL     OW55507   1.106   4.110   8.414  0.5092  0.1721  0.2553
17496SOL    HW155508   1.145   4.060   8.486  0.7335  0.7330  0.5291
17496SOL    HW255509   1.018   4.074   8.405  0.7244 -0.3747  0.3519
17497SOL     OW55510   7.035   4.100   1.920  0.4392  0.1434  0.0859
17497SOL    HW155511   6.988   4.169   1.874 -0.8619 -1.0432 -0.3667
17497SOL    HW255512   7.065   4.142   2.001 -1.6258  0.8292  0.5056
17498SOL     OW55513   3.508   0.194   4.733 -0.3632 -0.0913  0.5437
17498SOL    HW155514   3.551   0.279   4.731  2.4387 -1.4725 -0.7362
17498SOL    HW255515   3.422   0.209   4.693  0.8071  1.7836 -1.3425
17499SOL     OW55516   4.404   2.073   2.519  0.4660  0.5225  0.3337
17499SOL    HW155517   4.319   2.031   2.524  0.6988 -0.0551 -0.5546
17499SOL    HW255518   4.401   2.125   2.439  2.4120 -2.7545 -1.9609
17500SOL     OW55519   1.201   5.803   5.708 -0.4378 -0.4818 -0.1756
17500SOL    HW155520   1.282   5.850   5.693 -0.4200 -0.9246 -1.6124
17500SOL    HW255521   1.228   5.717   5.739 -0.4228 -0.0712  0.9742
17501SOL     OW55522   4.027   2.589   8.960  0.0924  0.4069  0.7899
17501SOL    HW155523   4.019   2.673   9.006 -2.3011  0.7888 -0.2901
17501SOL    HW255524   4.040   2.613   8.868 -1.6474 -0.4151  0.3207
17502SOL     OW55525   6.792   1.719   6.267  0.2649  0.6258  0.0882
17502SOL    HW155526   6.710   1.747   6.307 -0.4745  0.5009 -1.3350
17502SOL    HW255527   6.766   1.669   6.190  1.6303 -1.3196  0.8265
17503SOL     OW55528   0.740   3.192   7.623 -0.0512 -0.1757 -0.0682
17503SOL    HW155529   0.810   3.143   7.581  0.2549  0.0484  0.1770
17503SOL    HW255530   0.698   3.240   7.552  0.2732 -0.0346 -0.1671
17504SOL     OW55531   6.314   0.156   0.527 -0.0791 -0.2619  0.4493
17504SOL    HW155532   6.338   0.248   0.525 -1.6343  0.1713  1.2372
17504SOL    HW255533   6.366   0.116   0.457  1.6831  0.9254  1.0627
17505SOL     OW55534   1.529   4.673   1.463 -0.0462 -0.0029 -0.1483
17505SOL    HW155535   1.467   4.694   1.393 -0.1751  0.2763  0.0528
17505SOL    HW255536   1.537   4.577   1.459 -0.5881 -0.0524 -0.0916
17506SOL     OW55537   5.352   4.954   6.755  0.1132 -0.3840 -0.6175
17506SOL    HW155538   5.358   4.933   6.661  0.9964  1.7163 -1.0514
17506SOL    HW255539   5.358   4.869   6.798  0.0134 -1.3624 -2.4500
17507SOL     OW55540   0.598   7.600   7.444  0.3710 -0.0905  0.1906
17507SOL    HW155541   0.586   7.540   7.370  1.4657 -1.6218  1.2261
17507SOL    HW255542   0.511   7.632   7.464 -0.7804 -3.9268  1.7578
17508SOL     OW55543   1.502   4.406   1.416  0.2151  0.4670  0.4159
17508SOL    HW155544   1.573   4.406   1.352  1.3947 -1.8821  1.6422
17508SOL    HW255545   1.453   4.326   1.398 -0.5907  0.7641  1.2348
17509SOL     OW55546   4.300   4.335   7.658  0.0813 -0.7362  0.0480
17509SOL    HW155547   4.384   4.290   7.656  0.3921 -0.1839  0.4477
17509SOL    HW255548   4.252   4.294   7.730  0.7283  0.1971  1.0282
17510SOL     OW55549   6.059   6.860   3.179  0.5593 -0.1850 -0.4810
17510SOL    HW155550   6.041   6.832   3.269 -0.4312  0.8467 -0.3416
17510SOL    HW255551   6.051   6.955   3.182  0.7902 -0.1294 -1.6028
17511SOL     OW55552   0.522   9.077   1.537 -0.3650  0.5736 -0.0440
17511SOL    HW155553   0.513   8.982   1.525  1.6620  0.6892 -2.8312
17511SOL    HW255554   0.436   9.112   1.515 -1.0061 -0.5680  0.5909
17512SOL     OW55555   8.121   2.567   5.238 -0.1768  0.1368  0.1327
17512SOL    HW155556   8.177   2.506   5.285 -1.1253 -2.7108 -2.2962
17512SOL    HW255557   8.181   2.612   5.178 -0.2381 -2.0365 -1.6069
17513SOL     OW55558   0.836   1.565   9.058  0.0150 -0.4980  0.4713
17513SOL    HW155559   0.769   1.628   9.030  0.4206 -0.5734 -0.6951
17513SOL    HW255560   0.821   1.554   9.152 -1.2862 -0.1305  0.3112
17514SOL     OW55561   3.277   0.576   8.380 -0.4840  0.1633 -0.0868
17514SOL    HW155562   3.226   0.496   8.392  0.6566 -0.2122  2.6927
17514SOL    HW255563   3.275   0.619   8.466 -1.1649  3.2096 -1.5586
17515SOL     OW55564   2.727   8.873   9.096  0.1807 -0.4550  0.3111
17515SOL    HW155565   2.789   8.823   9.148 -1.9954 -1.9524  1.5607
17515SOL    HW255566   2.708   8.951   9.149 -0.8343 -1.2015  1.0628
17516SOL     OW55567   1.954   1.302   4.932 -0.2508 -0.2517  0.6508
17516SOL    HW155568   1.968   1.393   4.910 -3.5625  0.1391 -0.2037
17516SOL    HW255569   1.977   1.295   5.025 -0.0086  1.4701  0.7244
17517SOL     OW55570   4.009   7.820   1.298  0.0515  0.4762  0.2353
17517SOL    HW155571   4.009   7.764   1.220  2.3869 -0.6457  0.9905
17517SOL    HW255572   3.955   7.774   1.361  2.3560 -1.2288  1.0201
17518SOL     OW55573   2.145   0.910   7.806 -0.8440  0.3069 -0.2661
17518SOL    HW155574   2.056   0.881   7.782 -0.1751 -0.9325 -1.3239
17518SOL    HW255575   2.190   0.830   7.831  0.7117  0.5621 -2.1547
17519SOL     OW55576   5.658   0.480   4.369  0.3415 -0.5530 -0.1746
17519SOL    HW155577   5.695   0.475   4.281 -1.1173  1.0718 -0.9133
17519SOL    HW255578   5.735   0.493   4.426  1.4508 -3.2879 -0.9773
17520SOL     OW55579   8.190   6.010   6.985  0.3106 -0.4475 -0.1082
17520SOL    HW155580   8.257   6.057   6.936  0.7610 -1.9479 -0.9496
17520SOL    HW255581   8.236   5.934   7.020 -0.4944 -0.4472  0.9645
17521SOL     OW55582   7.869   1.954   3.517  0.0166 -0.0004  0.0003
17521SOL    HW155583   7.846   1.969   3.426  1.1788 -0.5379 -0.3901
17521SOL    HW255584   7.879   1.859   3.523 -3.3683 -0.3417  1.4868
17522SOL     OW55585   2.982   8.468   7.255  0.1517  0.2890 -0.2105
17522SOL    HW155586   3.048   8.404   7.283  1.2636  0.7108 -1.8275
17522SOL    HW255587   2.937   8.492   7.336  0.1676 -2.0241  0.5328
17523SOL     OW55588   5.642   7.039   7.524  0.3793 -0.1670 -0.8710
17523SOL    HW155589   5.727   7.082   7.533 -0.0988  0.9978 -1.8065
17523SOL    HW255590   5.663   6.947   7.508  1.4638  0.1271 -1.1354
17524SOL     OW55591   8.649   6.393   6.701  0.1901 -0.1467  0.2660
17524SOL    HW155592   8.731   6.433   6.729  0.6654 -1.0369  0.1310
17524SOL    HW255593   8.613   6.354   6.781 -0.6739  1.2223  0.5728
17525SOL     OW55594   4.049   3.390   2.635  0.6269 -0.4779  0.5820
17525SOL    HW155595   4.021   3.299   2.645  0.7822 -0.4439  1.3491
17525SOL    HW255596   4.135   3.394   2.677 -0.1353  0.4105  2.0839
17526SOL     OW55597   2.815   6.172   9.056 -0.2010 -0.1809  0.2067
17526SOL    HW155598   2.807   6.164   8.961  2.8888  0.6452 -0.1716
17526SOL    HW255599   2.798   6.265   9.074 -1.7575 -0.5256  0.6030
17527SOL     OW55600   2.995   5.234   8.914 -0.1274 -0.4883 -0.2310
17527SOL    HW155601   3.046   5.276   8.844 -0.7716 -0.4011 -0.6477
17527SOL    HW255602   2.966   5.151   8.876 -2.3738  0.5531 -0.8545
17528SOL     OW55603   8.817   3.058   7.167  0.5116  0.1704 -0.5552
17528SOL    HW155604   8.783   3.013   7.244  0.4184  1.0968 -0.0391
17528SOL    HW255605   8.881   2.998   7.129 -0.2198 -0.7291 -0.3650
17529SOL     OW55606   6.786   2.454   4.329 -0.5157  0.2898  0.5885
17529SOL    HW155607   6.823   2.365   4.324  0.0357  0.5598 -0.2215
17529SOL    HW255608   6.734   2.462   4.250 -1.1772  0.4244  1.0361
17530SOL     OW55609   1.701   1.153   4.797  0.1266 -0.1200 -0.2111
17530SOL    HW155610   1.622   1.155   4.744  1.4224  0.1673 -2.2221
17530SOL    HW255611   1.704   1.065   4.834  0.6795 -1.3594 -3.0418
17531SOL     OW55612   3.770   6.835   4.578  0.4306 -0.0206  0.4977
17531SOL    HW155613   3.805   6.859   4.664 -0.8635  0.2857  0.9567
17531SOL    HW255614   3.772   6.917   4.529  1.2398 -0.2117  0.2043
17532SOL     OW55615   3.099   2.579   4.908  0.2296 -0.6541  0.1328
17532SOL    HW155616   3.143   2.586   4.823 -1.3630  0.6907 -0.6338
17532SOL    HW255617   3.108   2.488   4.933 -1.1933 -1.6159 -2.5929
17533SOL     OW55618   2.016   6.622   5.392  0.0269  0.1407  0.2885
17533SOL    HW155619   1.991   6.530   5.378  1.1474 -0.0143 -0.8443
17533SOL    HW255620   2.080   6.619   5.463  0.3629 -0.0094 -0.0172
17534SOL     OW55621   0.969   5.961   3.937  0.2740  0.1670 -0.3093
17534SOL    HW155622   1.056   5.990   3.962 -0.6400  2.4495  0.3274
17534SOL    HW255623   0.941   5.903   4.009  0.4113  1.1585  0.5469
17535SOL     OW55624   7.607   7.126   3.188 -0.3415 -0.4262 -0.1963
17535SOL    HW155625   7.539   7.170   3.138 -0.2368  0.1362  0.1535
17535SOL    HW255626   7.610   7.037   3.152 -1.3156 -0.4753 -0.1594
17536SOL     OW55627   0.931   5.547   1.440 -0.0920  0.0807  0.3575
17536SOL    HW155628   0.947   5.488   1.514  1.2916  1.1022  0.9012
17536SOL    HW255629   0.994   5.519   1.373 -0.7064 -0.2435 -0.0903
17537SOL     OW55630   1.737   6.147   8.772  0.7309  0.4647 -0.0367
17537SOL    HW155631   1.806   6.085   8.750  0.5885  0.2885  0.0092
17537SOL    HW255632   1.779   6.212   8.828  1.1486  1.0221 -0.9902
17538SOL     OW55633   2.164   4.249   9.172  0.2226  0.0445  0.5898
17538SOL    HW155634   2.207   4.164   9.172 -2.5911 -1.4465  2.6605
17538SOL    HW255635   2.231   4.310   9.138  2.0617 -3.0323 -1.5311
17539SOL     OW55636   1.874   7.862   6.641 -1.1639  0.3467 -0.1931
17539SOL    HW155637   1.911   7.807   6.710 -1.0774 -1.9121 -1.9704
17539SOL    HW255638   1.801   7.907   6.683 -1.3064 -1.2261  1.2968
17540SOL     OW55639   4.747   3.036   4.993  0.1529  0.6387 -0.2588
17540SOL    HW155640   4.836   3.070   4.981  0.5490  0.6094  2.4517
17540SOL    HW255641   4.742   3.012   5.085 -2.1127 -1.0142 -0.7625
17541SOL     OW55642   6.137   1.802   2.237  0.0942  0.4469 -0.4839
17541SOL    HW155643   6.169   1.815   2.148 -1.3312  1.0661 -0.9115
17541SOL    HW255644   6.147   1.707   2.252  1.3203  0.4952 -0.8974
17542SOL     OW55645   4.251   7.291   8.778  0.1506 -0.0512  0.2339
17542SOL    HW155646   4.309   7.232   8.729  2.7404  1.3668  1.5202
17542SOL    HW255647   4.235   7.246   8.861 -1.2859 -0.7796 -0.4013
17543SOL     OW55648   1.846   8.284   2.987 -0.0447 -0.4165 -0.4604
17543SOL    HW155649   1.906   8.250   3.053 -0.7787  0.3093  0.5917
17543SOL    HW255650   1.896   8.353   2.944  0.9009 -1.7742 -1.5715
17544SOL     OW55651   6.541   1.827   8.360  0.1200 -0.5152  0.3194
17544SOL    HW155652   6.568   1.872   8.441  0.2782  1.1241 -0.6220
17544SOL    HW255653   6.483   1.890   8.316 -1.5810 -2.1926  0.1108
17545SOL     OW55654   4.355   4.253   2.642  0.2654 -0.4120  0.1163
17545SOL    HW155655   4.394   4.336   2.617  0.8320 -0.2179  1.5696
17545SOL    HW255656   4.355   4.201   2.561  1.6759  0.3133 -0.3716
17546SOL     OW55657   8.364   6.871   0.287  0.3426  0.6124  0.0953
17546SOL    HW155658   8.356   6.807   0.358  0.3197 -1.4118 -1.6840
17546SOL    HW255659   8.448   6.851   0.246 -1.2470 -0.6814 -2.6936
17547SOL     OW55660   4.189   0.399   5.596 -0.2733  0.1511 -0.2568
17547SOL    HW155661   4.221   0.446   5.673  1.5398  0.8242 -1.3834
17547SOL    HW255662   4.255   0.332   5.580 -0.0243  0.7504 -1.8875
17548SOL     OW55663   1.489   2.127   4.325  0.1536  0.1150  0.3693
17548SOL    HW155664   1.470   2.219   4.347 -1.5153 -0.3659  1.0542
17548SOL    HW255665   1.518   2.130   4.234 -2.5796  1.0634 -0.5233
17549SOL     OW55666   7.045   8.427   3.556  0.7987  0.2005 -0.5870
17549SOL    HW155667   7.072   8.492   3.621  0.2684  0.3772 -0.5387
17549SOL    HW255668   7.101   8.444   3.480  2.1630 -0.7034  0.1952
17550SOL     OW55669   9.431   8.963   1.194 -0.0866 -0.5221  0.0469
17550SOL    HW155670   9.448   8.968   1.288 -0.0103  1.5450 -0.0531
17550SOL    HW255671   9.420   8.870   1.177  1.5440 -1.0689  1.8029
17551SOL     OW55672   1.804   1.643   6.759  0.0414 -0.4626  0.4075
17551SOL    HW155673   1.786   1.716   6.700  1.2724 -3.1975 -3.6266
17551SOL    HW255674   1.719   1.601   6.772 -0.1073 -0.3530 -0.1881
17552SOL     OW55675   6.669   5.235   4.519  0.0657  0.4240 -0.1287
17552SOL    HW155676   6.585   5.228   4.564  0.6215  1.1924  1.0332
17552SOL    HW255677   6.677   5.153   4.470 -0.9142 -0.0548  0.5036
17553SOL     OW55678   3.189   9.152   7.022  0.1959  0.7677  0.9159
17553SOL    HW155679   3.233   9.237   7.020 -1.7047  1.8053  0.9748
17553SOL    HW255680   3.129   9.159   7.097 -1.6944  0.3106 -0.5094
17554SOL     OW55681   9.142   1.180   8.057  0.2080  0.0617 -0.0630
17554SOL    HW155682   9.231   1.150   8.041 -0.1519 -0.3103 -1.3765
17554SOL    HW255683   9.149   1.275   8.063  0.8455 -0.0351  0.8931
17555SOL     OW55684   2.974   9.089   3.634 -0.6836 -0.1209  0.2116
17555SOL    HW155685   2.890   9.051   3.607  0.4092 -0.5793 -2.6230
17555SOL    HW255686   3.002   9.141   3.559  0.8709  1.2406  1.7139
17556SOL     OW55687   8.420   6.242   2.465  0.1439 -0.2269 -0.3490
17556SOL    HW155688   8.460   6.327   2.480 -3.3125  1.2509  0.8334
17556SOL    HW255689   8.489   6.179   2.489  2.0282  2.1778  0.7697
17557SOL     OW55690   2.304   7.481   8.315  0.0271  0.4585  0.4759
17557SOL    HW155691   2.336   7.397   8.346 -0.1599  0.7465  1.4719
17557SOL    HW255692   2.365   7.506   8.246 -0.0786 -0.6182 -0.0217
17558SOL     OW55693   0.087   0.452   0.309 -0.2469 -0.2664 -0.1936
17558SOL    HW155694   0.152   0.514   0.342  0.4098 -0.9454 -0.2010
17558SOL    HW255695   0.134   0.368   0.304 -0.7187 -0.4604 -1.5283
17559SOL     OW55696   2.662   8.742   1.124 -0.1295 -0.8619 -0.0849
17559SOL    HW155697   2.756   8.729   1.133  0.0151 -0.2681 -0.7546
17559SOL    HW255698   2.628   8.733   1.213  0.6426 -0.3692  0.2557
17560SOL     OW55699   1.667   8.268   1.249 -0.0918 -0.3567  0.3362
17560SOL    HW155700   1.580   8.240   1.222 -1.5762  1.2180  3.3445
17560SOL    HW255701   1.712   8.187   1.274 -0.9349 -1.0771 -0.4672
17561SOL     OW55702   3.302   4.608   3.011 -0.7114  0.1281 -0.0701
17561SOL    HW155703   3.393   4.637   3.009 -0.5296 -0.4429 -0.4944
17561SOL    HW255704   3.251   4.686   2.991 -0.1835 -0.0290 -2.1601
17562SOL     OW55705   8.613   0.760   2.499 -0.4523 -0.5787 -0.3319
17562SOL    HW155706   8.588   0.817   2.572 -1.2567 -0.9407 -0.3184
17562SOL    HW255707   8.690   0.713   2.530 -0.2594 -0.0795 -0.0497
17563SOL     OW55708   3.879   4.399   7.547 -0.2763 -0.3690  0.6298
17563SOL    HW155709   3.964   4.361   7.528 -0.8722 -0.6684 -1.5187
17563SOL    HW255710   3.899   4.483   7.589  1.0691 -0.4397  0.1452
17564SOL     OW55711   3.585   0.794   0.130 -0.0886  0.1982  0.5815
17564SOL    HW155712   3.628   0.770   0.048 -1.9441  0.6345 -0.5454
17564SOL    HW255713   3.624   0.736   0.195  2.1653  0.5579 -0.3988
17565SOL     OW55714   8.224   6.804   1.323 -0.0105  0.1605 -0.0353
17565SOL    HW155715   8.188   6.821   1.410 -2.7449 -2.4661 -0.5712
17565SOL    HW255716   8.296   6.742   1.339  0.0080  0.3055  0.4453
17566SOL     OW55717   6.407   2.620   1.467  0.1741 -0.6556 -0.4196
17566SOL    HW155718   6.388   2.526   1.464 -2.1224 -0.2504  0.8399
17566SOL    HW255719   6.331   2.661   1.427  0.9721  0.7281 -0.5582
17567SOL     OW55720   8.548   1.924   6.839  0.3124  0.5613  0.0843
17567SOL    HW155721   8.575   2.008   6.876  1.2340  0.1008  0.4720
17567SOL    HW255722   8.630   1.880   6.817 -0.1560 -0.3455  0.1288
17568SOL     OW55723   8.259   7.967   8.878 -0.4096  0.3836 -0.1281
17568SOL    HW155724   8.268   8.056   8.843 -0.5403  1.3217  2.0784
17568SOL    HW255725   8.321   7.964   8.951 -0.6059 -1.2499 -0.0093
17569SOL     OW55726   8.911   5.391   2.305 -0.3030  0.2698 -0.1198
17569SOL    HW155727   8.947   5.478   2.288 -2.0567  0.9867 -0.2902
17569SOL    HW255728   8.978   5.347   2.357  0.7411  1.5996 -0.3033
17570SOL     OW55729   3.634   7.775   0.027 -0.3048 -0.4422 -0.3492
17570SOL    HW155730   3.690   7.841   0.068  0.9307  0.3787 -3.2117
17570SOL    HW255731   3.680   7.692   0.041  0.1751 -0.1512 -0.2087
17571SOL     OW55732   6.674   2.359   1.916  0.5694  0.0662  0.4839
17571SOL    HW155733   6.761   2.340   1.881  0.0394  1.6497 -1.7515
17571SOL    HW255734   6.667   2.454   1.915 -1.6342 -0.0654 -0.5303
17572SOL     OW55735   7.655   7.191   0.317 -0.1793  0.0243 -0.1828
17572SOL    HW155736   7.650   7.097   0.305  0.9676 -0.2055  0.9297
17572SOL    HW255737   7.612   7.207   0.401 -1.3784  0.6333 -0.9067
17573SOL     OW55738   3.411   8.504   2.391 -0.3456 -0.5144 -0.6901
17573SOL    HW155739   3.391   8.584   2.343 -1.5343 -0.8314 -0.7414
17573SOL    HW255740   3.465   8.453   2.331  2.3559  1.1834  0.1839
17574SOL     OW55741   1.019   2.773   2.289 -0.1655  0.3487 -0.6218
17574SOL    HW155742   0.950   2.706   2.290 -0.1928  0.3685 -1.0350
17574SOL    HW255743   0.980   2.846   2.242 -1.0725  1.6764  2.0862
17575SOL     OW55744   6.940   1.892   3.168 -0.5918  0.1594  0.1861
17575SOL    HW155745   7.009   1.852   3.221 -1.3701 -0.7990  0.4906
17575SOL    HW255746   6.967   1.983   3.158  0.6486 -0.1806  0.4088
17576SOL     OW55747   9.255   7.364   7.006  0.0952  0.2666  0.6056
17576SOL    HW155748   9.182   7.312   7.039 -0.0937 -0.4363 -0.8717
17576SOL    HW255749   9.270   7.331   6.917  2.5398  0.0558  1.0493
17577SOL     OW55750   0.592   6.488   0.074 -0.0070  0.4819  0.7090
17577SOL    HW155751   0.657   6.556   0.092  0.9430 -0.2298 -0.0197
17577SOL    HW255752   0.641   6.417   0.033 -1.1971 -0.1636  0.3682
17578SOL     OW55753   4.488   2.108   8.557 -0.3337 -0.4682 -0.0721
17578SOL    HW155754   4.450   2.039   8.611  0.3414 -0.6990  0.1085
17578SOL    HW255755   4.428   2.182   8.568 -0.7285 -0.8290  0.2128
17579SOL     OW55756   1.517   4.589   0.802 -0.6345 -0.1308  0.1100
17579SOL    HW155757   1.454   4.591   0.875 -0.4548  0.5415  0.2511
17579SOL    HW255758   1.581   4.523   0.828 -1.1086 -0.5979  0.1097
17580SOL     OW55759   5.908   0.745   6.296 -0.0964 -0.0878  0.1574
17580SOL    HW155760   5.896   0.668   6.351 -0.9550 -1.1309 -1.4522
17580SOL    HW255761   5.823   0.790   6.299 -0.1067 -0.0824 -0.2246
17581SOL     OW55762   5.379   6.570   5.478 -0.3152 -0.1885 -0.1843
17581SOL    HW155763   5.414   6.512   5.411 -1.2955  0.4843 -1.2955
17581SOL    HW255764   5.298   6.604   5.440  0.1974  1.8384  0.4886
17582SOL     OW55765   5.493   0.630   7.330  0.1875 -0.1548 -0.2247
17582SOL    HW155766   5.467   0.609   7.419  0.2981  2.9279  0.6006
17582SOL    HW255767   5.423   0.688   7.298  1.1455  0.3616 -1.4179
17583SOL     OW55768   2.615   7.666   3.829  0.1638 -0.3189 -0.2611
17583SOL    HW155769   2.562   7.732   3.784  0.6791  1.7792  2.1203
17583SOL    HW255770   2.671   7.630   3.760 -0.2419  1.6288 -1.6554
17584SOL     OW55771   9.163   3.391   1.723  0.1551  0.0133  0.4340
17584SOL    HW155772   9.153   3.308   1.769  0.4373  1.1862  2.6483
17584SOL    HW255773   9.239   3.378   1.665 -0.0984 -1.4028  0.4114
17585SOL     OW55774   8.450   4.556   3.368 -0.5423  0.4688  0.1644
17585SOL    HW155775   8.423   4.513   3.450  2.1527 -1.0376  0.3006
17585SOL    HW255776   8.381   4.621   3.352 -1.3866  0.4395  3.3437
17586SOL     OW55777   7.628   8.129   4.027  0.0668  0.2911  0.3873
17586SOL    HW155778   7.604   8.133   4.120 -1.1346 -1.7965  0.2029
17586SOL    HW255779   7.545   8.135   3.980  0.5673  0.1773 -0.5305
17587SOL     OW55780   8.998   1.988   0.582  0.1264 -0.1451 -0.4796
17587SOL    HW155781   9.091   1.987   0.604 -0.2989  1.9436  1.5899
17587SOL    HW255782   8.960   1.918   0.636  0.3400 -0.3402 -0.5835
17588SOL     OW55783   5.965   3.088   6.967 -0.2862  0.8254 -0.3261
17588SOL    HW155784   5.928   3.000   6.972  3.7042 -0.9036  0.1976
17588SOL    HW255785   5.936   3.131   7.047 -1.6699 -0.2166 -0.2447
17589SOL     OW55786   3.478   0.951   0.891 -0.1633 -0.4078 -0.1184
17589SOL    HW155787   3.412   0.885   0.910  0.2414 -0.5133  0.9805
17589SOL    HW255788   3.429   1.026   0.859 -1.2052  0.8172  4.1025
17590SOL     OW55789   2.450   8.981   6.322 -0.5104  0.1547 -0.0032
17590SOL    HW155790   2.535   8.997   6.363  1.2108 -1.7453 -2.6643
17590SOL    HW255791   2.468   8.978   6.228 -3.7206  0.8158 -0.7133
17591SOL     OW55792   7.822   4.515   5.224  0.1300 -0.4864  0.3378
17591SOL    HW155793   7.779   4.576   5.165 -0.1358 -1.5154 -0.5505
17591SOL    HW255794   7.767   4.437   5.223  0.1655 -0.5626  1.8877
17592SOL     OW55795   3.777   3.032   4.365  0.1517  0.0270 -0.2377
17592SOL    HW155796   3.804   3.000   4.451 -0.5045 -1.1153 -0.4522
17592SOL    HW255797   3.819   2.973   4.303  0.1202  0.4754 -0.6881
17593SOL     OW55798   7.693   4.365   0.128 -0.0658 -0.1394 -0.3608
17593SOL    HW155799   7.777   4.365   0.083  0.2574  1.8090  0.2075
17593SOL    HW255800   7.715   4.367   0.221 -0.7492  0.0106 -0.1963
17594SOL     OW55801   3.594   7.962   3.036  0.0783  0.0765 -0.0391
17594SOL    HW155802   3.670   7.966   3.094 -0.6542  0.3795  0.9224
17594SOL    HW255803   3.552   7.878   3.056  0.8577 -0.6635 -1.4728
17595SOL     OW55804   7.819   0.311   9.198 -0.2202  0.2492 -0.1435
17595SOL    HW155805   7.765   0.390   9.198 -2.3046 -1.1271 -1.3120
17595SOL    HW255806   7.763   0.243   9.234  1.0755 -1.0224 -0.4611
17596SOL     OW55807   9.117   5.005   2.928  0.0095 -0.0421 -0.7947
17596SOL    HW155808   9.023   5.003   2.946  0.6942 -0.8232  3.1689
17596SOL    HW255809   9.132   4.933   2.867 -2.0480  0.5752 -2.0593
17597SOL     OW55810   8.877   6.660   5.393  0.4865  0.1781  0.2887
17597SOL    HW155811   8.812   6.730   5.378  0.6307 -0.2791 -2.8645
17597SOL    HW255812   8.825   6.582   5.411  0.1704  0.1677 -0.6211
17598SOL     OW55813   7.105   4.537   6.205 -0.8765 -0.1236 -0.0992
17598SOL    HW155814   7.167   4.558   6.136 -0.7638 -0.5111 -0.1207
17598SOL    HW255815   7.020   4.531   6.161 -0.8550 -0.0454 -0.1493
17599SOL     OW55816   6.544   5.594   0.802  0.3876  0.3999 -0.0015
17599SOL    HW155817   6.496   5.588   0.884  1.2174  0.1774  0.4747
17599SOL    HW255818   6.476   5.604   0.735 -0.2836  0.8253  0.7300
17600SOL     OW55819   1.890   6.155   1.102 -0.4093 -0.1039 -0.2894
17600SOL    HW155820   1.907   6.118   1.015 -1.9302 -1.0908 -0.1951
17600SOL    HW255821   1.900   6.249   1.090 -0.5154 -0.2372 -1.5247
17601SOL     OW55822   5.652   1.955   0.984 -0.0190 -0.0417 -0.6106
17601SOL    HW155823   5.679   2.028   0.930 -0.2851 -1.3253 -2.5135
17601SOL    HW255824   5.726   1.939   1.043  0.1020  1.6162 -0.2998
17602SOL     OW55825   7.990   0.556   2.403  0.3612 -0.1070  0.4189
17602SOL    HW155826   8.063   0.615   2.382  0.3511  0.4568  1.8837
17602SOL    HW255827   8.031   0.475   2.431  0.3821 -0.5622 -0.8762
17603SOL     OW55828   2.275   5.725   4.860  0.2173  0.3454 -0.0813
17603SOL    HW155829   2.292   5.758   4.772  1.8167 -1.2973 -0.4084
17603SOL    HW255830   2.314   5.790   4.918  0.7756  0.4978 -0.6273
17604SOL     OW55831   5.613   4.523   1.506 -0.1221 -0.8386  0.4352
17604SOL    HW155832   5.539   4.468   1.480  0.9317 -3.0336  1.8925
17604SOL    HW255833   5.596   4.544   1.598  0.8115 -0.9588  0.6401
17605SOL     OW55834   3.862   3.410   4.490 -0.1052 -0.0218  0.2375
17605SOL    HW155835   3.855   3.504   4.476 -0.2097  0.0841  0.9710
17605SOL    HW255836   3.815   3.371   4.417  1.2617  0.4578 -0.9368
17606SOL     OW55837   7.184   2.565   7.558 -0.0039 -0.2017 -0.6024
17606SOL    HW155838   7.117   2.562   7.626  2.5648  0.2956  2.0616
17606SOL    HW255839   7.178   2.654   7.523  0.2070  0.3088  0.6264
17607SOL     OW55840   9.434   9.029   7.747  0.3635 -0.3109 -0.0789
17607SOL    HW155841   9.411   9.121   7.761  1.5135 -0.0672  0.2363
17607SOL    HW255842   9.394   8.983   7.821 -1.2255 -0.2433 -0.8665
17608SOL     OW55843   2.169   8.524   6.607 -0.1601  0.3042  0.1005
17608SOL    HW155844   2.223   8.469   6.664  0.6024  1.2175  0.2725
17608SOL    HW255845   2.141   8.596   6.662 -0.4246  0.5577 -0.3636
17609SOL     OW55846   3.360   1.161   8.118 -0.2200 -0.1110 -0.1477
17609SOL    HW155847   3.416   1.238   8.129 -0.3860  0.0100 -0.1317
17609SOL    HW255848   3.419   1.086   8.126 -0.0387  0.0177 -0.2799
17610SOL     OW55849   9.398   3.453   2.080 -0.1211 -0.0408  0.1644
17610SOL    HW155850   9.306   3.454   2.106 -0.3613 -0.3264 -0.6534
17610SOL    HW255851   9.397   3.472   1.986  0.5986 -0.6925  0.0099
17611SOL     OW55852   4.664   1.055   8.698  0.2843  0.0651 -0.2089
17611SOL    HW155853   4.588   1.110   8.716  1.1420  1.1691  0.1116
17611SOL    HW255854   4.670   0.996   8.773 -0.8097 -0.6596 -0.6903
17612SOL     OW55855   3.717   0.222   0.718 -0.7899 -1.2042 -0.1774
17612SOL    HW155856   3.628   0.197   0.695 -1.2973  0.3353  0.0507
17612SOL    HW255857   3.713   0.243   0.811 -0.6766  0.8767 -0.6193
17613SOL     OW55858   4.701   5.398   0.558  0.2758  0.0910  0.7679
17613SOL    HW155859   4.723   5.478   0.606  0.5064  1.5535 -1.7117
17613SOL    HW255860   4.619   5.418   0.513  0.6888 -0.8237 -0.4229
17614SOL     OW55861   2.695   8.374   3.475 -0.5613 -0.2942 -0.5352
17614SOL    HW155862   2.629   8.362   3.407 -0.8974  0.3487 -0.3256
17614SOL    HW255863   2.749   8.446   3.443 -0.3026 -0.4416 -0.4366
17615SOL     OW55864   2.726   8.608   0.220 -0.4706  0.0938  0.0875
17615SOL    HW155865   2.817   8.580   0.217 -0.0876  1.2901  0.6901
17615SOL    HW255866   2.687   8.569   0.141  0.4986 -0.5944 -0.0569
17616SOL     OW55867   6.442   1.389   1.046  0.8306  0.3667 -0.0034
17616SOL    HW155868   6.525   1.360   1.006  0.7803 -0.0612  0.1962
17616SOL    HW255869   6.425   1.474   1.007  0.0044 -0.7070 -2.0652
17617SOL     OW55870   6.180   4.519   9.129  1.0315  0.5070 -0.2709
17617SOL    HW155871   6.211   4.436   9.093 -0.6268  0.0738 -0.7194
17617SOL    HW255872   6.258   4.575   9.130  2.2204 -1.1315  0.2838
17618SOL     OW55873   0.992   6.783   5.785  0.3530 -0.0115  0.1314
17618SOL    HW155874   0.965   6.851   5.847  0.8266  0.5287 -0.2460
17618SOL    HW255875   1.065   6.739   5.830 -0.1991 -0.5137  0.5334
17619SOL     OW55876   4.299   3.749   7.062  0.3914 -0.0554 -0.5808
17619SOL    HW155877   4.341   3.815   7.118  0.8103 -1.4082  0.7261
17619SOL    HW255878   4.361   3.738   6.990  1.7439 -1.1535  0.7148
17620SOL     OW55879   3.379   3.322   4.321  0.0295  0.7340  0.4733
17620SOL    HW155880   3.355   3.231   4.304  0.8783  1.0154 -2.6160
17620SOL    HW255881   3.451   3.317   4.384 -0.7312 -0.6324  1.2643
17621SOL     OW55882   6.030   2.206   0.644 -0.2089 -0.3007 -0.0841
17621SOL    HW155883   5.994   2.295   0.654 -0.7172 -0.7743  2.5303
17621SOL    HW255884   6.114   2.209   0.690  0.8851 -0.5469 -2.0267
17622SOL     OW55885   3.747   0.948   3.384 -0.3994 -0.2457 -0.4427
17622SOL    HW155886   3.700   0.957   3.466 -0.4910 -2.2366 -0.2458
17622SOL    HW255887   3.813   0.881   3.401  2.2606  2.1845 -0.8290
17623SOL     OW55888   6.821   2.318   2.395 -0.4493  0.1185  0.4701
17623SOL    HW155889   6.822   2.398   2.447 -1.9456  0.4101  0.0906
17623SOL    HW255890   6.740   2.273   2.422 -1.9979  0.9506 -2.5563
17624SOL     OW55891   8.484   5.806   0.490 -0.4200  0.1987  0.0273
17624SOL    HW155892   8.546   5.807   0.417 -0.5210  2.2057 -0.0663
17624SOL    HW255893   8.529   5.758   0.560  1.3220  1.7891  0.0223
17625SOL     OW55894   8.198   2.387   3.239 -0.1151 -0.2460 -0.1139
17625SOL    HW155895   8.171   2.297   3.257 -1.0607 -0.2373 -1.4509
17625SOL    HW255896   8.203   2.392   3.144 -0.7664  1.3198 -0.0738
17626SOL     OW55897   4.195   9.110   5.162 -0.3607 -0.2600  0.6739
17626SOL    HW155898   4.258   9.125   5.091 -1.4412  3.0269  0.3330
17626SOL    HW255899   4.237   9.149   5.239 -0.1222 -1.9394  1.4184
17627SOL     OW55900   2.363   8.201   5.367  0.0411 -0.5481  0.0111
17627SOL    HW155901   2.380   8.216   5.274  2.8038  0.7593  0.6730
17627SOL    HW255902   2.302   8.270   5.392  0.7403  0.2461 -0.4403
17628SOL     OW55903   8.103   5.062   1.167 -0.4612 -0.4916 -0.8622
17628SOL    HW155904   8.036   5.029   1.107  0.9877  1.0938 -3.4668
17628SOL    HW255905   8.168   5.101   1.110  1.6452 -0.0787  1.7393
17629SOL     OW55906   6.930   9.410   4.611 -0.0457 -0.0997 -0.0252
17629SOL    HW155907   6.944   9.462   4.690 -0.2901 -0.0145 -0.0376
17629SOL    HW255908   7.018   9.398   4.574  0.0434  0.0508  0.1381
17630SOL     OW55909   5.346   7.105   5.958  0.4440  0.1651 -0.1424
17630SOL    HW155910   5.266   7.113   5.905  0.0855  0.7353  0.4706
17630SOL    HW255911   5.390   7.027   5.924  0.1362  0.4222 -1.1707
17631SOL     OW55912   7.165   0.328   8.289 -0.1308  0.0840  0.2566
17631SOL    HW155913   7.134   0.375   8.211  1.7283  1.4248  0.2945
17631SOL    HW255914   7.244   0.283   8.260  0.9443  1.1248  1.5170
17632SOL     OW55915   9.016   0.255   4.677 -0.3939 -0.2502 -0.4116
17632SOL    HW155916   9.081   0.308   4.630  0.9481 -1.1882  0.3577
17632SOL    HW255917   8.938   0.311   4.682  0.9901  1.6429  0.3585
17633SOL     OW55918   2.230   5.980   3.982  0.8227 -0.0720 -0.4620
17633SOL    HW155919   2.230   6.075   3.992  2.2919 -0.0142 -0.9752
17633SOL    HW255920   2.309   5.951   4.027  0.3875 -1.0553 -0.3128
17634SOL     OW55921   3.484   7.935   7.071 -0.1195 -0.1266 -0.0668
17634SOL    HW155922   3.518   7.874   7.137 -0.4744 -2.6511 -2.1714
17634SOL    HW255923   3.392   7.911   7.061 -0.1453  0.4642 -1.2458
17635SOL     OW55924   6.981   3.626   7.145 -0.8983  0.0137  0.1277
17635SOL    HW155925   6.973   3.710   7.100 -0.9332 -0.0391  0.0346
17635SOL    HW255926   7.024   3.647   7.228  1.4197 -0.2048 -0.9722
17636SOL     OW55927   8.755   4.399   9.368  1.3723  0.3627 -0.1089
17636SOL    HW155928   8.680   4.373   9.315 -0.1129  0.1609  2.0157
17636SOL    HW255929   8.827   4.406   9.306 -0.6956  1.9008 -2.4352
17637SOL     OW55930   1.700   4.594   7.285  0.1056  0.3345 -0.2504
17637SOL    HW155931   1.660   4.530   7.227  0.7079  0.1119 -0.4268
17637SOL    HW255932   1.635   4.609   7.354 -1.4904  2.1518 -2.0753
17638SOL     OW55933   3.259   7.192   2.421 -0.0842 -0.3703 -0.4549
17638SOL    HW155934   3.175   7.191   2.468 -1.0992 -1.6839 -2.2310
17638SOL    HW255935   3.283   7.285   2.416 -1.1414 -0.0317  0.5531
17639SOL     OW55936   4.670   4.334   2.018  0.3919 -0.0178  0.2001
17639SOL    HW155937   4.700   4.395   1.950 -2.0855 -0.2107 -1.1247
17639SOL    HW255938   4.696   4.376   2.100  1.2998  1.3976 -0.7772
17640SOL     OW55939   2.121   5.753   5.163  0.1713  0.4464 -0.0717
17640SOL    HW155940   2.204   5.770   5.119 -0.4121  0.1777 -1.3163
17640SOL    HW255941   2.057   5.806   5.115 -0.3739  0.6473  0.8672
17641SOL     OW55942   4.898   6.991   5.750 -0.0958  0.1532  0.0129
17641SOL    HW155943   4.873   6.931   5.821 -0.5528 -0.2751 -0.5114
17641SOL    HW255944   4.828   7.056   5.749 -0.4085 -0.1899 -0.4530
17642SOL     OW55945   6.460   6.724   3.682 -0.3248  0.5517  0.4798
17642SOL    HW155946   6.367   6.731   3.703 -0.5543  0.9241 -0.6390
17642SOL    HW255947   6.497   6.810   3.704 -0.9128  1.5578 -2.2803
17643SOL     OW55948   3.254   7.453   6.879 -0.2411 -0.7661 -0.7107
17643SOL    HW155949   3.260   7.437   6.973 -1.8228 -0.7258 -0.5818
17643SOL    HW255950   3.294   7.539   6.867  1.1839 -1.3533 -0.2802
17644SOL     OW55951   8.735   0.533   6.436  0.1985 -0.3722  0.2739
17644SOL    HW155952   8.800   0.463   6.443  1.2468  0.7620  2.2099
17644SOL    HW255953   8.759   0.595   6.505 -1.3447  1.3828 -0.7306
17645SOL     OW55954   4.015   5.018   3.054 -0.4969  0.4460  0.8310
17645SOL    HW155955   3.985   4.957   3.121 -0.5944 -0.2752  0.1470
17645SOL    HW255956   4.107   5.034   3.075 -0.1892 -0.7443  0.4337
17646SOL     OW55957   6.141   4.464   5.674  0.3572 -0.1884  0.3141
17646SOL    HW155958   6.054   4.503   5.685  1.3971  2.9458 -1.8503
17646SOL    HW255959   6.125   4.370   5.670 -2.8488  0.3003  0.7499
17647SOL     OW55960   8.480   5.550   7.068 -0.8909  0.0437  0.4401
17647SOL    HW155961   8.573   5.571   7.075 -0.4515 -1.4860 -0.6595
17647SOL    HW255962   8.470   5.467   7.113 -1.7099  0.1159  0.4081
17648SOL     OW55963   8.323   8.829   8.285 -0.5049  0.1241 -0.6138
17648SOL    HW155964   8.261   8.775   8.235 -0.3035 -1.1631  0.5041
17648SOL    HW255965   8.268   8.887   8.337 -0.7815 -1.0265  0.3867
17649SOL     OW55966   5.156   8.793   0.370 -0.6978  0.3695  0.1829
17649SOL    HW155967   5.165   8.762   0.280  0.2881 -0.9417  0.7261
17649SOL    HW255968   5.129   8.885   0.360  1.7742  0.9726 -1.4889
17650SOL     OW55969   8.320   5.583   1.757 -0.0363  0.0688  0.4313
17650SOL    HW155970   8.396   5.576   1.816  1.1444  0.5507 -0.9910
17650SOL    HW255971   8.274   5.662   1.786 -0.3116 -0.5086  1.6353
17651SOL     OW55972   3.185   7.501   2.403 -0.1336  0.2871 -0.4073
17651SOL    HW155973   3.261   7.511   2.460 -0.8470 -3.1119  1.2671
17651SOL    HW255974   3.110   7.502   2.462 -1.1885  0.7660 -1.7346
17652SOL     OW55975   4.729   2.248   6.023  0.2114  0.4818 -0.4584
17652SOL    HW155976   4.679   2.171   6.051 -1.5870  1.4029 -1.0361
17652SOL    HW255977   4.738   2.301   6.102 -1.9138  1.4705 -0.8264
17653SOL     OW55978   6.098   8.675   2.049 -0.3060 -0.2310 -0.1764
17653SOL    HW155979   6.021   8.659   1.994 -1.2381  0.9955  0.7274
17653SOL    HW255980   6.068   8.740   2.113  1.4337  0.1178  0.3095
17654SOL     OW55981   0.761   2.215   4.119  0.0070  0.0904  0.4392
17654SOL    HW155982   0.844   2.201   4.074 -0.0063  1.0664  0.1079
17654SOL    HW255983   0.695   2.185   4.057  0.0735 -0.0159  0.4203
17655SOL     OW55984   0.821   8.523   3.540 -0.5408 -0.2036 -0.1293
17655SOL    HW155985   0.867   8.520   3.624 -0.9453 -1.4501  0.0648
17655SOL    HW255986   0.873   8.582   3.486  0.8290 -0.9344  0.3641
17656SOL     OW55987   8.246   5.586   4.744  0.4160 -0.1978  0.2285
17656SOL    HW155988   8.323   5.638   4.768  1.7728 -1.8081 -0.5639
17656SOL    HW255989   8.239   5.521   4.813  1.2494 -1.5875 -0.9709
17657SOL     OW55990   0.898   1.604   5.212  0.0578 -0.7258  0.5100
17657SOL    HW155991   0.842   1.681   5.222  0.9316 -0.3307  2.4749
17657SOL    HW255992   0.967   1.615   5.277  1.5490 -2.0013 -0.8062
17658SOL     OW55993   3.504   1.630   2.130 -0.4816 -0.1823  0.1845
17658SOL    HW155994   3.457   1.686   2.192  1.6452  0.4706  1.2470
17658SOL    HW255995   3.594   1.629   2.162  0.7172  0.3403 -3.0298
17659SOL     OW55996   8.965   7.030   0.554  0.0543 -0.0754 -0.1045
17659SOL    HW155997   8.951   6.992   0.641  1.8877 -1.0017 -0.1886
17659SOL    HW255998   8.887   7.084   0.538  0.0422  0.7117  2.4303
17660SOL     OW55999   1.542   6.776   3.421 -0.0970  0.1890  0.3714
17660SOL    HW156000   1.513   6.826   3.344  0.2396 -0.0416  0.0895
17660SOL    HW256001   1.480   6.799   3.490 -1.0497 -0.4356 -0.2664
17661SOL     OW56002   3.616   3.553   3.685 -1.0486  0.3663  0.1035
17661SOL    HW156003   3.531   3.594   3.675 -0.3483  1.8045 -0.0451
17661SOL    HW256004   3.632   3.551   3.779 -2.1868 -1.8985  0.2835
17662SOL     OW56005   5.585   2.128   6.331  0.3373  0.4280 -0.2756
17662SOL    HW156006   5.588   2.169   6.245 -0.4368  1.0481 -0.0207
17662SOL    HW256007   5.564   2.200   6.391  1.8607  0.1885  0.5612
17663SOL     OW56008   4.534   8.825   0.211  0.0997  0.0050 -0.4708
17663SOL    HW156009   4.556   8.900   0.266  1.6747 -0.4730 -0.4341
17663SOL    HW256010   4.616   8.803   0.166 -0.0358 -2.4447  0.4362
17664SOL     OW56011   6.994   7.829   4.648 -0.0676  0.8036  0.5923
17664SOL    HW156012   6.999   7.734   4.640  0.5903  0.7607  1.4217
17664SOL    HW256013   6.934   7.856   4.579 -0.1189 -0.1977  0.2396
17665SOL     OW56014   9.054   1.920   8.777  0.6679 -0.0718  0.1372
17665SOL    HW156015   9.042   1.949   8.686 -1.6876 -3.1265 -0.6100
17665SOL    HW256016   8.990   1.971   8.827  1.3177  0.9357 -0.0377
17666SOL     OW56017   1.823   5.098   6.331  0.2901 -0.0273  0.4079
17666SOL    HW156018   1.917   5.080   6.322  0.4558  0.7732  0.5104
17666SOL    HW256019   1.782   5.011   6.334  0.9355 -0.3800 -0.5479
17667SOL     OW56020   7.667   5.574   2.456  0.1345  0.2987 -0.2050
17667SOL    HW156021   7.609   5.566   2.532  0.1090 -0.8474 -0.3361
17667SOL    HW256022   7.674   5.484   2.422 -0.8098  0.9707 -2.2570
17668SOL     OW56023   7.539   8.127   3.100 -0.4779  0.3025  0.8700
17668SOL    HW156024   7.542   8.121   3.004 -0.4923  2.4867  0.7066
17668SOL    HW256025   7.491   8.049   3.127  0.0380 -0.6416 -0.8629
17669SOL     OW56026   6.587   0.500   1.760  0.3696 -0.1599 -0.0946
17669SOL    HW156027   6.570   0.473   1.670 -1.2319 -0.1335  0.1853
17669SOL    HW256028   6.678   0.530   1.760  0.4993 -0.5391 -1.6037
17670SOL     OW56029   5.492   4.726   3.777 -0.5233 -0.5710 -0.5319
17670SOL    HW156030   5.458   4.705   3.690  2.2099 -0.5445 -1.6576
17670SOL    HW256031   5.557   4.658   3.794  1.2446  1.2190  0.0744
17671SOL     OW56032   5.933   3.075   5.278  0.7123  0.2214 -0.1088
17671SOL    HW156033   6.002   3.060   5.343  0.1911  1.4197  0.7346
17671SOL    HW256034   5.852   3.047   5.321  0.4268  0.6078 -0.3890
17672SOL     OW56035   8.880   1.228   4.347  0.1119  0.4651  0.0707
17672SOL    HW156036   8.792   1.198   4.326  0.3584  0.8622 -1.5719
17672SOL    HW256037   8.885   1.221   4.442 -2.0118  1.3047  0.2750
17673SOL     OW56038   7.256   3.994   6.335  0.3126 -0.2148  0.5799
17673SOL    HW156039   7.175   4.044   6.343 -0.0714 -0.5403 -1.0215
17673SOL    HW256040   7.242   3.916   6.388 -0.5658 -0.4394  0.0263
17674SOL     OW56041   1.028   4.329   1.888  0.7105 -0.0480  0.3242
17674SOL    HW156042   1.081   4.315   1.810 -1.4673 -0.5257 -1.1075
17674SOL    HW256043   1.031   4.245   1.934  2.6131  0.4590  1.1890
17675SOL     OW56044   4.200   3.003   1.918  0.3104  0.2345 -0.2096
17675SOL    HW156045   4.271   2.954   1.958 -0.4576 -0.3698  0.4524
17675SOL    HW256046   4.189   2.965   1.831  1.1422  0.6835 -0.5076
17676SOL     OW56047   2.653   6.096   6.170 -0.4628  0.2607 -0.2500
17676SOL    HW156048   2.589   6.145   6.118 -0.6973  2.4024  1.9487
17676SOL    HW256049   2.605   6.071   6.249  0.7260 -0.2261  0.3197
17677SOL     OW56050   6.764   1.012   1.583  0.0360 -0.0852 -0.2980
17677SOL    HW156051   6.700   1.078   1.610  0.7656  0.7796 -0.6255
17677SOL    HW256052   6.843   1.034   1.633  0.0411 -1.2052  0.1843
17678SOL     OW56053   7.447   4.525   5.240 -0.1237 -0.0188 -0.0665
17678SOL    HW156054   7.520   4.467   5.215 -0.4501 -0.8569  0.8781
17678SOL    HW256055   7.398   4.475   5.305 -1.0692  0.8813 -0.0714
17679SOL     OW56056   7.589   4.682   0.426  0.2338 -0.6089  0.2675
17679SOL    HW156057   7.646   4.687   0.502 -0.4065 -2.3132  0.8755
17679SOL    HW256058   7.644   4.647   0.356  0.7651  0.7581 -0.0109
17680SOL     OW56059   7.184   0.971   6.055 -0.0101  0.0348  0.2994
17680SOL    HW156060   7.163   0.931   6.139  0.4193  2.1029  1.4464
17680SOL    HW256061   7.110   0.951   5.998 -0.1037 -1.7483  1.0235
17681SOL     OW56062   9.342   7.605   4.633 -0.3069 -0.0151 -0.0586
17681SOL    HW156063   9.268   7.621   4.575  0.7701 -0.4076 -1.5728
17681SOL    HW256064   9.315   7.642   4.717 -1.8238  0.6959 -0.8392
17682SOL     OW56065   5.982   3.020   2.939 -0.5076 -0.4383 -0.2796
17682SOL    HW156066   5.895   2.989   2.915  0.2697 -2.0333 -1.1181
17682SOL    HW256067   6.040   2.985   2.871  0.7258  0.9742  0.0128
17683SOL     OW56068   7.930   5.460   0.352 -0.1989  0.8763 -0.7362
17683SOL    HW156069   7.921   5.554   0.333 -1.0426  0.9923  0.1576
17683SOL    HW256070   7.865   5.444   0.421 -0.1807 -0.4045 -1.0128
17684SOL     OW56071   8.399   1.055   0.726 -0.0818  0.1182  0.5806
17684SOL    HW156072   8.463   1.014   0.669  0.4995  0.4406  1.0014
17684SOL    HW256073   8.365   1.128   0.675 -0.1584 -0.0849  0.3386
17685SOL     OW56074   4.380   0.852   7.236 -0.1627 -0.2457  0.5791
17685SOL    HW156075   4.291   0.869   7.205 -0.0619 -2.7336 -1.2103
17685SOL    HW256076   4.437   0.898   7.174 -0.1221 -0.9031  0.1270
17686SOL     OW56077   5.343   4.206   7.071  0.0361  0.5215 -0.2097
17686SOL    HW156078   5.401   4.144   7.026 -0.8024  0.2778 -0.9698
17686SOL    HW256079   5.269   4.218   7.011 -0.3700  1.3671  0.4412
17687SOL     OW56080   2.631   7.596   1.496  0.1398 -0.0647  0.3316
17687SOL    HW156081   2.726   7.585   1.491  0.4537  2.7695 -0.5368
17687SOL    HW256082   2.614   7.624   1.586  0.1644 -0.0737  0.3390
17688SOL     OW56083   0.833   1.400   2.474 -0.6512  0.3782  0.4742
17688SOL    HW156084   0.808   1.485   2.510 -1.0267  0.7637 -0.6805
17688SOL    HW256085   0.785   1.394   2.391  0.3158 -0.4283 -0.0314
17689SOL     OW56086   0.791   4.735   9.277  0.1424  0.4684  0.3849
17689SOL    HW156087   0.741   4.653   9.282 -1.2763  1.1721 -1.6640
17689SOL    HW256088   0.732   4.801   9.314 -0.7785  1.4112 -2.6190
17690SOL     OW56089   4.215   0.707   6.971  0.2503 -0.1784 -0.3800
17690SOL    HW156090   4.167   0.694   6.889 -0.6570  0.4078  0.0510
17690SOL    HW256091   4.214   0.802   6.984 -0.0482 -0.3056  0.5612
17691SOL     OW56092   3.623   8.979   0.410 -0.5732 -0.6563 -0.4395
17691SOL    HW156093   3.687   8.965   0.340 -0.7987 -1.0767 -0.5626
17691SOL    HW256094   3.560   8.908   0.399 -1.2236 -0.0715 -0.4997
17692SOL     OW56095   9.416   1.450   2.278  0.2380 -0.4187  0.4956
17692SOL    HW156096   9.432   1.472   2.186 -1.6137 -0.3981  0.1633
17692SOL    HW256097   9.344   1.387   2.276 -0.5283  0.3754  1.9959
17693SOL     OW56098   0.937   6.791   2.200  0.4690 -0.1340  0.4093
17693SOL    HW156099   0.951   6.880   2.232  0.9223 -0.3444  0.7954
17693SOL    HW256100   0.873   6.754   2.260 -2.0498  0.9300 -1.5381
17694SOL     OW56101   1.136   3.387   5.556 -0.2814  0.3146 -0.2352
17694SOL    HW156102   1.163   3.295   5.548 -1.5007  0.0059 -1.0414
17694SOL    HW256103   1.216   3.437   5.542  0.6817 -0.6530  1.7447
17695SOL     OW56104   0.648   7.551   8.245 -0.3750 -1.0089  0.0308
17695SOL    HW156105   0.597   7.626   8.215 -0.4508 -1.3130 -0.5886
17695SOL    HW256106   0.609   7.476   8.202 -0.0615 -1.3680  0.3661
17696SOL     OW56107   5.978   2.451   7.916 -0.6700 -0.1085 -0.0820
17696SOL    HW156108   5.959   2.465   8.009  0.2246  0.9678 -0.0403
17696SOL    HW256109   5.896   2.472   7.872 -1.5278 -2.0242  0.5565
17697SOL     OW56110   0.563   4.299   0.434  0.1666  0.1388  0.1748
17697SOL    HW156111   0.561   4.394   0.440 -0.1327  0.2161 -0.9636
17697SOL    HW256112   0.471   4.274   0.428  0.2095 -0.2779  1.2630
17698SOL     OW56113   3.783   2.589   7.199  0.2563  0.3485 -0.5330
17698SOL    HW156114   3.855   2.575   7.136  0.8702  0.4899  0.1371
17698SOL    HW256115   3.791   2.681   7.224 -0.1830  0.3718 -0.4808
17699SOL     OW56116   3.498   7.653   9.036  0.4921  0.2823  0.1020
17699SOL    HW156117   3.578   7.643   8.985  1.7297  1.6761  1.7471
17699SOL    HW256118   3.518   7.719   9.101 -2.0347  0.7259  0.4955
17700SOL     OW56119   0.131   0.377   1.808 -0.2888 -0.2899  0.3254
17700SOL    HW156120   0.159   0.397   1.897  0.3703  1.5146 -0.2605
17700SOL    HW256121   0.049   0.328   1.818 -0.9935  1.1647  1.8935
17701SOL     OW56122   5.814   1.268   8.015 -0.3135  0.4436 -0.6712
17701SOL    HW156123   5.805   1.173   8.008  4.0824 -0.2653  1.4971
17701SOL    HW256124   5.747   1.294   8.078 -0.2921 -1.5270  0.2117
17702SOL     OW56125   6.541   0.786   1.292  0.3037 -0.0051  0.0582
17702SOL    HW156126   6.519   0.877   1.311 -1.5624 -0.6720  1.2860
17702SOL    HW256127   6.628   0.774   1.330  0.6356  1.2897 -0.2598
17703SOL     OW56128   1.406   9.220   5.016  0.1138  0.3170  0.5031
17703SOL    HW156129   1.417   9.258   5.103 -1.1840 -1.5507  1.5110
17703SOL    HW256130   1.373   9.132   5.032 -0.3208  0.0041 -1.8956
17704SOL     OW56131   8.666   2.353   6.661 -0.1846  0.3988 -0.3381
17704SOL    HW156132   8.751   2.347   6.705 -0.9248  1.2972  1.2547
17704SOL    HW256133   8.646   2.447   6.658 -1.5114  0.1440  0.0795
17705SOL     OW56134   2.013   3.960   8.090 -0.3928  0.4118  0.1867
17705SOL    HW156135   1.925   3.982   8.060  0.4658  0.7246 -2.2027
17705SOL    HW256136   1.999   3.892   8.156 -2.3875 -0.0781 -0.7055
17706SOL     OW56137   7.087   2.261   2.403  0.6626 -0.0881  0.5597
17706SOL    HW156138   7.004   2.309   2.412  0.4768  0.3218 -2.8602
17706SOL    HW256139   7.061   2.169   2.402  0.1164  0.0740 -1.5204
17707SOL     OW56140   2.764   3.949   4.952 -0.4273  0.0809 -0.3312
17707SOL    HW156141   2.817   3.887   4.903 -0.4991 -0.6931  0.5537
17707SOL    HW256142   2.821   3.979   5.022 -1.3325 -1.2426  1.0145
17708SOL     OW56143   7.307   8.322   2.003 -0.0137 -0.1760 -0.5252
17708SOL    HW156144   7.299   8.246   2.060 -0.7318 -0.5550 -1.1154
17708SOL    HW256145   7.297   8.397   2.061  0.6559 -0.5328  0.0558
17709SOL     OW56146   7.546   7.914   2.698 -0.0996 -0.0785 -0.0101
17709SOL    HW156147   7.512   7.927   2.609  0.3883  0.6991 -0.0844
17709SOL    HW256148   7.566   7.820   2.702 -1.7385 -0.4480 -0.1416
17710SOL     OW56149   4.197   6.746   3.958  0.2118 -0.0774  0.1277
17710SOL    HW156150   4.242   6.829   3.969  1.0599 -0.5247  0.0167
17710SOL    HW256151   4.116   6.769   3.912  1.1047  0.4943 -1.1844
17711SOL     OW56152   6.581   6.670   4.125 -0.2728  0.4258  0.1014
17711SOL    HW156153   6.614   6.760   4.131 -1.6306  0.9939 -0.8259
17711SOL    HW256154   6.600   6.643   4.035 -2.5083  0.8522 -0.5307
17712SOL     OW56155   3.748   7.566   5.148 -0.1606  0.3600 -0.2362
17712SOL    HW156156   3.793   7.649   5.131 -1.0439  0.7645 -0.6339
17712SOL    HW256157   3.744   7.560   5.243  0.8560  0.2563 -0.1975
17713SOL     OW56158   8.174   4.178   3.646 -0.1290  0.0634  0.6650
17713SOL    HW156159   8.105   4.215   3.702 -0.5373 -0.3656  0.4480
17713SOL    HW256160   8.131   4.109   3.597  0.5233 -0.4079  0.7367
17714SOL     OW56161   4.150   3.926   9.249 -1.0050 -0.1062 -0.3326
17714SOL    HW156162   4.232   3.975   9.247  0.1358 -1.9860 -1.9623
17714SOL    HW256163   4.177   3.836   9.268 -2.9065 -0.3970  1.1100
17715SOL     OW56164   9.170   3.298   8.051 -0.1101  0.3542  0.3790
17715SOL    HW156165   9.254   3.337   8.074  1.2952 -1.8323 -0.9337
17715SOL    HW256166   9.137   3.262   8.134  1.1713 -0.4738  0.5393
17716SOL     OW56167   4.701   5.466   7.873  0.4265  0.2149 -0.0702
17716SOL    HW156168   4.696   5.442   7.965  0.8265  1.1782  0.2025
17716SOL    HW256169   4.612   5.455   7.840  0.3495 -0.4441  0.3516
17717SOL     OW56170   6.316   3.711   5.616 -0.1886  0.1312  0.5273
17717SOL    HW156171   6.305   3.678   5.706  1.3356 -1.8363  0.0462
17717SOL    HW256172   6.411   3.726   5.608 -0.1822 -0.6731 -1.0631
17718SOL     OW56173   0.040   4.827   3.508  0.0046 -0.3657  0.3960
17718SOL    HW156174   0.046   4.872   3.424  0.4315 -1.1226  0.0058
17718SOL    HW256175   0.116   4.857   3.557 -0.1431 -0.0635  0.4385
17719SOL     OW56176   7.460   3.705   6.342 -0.1949 -0.3231  0.0662
17719SOL    HW156177   7.398   3.642   6.381  0.8677 -0.5263  1.4730
17719SOL    HW256178   7.515   3.732   6.415 -0.2106  1.7623 -0.6724
17720SOL     OW56179   7.070   1.703   8.852 -0.1081 -0.0349 -0.3968
17720SOL    HW156180   7.126   1.651   8.909 -3.2969 -0.0943  2.8683
17720SOL    HW256181   7.106   1.791   8.855  1.0813 -0.5205 -0.1618
17721SOL     OW56182   3.247   7.228   5.448 -0.1292  0.0066 -1.3097
17721SOL    HW156183   3.314   7.296   5.443 -0.0859  0.0672  0.0258
17721SOL    HW256184   3.239   7.208   5.541 -0.6996 -1.2666 -1.6118
17722SOL     OW56185   3.416   8.267   1.937  0.0730  0.4883  0.0410
17722SOL    HW156186   3.415   8.174   1.960 -0.7428  0.3129 -0.7033
17722SOL    HW256187   3.347   8.306   1.992  0.6796  0.7367  0.6462
17723SOL     OW56188   1.700   2.116   4.059  0.1879  0.0953 -0.6879
17723SOL    HW156189   1.685   2.025   4.087  1.3455 -0.4732 -1.8627
17723SOL    HW256190   1.694   2.112   3.963 -0.7241  1.4521 -0.6943
17724SOL     OW56191   4.452   3.626   5.037 -0.2089  0.2071  0.5645
17724SOL    HW156192   4.461   3.709   5.084  0.9548  0.4892 -0.1354
17724SOL    HW256193   4.364   3.629   5.001 -0.7538  0.4297  1.8669
17725SOL     OW56194   0.763   1.076   6.344  0.3715 -0.2107  0.1805
17725SOL    HW156195   0.671   1.074   6.319  0.6729 -0.6807 -0.9404
17725SOL    HW256196   0.782   1.169   6.359 -0.6873 -0.2765  2.0208
17726SOL     OW56197   3.198   0.662   0.385  0.0877  0.0297 -0.3405
17726SOL    HW156198   3.273   0.611   0.416 -1.7282 -1.1956  2.1742
17726SOL    HW256199   3.221   0.685   0.295  2.4610 -2.2934 -0.3951
17727SOL     OW56200   7.739   5.512   3.547  0.5338  0.5612 -0.3653
17727SOL    HW156201   7.808   5.448   3.531  1.1366  1.3666 -1.0649
17727SOL    HW256202   7.696   5.482   3.627  0.5545 -0.9169 -0.8957
17728SOL     OW56203   9.398   4.919   1.275  0.6723 -0.1702 -0.2727
17728SOL    HW156204   9.396   5.014   1.273 -1.4620 -0.1762 -0.4657
17728SOL    HW256205   9.490   4.896   1.272  1.3250  1.9285  2.0721
17729SOL     OW56206   2.790   6.681   1.993  0.3761 -0.4760  0.1690
17729SOL    HW156207   2.817   6.634   1.914 -0.3011 -0.8163  0.1331
17729SOL    HW256208   2.708   6.637   2.019 -1.5937  2.2120 -1.2176
17730SOL     OW56209   1.545   7.994   0.084  0.3747  0.9372 -0.0508
17730SOL    HW156210   1.520   8.080   0.051 -1.6406 -0.3051 -1.9677
17730SOL    HW256211   1.619   7.968   0.029  0.0233  0.8543 -0.4964
17731SOL     OW56212   8.645   4.902   8.355 -0.4605  0.0681  0.5445
17731SOL    HW156213   8.699   4.866   8.285 -2.5645 -0.0806 -1.0399
17731SOL    HW256214   8.704   4.962   8.402  1.1368 -0.2625 -0.9922
17732SOL     OW56215   8.881   9.286   2.065 -0.9475  0.6666 -0.0062
17732SOL    HW156216   8.859   9.340   1.989 -1.4177  0.5041  0.0170
17732SOL    HW256217   8.941   9.220   2.031 -0.1040  1.4092  0.0305
17733SOL     OW56218   9.064   8.308   6.061  0.0171 -0.0753 -0.4888
17733SOL    HW156219   9.060   8.299   5.966  2.4484 -2.6600 -0.4020
17733SOL    HW256220   8.975   8.334   6.086 -1.3840 -1.9228 -3.2194
17734SOL     OW56221   9.066   3.183   6.789  0.0444 -0.0546  0.3961
17734SOL    HW156222   9.057   3.089   6.805  0.6063 -0.4689 -1.5915
17734SOL    HW256223   8.980   3.210   6.757 -0.3260  0.2593  1.6425
17735SOL     OW56224   2.673   5.510   9.174 -0.0678  0.0597 -0.3150
17735SOL    HW156225   2.613   5.437   9.162 -0.8778  0.7862 -0.6903
17735SOL    HW256226   2.733   5.504   9.100  2.1343 -2.3539  1.5258
17736SOL     OW56227   6.420   1.176   5.097 -0.2677 -0.0971  0.3705
17736SOL    HW156228   6.327   1.161   5.083 -0.1327 -2.0075  1.3030
17736SOL    HW256229   6.462   1.094   5.071  1.0468  0.3953  0.8787
17737SOL     OW56230   6.188   2.199   2.441  0.0677 -0.5535 -0.0508
17737SOL    HW156231   6.171   2.240   2.356  0.2686  0.3501  0.3375
17737SOL    HW256232   6.280   2.175   2.439  0.1126 -0.3799 -0.0185
17738SOL     OW56233   3.993   4.330   2.734 -0.1824 -0.3619  0.3214
17738SOL    HW156234   4.046   4.280   2.796  0.6152 -0.7489 -0.6521
17738SOL    HW256235   3.911   4.281   2.726  0.2417 -1.0300  0.0493
17739SOL     OW56236   9.196   6.077   7.454 -0.2809 -0.1123  0.1232
17739SOL    HW156237   9.259   6.094   7.524 -0.1568 -0.9482  0.2255
17739SOL    HW256238   9.112   6.070   7.499 -0.1724 -0.8504  0.2270
17740SOL     OW56239   2.900   4.885   5.211  0.3796  0.4838  0.0672
17740SOL    HW156240   2.928   4.798   5.241 -2.5485 -0.6680 -0.4200
17740SOL    HW256241   2.976   4.941   5.227  1.9423 -1.9304  1.4127
17741SOL     OW56242   1.559   1.804   8.218 -0.1644 -0.1340 -0.6007
17741SOL    HW156243   1.601   1.869   8.161  1.0008 -0.6519 -0.3551
17741SOL    HW256244   1.562   1.843   8.305  0.1614 -0.3416 -0.5197
17742SOL     OW56245   4.318   2.347   7.986  0.0127 -0.1708 -0.1573
17742SOL    HW156246   4.332   2.322   8.077 -0.1615  1.8489  0.4409
17742SOL    HW256247   4.229   2.318   7.966 -0.0360 -0.3937  0.3804
17743SOL     OW56248   1.647   3.384   6.287 -0.1599 -0.0469 -0.0246
17743SOL    HW156249   1.638   3.365   6.194  0.5321 -0.1875 -0.0646
17743SOL    HW256250   1.576   3.445   6.306 -0.2463  0.0550 -0.6659
17744SOL     OW56251   6.275   2.227   0.734 -0.3316  0.3001 -0.3509
17744SOL    HW156252   6.364   2.205   0.710 -0.7211  0.0108 -1.5478
17744SOL    HW256253   6.278   2.239   0.829  0.8886 -0.0888 -0.3362
17745SOL     OW56254   3.447   3.012   3.846  0.6517  0.1913 -0.2741
17745SOL    HW156255   3.381   2.949   3.873  0.6902  0.4540  0.4455
17745SOL    HW256256   3.397   3.089   3.819  0.6769  0.6913  1.0500
17746SOL     OW56257   9.443   5.534   5.271  0.1386  0.4596  0.0899
17746SOL    HW156258   9.474   5.500   5.187  2.4812  2.8322 -0.0792
17746SOL    HW256259   9.382   5.603   5.249  1.3758  1.6432  0.2807
17747SOL     OW56260   0.017   1.287   4.876 -0.1755  0.4048  0.3866
17747SOL    HW156261   0.021   1.353   4.946 -2.8071  0.0146  0.9524
17747SOL    HW256262  -0.037   1.217   4.913  1.5856 -1.5725 -0.6559
17748SOL     OW56263   2.191   4.401   6.979  0.0903 -0.2160  0.0937
17748SOL    HW156264   2.163   4.310   6.979 -2.1469  0.4263  1.7100
17748SOL    HW256265   2.267   4.403   7.038  1.6835 -1.4135 -1.8504
17749SOL     OW56266   3.971   5.262   0.512  0.0377  0.0841 -0.0547
17749SOL    HW156267   4.051   5.288   0.467  0.7354  1.0205  1.6545
17749SOL    HW256268   3.957   5.330   0.578 -2.9291  0.6594 -1.2053
17750SOL     OW56269   5.310   4.627   0.081  0.0240 -0.0043 -0.1521
17750SOL    HW156270   5.292   4.534   0.088  0.2956  0.0636  2.0128
17750SOL    HW256271   5.230   4.670   0.110  0.4198  0.4086  0.3504
17751SOL     OW56272   4.379   1.114   0.503 -0.3028  0.1421 -0.4839
17751SOL    HW156273   4.400   1.089   0.593  0.0809  0.3619 -0.5130
17751SOL    HW256274   4.288   1.086   0.491 -0.1694 -0.4155 -0.2162
17752SOL     OW56275   0.413   4.340   6.554 -0.8052  0.2246  0.5307
17752SOL    HW156276   0.429   4.361   6.646 -0.6041  0.1320  0.5165
17752SOL    HW256277   0.387   4.248   6.554 -1.8750  0.5186  0.6121
17753SOL     OW56278   3.667   7.927   7.530  0.0625  0.4958  0.0300
17753SOL    HW156279   3.609   7.910   7.456  1.6443  0.7456 -1.2998
17753SOL    HW256280   3.683   7.840   7.568 -0.3084  0.2982 -0.2575
17754SOL     OW56281   4.060   5.452   6.790 -0.4373  0.1646  0.1460
17754SOL    HW156282   4.086   5.360   6.780  0.1537  0.2110  1.2389
17754SOL    HW256283   4.087   5.475   6.878 -1.8342  0.9964  0.3675
17755SOL     OW56284   3.472   8.467   0.140  0.3596 -0.7018  0.4377
17755SOL    HW156285   3.453   8.447   0.231 -1.9428  0.9702  0.3569
17755SOL    HW256286   3.449   8.386   0.093  1.5212 -1.5518  1.3138
17756SOL     OW56287   2.164   2.625   8.002 -0.1661  0.0167  0.2088
17756SOL    HW156288   2.200   2.555   7.948 -0.5403 -0.0531  0.0447
17756SOL    HW256289   2.229   2.639   8.071 -0.5872 -1.2375  0.8750
17757SOL     OW56290   2.828   3.002   7.928 -0.6936  0.2325  0.2745
17757SOL    HW156291   2.835   2.907   7.922  0.0643  0.2499  0.7487
17757SOL    HW256292   2.817   3.019   8.022  0.0829  0.6628  0.2916
17758SOL     OW56293   1.249   7.755   3.820  0.1165 -0.2637 -0.9004
17758SOL    HW156294   1.301   7.786   3.894 -1.1324 -1.4518  0.4840
17758SOL    HW256295   1.306   7.692   3.776  0.0440 -1.1941  0.3249
17759SOL     OW56296   5.543   0.866   7.838 -0.1118  0.2075 -0.3915
17759SOL    HW156297   5.448   0.871   7.829 -0.0563  0.9649 -0.6033
17759SOL    HW256298   5.568   0.791   7.783 -0.6490 -0.3971  0.1848
17760SOL     OW56299   3.036   0.120   5.647 -0.0969 -0.5150 -0.5217
17760SOL    HW156300   3.054   0.053   5.713 -0.0138 -0.4752 -0.5039
17760SOL    HW256301   2.967   0.174   5.686  0.3537 -0.1516 -0.2321
17761SOL     OW56302   7.069   8.021   6.776 -0.6784 -0.0617 -0.0904
17761SOL    HW156303   7.029   8.087   6.720  0.2055  0.6692  0.1270
17761SOL    HW256304   7.001   7.954   6.788 -1.4640  0.6524 -0.5708
17762SOL     OW56305   7.808   8.692   8.988  0.2305  0.2567  0.4923
17762SOL    HW156306   7.752   8.768   8.978  1.2189  0.6833 -2.0937
17762SOL    HW256307   7.878   8.704   8.924  0.2085 -3.0021 -0.2747
17763SOL     OW56308   0.452   7.104   0.090  0.3379 -0.0453  0.1024
17763SOL    HW156309   0.517   7.077   0.155  0.0161  0.5082  0.6611
17763SOL    HW256310   0.487   7.186   0.054  1.4551 -1.3145 -1.7965
17764SOL     OW56311   2.169   7.441   3.497  0.0692 -0.0641 -0.3570
17764SOL    HW156312   2.075   7.440   3.479 -0.0249  1.4169 -0.0150
17764SOL    HW256313   2.188   7.353   3.529 -1.1465 -0.4545 -0.6624
17765SOL     OW56314   8.592   4.554   4.633  0.0914  0.8927  0.3186
17765SOL    HW156315   8.641   4.611   4.693  0.6148 -0.8901  1.6170
17765SOL    HW256316   8.659   4.522   4.572  0.4489 -1.0512  1.7116
17766SOL     OW56317   0.649   4.709   2.421  0.4108 -0.1860  0.2555
17766SOL    HW156318   0.660   4.614   2.425  1.8424 -0.0318  0.4199
17766SOL    HW256319   0.734   4.741   2.390 -0.1018  1.0358  0.0920
17767SOL     OW56320   7.521   0.198   3.057  0.2844 -0.5047 -0.4527
17767SOL    HW156321   7.511   0.171   3.148  1.3206 -1.1013 -0.5161
17767SOL    HW256322   7.469   0.278   3.050  0.1694 -0.4812  0.6505
17768SOL     OW56323   1.958   8.721   6.101 -0.3781 -0.2697  0.5461
17768SOL    HW156324   2.045   8.732   6.139  0.1582 -2.9883  0.2131
17768SOL    HW256325   1.958   8.777   6.024  1.1691 -0.4588  0.4015
17769SOL     OW56326   8.170   4.480   7.348  0.9469 -0.5504  0.6082
17769SOL    HW156327   8.109   4.509   7.280  1.7569  0.3013  0.2426
17769SOL    HW256328   8.115   4.435   7.412  0.0120 -0.2748  0.0027
17770SOL     OW56329   8.895   6.662   6.553  0.0984  0.0089  0.3625
17770SOL    HW156330   8.918   6.741   6.601  1.7737  0.4206 -1.0647
17770SOL    HW256331   8.811   6.682   6.513  0.8465  1.3652 -0.5854
17771SOL     OW56332   1.163   3.277   7.878 -0.2615  0.8789  0.1292
17771SOL    HW156333   1.233   3.236   7.827  0.2046  0.5127  1.0497
17771SOL    HW256334   1.087   3.276   7.819  0.6424  1.7990 -1.0926
17772SOL     OW56335   8.806   1.337   5.226  0.1695  0.3948  0.0209
17772SOL    HW156336   8.814   1.344   5.131 -0.2777 -0.3969 -0.0768
17772SOL    HW256337   8.850   1.255   5.248 -0.0582  0.3872  0.4583
17773SOL     OW56338   4.925   2.983   6.336  0.1814  0.2515 -0.4846
17773SOL    HW156339   4.885   3.052   6.283 -0.7486 -0.5173 -0.7984
17773SOL    HW256340   4.851   2.930   6.366  0.9131 -0.8313 -0.5683
17774SOL     OW56341   1.129   1.837   7.059  0.5039  0.7521 -0.2259
17774SOL    HW156342   1.220   1.857   7.037  1.9723 -2.3440  2.6402
17774SOL    HW256343   1.109   1.894   7.133  0.7309  0.1203  0.3229
17775SOL     OW56344   5.316   8.546   7.565 -0.8499  0.3362  0.5185
17775SOL    HW156345   5.335   8.555   7.658  1.1985  1.4470  0.0062
17775SOL    HW256346   5.326   8.634   7.529  0.6536 -0.4944 -1.1674
17776SOL     OW56347   0.826   7.134   6.843 -0.4898 -0.4319  0.4110
17776SOL    HW156348   0.788   7.046   6.845 -1.2359 -0.1082  0.7400
17776SOL    HW256349   0.787   7.175   6.766 -1.9624  0.3983  1.5725
17777SOL     OW56350   3.545   9.088   2.488 -0.0261 -0.2248  0.5085
17777SOL    HW156351   3.526   9.036   2.410  0.4500  1.0469 -0.4623
17777SOL    HW256352   3.626   9.133   2.468 -1.2169  2.0758  0.7450
17778SOL     OW56353   5.466   6.527   4.122 -0.0762 -0.2160  0.3816
17778SOL    HW156354   5.431   6.485   4.043 -1.7228  1.3605  0.2321
17778SOL    HW256355   5.467   6.458   4.188  2.4077 -1.8755 -1.2732
17779SOL     OW56356   8.890   2.649   9.045 -0.4931 -0.0050  0.3870
17779SOL    HW156357   8.865   2.715   9.109 -0.9310 -0.5466  0.7794
17779SOL    HW256358   8.809   2.600   9.027 -0.3141 -0.0306 -0.3701
17780SOL     OW56359   9.030   4.950   7.045 -0.1629 -0.0458  0.4395
17780SOL    HW156360   9.109   4.965   7.096  0.4628  0.4779 -0.6822
17780SOL    HW256361   9.054   4.881   6.982 -0.4799  0.3709 -0.1444
17781SOL     OW56362   7.331   2.058   3.645  0.8568  0.3103  0.3510
17781SOL    HW156363   7.369   2.144   3.660  0.2973  0.4441  1.0564
17781SOL    HW256364   7.265   2.072   3.577 -1.1409  1.0023  2.3469
17782SOL     OW56365   8.050   6.274   4.040 -0.4678 -0.3601  0.2190
17782SOL    HW156366   8.094   6.303   3.960 -0.5596 -0.1361  0.2514
17782SOL    HW256367   8.103   6.200   4.071 -0.8645 -0.9414 -0.4689
17783SOL     OW56368   4.615   7.513   2.625 -0.2273  0.1958 -0.1762
17783SOL    HW156369   4.660   7.434   2.595 -0.8143  0.4294 -1.7077
17783SOL    HW256370   4.522   7.489   2.626 -0.2805  0.3976  0.8499
17784SOL     OW56371   3.085   7.440   8.221  0.0470  0.2330 -0.0236
17784SOL    HW156372   3.033   7.389   8.283 -0.3617  0.8524  0.1462
17784SOL    HW256373   3.074   7.394   8.137  1.2519 -1.0730  0.5059
17785SOL     OW56374   6.929   0.038   4.888  0.5701  0.6970  0.0449
17785SOL    HW156375   6.836   0.015   4.896  0.7571  0.1858  0.7972
17785SOL    HW256376   6.944   0.102   4.958  1.3947 -1.1860  1.6374
17786SOL     OW56377   4.209   4.591   6.374  0.0585 -0.3484  0.4044
17786SOL    HW156378   4.288   4.554   6.412  0.7413 -1.4645 -2.0020
17786SOL    HW256379   4.139   4.531   6.401  0.3282 -0.4049  0.9758
17787SOL     OW56380   4.935   7.017   2.557 -0.9074  0.2824  0.0180
17787SOL    HW156381   5.016   7.064   2.539 -0.1397  0.6714  4.0230
17787SOL    HW256382   4.951   6.928   2.527  0.8583  0.4827  0.3194
17788SOL     OW56383   1.550   6.214   7.531  0.1382 -0.6861 -0.3965
17788SOL    HW156384   1.646   6.212   7.532  0.1449 -0.5865 -0.6878
17788SOL    HW256385   1.528   6.276   7.462 -0.1366 -0.8681 -0.4764
17789SOL     OW56386   0.907   5.135   6.109  0.7281 -0.1892  0.1634
17789SOL    HW156387   0.868   5.217   6.140 -0.9926 -0.7634 -0.4080
17789SOL    HW256388   0.850   5.108   6.037  0.9895 -2.1301  0.6709
17790SOL     OW56389   5.671   1.172   1.297 -0.2426 -0.3156 -0.6913
17790SOL    HW156390   5.609   1.228   1.342  0.8330  1.0369 -0.8638
17790SOL    HW256391   5.732   1.144   1.365 -0.0405 -0.2636 -0.8519
17791SOL     OW56392   1.880   0.387   2.025  0.0402 -0.0741 -0.0541
17791SOL    HW156393   1.878   0.407   2.119  0.8568 -1.3712  0.2436
17791SOL    HW256394   1.936   0.455   1.988 -1.3837  1.2596  0.1744
17792SOL     OW56395   0.229   7.222   1.355  0.1270  0.6582 -0.0461
17792SOL    HW156396   0.174   7.300   1.348 -1.2293 -0.2857 -0.1697
17792SOL    HW256397   0.291   7.230   1.282  1.2518  2.5501  1.0657
17793SOL     OW56398   1.800   4.282   8.368  0.0177  0.0593 -0.7011
17793SOL    HW156399   1.853   4.289   8.288  0.2114 -1.2002 -0.6873
17793SOL    HW256400   1.831   4.202   8.410  0.5536  1.1984  1.1047
17794SOL     OW56401   3.262   4.406   4.526 -0.3090  0.2234 -0.0350
17794SOL    HW156402   3.320   4.366   4.591 -0.9333  0.1236  0.4655
17794SOL    HW256403   3.223   4.481   4.571  0.6587  1.2661 -0.8845
17795SOL     OW56404   3.911   5.882   8.736 -0.4740 -0.3893 -0.1225
17795SOL    HW156405   3.863   5.934   8.800  2.1815  0.6198  1.1191
17795SOL    HW256406   3.990   5.854   8.782  1.1068 -0.3255 -2.6868
17796SOL     OW56407   7.838   3.082   0.939  0.6216 -0.4823  1.2886
17796SOL    HW156408   7.883   3.153   0.894  2.4788 -1.4353  1.6114
17796SOL    HW256409   7.827   3.114   1.029 -1.9197  0.8846  0.5499
17797SOL     OW56410   3.318   4.102   3.199 -0.0858  0.5962 -0.2289
17797SOL    HW156411   3.357   4.076   3.283 -3.0146  1.2526  1.3883
17797SOL    HW256412   3.384   4.159   3.159  0.8555  1.2258  2.1415
17798SOL     OW56413   4.144   4.289   3.142 -0.1501 -0.4341  0.2588
17798SOL    HW156414   4.162   4.249   3.057  0.1577 -1.3350  0.7477
17798SOL    HW256415   4.055   4.262   3.164 -0.5084  0.4269 -0.1314
17799SOL     OW56416   8.080   7.092   1.945 -0.2028 -0.2734 -0.4112
17799SOL    HW156417   8.135   7.146   1.888 -1.9009  0.6968 -1.1440
17799SOL    HW256418   8.072   7.009   1.899 -1.3281  0.4073 -1.4503
17800SOL     OW56419   3.418   2.862   4.840 -0.0278 -0.2685  0.6645
17800SOL    HW156420   3.343   2.910   4.874 -2.0170 -1.9481 -1.2824
17800SOL    HW256421   3.482   2.865   4.911 -2.0095  0.9703  2.4509
17801SOL     OW56422   6.917   4.175   4.067  0.1188  0.2616 -0.6961
17801SOL    HW156423   7.012   4.179   4.053  0.4916 -0.3028  1.5081
17801SOL    HW256424   6.895   4.261   4.101  0.1437 -0.2201  0.5400
17802SOL     OW56425   3.097   4.270   3.211 -0.5490  0.3323 -0.1137
17802SOL    HW156426   3.108   4.317   3.128 -1.3444 -0.1768 -0.5060
17802SOL    HW256427   3.164   4.202   3.209 -1.4989 -0.5874 -0.9809
17803SOL     OW56428   4.435   9.315   7.612  0.2661 -0.5628  0.0707
17803SOL    HW156429   4.355   9.310   7.665 -1.1049 -0.7121 -1.9795
17803SOL    HW256430   4.439   9.407   7.585  1.5574 -0.2407  1.3032
17804SOL     OW56431   8.987   6.020   6.012  0.6945 -0.2060 -0.0675
17804SOL    HW156432   9.020   5.933   6.033 -0.1267 -0.6056 -0.4312
17804SOL    HW256433   9.011   6.033   5.920 -0.0774 -0.4716 -0.3154
17805SOL     OW56434   4.978   4.738   6.588  0.5629 -0.0836  0.4939
17805SOL    HW156435   4.914   4.674   6.619  0.6295 -0.3879  0.0113
17805SOL    HW256436   4.985   4.721   6.494  2.0883 -0.7154  0.7010
17806SOL     OW56437   7.478   0.728   8.906 -0.0413  0.2900  0.0013
17806SOL    HW156438   7.444   0.701   8.991 -1.9987  2.7966  0.0838
17806SOL    HW256439   7.440   0.666   8.844  0.3454 -0.7631  0.8096
17807SOL     OW56440   3.311   5.680   7.723  0.1943 -0.1229  0.5525
17807SOL    HW156441   3.270   5.599   7.692  1.0940 -0.5455  0.4626
17807SOL    HW256442   3.309   5.738   7.647  0.2019 -0.3121  0.4069
17808SOL     OW56443   8.777   2.646   5.458  0.1632 -0.2550  0.3021
17808SOL    HW156444   8.842   2.717   5.453 -0.6395  0.5124  0.6605
17808SOL    HW256445   8.809   2.588   5.527  0.6994 -0.1179  0.1696
17809SOL     OW56446   3.325   4.588   0.000 -0.0373  0.1600  0.3511
17809SOL    HW156447   3.275   4.542   0.068  1.3732 -5.1482 -1.8945
17809SOL    HW256448   3.275   4.575  -0.080  1.4341  0.8585 -0.7071
17810SOL     OW56449   0.853   6.265   4.776 -0.2899  0.2553 -0.5051
17810SOL    HW156450   0.823   6.181   4.741  1.0161 -0.3573 -0.1901
17810SOL    HW256451   0.947   6.266   4.759  0.3793 -0.0347  2.8720
17811SOL     OW56452   0.548   8.074   1.234  0.3180  0.3389 -0.3063
17811SOL    HW156453   0.526   8.088   1.326  1.5393  0.7569 -0.0677
17811SOL    HW256454   0.467   8.041   1.194 -0.4557  0.9796  0.7271
17812SOL     OW56455   2.115   5.817   4.323  0.7836  0.4990  0.0341
17812SOL    HW156456   2.063   5.805   4.402  1.6326 -1.4037  0.3483
17812SOL    HW256457   2.201   5.780   4.345  1.7934  2.1552 -0.9842
17813SOL     OW56458   6.736   3.876   2.811 -0.4216 -0.5662  0.0388
17813SOL    HW156459   6.787   3.956   2.825  0.0283 -0.6440 -1.1121
17813SOL    HW256460   6.752   3.852   2.720 -1.5275 -1.2956  0.0191
17814SOL     OW56461   7.071   6.503   5.677 -0.0748  0.0995 -0.2124
17814SOL    HW156462   7.039   6.412   5.675 -2.0937  0.7784 -0.6918
17814SOL    HW256463   7.164   6.495   5.698 -0.0342 -2.1266 -1.0370
17815SOL     OW56464   1.797   4.807   5.823  0.3529  0.4477 -0.0435
17815SOL    HW156465   1.858   4.772   5.887  2.6618  0.7515 -2.0171
17815SOL    HW256466   1.807   4.902   5.830  0.8318  0.4703 -1.0870
17816SOL     OW56467   0.238   5.196   1.726  0.0723  0.0322 -1.0824
17816SOL    HW156468   0.317   5.244   1.750 -1.1614  0.9890  1.2019
17816SOL    HW256469   0.220   5.139   1.801 -0.3575 -1.5887 -2.3764
17817SOL     OW56470   4.859   5.839   5.825 -0.2251 -0.3213  0.1498
17817SOL    HW156471   4.876   5.746   5.816 -0.1812 -0.3041  0.0558
17817SOL    HW256472   4.838   5.851   5.918  1.2716 -0.1800  0.4714
17818SOL     OW56473   3.574   8.829   5.240 -0.5729 -0.1178 -0.1869
17818SOL    HW156474   3.490   8.860   5.275  0.3269  0.9689  1.0500
17818SOL    HW256475   3.628   8.908   5.236  0.2215 -0.7264 -1.4932
17819SOL     OW56476   1.714   5.640   1.474 -0.0615 -0.0603 -0.1643
17819SOL    HW156477   1.782   5.694   1.516 -0.3772  0.0784  0.1724
17819SOL    HW256478   1.643   5.700   1.456 -0.4350 -0.3706  0.2532
17820SOL     OW56479   7.139   8.135   2.640 -0.0033  0.2383  0.0485
17820SOL    HW156480   7.057   8.148   2.592 -0.6866  0.7256  1.3202
17820SOL    HW256481   7.173   8.052   2.606  0.2502  1.2649 -2.2764
17821SOL     OW56482   4.394   6.625   2.154  0.1692 -0.1600 -0.1120
17821SOL    HW156483   4.427   6.714   2.140 -1.0481  0.1292 -1.2860
17821SOL    HW256484   4.299   6.633   2.139 -0.3548 -1.0921  2.5069
17822SOL     OW56485   3.660   6.875   2.062  0.3893  0.3646  0.5489
17822SOL    HW156486   3.628   6.893   2.150 -0.2483  1.7937  0.0287
17822SOL    HW256487   3.581   6.868   2.008  0.8061  0.2936 -0.0570
17823SOL     OW56488   5.783   0.075   2.032 -0.4457 -0.1069  0.0466
17823SOL    HW156489   5.696   0.053   2.066 -0.1643  2.2550  2.4640
17823SOL    HW256490   5.841   0.067   2.108  0.7128  2.4620 -0.5224
17824SOL     OW56491   2.776   4.243   9.267 -0.1539 -0.2039 -0.1564
17824SOL    HW156492   2.850   4.276   9.217  0.2222  2.1942  1.8734
17824SOL    HW256493   2.808   4.163   9.307  0.5697 -0.4227 -1.1456
17825SOL     OW56494   5.854   1.157   2.452 -0.6188  0.1107  0.2395
17825SOL    HW156495   5.806   1.092   2.399  1.7640 -1.6204  0.1419
17825SOL    HW256496   5.870   1.113   2.535  2.2414  0.0163 -0.3136
17826SOL     OW56497   6.776   6.511   0.090 -0.1041  0.1233 -0.2187
17826SOL    HW156498   6.773   6.502  -0.006 -2.8264 -1.0760 -0.0585
17826SOL    HW256499   6.748   6.601   0.106 -0.7990 -0.0363 -0.5087
17827SOL     OW56500   8.503   1.132   0.986 -0.3522 -0.5749  0.2139
17827SOL    HW156501   8.512   1.114   0.892 -1.4644 -1.5159  0.2804
17827SOL    HW256502   8.591   1.158   1.013 -0.0974  0.0180 -1.1558
17828SOL     OW56503   6.460   4.666   8.334  0.2788  0.3263 -0.5410
17828SOL    HW156504   6.441   4.572   8.341 -1.0873  0.7221  1.4260
17828SOL    HW256505   6.551   4.670   8.305  0.1775 -1.6049 -1.2140
17829SOL     OW56506   0.813   7.229   2.813  0.1721 -0.9849 -0.3139
17829SOL    HW156507   0.818   7.313   2.859  0.2140 -2.3586  2.3170
17829SOL    HW256508   0.739   7.183   2.854  0.5614 -2.4942 -1.2359
17830SOL     OW56509   2.684   9.061   1.463  0.2420  0.3749 -0.2072
17830SOL    HW156510   2.690   9.081   1.369 -0.6428  0.9623 -0.1457
17830SOL    HW256511   2.667   8.966   1.465 -0.8617  0.5495 -0.6907
17831SOL     OW56512   3.295   1.711   4.337 -0.5227  0.1555 -0.7862
17831SOL    HW156513   3.316   1.755   4.419  0.5854  1.0701 -1.5389
17831SOL    HW256514   3.376   1.666   4.312 -1.3058 -1.4119 -0.6085
17832SOL     OW56515   4.785   9.280   8.434  0.1642  0.3599  0.4570
17832SOL    HW156516   4.865   9.307   8.480  0.7203  0.7157 -0.6932
17832SOL    HW256517   4.717   9.281   8.501  1.3412 -1.0561  1.7081
17833SOL     OW56518   5.827   4.971   4.140 -0.7975 -0.3264 -0.0907
17833SOL    HW156519   5.804   4.896   4.086 -1.3271  1.1766 -2.0174
17833SOL    HW256520   5.842   5.042   4.078  1.6773  0.6809  1.5586
17834SOL     OW56521   0.194   8.812   4.936  0.1185  0.0036 -0.8365
17834SOL    HW156522   0.112   8.764   4.947  0.7331 -0.5280  1.7796
17834SOL    HW256523   0.189   8.848   4.848 -3.1090  0.3361 -0.5783
17835SOL     OW56524   1.367   3.979   0.339 -0.1271 -0.2382 -0.5428
17835SOL    HW156525   1.402   4.068   0.347  2.3284 -1.2706  0.7580
17835SOL    HW256526   1.397   3.949   0.254 -0.4647 -0.0377 -0.7343
17836SOL     OW56527   2.368   2.107   3.738  0.4059  0.9549  0.5511
17836SOL    HW156528   2.313   2.028   3.731 -0.6312  1.7316 -0.1323
17836SOL    HW256529   2.457   2.073   3.742 -0.1693 -0.3766  2.8328
17837SOL     OW56530   2.011   2.860   5.165  0.0130  0.1875  0.5931
17837SOL    HW156531   2.102   2.847   5.192  0.6200  0.4755 -1.2727
17837SOL    HW256532   1.978   2.927   5.225  1.1822  0.4711  0.9319
17838SOL     OW56533   3.754   0.238   2.973 -0.1795  0.1230 -0.3394
17838SOL    HW156534   3.670   0.248   2.928  0.1357 -2.2669 -1.5599
17838SOL    HW256535   3.812   0.202   2.906  1.3379  0.1369  0.9598
17839SOL     OW56536   0.076   6.329   8.400 -0.2963 -0.1529  0.0202
17839SOL    HW156537   0.140   6.346   8.469  0.7730  0.8952 -1.2101
17839SOL    HW256538   0.040   6.243   8.420  1.1909 -0.5568  0.9488
17840SOL     OW56539   5.837   2.856   6.986  0.5090 -0.6260 -0.1340
17840SOL    HW156540   5.831   2.804   7.066  0.0413 -1.2452 -0.5719
17840SOL    HW256541   5.811   2.797   6.916  2.2094 -0.4735 -0.9184
17841SOL     OW56542   0.792   5.958   1.506  0.1602  0.3030 -0.3425
17841SOL    HW156543   0.813   5.952   1.412 -1.7407  1.3785 -0.8536
17841SOL    HW256544   0.794   6.052   1.525 -1.6836  0.2588  0.1517
17842SOL     OW56545   7.457   3.187   7.165  0.0343 -0.1673 -0.8367
17842SOL    HW156546   7.377   3.141   7.137 -0.1227 -1.6097  1.7932
17842SOL    HW256547   7.526   3.122   7.156  0.8305  0.8746 -2.4535
17843SOL     OW56548   6.686   6.162   6.455 -0.5805  0.2555  0.2762
17843SOL    HW156549   6.596   6.128   6.449 -1.1411  1.7691 -0.2397
17843SOL    HW256550   6.675   6.252   6.486  0.6582  0.9083 -1.1000
17844SOL     OW56551   1.229   6.412   6.067  0.3678  0.2679 -0.2510
17844SOL    HW156552   1.310   6.375   6.031  0.0336 -1.5107  0.7700
17844SOL    HW256553   1.234   6.392   6.161  0.3721  3.2029  0.4147
17845SOL     OW56554   1.446   1.131   4.054  0.1074 -0.2089  0.0188
17845SOL    HW156555   1.373   1.175   4.097  1.4905  2.3232 -0.1248
17845SOL    HW256556   1.416   1.117   3.964 -0.6986 -0.4182  0.3186
17846SOL     OW56557   1.982   8.955   6.527 -0.1323  0.0252  0.0461
17846SOL    HW156558   2.065   8.930   6.488  1.5577  1.1422  2.7787
17846SOL    HW256559   1.957   8.880   6.582  0.2736  0.6047  1.0394
17847SOL     OW56560   1.464   8.268   7.304 -0.7963 -0.5475 -1.0977
17847SOL    HW156561   1.493   8.254   7.394  0.9847  1.9158 -1.2291
17847SOL    HW256562   1.432   8.182   7.275 -1.1582 -1.4197  1.7712
17848SOL     OW56563   4.971   8.866   5.783 -0.8345  0.0329 -0.0725
17848SOL    HW156564   5.015   8.943   5.818  2.0979 -0.6295 -2.1841
17848SOL    HW256565   5.000   8.793   5.838  0.2099 -0.3056 -1.0622
17849SOL     OW56566   3.696   8.880   6.991  0.0336  0.5093  0.3468
17849SOL    HW156567   3.728   8.948   7.050  1.6246  1.3031 -1.3580
17849SOL    HW256568   3.776   8.839   6.958 -0.8546 -0.4795 -0.5962
17850SOL     OW56569   6.850   2.810   4.938 -0.1083  0.4974 -0.6890
17850SOL    HW156570   6.902   2.812   5.018 -0.8651 -0.8101 -0.1423
17850SOL    HW256571   6.899   2.754   4.879 -0.3596  0.1320 -0.5533
17851SOL     OW56572   6.319   1.185   0.498 -0.2199  0.1800  0.3975
17851SOL    HW156573   6.233   1.223   0.484 -0.4013  0.4093  2.0452
17851SOL    HW256574   6.346   1.217   0.584  1.5733  0.2281 -0.1675
17852SOL     OW56575   8.192   0.641   1.170  0.6469 -0.6385 -0.0721
17852SOL    HW156576   8.138   0.677   1.100  1.4169  1.0054  0.1414
17852SOL    HW256577   8.225   0.558   1.136  0.4129 -0.2032 -1.3668
17853SOL     OW56578   4.186   2.021   5.103 -0.2425  0.2349  0.3710
17853SOL    HW156579   4.141   1.946   5.142  0.2213  0.9308  2.3176
17853SOL    HW256580   4.118   2.087   5.092 -0.3917  0.0062 -0.0648
17854SOL     OW56581   5.040   1.994   4.505 -0.0142  0.4720  0.4133
17854SOL    HW156582   5.058   2.087   4.491 -0.8941  0.8054  1.4213
17854SOL    HW256583   5.113   1.965   4.560 -1.3411  1.3072  2.6659
17855SOL     OW56584   6.273   2.374   5.436 -0.2089 -0.1476  0.0554
17855SOL    HW156585   6.264   2.466   5.411  0.7395  0.3407  1.4352
17855SOL    HW256586   6.188   2.352   5.476  0.6574  1.1396  2.7757
17856SOL     OW56587   8.066   3.027   3.295  0.0756  0.2811  0.2010
17856SOL    HW156588   8.030   3.090   3.232  0.7351 -0.4131 -0.8783
17856SOL    HW256589   7.989   2.994   3.342 -0.4679  0.4321 -0.5739
17857SOL     OW56590   5.131   4.967   0.970 -0.0344  0.1104  0.1292
17857SOL    HW156591   5.096   4.886   0.934 -0.2061  0.2998 -0.1324
17857SOL    HW256592   5.209   4.940   1.019  0.3986 -0.1020 -0.6671
17858SOL     OW56593   3.378   5.183   7.578 -0.2965  0.0866 -0.4069
17858SOL    HW156594   3.473   5.171   7.583 -0.2893 -2.5079 -4.6103
17858SOL    HW256595   3.342   5.098   7.604 -1.4626  0.8077  0.3715
17859SOL     OW56596   2.219   7.552   7.692  0.2346  0.5531  0.1301
17859SOL    HW156597   2.199   7.641   7.720 -1.1741  0.1119  0.5319
17859SOL    HW256598   2.290   7.563   7.628 -0.4077  2.0143 -0.3503
17860SOL     OW56599   9.342   5.874   2.935 -0.2692 -0.7710  0.6996
17860SOL    HW156600   9.361   5.936   3.005 -0.6052  0.7882 -0.5562
17860SOL    HW256601   9.248   5.854   2.945 -0.8071  1.0542 -0.5372
17861SOL     OW56602   7.879   0.101   6.325 -0.1176  0.2916 -0.6715
17861SOL    HW156603   7.941   0.168   6.296  0.5051 -0.0041 -0.0488
17861SOL    HW256604   7.894   0.027   6.266  0.2049  0.1810 -0.4542
17862SOL     OW56605   1.870   7.040   4.906 -0.0028 -0.4017 -0.3947
17862SOL    HW156606   1.907   7.093   4.835 -0.6610  0.7367  0.1046
17862SOL    HW256607   1.812   6.978   4.861 -1.4256  1.1661 -0.7738
17863SOL     OW56608   9.403   0.048   5.871  0.0494 -0.4875 -0.4063
17863SOL    HW156609   9.383   0.108   5.799  1.1537 -1.0914 -1.2274
17863SOL    HW256610   9.387  -0.039   5.836 -1.0351 -0.7179  0.6160
17864SOL     OW56611   4.388   9.430   3.391  0.7392 -0.3686 -0.1415
17864SOL    HW156612   4.366   9.472   3.474 -0.1593  0.5019 -0.8058
17864SOL    HW256613   4.463   9.374   3.411  0.5990 -0.0823  1.2260
17865SOL     OW56614   0.375   9.223   6.199 -0.5112 -0.0846 -0.0741
17865SOL    HW156615   0.319   9.258   6.268  0.3300  0.3374  0.4009
17865SOL    HW256616   0.381   9.129   6.218 -0.0923  0.0660  0.5731
17866SOL     OW56617   8.460   8.148   5.496  0.0121 -0.3896 -0.2148
17866SOL    HW156618   8.449   8.095   5.417 -0.8600 -1.3053  0.5016
17866SOL    HW256619   8.554   8.157   5.505  0.1156  0.1774 -1.6527
17867SOL     OW56620   5.331   3.345   7.011 -0.0620 -0.6387 -0.0702
17867SOL    HW156621   5.329   3.327   7.105 -1.0548  0.7581  0.1929
17867SOL    HW256622   5.412   3.304   6.980  0.7316 -0.3292  1.5517
17868SOL     OW56623   4.279   0.908   3.046  0.2892 -0.3520  0.1199
17868SOL    HW156624   4.274   0.846   3.119 -0.7576  0.8282  1.0757
17868SOL    HW256625   4.363   0.890   3.004  0.9610 -0.9517  1.7098
17869SOL     OW56626   0.665   6.599   2.017  0.1775  0.3586 -0.0279
17869SOL    HW156627   0.693   6.538   1.949  1.5115 -1.3979  2.0210
17869SOL    HW256628   0.691   6.685   1.985  1.5354 -0.5173 -1.3436
17870SOL     OW56629   6.434   8.041   2.044  0.3066  0.1687 -0.1618
17870SOL    HW156630   6.483   8.056   2.125  0.8433  1.5345 -0.7275
17870SOL    HW256631   6.343   8.060   2.068  0.0655 -1.9846  0.7852
17871SOL     OW56632   8.221   0.349   8.432 -0.2159  0.3240 -0.3127
17871SOL    HW156633   8.212   0.255   8.413  1.5936  0.1499 -0.3948
17871SOL    HW256634   8.212   0.355   8.527  0.1058  0.0221 -0.2654
17872SOL     OW56635   6.057   0.250   6.009  0.3370 -0.1642 -0.2620
17872SOL    HW156636   6.122   0.196   6.054  0.1062 -0.5911 -0.4439
17872SOL    HW256637   6.002   0.284   6.079  0.5824 -0.0299 -0.1321
17873SOL     OW56638   8.922   9.090   2.489 -0.0506  0.1297 -0.1447
17873SOL    HW156639   8.847   9.145   2.513 -2.2203 -3.0288  0.5459
17873SOL    HW256640   8.942   9.040   2.567  1.0957 -0.9828 -1.1284
17874SOL     OW56641   4.259   2.548   3.462  0.0364  0.4464  0.3905
17874SOL    HW156642   4.273   2.486   3.533  1.0675  1.4602  1.1036
17874SOL    HW256643   4.173   2.526   3.427  1.0466 -2.4094 -0.4274
17875SOL     OW56644   2.596   6.874   8.249 -0.8601 -0.1660  0.4801
17875SOL    HW156645   2.679   6.881   8.296 -1.2021  1.1091  0.9132
17875SOL    HW256646   2.604   6.795   8.196  0.6601  0.0057  0.4541
17876SOL     OW56647   0.210   2.853   2.093  0.4125  0.2167 -0.0692
17876SOL    HW156648   0.304   2.862   2.076 -0.1274 -0.9669 -4.0913
17876SOL    HW256649   0.206   2.826   2.185  4.0592 -0.4539 -0.0043
17877SOL     OW56650   7.889   7.535   6.813 -0.5131 -0.1164 -0.3514
17877SOL    HW156651   7.837   7.493   6.881 -1.1845  0.3352 -0.5776
17877SOL    HW256652   7.873   7.629   6.825 -0.0383  0.0045 -0.6518
17878SOL     OW56653   4.405   5.410   2.732  0.1064 -0.5539 -0.0960
17878SOL    HW156654   4.446   5.469   2.795  0.7926 -0.1366 -0.9227
17878SOL    HW256655   4.312   5.413   2.753  0.2637  0.0347  0.5179
17879SOL     OW56656   4.493   0.032   9.331  0.4241  1.0482 -0.5915
17879SOL    HW156657   4.519   0.067   9.246  1.7883  1.5892  0.0345
17879SOL    HW256658   4.562  -0.030   9.354 -0.1607  0.5765 -0.0741
17880SOL     OW56659   3.532   0.378   4.192 -0.3672 -0.1961  0.0258
17880SOL    HW156660   3.578   0.410   4.115  0.0379  0.3356  0.4863
17880SOL    HW256661   3.444   0.357   4.161  0.2401 -1.4572 -0.9244
17881SOL     OW56662   4.212   1.719   4.584  0.5125  0.1961  0.1535
17881SOL    HW156663   4.236   1.756   4.669  1.3039  2.2441 -0.9492
17881SOL    HW256664   4.117   1.729   4.579  0.3403 -0.7861  1.1680
17882SOL     OW56665   4.292   2.972   4.407  0.1009 -0.3437  0.4444
17882SOL    HW156666   4.212   2.994   4.359  0.7603 -1.8663 -1.4344
17882SOL    HW256667   4.361   2.974   4.341  1.4545 -0.1166  1.8305
17883SOL     OW56668   5.415   1.417   7.146 -0.0487  0.0137 -0.6514
17883SOL    HW156669   5.465   1.336   7.158  0.8916  0.6474 -0.2186
17883SOL    HW256670   5.339   1.405   7.203  0.0688 -0.5836 -0.6063
17884SOL     OW56671   3.063   2.146   8.187  0.0252  0.4095  0.1270
17884SOL    HW156672   3.094   2.229   8.222  3.2153 -1.0973  1.0551
17884SOL    HW256673   3.094   2.145   8.096  0.0075  0.2298  0.1222
17885SOL     OW56674   0.190   4.413   5.587 -0.1919 -0.8499 -0.1802
17885SOL    HW156675   0.266   4.380   5.538 -0.4361 -1.0616 -0.4122
17885SOL    HW256676   0.219   4.498   5.619 -0.5458 -0.0418 -1.9448
17886SOL     OW56677   5.793   6.434   0.768 -0.3697  0.4945  0.4757
17886SOL    HW156678   5.798   6.513   0.821 -1.3784 -0.3950  1.9390
17886SOL    HW256679   5.743   6.460   0.690 -0.6771  1.2886  0.9333
17887SOL     OW56680   3.656   9.370   9.181  0.0283 -0.0498 -0.0787
17887SOL    HW156681   3.651   9.417   9.264 -0.0474  0.2355 -0.2460
17887SOL    HW256682   3.747   9.341   9.176 -0.4199 -1.7006  1.0025
17888SOL     OW56683   3.014   1.978   8.381 -0.2458  0.1198 -0.4136
17888SOL    HW156684   2.934   1.948   8.337 -1.3536  1.4319  0.6618
17888SOL    HW256685   3.052   2.042   8.321 -0.4083  0.0359 -0.6059
17889SOL     OW56686   9.211   1.305   2.184  0.1794 -0.4260 -0.6063
17889SOL    HW156687   9.246   1.228   2.230  0.7214 -0.9179 -1.8301
17889SOL    HW256688   9.120   1.282   2.166 -0.4725  0.3618  1.4950
17890SOL     OW56689   1.727   1.800   5.985 -0.0209 -1.0064  0.0729
17890SOL    HW156690   1.698   1.891   5.986 -2.1602 -1.6762  1.0684
17890SOL    HW256691   1.792   1.795   6.055  1.9449  0.2971 -1.5923
17891SOL     OW56692   5.709   5.049   5.380  0.0416 -0.3800  0.9289
17891SOL    HW156693   5.748   4.978   5.431  0.1371 -0.3229  0.9343
17891SOL    HW256694   5.646   5.004   5.322 -0.2774 -0.4176  1.2975
17892SOL     OW56695   4.738   5.018   8.608  0.2327 -0.8406 -0.5949
17892SOL    HW156696   4.736   5.000   8.514 -2.9033  2.3137 -1.2315
17892SOL    HW256697   4.656   4.981   8.640 -0.4004  1.2463  0.2412
17893SOL     OW56698   5.310   4.060   3.435 -0.4875 -0.0369 -0.3975
17893SOL    HW156699   5.234   4.075   3.491 -0.1225  0.1671  0.0454
17893SOL    HW256700   5.287   4.102   3.352 -0.8913 -0.0507 -0.2938
17894SOL     OW56701   3.227   2.573   7.983 -0.1888  0.6788 -0.1931
17894SOL    HW156702   3.189   2.661   7.984  0.4772  0.9895 -1.4675
17894SOL    HW256703   3.170   2.523   7.924  0.1596  0.5990 -0.4654
17895SOL     OW56704   7.967   0.964   1.384 -0.3679 -0.5543  0.0956
17895SOL    HW156705   7.962   1.058   1.365  0.4169 -0.4674  0.3100
17895SOL    HW256706   8.060   0.948   1.401 -0.7502 -1.0303  1.8216
17896SOL     OW56707   9.290   9.228   4.142  0.0530  0.5250 -0.1485
17896SOL    HW156708   9.265   9.223   4.234 -0.7730 -0.8555 -0.4402
17896SOL    HW256709   9.259   9.315   4.115 -0.0462  0.7872  0.7668
17897SOL     OW56710   2.565   3.229   4.202 -0.3131 -0.3725  0.1486
17897SOL    HW156711   2.648   3.260   4.238 -0.6931 -0.3533  1.0199
17897SOL    HW256712   2.500   3.293   4.231 -0.7007 -0.6088 -0.1797
17898SOL     OW56713   5.227   4.144   8.309 -0.0128  0.2767  0.3738
17898SOL    HW156714   5.210   4.124   8.401  0.3282 -1.2401  0.1214
17898SOL    HW256715   5.295   4.081   8.283  1.2595  1.9401 -0.4037
17899SOL     OW56716   3.108   5.758   1.652  0.1884 -0.1754 -0.0999
17899SOL    HW156717   3.044   5.689   1.637  0.1470 -0.0783 -0.3805
17899SOL    HW256718   3.147   5.738   1.737 -1.2131  0.5449  0.7388
17900SOL     OW56719   9.063   2.849   8.367  0.2850 -0.3399  0.2629
17900SOL    HW156720   9.020   2.833   8.283 -0.7755 -0.4623  0.8169
17900SOL    HW256721   9.080   2.762   8.402  1.4388 -0.3018 -0.1610
17901SOL     OW56722   6.948   5.291   4.948  0.0450 -0.3219 -0.4889
17901SOL    HW156723   6.855   5.293   4.969  0.3997  0.0909  1.0848
17901SOL    HW256724   6.967   5.379   4.916  0.5304  0.5290  2.0642
17902SOL     OW56725   5.846   2.116   3.902 -0.2323 -0.0001  0.3791
17902SOL    HW156726   5.758   2.117   3.940 -0.1320  1.6149  0.6078
17902SOL    HW256727   5.847   2.038   3.847 -1.2578 -0.9447  1.6611
17903SOL     OW56728   7.439   8.604   6.409 -0.0805 -0.0711 -0.2200
17903SOL    HW156729   7.410   8.681   6.456 -0.4718  0.3962 -1.2118
17903SOL    HW256730   7.396   8.531   6.454 -0.6218  0.3871  0.0144
17904SOL     OW56731   4.671   0.770   1.707  0.1961  0.2446 -0.3168
17904SOL    HW156732   4.609   0.730   1.767  0.4260  0.2487 -0.0757
17904SOL    HW256733   4.730   0.698   1.682  0.7368  0.4756  0.2786
17905SOL     OW56734   0.162   6.328   6.772 -0.5206  0.1946 -0.0776
17905SOL    HW156735   0.131   6.350   6.860 -3.7879 -0.8075 -0.9044
17905SOL    HW256736   0.190   6.236   6.779  0.7268  0.5891  0.2638
17906SOL     OW56737   3.368   8.226   7.578  0.3765 -0.0228  0.1259
17906SOL    HW156738   3.314   8.148   7.562 -0.2341  0.7383 -1.6440
17906SOL    HW256739   3.337   8.259   7.662  2.4380 -3.1412  2.2247
17907SOL     OW56740   0.589   5.445   3.356 -0.4363 -0.2633 -0.5171
17907SOL    HW156741   0.642   5.367   3.368  0.2384 -0.1107 -2.3026
17907SOL    HW256742   0.649   5.518   3.374 -1.6437 -0.1087  3.4322
17908SOL     OW56743   7.880   0.656   6.339  0.7712  0.5831  0.3246
17908SOL    HW156744   7.900   0.683   6.250 -0.8761 -0.9001 -0.5202
17908SOL    HW256745   7.787   0.676   6.351  0.4409 -1.2018  0.9408
17909SOL     OW56746   0.566   3.876   0.742  0.1486 -0.1744  0.0686
17909SOL    HW156747   0.534   3.963   0.766 -1.2043 -0.6275 -0.0687
17909SOL    HW256748   0.633   3.856   0.808  0.4176  0.9364  0.1405
17910SOL     OW56749   0.690   4.050   4.276 -0.2944 -0.3045 -0.2517
17910SOL    HW156750   0.695   4.142   4.251 -0.0731 -0.1297  0.4214
17910SOL    HW256751   0.609   4.043   4.326  0.3580 -0.1938  0.8282
17911SOL     OW56752   7.193   0.758   1.351  1.2069  0.0838 -0.0131
17911SOL    HW156753   7.130   0.727   1.416  0.0167  0.7350 -0.8447
17911SOL    HW256754   7.149   0.832   1.309  1.6004 -0.9270 -2.2265
17912SOL     OW56755   2.295   6.264   7.393 -0.6211 -0.0018  0.1758
17912SOL    HW156756   2.319   6.254   7.485 -0.6160  0.2376  0.2007
17912SOL    HW256757   2.226   6.331   7.394  0.2034  0.8592 -0.1150
17913SOL     OW56758   7.062   8.459   1.753 -0.1570  0.2643 -0.3504
17913SOL    HW156759   6.977   8.472   1.710  0.3833 -0.4095 -1.6709
17913SOL    HW256760   7.051   8.379   1.804 -0.4304  0.3616 -0.2595
17914SOL     OW56761   4.936   8.847   3.689 -0.5579 -0.4667 -0.2747
17914SOL    HW156762   5.030   8.862   3.705 -0.6047  1.0069 -1.2378
17914SOL    HW256763   4.918   8.762   3.729  1.3880 -1.1711 -0.8329
17915SOL     OW56764   1.977   0.408   4.573 -0.1084 -0.4188  0.2973
17915SOL    HW156765   1.937   0.483   4.528 -1.6545 -0.5474  1.3949
17915SOL    HW256766   1.905   0.370   4.623  0.9988 -1.7906  0.8704
17916SOL     OW56767   7.872   5.566   9.232 -0.7266 -0.5237 -0.1734
17916SOL    HW156768   7.963   5.539   9.238  0.0256  1.7911 -0.5853
17916SOL    HW256769   7.858   5.582   9.138 -0.0873  3.7315  0.3532
17917SOL     OW56770   7.396   5.857   7.316 -0.2236 -0.0850 -0.2901
17917SOL    HW156771   7.325   5.915   7.343  1.1822  1.2393  0.6874
17917SOL    HW256772   7.393   5.784   7.378 -0.5071  0.1446 -0.0345
17918SOL     OW56773   8.407   7.983   4.851  1.0166  0.1979 -0.1155
17918SOL    HW156774   8.437   8.054   4.795  1.3937  0.1951  0.0784
17918SOL    HW256775   8.451   7.999   4.935  0.8318 -0.0652  0.0312
17919SOL     OW56776   6.612   2.495   9.371  0.0977  0.4472 -0.0737
17919SOL    HW156777   6.573   2.422   9.419  1.5239 -1.0017 -1.0334
17919SOL    HW256778   6.588   2.479   9.280  1.2980  0.5680 -0.4238
17920SOL     OW56779   6.416   3.437   5.001 -0.2050 -0.5295 -0.2453
17920SOL    HW156780   6.380   3.388   5.075 -0.1812 -0.0127  0.1085
17920SOL    HW256781   6.395   3.383   4.925 -0.5666 -0.8782  0.0952
17921SOL     OW56782   1.564   6.225   2.337 -0.1284  0.2020  0.1734
17921SOL    HW156783   1.649   6.268   2.334  0.0498 -0.2573 -1.5579
17921SOL    HW256784   1.517   6.270   2.408  1.7458  0.0554  1.5469
17922SOL     OW56785   2.939   6.309   6.549  0.4990 -0.2040  1.0199
17922SOL    HW156786   2.857   6.288   6.505  0.3682  0.4665  0.9366
17922SOL    HW256787   2.996   6.343   6.480  0.7311 -0.3387  1.1412
17923SOL     OW56788   9.429   7.070   7.721  0.0872  0.1386  0.0899
17923SOL    HW156789   9.491   7.131   7.761  0.6966 -0.7476  0.5022
17923SOL    HW256790   9.477   7.029   7.650 -0.8928  1.4547 -1.3772
17924SOL     OW56791   2.428   5.023   0.087 -0.2325 -0.0381 -0.1357
17924SOL    HW156792   2.402   5.107   0.051  0.1348 -0.0525 -0.4424
17924SOL    HW256793   2.515   5.007   0.051 -0.0620 -0.2830  0.3680
17925SOL     OW56794   5.281   1.209   3.466 -0.6360 -0.2639  0.3534
17925SOL    HW156795   5.270   1.296   3.428  0.7175  0.4020  1.4341
17925SOL    HW256796   5.263   1.149   3.394  0.0005  0.9356 -0.8347
17926SOL     OW56797   1.579   1.328   8.596  0.7978  0.1720 -0.0644
17926SOL    HW156798   1.557   1.416   8.566  0.9310  0.6472  1.2007
17926SOL    HW256799   1.666   1.311   8.559 -0.0947 -0.2586 -2.0189
17927SOL     OW56800   5.501   8.649   6.611 -0.0163  0.8912  0.4616
17927SOL    HW156801   5.588   8.660   6.649  0.0984 -1.3580  0.9442
17927SOL    HW256802   5.447   8.620   6.684 -0.4561 -0.6635 -0.4483
17928SOL     OW56803   4.987   2.130   9.080 -0.2590  0.0330 -0.2209
17928SOL    HW156804   4.944   2.173   9.153 -0.2203 -1.3177  0.6153
17928SOL    HW256805   4.986   2.195   9.010 -0.6139  1.2091  0.8588
17929SOL     OW56806   6.989   3.982   5.353 -0.3439  0.3868  0.4223
17929SOL    HW156807   6.968   3.925   5.427  0.0356  1.4069  1.3306
17929SOL    HW256808   7.045   4.050   5.390  0.3694  0.5632 -0.9380
17930SOL     OW56809   7.184   8.550   2.899 -0.0559 -0.3401  0.0715
17930SOL    HW156810   7.149   8.477   2.950  0.5579 -0.1018  0.8303
17930SOL    HW256811   7.279   8.538   2.901  0.0019 -0.0434 -0.5935
17931SOL     OW56812   6.483   3.585   0.419  0.2866  0.8196  0.1287
17931SOL    HW156813   6.512   3.671   0.449 -2.1153  2.0040 -0.7673
17931SOL    HW256814   6.387   3.588   0.427  0.1582 -1.7874  0.1072
17932SOL     OW56815   2.877   3.067   2.137  0.0538  0.2021 -0.4146
17932SOL    HW156816   2.801   3.118   2.108 -1.9295 -1.4129  1.7179
17932SOL    HW256817   2.885   3.088   2.230  0.5959 -1.6120 -0.0362
17933SOL     OW56818   6.292   4.743   6.244 -0.6997  0.2043  0.7622
17933SOL    HW156819   6.214   4.732   6.298 -1.7737 -0.6318 -0.9206
17933SOL    HW256820   6.307   4.656   6.206  0.2641  0.6731  0.0381
17934SOL     OW56821   8.062   3.072   6.466 -0.3290  0.4074 -0.1936
17934SOL    HW156822   8.014   3.066   6.384 -0.6579  0.7908 -0.0344
17934SOL    HW256823   8.094   2.983   6.482  0.2602  0.4671 -1.0419
17935SOL     OW56824   4.342   0.358   2.565 -0.9741  0.2022  0.0605
17935SOL    HW156825   4.329   0.265   2.585  0.1501 -0.4881 -2.2119
17935SOL    HW256826   4.436   0.366   2.551 -0.9034  1.9499  1.3575
17936SOL     OW56827   9.296   3.247   5.769 -0.0258 -0.3180 -0.5199
17936SOL    HW156828   9.341   3.168   5.800  0.1995 -0.3945 -1.0489
17936SOL    HW256829   9.203   3.222   5.766  0.0264 -0.5067 -0.5328
17937SOL     OW56830   1.481   7.053   5.598  0.2232  0.4841  0.3289
17937SOL    HW156831   1.551   6.989   5.590 -0.9851 -0.7509 -0.5116
17937SOL    HW256832   1.454   7.071   5.508 -0.2805  1.2371  0.6258
17938SOL     OW56833   9.396   7.274   1.993  0.1871  0.4318  0.2704
17938SOL    HW156834   9.304   7.256   2.010  0.6030 -0.7532  1.2563
17938SOL    HW256835   9.422   7.209   1.928  0.2156  1.0985 -0.4065
17939SOL     OW56836   9.335   2.708   4.012 -0.6126  0.7401 -0.3845
17939SOL    HW156837   9.422   2.747   4.010 -0.2855  0.0467  0.0496
17939SOL    HW256838   9.275   2.781   3.995 -0.1120  1.7288  1.9527
17940SOL     OW56839   3.674   6.986   6.396 -0.0667 -0.6094  0.5291
17940SOL    HW156840   3.706   6.942   6.475 -1.2177  0.0260  1.3718
17940SOL    HW256841   3.609   6.925   6.360 -0.2781 -0.4500  0.6393
17941SOL     OW56842   0.905   4.809   2.269  0.2350 -0.2423 -0.4137
17941SOL    HW156843   0.884   4.897   2.236 -0.5222 -0.3443 -0.2059
17941SOL    HW256844   0.995   4.794   2.241  1.4429  1.8266  2.1281
17942SOL     OW56845   4.136   0.181   7.132  0.3154  0.3727  0.0541
17942SOL    HW156846   4.064   0.214   7.185  1.0161  2.0929 -0.0374
17942SOL    HW256847   4.094   0.147   7.053 -0.4659  0.6271  0.3565
17943SOL     OW56848   0.786   0.454   3.641  0.3280  0.4004 -0.1522
17943SOL    HW156849   0.735   0.375   3.661  0.9095  0.4619  1.6349
17943SOL    HW256850   0.843   0.427   3.569 -0.5863 -0.3449 -0.6161
17944SOL     OW56851   7.159   5.956   0.281 -0.1856  0.5430 -0.7030
17944SOL    HW156852   7.102   5.882   0.259 -2.7421  2.2951 -0.1965
17944SOL    HW256853   7.102   6.016   0.329  2.1417  2.3353 -0.1219
17945SOL     OW56854   8.387   6.934   7.126 -0.2046  0.2236  0.0772
17945SOL    HW156855   8.364   6.947   7.034 -1.3464  1.1990  0.4853
17945SOL    HW256856   8.372   7.019   7.167  4.4510  1.0466  0.3515
17946SOL     OW56857   0.402   1.433   2.886 -0.3375  0.4164  0.1526
17946SOL    HW156858   0.329   1.386   2.846 -0.8013  1.5231 -0.3279
17946SOL    HW256859   0.465   1.444   2.815  0.1628 -0.2520  0.4867
17947SOL     OW56860   4.879   6.718   1.409 -0.2493 -0.5305  0.6889
17947SOL    HW156861   4.935   6.795   1.417 -3.3187  1.9918 -1.1743
17947SOL    HW256862   4.896   6.686   1.320 -0.6784 -0.6159  0.6365
17948SOL     OW56863   7.696   7.589   1.128 -0.6221  0.5398 -0.5833
17948SOL    HW156864   7.789   7.609   1.117 -0.5041 -0.5859 -1.7693
17948SOL    HW256865   7.658   7.603   1.042 -1.3919  0.1819 -0.3087
17949SOL     OW56866   8.426   1.980   0.258  0.1782 -0.2859  0.1699
17949SOL    HW156867   8.451   1.926   0.183  1.0256 -0.2313  0.4152
17949SOL    HW256868   8.503   1.982   0.314 -0.3905 -0.1866  0.9686
17950SOL     OW56869   8.113   2.941   7.432 -0.3918  0.5598  0.0317
17950SOL    HW156870   8.121   2.970   7.341  0.1476 -0.3911 -0.2266
17950SOL    HW256871   8.020   2.919   7.442 -0.7124  1.8600  0.0867
17951SOL     OW56872   4.326   1.574   1.133  0.2898  0.3382 -0.3409
17951SOL    HW156873   4.359   1.597   1.046  1.0602  1.9971  0.3867
17951SOL    HW256874   4.380   1.623   1.194 -0.8063 -0.1495  1.0585
17952SOL     OW56875   3.841   3.605   8.005 -0.4741 -0.6898 -0.4003
17952SOL    HW156876   3.832   3.569   8.093  0.1004  1.7151  0.6601
17952SOL    HW256877   3.933   3.587   7.982 -0.0742  0.4448  0.2894
17953SOL     OW56878   5.252   6.645   2.594  0.2991 -0.1984  0.0273
17953SOL    HW156879   5.329   6.701   2.607  2.6579 -3.6977  1.9577
17953SOL    HW256880   5.192   6.671   2.664  0.5159  1.2623 -0.3123
17954SOL     OW56881   8.351   4.792   8.701 -0.2566 -0.2030 -0.0206
17954SOL    HW156882   8.363   4.739   8.622 -0.0143  1.2940 -1.0160
17954SOL    HW256883   8.257   4.809   8.704 -0.1569  0.4408 -0.4605
17955SOL     OW56884   3.721   4.336   3.714 -0.3014 -0.6361  0.1047
17955SOL    HW156885   3.798   4.280   3.714 -0.4854 -0.9299  2.3473
17955SOL    HW256886   3.749   4.416   3.669  1.1761 -0.8882  0.5659
17956SOL     OW56887   1.786   4.893   0.115  0.6101  0.1547 -0.5115
17956SOL    HW156888   1.721   4.917   0.049  0.5547 -0.6944 -0.7776
17956SOL    HW256889   1.869   4.924   0.079  0.3757  1.1042 -0.2408
17957SOL     OW56890   8.713   5.691   2.732 -0.3245 -0.2375  0.1078
17957SOL    HW156891   8.781   5.627   2.750 -1.0603 -1.2463 -0.6779
17957SOL    HW256892   8.664   5.698   2.814  0.2804 -0.0319  0.4568
17958SOL     OW56893   5.557   4.872   3.165  0.6504  0.3127  0.3496
17958SOL    HW156894   5.485   4.882   3.102  0.0917 -0.5145  0.8559
17958SOL    HW256895   5.548   4.783   3.198  1.5001  0.4392  0.9307
17959SOL     OW56896   8.924   7.642   2.065 -0.0766  0.3242  0.5364
17959SOL    HW156897   8.853   7.591   2.027  0.2239  0.7581 -0.6266
17959SOL    HW256898   9.004   7.603   2.029  0.2874 -0.1031  1.7621
17960SOL     OW56899   6.783   0.885   7.453  0.3485 -0.6626 -0.6703
17960SOL    HW156900   6.806   0.903   7.544 -1.8503 -1.5363  0.0837
17960SOL    HW256901   6.747   0.968   7.420  1.6116 -0.2019 -0.9043
17961SOL     OW56902   3.374   3.796   3.514 -0.0121 -0.2569  0.1328
17961SOL    HW156903   3.441   3.789   3.446  0.4777 -0.2109  0.6083
17961SOL    HW256904   3.294   3.818   3.466  0.4122  0.1703 -0.3910
17962SOL     OW56905   4.966   3.976   2.895 -0.2692 -0.2420  0.2718
17962SOL    HW156906   5.057   3.976   2.923  0.0586  0.5051 -0.7555
17962SOL    HW256907   4.918   4.010   2.970  0.6989  2.5667 -0.3317
17963SOL     OW56908   2.800   7.364   3.349  0.2548  0.4895 -1.0796
17963SOL    HW156909   2.788   7.388   3.257  1.7998 -0.5146 -1.5635
17963SOL    HW256910   2.711   7.347   3.381 -0.3768  1.7204 -2.1336
17964SOL     OW56911   7.227   8.045   5.771  0.1193 -0.6088 -0.4976
17964SOL    HW156912   7.173   8.124   5.768 -1.5551 -1.5929  1.9341
17964SOL    HW256913   7.274   8.045   5.687  0.7388  3.3190 -0.2625
17965SOL     OW56914   1.096   1.299   6.084  0.2465  0.3088 -0.6987
17965SOL    HW156915   1.094   1.252   6.168  0.4058  0.2941 -0.7037
17965SOL    HW256916   1.031   1.369   6.094  2.0969  1.9391  0.3929
17966SOL     OW56917   7.891   0.932   2.789  0.3069 -0.3660  0.1768
17966SOL    HW156918   7.934   0.919   2.705 -1.7758  1.3195 -1.2280
17966SOL    HW256919   7.894   0.846   2.832  0.4749 -1.5077 -2.0673
17967SOL     OW56920   5.711   8.238   4.737 -0.3802 -0.6698 -0.3642
17967SOL    HW156921   5.660   8.289   4.674 -3.2341 -0.5335  1.9704
17967SOL    HW256922   5.747   8.166   4.686 -1.2042  0.4005 -2.4948
17968SOL     OW56923   2.335   6.748   0.458  0.8375 -0.5097 -0.2825
17968SOL    HW156924   2.249   6.708   0.476  0.9982  0.0759  1.9603
17968SOL    HW256925   2.328   6.780   0.368 -1.0107 -1.2149 -0.4168
17969SOL     OW56926   1.609   1.259   0.375  0.4658  0.3083  0.4560
17969SOL    HW156927   1.656   1.260   0.458  0.6721  0.6698  0.3344
17969SOL    HW256928   1.565   1.344   0.371 -0.7790 -0.2940  0.9004
17970SOL     OW56929   0.778   8.537   1.387  0.3472  0.0978 -0.1501
17970SOL    HW156930   0.768   8.627   1.419  1.1698  0.1518 -0.0338
17970SOL    HW256931   0.725   8.484   1.447  0.6087  0.3961  0.3513
17971SOL     OW56932   5.159   9.157   1.677 -0.3100 -0.0381  0.0408
17971SOL    HW156933   5.109   9.238   1.688  1.0232  0.9450 -1.0793
17971SOL    HW256934   5.211   9.150   1.757 -0.7311 -0.0076  0.3185
17972SOL     OW56935   1.788   7.944   3.036 -0.1266  0.6881  0.2537
17972SOL    HW156936   1.721   7.922   2.971  0.4076 -0.4238  0.0624
17972SOL    HW256937   1.760   8.028   3.072 -1.3955  0.4397 -0.1251
17973SOL     OW56938   1.978   0.072   3.336  0.0722  0.1997 -0.2707
17973SOL    HW156939   2.030   0.119   3.401 -0.9708  2.3225 -0.9188
17973SOL    HW256940   1.945  -0.005   3.383  2.0989 -0.0861  0.7130
17974SOL     OW56941   6.843   1.430   5.108  0.4231  0.2598 -0.1764
17974SOL    HW156942   6.753   1.450   5.133  0.0243  1.1444 -2.1617
17974SOL    HW256943   6.839   1.341   5.073  0.1347  0.5979 -1.0297
17975SOL     OW56944   7.002   0.723   1.570 -0.4776 -0.3528 -0.2341
17975SOL    HW156945   7.025   0.634   1.599 -0.6153 -0.4889 -0.5344
17975SOL    HW256946   7.021   0.778   1.645 -1.5965 -0.8133  0.3983
17976SOL     OW56947   6.952   0.913   3.893  0.7380 -0.5525 -0.1941
17976SOL    HW156948   6.934   0.822   3.915  0.0197 -0.7611 -1.5667
17976SOL    HW256949   6.938   0.961   3.975  2.0905 -1.7826  0.7718
17977SOL     OW56950   7.743   8.677   7.673 -0.2798 -0.6595 -0.6142
17977SOL    HW156951   7.705   8.593   7.644 -0.2265 -1.2717  1.0264
17977SOL    HW256952   7.673   8.741   7.659 -0.6362 -1.1385 -1.0480
17978SOL     OW56953   8.943   6.162   1.166  0.4273  0.3000  0.2510
17978SOL    HW156954   9.018   6.143   1.109  1.9569 -0.1135  2.3438
17978SOL    HW256955   8.961   6.114   1.246 -2.3178 -0.1349  0.6475
17979SOL     OW56956   1.802   7.770   1.902 -0.0171  0.4878 -0.6631
17979SOL    HW156957   1.709   7.768   1.927 -0.0254 -0.2180 -0.7426
17979SOL    HW256958   1.843   7.826   1.968 -0.6130  1.3538 -1.0194
17980SOL     OW56959   3.472   2.672   6.906  0.2217 -0.6736 -0.4386
17980SOL    HW156960   3.475   2.701   6.997 -0.1296 -2.8660  0.2870
17980SOL    HW256961   3.563   2.659   6.881  0.2104 -2.2465  0.3184
17981SOL     OW56962   4.133   7.063   6.529 -0.2356 -0.8788 -0.3245
17981SOL    HW156963   4.061   7.103   6.578  0.9127  0.3793  0.3791
17981SOL    HW256964   4.151   6.981   6.576 -0.0980 -0.3757  0.5144
17982SOL     OW56965   1.674   9.425   6.253  0.4158  0.2169 -0.0226
17982SOL    HW156966   1.717   9.431   6.168 -0.0184 -2.5622 -0.4951
17982SOL    HW256967   1.740   9.385   6.310  0.1715  0.6080  0.5337
17983SOL     OW56968   5.940   0.505   1.824 -0.2308  0.3203 -0.2570
17983SOL    HW156969   5.903   0.416   1.816  2.0834 -0.5037 -2.3833
17983SOL    HW256970   5.885   0.558   1.766 -0.6378 -0.0306 -0.2031
17984SOL     OW56971   3.363   8.010   2.002  0.5695 -0.0483 -0.6803
17984SOL    HW156972   3.361   7.915   2.015  0.6620 -0.0305 -0.5287
17984SOL    HW256973   3.273   8.038   2.020  0.9870  0.1335  1.2207
17985SOL     OW56974   8.633   7.645   5.825  0.3493 -0.2917  0.3427
17985SOL    HW156975   8.682   7.705   5.881 -0.4925 -1.2931  2.2161
17985SOL    HW256976   8.545   7.682   5.821  0.9429  0.9761 -2.2066
17986SOL     OW56977   9.065   8.460   7.289 -0.4726 -0.1222 -0.3288
17986SOL    HW156978   9.073   8.378   7.338  0.7363 -0.1012 -0.4755
17986SOL    HW256979   9.122   8.448   7.213  0.8205  1.3643  0.3662
17987SOL     OW56980   0.851   4.042   1.951  0.3614  0.3912 -0.4702
17987SOL    HW156981   0.779   4.008   1.898  0.9180 -0.1370 -0.9035
17987SOL    HW256982   0.858   3.980   2.024  1.6374 -0.6947 -1.4735
17988SOL     OW56983   2.935   7.138   1.008  0.6178  0.0031  0.3178
17988SOL    HW156984   3.013   7.118   1.060  0.3124 -0.4249  0.6125
17988SOL    HW256985   2.903   7.221   1.044  0.6530 -0.0725  0.5237
17989SOL     OW56986   8.805   8.121   2.276  0.2498 -0.5308 -0.4284
17989SOL    HW156987   8.896   8.106   2.304  0.1216 -0.7339 -0.1186
17989SOL    HW256988   8.787   8.052   2.213 -0.0215 -1.0911  0.2643
17990SOL     OW56989   2.442   1.565   5.520 -0.0932 -0.1468 -0.0969
17990SOL    HW156990   2.386   1.499   5.479 -1.5344  0.1249  1.3891
17990SOL    HW256991   2.503   1.515   5.574 -1.0713 -0.2905  0.8890
17991SOL     OW56992   7.034   3.777   3.993 -0.2239  0.3388 -0.3271
17991SOL    HW156993   7.094   3.827   3.938 -1.0260  0.2419 -1.3065
17991SOL    HW256994   7.047   3.686   3.967 -1.0215  0.3455 -0.8039
17992SOL     OW56995   4.895   1.222   3.296  0.2480 -0.1426  0.1133
17992SOL    HW156996   4.946   1.175   3.362  0.4421 -1.4371 -0.9558
17992SOL    HW256997   4.816   1.170   3.285  0.5321 -0.2914 -1.1921
17993SOL     OW56998   2.788   1.638   1.342  0.5275 -0.4411 -0.1988
17993SOL    HW156999   2.868   1.689   1.355  0.5387 -0.5471  0.1500
17993SOL    HW257000   2.779   1.631   1.246 -0.1070  1.1866 -0.2651
17994SOL     OW57001   7.038   4.028   0.443 -0.4321 -0.2889 -0.1919
17994SOL    HW157002   7.088   4.065   0.516 -1.5229 -0.1953  0.5224
17994SOL    HW257003   7.093   4.043   0.366  0.9226 -0.7305  0.6541
17995SOL     OW57004   0.440   2.230   6.726 -0.2543  0.3850  0.3252
17995SOL    HW157005   0.383   2.276   6.664 -0.2633  0.9149  0.7239
17995SOL    HW257006   0.486   2.165   6.673 -1.9312 -0.6893  0.1543
17996SOL     OW57007   0.427   5.766   3.278  0.2006  0.3868  0.0754
17996SOL    HW157008   0.489   5.807   3.339 -0.0747 -1.3332  1.5513
17996SOL    HW257009   0.366   5.718   3.334  0.1181 -1.4761 -1.5309
17997SOL     OW57010   6.408   3.318   2.439  0.3383 -0.3663 -0.5819
17997SOL    HW157011   6.494   3.347   2.409  1.2111 -0.9372  1.3032
17997SOL    HW257012   6.394   3.364   2.522 -0.6403 -1.1965 -0.2755
17998SOL     OW57013   1.424   1.525   4.113 -0.0613 -0.6008 -0.1611
17998SOL    HW157014   1.508   1.485   4.137  1.2511  2.2781  0.2792
17998SOL    HW257015   1.380   1.458   4.061  2.2185 -2.4359  0.1662
17999SOL     OW57016   0.803   2.008   1.134  0.0585  0.0911  0.2534
17999SOL    HW157017   0.788   1.980   1.044 -0.1256 -1.0176  0.6136
17999SOL    HW257018   0.755   1.944   1.187  0.2397  0.6806  1.1367
18000SOL     OW57019   4.900   3.468   8.243 -0.0405 -0.7555 -0.4371
18000SOL    HW157020   4.894   3.532   8.172 -2.7699 -0.8205 -0.2940
18000SOL    HW257021   4.936   3.390   8.202 -0.0870 -0.2861 -1.3803
18001SOL     OW57022   6.921   7.527   4.254  0.0709 -0.0384 -0.2704
18001SOL    HW157023   6.835   7.555   4.225 -0.6247  1.6842  3.2036
18001SOL    HW257024   6.972   7.608   4.260  0.7854 -0.5898  1.2620
18002SOL     OW57025   6.780   2.695   8.937 -0.4454 -0.0199  0.2525
18002SOL    HW157026   6.837   2.700   8.861 -0.8375 -1.8209 -0.1890
18002SOL    HW257027   6.692   2.686   8.900 -0.6441 -0.8011  0.9075
18003SOL     OW57028   4.575   0.105   4.940  0.4801 -0.3167  0.3905
18003SOL    HW157029   4.649   0.160   4.913 -0.1491  1.0538  1.3683
18003SOL    HW257030   4.499   0.161   4.928 -0.3750 -1.6382 -0.3721
18004SOL     OW57031   2.629   4.553   5.658  0.1723  0.9454 -0.4120
18004SOL    HW157032   2.676   4.487   5.710  1.3682  1.8412 -0.3416
18004SOL    HW257033   2.661   4.541   5.569  0.2695  1.3136 -0.4282
18005SOL     OW57034   8.011   2.362   3.765 -0.0995 -0.0467 -0.1577
18005SOL    HW157035   7.980   2.382   3.677  1.3355 -1.6170 -1.0745
18005SOL    HW257036   7.934   2.328   3.811 -0.1304 -2.4668 -1.9018
18006SOL     OW57037   9.356   7.420   8.907  0.2969  0.1677  0.3495
18006SOL    HW157038   9.326   7.484   8.842  0.4491 -0.0350  0.0825
18006SOL    HW257039   9.450   7.414   8.892  0.3266  0.0989  0.5716
18007SOL     OW57040   8.875   5.049   9.049  0.8625  0.0082  0.0019
18007SOL    HW157041   8.928   5.057   8.969 -0.1780  0.1491 -0.6897
18007SOL    HW257042   8.879   4.956   9.071  1.8222  0.0998  0.2656
18008SOL     OW57043   0.579   2.076   8.091 -0.1935 -0.6752  0.2797
18008SOL    HW157044   0.582   2.090   7.997  1.9823 -0.6239  0.3369
18008SOL    HW257045   0.610   1.986   8.103  2.7395  0.3945  1.1438
18009SOL     OW57046   7.431   4.314   7.723  0.8535  0.5210 -0.0222
18009SOL    HW157047   7.453   4.224   7.700 -0.9084  0.2634 -0.8375
18009SOL    HW257048   7.438   4.317   7.818  3.6861  0.3146 -0.1847
18010SOL     OW57049   6.950   1.278   1.736  0.5565  0.4168  0.2627
18010SOL    HW157050   6.987   1.329   1.808 -0.8434  0.7183  0.7856
18010SOL    HW257051   7.019   1.217   1.711  1.6141  1.3873  0.8067
18011SOL     OW57052   5.449   4.151   1.208  0.2859 -0.3805 -0.2901
18011SOL    HW157053   5.502   4.164   1.287  1.2839 -0.2632 -0.9616
18011SOL    HW257054   5.430   4.057   1.206 -1.2475 -0.1030  1.0271
18012SOL     OW57055   3.324   4.252   8.139  0.4929 -0.3222 -0.1019
18012SOL    HW157056   3.324   4.158   8.120 -0.1287 -0.0533 -1.5198
18012SOL    HW257057   3.400   4.285   8.092  0.2990 -0.0100 -0.1979
18013SOL     OW57058   6.510   3.400   8.321  0.1708  0.0753  0.2189
18013SOL    HW157059   6.458   3.414   8.242  0.4372  0.8708  0.1727
18013SOL    HW257060   6.466   3.451   8.388  0.3423 -0.0242  0.4080
18014SOL     OW57061   1.965   1.058   0.610 -0.1183 -0.0653  0.3797
18014SOL    HW157062   1.890   1.116   0.596  0.9157  1.0577 -0.6931
18014SOL    HW257063   1.963   0.997   0.537  1.3125  1.4467 -0.9952
18015SOL     OW57064   2.528   6.253   8.912  0.4814 -0.8011 -0.3269
18015SOL    HW157065   2.529   6.158   8.902 -1.3284 -0.8946  0.2335
18015SOL    HW257066   2.497   6.286   8.828  0.3538 -0.7576 -0.2633
18016SOL     OW57067   7.469   1.942   4.803  0.0168 -0.1691  0.1982
18016SOL    HW157068   7.534   1.958   4.734  0.2063  1.3521  0.7000
18016SOL    HW257069   7.478   1.849   4.824 -1.2555 -1.0566 -3.0339
18017SOL     OW57070   5.548   1.688   4.862  0.1218 -0.4190 -0.0827
18017SOL    HW157071   5.541   1.617   4.798  0.3875  0.6387 -1.2805
18017SOL    HW257072   5.636   1.679   4.898  1.0848  0.8467 -2.0596
18018SOL     OW57073   2.665   1.479   2.311  0.3675  0.5746 -0.1792
18018SOL    HW157074   2.704   1.449   2.229 -1.7110 -0.3256 -0.8673
18018SOL    HW257075   2.571   1.482   2.294 -0.0542  0.9237  1.9995
18019SOL     OW57076   8.120   4.168   1.452 -0.3999 -0.5950 -0.0248
18019SOL    HW157077   8.215   4.175   1.448 -0.4112 -0.0576  0.5197
18019SOL    HW257078   8.103   4.076   1.471 -0.0451 -1.0186 -1.6201
18020SOL     OW57079   5.325   2.904   5.291 -0.2657  0.0408  0.1878
18020SOL    HW157080   5.286   2.816   5.296 -1.2328  0.4156 -0.5513
18020SOL    HW257081   5.252   2.963   5.307  0.5384  0.7007  1.4752
18021SOL     OW57082   2.296   0.270   0.360 -0.0046 -0.3641 -0.2457
18021SOL    HW157083   2.322   0.178   0.356 -2.0241 -0.9255 -0.5929
18021SOL    HW257084   2.291   0.298   0.269 -0.3756 -0.1726 -0.1656
18022SOL     OW57085   1.685   1.448   7.663 -0.4609 -0.0348 -0.4294
18022SOL    HW157086   1.764   1.420   7.618 -0.1119 -0.0842  0.2078
18022SOL    HW257087   1.658   1.372   7.714  1.2008  1.1573  2.3034
18023SOL     OW57088   0.421   2.870   7.211  0.0772 -0.0855 -0.5418
18023SOL    HW157089   0.332   2.863   7.246  0.5390  0.5377  0.7643
18023SOL    HW257090   0.463   2.787   7.234 -0.3785 -0.6759 -1.7923
18024SOL     OW57091   3.801   5.445   1.441  0.1141  0.0900  0.3848
18024SOL    HW157092   3.834   5.365   1.401 -0.6001  0.7633 -1.6371
18024SOL    HW257093   3.750   5.416   1.516 -1.5083 -1.4640 -1.2975
18025SOL     OW57094   2.936   7.335   1.213  0.2324 -0.1785 -0.0358
18025SOL    HW157095   3.005   7.385   1.168  0.7730 -2.1402 -1.4403
18025SOL    HW257096   2.981   7.289   1.283 -0.2263  1.0889  1.1042
18026SOL     OW57097   5.125   4.782   4.115  0.8433  1.0620 -0.1211
18026SOL    HW157098   5.203   4.822   4.077  2.1502  0.7226  2.1168
18026SOL    HW257099   5.116   4.699   4.069  2.2917  0.7333  0.1734
18027SOL     OW57100   0.116   5.336   2.767  0.1236  0.2260  0.1842
18027SOL    HW157101   0.040   5.383   2.803 -0.3952 -0.4799  0.0149
18027SOL    HW257102   0.147   5.282   2.839  0.0235 -0.0277  0.0388
18028SOL     OW57103   2.433   3.870   8.545  0.4887  0.1071 -0.3055
18028SOL    HW157104   2.488   3.830   8.478 -0.3369  0.6154 -1.2981
18028SOL    HW257105   2.484   3.862   8.626  0.5803 -2.3924 -0.5835
18029SOL     OW57106   8.291   5.252   5.238  0.7293  0.2569  0.4728
18029SOL    HW157107   8.379   5.219   5.258  0.6334 -0.1030  0.2990
18029SOL    HW257108   8.235   5.214   5.305  0.4041 -0.9747 -0.4838
18030SOL     OW57109   5.179   8.477   1.746 -0.0017  0.0244  0.1244
18030SOL    HW157110   5.258   8.444   1.787 -0.9534 -1.1297  1.0587
18030SOL    HW257111   5.107   8.433   1.792 -1.2069  1.3663 -0.4076
18031SOL     OW57112   4.754   1.537   1.322 -0.0721 -0.0213 -0.0816
18031SOL    HW157113   4.838   1.499   1.348 -0.1875  0.0516  0.3898
18031SOL    HW257114   4.695   1.521   1.396 -0.8066 -1.1248 -0.8804
18032SOL     OW57115   5.012   0.152   0.862  0.0120 -0.0956 -0.4472
18032SOL    HW157116   4.970   0.066   0.858  0.3381 -0.2893  0.2971
18032SOL    HW257117   5.020   0.171   0.955 -0.2074  0.8185 -0.6050
18033SOL     OW57118   1.891   4.172   2.734 -0.6557  0.0018 -0.0949
18033SOL    HW157119   1.944   4.094   2.752 -1.4909 -0.5027  0.2104
18033SOL    HW257120   1.954   4.243   2.723  0.1845 -0.9887 -1.7304
18034SOL     OW57121   3.712   0.977   4.300 -0.6037  0.1300 -0.2767
18034SOL    HW157122   3.699   0.995   4.393 -0.3417  1.3980 -0.4686
18034SOL    HW257123   3.639   1.021   4.257 -0.9497 -0.7963 -0.6499
18035SOL     OW57124   4.902   7.382   6.599 -0.1282  0.3644 -0.0388
18035SOL    HW157125   4.913   7.295   6.561  0.4835  0.1206  0.6681
18035SOL    HW257126   4.970   7.435   6.558  1.9690 -0.4436  2.2799
18036SOL     OW57127   1.107   3.747   6.428  0.3046 -0.1353  0.3286
18036SOL    HW157128   1.045   3.787   6.489  0.3552 -1.4137  1.2310
18036SOL    HW257129   1.193   3.762   6.467  0.4111 -0.1421  0.1004
18037SOL     OW57130   5.265   5.140   3.181 -0.1812 -0.2700 -0.6690
18037SOL    HW157131   5.256   5.232   3.208  1.6759  0.6719 -3.1063
18037SOL    HW257132   5.294   5.095   3.261 -0.3513  1.3754  0.3545
18038SOL     OW57133   2.625   2.021   3.755 -0.4085  0.2862  0.0600
18038SOL    HW157134   2.685   2.026   3.680 -1.5020 -0.9872 -0.9298
18038SOL    HW257135   2.630   1.930   3.784 -0.3490  0.6617  1.2572
18039SOL     OW57136   5.335   5.390   2.514 -0.2575  0.6472 -0.2719
18039SOL    HW157137   5.391   5.383   2.437 -0.0992  0.6116 -0.1552
18039SOL    HW257138   5.295   5.303   2.523  0.8703  0.1838  0.5443
18040SOL     OW57139   9.191   2.493   0.036 -0.1475 -0.1696 -0.4700
18040SOL    HW157140   9.142   2.438   0.098 -0.2457 -0.4520 -0.7962
18040SOL    HW257141   9.177   2.451  -0.049 -0.2176  0.3651 -0.7193
18041SOL     OW57142   0.387   7.658   3.976  0.1882 -0.0939 -0.1885
18041SOL    HW157143   0.328   7.666   4.051  0.7659 -2.7953  0.6054
18041SOL    HW257144   0.356   7.581   3.930  0.9488  0.5213 -1.7491
18042SOL     OW57145   8.573   1.974   3.661  0.0485 -0.4637 -0.4743
18042SOL    HW157146   8.526   2.052   3.690  1.0891 -0.4447  1.2477
18042SOL    HW257147   8.570   1.915   3.737  2.0256 -0.7958 -0.6160
18043SOL     OW57148   5.948   7.595   7.835  0.2715  0.6285  0.1601
18043SOL    HW157149   5.852   7.593   7.832  0.3463  0.1566 -2.4885
18043SOL    HW257150   5.970   7.688   7.825  0.1317  0.5822 -0.5625
18044SOL     OW57151   7.210   4.890   6.152 -0.2471 -0.6449 -0.1513
18044SOL    HW157152   7.144   4.844   6.101 -0.9257  1.3330 -1.1426
18044SOL    HW257153   7.167   4.971   6.178  1.6568  0.5298 -0.5282
18045SOL     OW57154   2.188   9.012   5.072  0.5257 -0.4866 -0.4827
18045SOL    HW157155   2.111   8.957   5.059  0.7589 -0.9953  0.2576
18045SOL    HW257156   2.259   8.964   5.029  0.3197  0.2653 -1.6710
18046SOL     OW57157   2.710   1.990   0.933  0.3266  0.4872  0.2507
18046SOL    HW157158   2.659   2.060   0.974 -0.2053 -0.8050  1.8614
18046SOL    HW257159   2.650   1.949   0.871  0.4594  1.0878 -0.2778
18047SOL     OW57160   1.182   3.113   1.974 -0.4025 -0.4312  0.2649
18047SOL    HW157161   1.102   3.091   1.926 -0.2464  1.5154 -0.8983
18047SOL    HW257162   1.163   3.086   2.064 -1.6752 -1.6762 -0.3486
18048SOL     OW57163   5.561   6.742   9.082 -0.0367  0.1474  0.4876
18048SOL    HW157164   5.643   6.752   9.130 -0.5500  0.3281  1.3336
18048SOL    HW257165   5.521   6.663   9.117 -0.9953  0.9485  1.2523
18049SOL     OW57166   5.738   9.026   7.190 -0.1181  0.0886  0.5086
18049SOL    HW157167   5.743   8.952   7.129 -0.1142  0.5648 -0.0658
18049SOL    HW257168   5.680   8.995   7.260 -0.0127 -0.5063  0.3342
18050SOL     OW57169   1.401   6.770   6.130  0.2816  0.6379 -0.9151
18050SOL    HW157170   1.453   6.822   6.192 -0.9412 -1.3237  1.8590
18050SOL    HW257171   1.461   6.702   6.100 -0.0950 -0.5179  0.8670
18051SOL     OW57172   3.692   0.933   7.256 -0.5984  0.1795  0.4509
18051SOL    HW157173   3.750   0.869   7.216  0.8152  0.5603  1.8519
18051SOL    HW257174   3.674   0.898   7.344 -2.8972 -0.1810 -0.1335
18052SOL     OW57175   8.665   7.182   5.133 -0.8419 -0.7982 -0.0769
18052SOL    HW157176   8.649   7.246   5.202 -1.9582 -1.5325  0.3669
18052SOL    HW257177   8.606   7.109   5.153 -0.7446 -1.2905 -1.4607
18053SOL     OW57178   7.321   9.425   0.204  0.5757 -0.0981 -0.5035
18053SOL    HW157179   7.268   9.482   0.148  0.4784 -0.0379 -0.3502
18053SOL    HW257180   7.344   9.480   0.280 -0.6113 -0.6642  0.2755
18054SOL     OW57181   6.213   3.377   6.626  0.3269  0.1585  0.7441
18054SOL    HW157182   6.229   3.370   6.720  0.1864  0.6071  0.8014
18054SOL    HW257183   6.272   3.313   6.586  0.0473 -0.3692  1.1723
18055SOL     OW57184   0.402   0.337   6.727 -0.1598 -0.1609  0.6965
18055SOL    HW157185   0.480   0.388   6.746 -0.4260 -0.0252  1.4406
18055SOL    HW257186   0.434   0.258   6.684  0.4179 -0.3106  1.4100
18056SOL     OW57187   6.225   3.046   9.036 -0.0461  0.3144  0.7123
18056SOL    HW157188   6.317   3.070   9.024 -0.0922 -0.2048 -0.7534
18056SOL    HW257189   6.207   3.064   9.129  1.4578  0.6485  0.9449
18057SOL     OW57190   4.468   2.556   7.300  1.0029  0.2678 -0.2855
18057SOL    HW157191   4.475   2.529   7.208  1.9620 -0.1299 -0.1072
18057SOL    HW257192   4.480   2.475   7.349  1.0034  0.5662  0.2037
18058SOL     OW57193   9.355   8.104   2.778  0.4975  0.6689 -0.2510
18058SOL    HW157194   9.447   8.102   2.751 -0.1440  1.5989 -2.6414
18058SOL    HW257195   9.322   8.186   2.742 -1.2718  0.3184  0.5668
18059SOL     OW57196   3.384   8.314   8.196 -0.4926 -0.3285 -0.2038
18059SOL    HW157197   3.431   8.393   8.225 -0.7656 -0.2063 -0.0886
18059SOL    HW257198   3.300   8.318   8.242 -0.2664 -1.0066  0.2695
18060SOL     OW57199   1.208   6.239   6.850  0.9629 -0.4540  0.7873
18060SOL    HW157200   1.264   6.189   6.791  0.2654 -0.1951 -0.1183
18060SOL    HW257201   1.205   6.326   6.811  1.6651  0.1282  2.0136
18061SOL     OW57202   5.355   3.788   3.294 -0.0676  0.5674 -0.5224
18061SOL    HW157203   5.317   3.855   3.351 -0.2286  0.0595 -0.0303
18061SOL    HW257204   5.342   3.706   3.342  1.6859  0.3854 -0.3266
18062SOL     OW57205   4.288   3.521   3.672 -0.1054  0.4134 -0.2129
18062SOL    HW157206   4.351   3.585   3.638  0.0890  0.8475  0.9554
18062SOL    HW257207   4.340   3.443   3.691 -0.1656  0.2748 -0.5996
18063SOL     OW57208   6.731   5.222   8.009 -0.9499 -0.3126  0.2100
18063SOL    HW157209   6.674   5.258   7.941 -0.2885 -0.9261 -0.6971
18063SOL    HW257210   6.819   5.246   7.980 -0.7094  0.0020  1.2122
18064SOL     OW57211   2.716   2.293   2.261  0.4872 -0.6290  0.1123
18064SOL    HW157212   2.807   2.323   2.262  0.4815 -0.5670  2.3516
18064SOL    HW257213   2.674   2.346   2.194  2.1788 -0.8986 -1.1952
18065SOL     OW57214   8.625   4.863   3.529  0.2228  0.5294 -0.7549
18065SOL    HW157215   8.534   4.880   3.552  0.1615 -0.4375 -0.2199
18065SOL    HW257216   8.667   4.842   3.613  0.9995  1.2526 -0.9557
18066SOL     OW57217   2.187   1.633   1.993 -0.2702 -0.0776  0.7367
18066SOL    HW157218   2.165   1.578   1.919  2.1169  0.2385 -0.2476
18066SOL    HW257219   2.156   1.584   2.070 -1.0798 -1.2572 -0.3304
18067SOL     OW57220   1.385   0.491   2.324  0.6003 -0.4439 -0.2792
18067SOL    HW157221   1.358   0.582   2.339  0.7252 -0.4945  0.2493
18067SOL    HW257222   1.329   0.462   2.251 -0.0468 -0.2148  0.1152
18068SOL     OW57223   7.131   9.405   1.153 -0.3587  0.0643 -0.0542
18068SOL    HW157224   7.136   9.342   1.081  0.0721 -1.4994  1.3257
18068SOL    HW257225   7.195   9.473   1.129  0.5513 -0.9757 -0.6439
18069SOL     OW57226   1.522   9.014   2.655  0.3006  0.0293 -0.2159
18069SOL    HW157227   1.447   9.048   2.704  0.5485  0.6302 -0.2467
18069SOL    HW257228   1.557   9.091   2.610 -0.0177 -0.5400 -1.4644
18070SOL     OW57229   3.282   6.926   3.684 -0.0794  0.0324  0.1025
18070SOL    HW157230   3.274   6.918   3.779 -0.5138  1.3147  0.1764
18070SOL    HW257231   3.224   6.999   3.660 -0.8152 -0.9728 -1.2790
18071SOL     OW57232   0.759   6.267   5.480  0.1653 -0.8929  0.4268
18071SOL    HW157233   0.691   6.229   5.424  1.5902  0.9038 -2.6730
18071SOL    HW257234   0.725   6.353   5.503  0.3480 -0.9392  0.8727
18072SOL     OW57235   3.503   1.470   9.107 -0.1199 -0.6901 -0.3100
18072SOL    HW157236   3.520   1.378   9.087  0.2602 -0.9998  1.4178
18072SOL    HW257237   3.468   1.469   9.196  1.3526  0.9887  0.2963
18073SOL     OW57238   3.953   0.829   1.491 -0.2790  0.1592 -0.2226
18073SOL    HW157239   3.903   0.767   1.438 -2.2003  0.9917  0.5696
18073SOL    HW257240   3.887   0.887   1.529  1.1275  0.0054  2.5601
18074SOL     OW57241   5.023   6.609   3.213  0.5270  0.4562  0.5346
18074SOL    HW157242   4.948   6.635   3.158  0.0653 -0.9526  0.4909
18074SOL    HW257243   4.983   6.575   3.293  1.0660 -1.5082 -0.0020
18075SOL     OW57244   5.671   2.517   3.083 -0.1503 -0.5640  0.3199
18075SOL    HW157245   5.730   2.589   3.063  1.7334 -1.9489  0.6850
18075SOL    HW257246   5.638   2.536   3.171 -0.4009  0.3291  0.0290
18076SOL     OW57247   9.136   1.049   1.289 -0.4823  0.2271 -0.5473
18076SOL    HW157248   9.164   1.048   1.197  0.8106 -2.2389 -0.1843
18076SOL    HW257249   9.218   1.053   1.338 -0.9623 -1.9508  0.4951
18077SOL     OW57250   8.721   9.355   0.371 -0.1279  0.1433 -0.2481
18077SOL    HW157251   8.649   9.417   0.360 -0.3520 -0.3221 -1.4471
18077SOL    HW257252   8.739   9.323   0.283  2.4053  1.2106 -0.1746
18078SOL     OW57253   6.957   4.078   7.974  0.4505 -0.6270 -0.2745
18078SOL    HW157254   6.915   4.007   7.926 -0.3045  0.0260 -0.5903
18078SOL    HW257255   7.034   4.101   7.922 -0.2564 -0.0572 -1.0860
18079SOL     OW57256   3.379   8.592   8.328 -0.0801 -0.2907  0.3578
18079SOL    HW157257   3.463   8.625   8.296 -0.3344 -0.2677 -0.3106
18079SOL    HW257258   3.358   8.647   8.403 -0.0614  0.4642 -0.1882
18080SOL     OW57259   8.164   7.140   6.149 -0.4760 -0.2174  0.5358
18080SOL    HW157260   8.076   7.164   6.177 -0.7306  0.9979 -1.2628
18080SOL    HW257261   8.154   7.056   6.105 -0.8441  0.2086 -0.2020
18081SOL     OW57262   8.013   0.590   7.145 -0.2501  0.0082 -0.5555
18081SOL    HW157263   8.030   0.515   7.088  0.4066  1.7214 -2.6848
18081SOL    HW257264   7.922   0.580   7.174 -0.6135 -0.8329 -1.9924
18082SOL     OW57265   5.627   8.719   7.587 -0.0760 -0.3978 -0.1825
18082SOL    HW157266   5.704   8.772   7.606  0.4083 -1.0262 -0.3693
18082SOL    HW257267   5.560   8.749   7.649 -0.0290  0.9129 -0.7675
18083SOL     OW57268   1.685   0.808   4.693 -0.6502  0.2199 -0.6764
18083SOL    HW157269   1.643   0.722   4.689 -0.2984 -0.1674  2.2703
18083SOL    HW257270   1.651   0.847   4.774  2.3775  1.0827  0.2545
18084SOL     OW57271   0.674   4.689   1.117 -0.1518  0.0319  0.3109
18084SOL    HW157272   0.643   4.778   1.131  0.1824  0.0812  0.7209
18084SOL    HW257273   0.630   4.637   1.184 -0.1709 -0.0753  0.2162
18085SOL     OW57274   9.091   5.405   8.548 -0.7979  0.1234 -0.1870
18085SOL    HW157275   9.079   5.397   8.643  0.6044 -0.3264 -0.0315
18085SOL    HW257276   9.145   5.483   8.537 -1.5494  0.5776 -0.6663
18086SOL     OW57277   8.055   0.511   8.272 -0.0642  0.0880  0.3681
18086SOL    HW157278   8.140   0.484   8.307 -1.0349 -2.1478  1.1080
18086SOL    HW257279   7.992   0.484   8.339 -1.3736  1.7176 -0.1604
18087SOL     OW57280   7.716   7.600   8.952  0.3270  0.2225  0.4557
18087SOL    HW157281   7.759   7.518   8.929 -1.4089 -0.4700 -0.3636
18087SOL    HW257282   7.671   7.582   9.034  1.4163  0.9063  1.2267
18088SOL     OW57283   2.464   6.583   2.586  0.2262 -0.1466 -0.0582
18088SOL    HW157284   2.454   6.494   2.551 -0.8195 -0.3168  0.6607
18088SOL    HW257285   2.557   6.589   2.608  0.4638 -0.7891 -0.8233
18089SOL     OW57286   3.817   4.000   7.647  0.0909 -0.2314 -0.1443
18089SOL    HW157287   3.747   4.064   7.643  1.4185  1.4001  1.7018
18089SOL    HW257288   3.872   4.019   7.571  0.4868  0.8477  0.4066
18090SOL     OW57289   0.871   2.337   8.127 -0.5261 -0.2206  0.2377
18090SOL    HW157290   0.899   2.298   8.045 -0.1934 -0.4260  0.4479
18090SOL    HW257291   0.872   2.264   8.190 -0.7179 -0.0517  0.4379
18091SOL     OW57292   8.889   3.489   8.260 -0.1812 -0.1734 -0.2469
18091SOL    HW157293   8.934   3.414   8.297  1.3086  1.1181  0.6498
18091SOL    HW257294   8.880   3.550   8.334 -1.5194  0.4541 -0.9122
18092SOL     OW57295   2.172   2.311   2.887 -0.8629 -0.6494  0.0984
18092SOL    HW157296   2.171   2.217   2.906 -2.6237 -0.9598 -1.3845
18092SOL    HW257297   2.148   2.317   2.794  0.7390  1.1964 -0.2269
18093SOL     OW57298   9.209   1.891   3.476 -0.7464 -0.6799 -0.4308
18093SOL    HW157299   9.118   1.870   3.498 -0.8726  0.8773  0.6153
18093SOL    HW257300   9.252   1.806   3.467 -1.8639 -1.4280  1.0393
18094SOL     OW57301   2.911   2.449   6.222  0.5171  0.5727  0.2642
18094SOL    HW157302   2.984   2.472   6.165  0.3574  2.1212  0.6477
18094SOL    HW257303   2.946   2.458   6.311  0.1696  0.2628  0.4333
18095SOL     OW57304   4.051   3.270   7.544  0.1607 -1.2030  0.0126
18095SOL    HW157305   4.074   3.253   7.635  1.1581 -0.2645 -0.0548
18095SOL    HW257306   4.114   3.219   7.493 -0.4256 -1.7649 -0.1519
18096SOL     OW57307   5.724   9.021   0.298 -0.3131  0.4204 -0.3531
18096SOL    HW157308   5.801   9.067   0.267  0.2920 -0.6480 -0.4661
18096SOL    HW257309   5.755   8.969   0.372 -0.2442 -2.2884 -2.2145
18097SOL     OW57310   0.716   2.414   6.368  0.0504 -0.0047  0.2483
18097SOL    HW157311   0.731   2.322   6.349  1.2492  0.1237  0.4995
18097SOL    HW257312   0.638   2.437   6.319 -1.6524 -1.7591  2.0431
18098SOL     OW57313   2.346   3.873   4.168 -0.1478 -0.5273  0.0469
18098SOL    HW157314   2.405   3.818   4.219  0.7074  0.2135 -0.1374
18098SOL    HW257315   2.306   3.814   4.104  0.2335 -1.0697  0.3121
18099SOL     OW57316   6.768   7.553   5.027  0.0839 -0.3589 -0.7037
18099SOL    HW157317   6.756   7.627   5.086 -0.7828 -1.6791  0.7982
18099SOL    HW257318   6.723   7.580   4.946  0.8011  1.2202 -0.5842
18100SOL     OW57319   8.207   7.651   1.104 -0.0203  0.5174  0.3913
18100SOL    HW157320   8.179   7.691   1.022  1.6117 -1.0135 -0.9325
18100SOL    HW257321   8.259   7.719   1.148  1.8874  0.2393 -1.3808
18101SOL     OW57322   1.395   1.103   3.784 -0.1061  0.4496  0.0828
18101SOL    HW157323   1.361   1.029   3.733 -0.4135 -0.4011  1.4763
18101SOL    HW257324   1.490   1.099   3.772  0.0350 -1.2359  1.5127
18102SOL     OW57325   0.255   7.515   1.803 -0.0923 -0.3291 -0.5772
18102SOL    HW157326   0.258   7.443   1.865  1.4058  0.3311  0.1343
18102SOL    HW257327   0.170   7.556   1.818 -0.5147 -1.3150 -0.2671
18103SOL     OW57328   4.042   8.463   2.246  0.5675 -0.1210 -0.2783
18103SOL    HW157329   4.009   8.386   2.293  1.1634 -1.0244 -1.3101
18103SOL    HW257330   3.982   8.475   2.173 -1.3782  2.3383  1.6375
18104SOL     OW57331   6.397   6.456   5.721 -0.5050  0.1168  0.2569
18104SOL    HW157332   6.474   6.514   5.724 -0.7388  0.4766 -0.6481
18104SOL    HW257333   6.402   6.406   5.802  0.8820 -0.0959  0.0564
18105SOL     OW57334   8.168   6.512   8.306 -0.2137 -0.2795  0.1293
18105SOL    HW157335   8.172   6.429   8.259  3.4359  0.4397 -0.9956
18105SOL    HW257336   8.112   6.568   8.252  0.8904 -0.6464 -1.4068
18106SOL     OW57337   3.022   8.138   6.469  0.4713 -0.0566 -0.1961
18106SOL    HW157338   2.973   8.208   6.512  1.0232 -0.7411  1.5936
18106SOL    HW257339   2.960   8.065   6.464  0.7908 -0.3814  0.5632
18107SOL     OW57340   8.594   6.337   9.441 -0.3169  0.4963 -0.8858
18107SOL    HW157341   8.508   6.304   9.414 -0.3828  0.5039 -0.6862
18107SOL    HW257342   8.642   6.349   9.360 -0.9165  1.6116 -1.0904
18108SOL     OW57343   1.790   9.424   0.475  0.5325  0.1494 -0.0416
18108SOL    HW157344   1.728   9.428   0.547  0.8845 -0.6510  0.3113
18108SOL    HW257345   1.763   9.347   0.424  1.3681 -0.3528  0.2518
18109SOL     OW57346   6.673   2.177   2.548 -0.4101 -0.0288  0.2961
18109SOL    HW157347   6.711   2.099   2.588 -3.1510 -2.1360 -1.1386
18109SOL    HW257348   6.633   2.224   2.622 -2.3734 -2.1236  0.6204
18110SOL     OW57349   5.264   6.700   3.101  0.0080  0.0649  0.6447
18110SOL    HW157350   5.173   6.679   3.122 -0.3820 -0.1524 -1.2118
18110SOL    HW257351   5.288   6.769   3.163 -1.8314  1.0185  0.3175
18111SOL     OW57352   3.962   3.338   3.940  0.0021  0.4410 -0.0203
18111SOL    HW157353   3.941   3.255   3.984 -0.3726  0.1128 -0.8155
18111SOL    HW257354   4.046   3.364   3.978  1.9931 -2.1978 -2.3624
18112SOL     OW57355   0.001   7.901   3.451  0.5585  0.8783 -0.4808
18112SOL    HW157356  -0.063   7.962   3.415  1.3643  1.5809 -0.7362
18112SOL    HW257357   0.023   7.842   3.378  0.4009  0.8035 -0.4672
18113SOL     OW57358   2.546   8.740   3.521 -0.3959 -0.0391 -0.6737
18113SOL    HW157359   2.591   8.677   3.578 -0.4382 -1.2613 -1.9487
18113SOL    HW257360   2.520   8.811   3.579  0.4972 -0.7531  0.6333
18114SOL     OW57361   7.663   5.724   1.008  0.2519  0.3147  0.3712
18114SOL    HW157362   7.587   5.681   0.969  0.8444  0.5151 -1.0023
18114SOL    HW257363   7.707   5.768   0.936  0.4425  2.0922  1.5291
18115SOL     OW57364   4.972   2.921   3.660 -0.1599  0.3176  0.1059
18115SOL    HW157365   5.004   3.010   3.677 -1.2922  0.6219  0.6846
18115SOL    HW257366   4.990   2.907   3.567  1.7910  0.4118  0.4473
18116SOL     OW57367   6.942   9.105   6.219  0.2936  0.1244 -0.2379
18116SOL    HW157368   6.962   9.162   6.294  2.2660  0.1122 -0.7205
18116SOL    HW257369   6.979   9.152   6.143 -1.3560 -0.0401 -1.1535
18117SOL     OW57370   1.175   9.070   0.456 -0.5528 -0.4186 -0.2638
18117SOL    HW157371   1.140   9.020   0.382 -0.9895  1.1173 -1.1101
18117SOL    HW257372   1.126   9.038   0.532 -0.3047 -1.7939 -0.6709
18118SOL     OW57373   7.657   4.828   7.398  0.1925 -0.0663  0.4534
18118SOL    HW157374   7.653   4.865   7.486 -0.9941  1.8123 -0.3499
18118SOL    HW257375   7.579   4.773   7.391  0.6801 -0.8067  0.8254
18119SOL     OW57376   2.938   7.876   0.542 -0.2467 -0.2546  0.3107
18119SOL    HW157377   2.963   7.934   0.614 -2.4097  0.1448  0.7921
18119SOL    HW257378   2.855   7.837   0.571  0.5063 -2.6171 -0.5651
18120SOL     OW57379   7.451   5.368   0.581 -0.1138 -0.8150 -0.5080
18120SOL    HW157380   7.527   5.333   0.535  0.2807  0.1771 -0.6230
18120SOL    HW257381   7.416   5.435   0.522 -0.1179 -0.1429  0.2461
18121SOL     OW57382   6.458   8.826   0.202 -0.0382  0.6189  0.3461
18121SOL    HW157383   6.447   8.741   0.245 -1.0154  0.9662  0.7781
18121SOL    HW257384   6.426   8.812   0.113  0.8419  0.2377  0.0794
18122SOL     OW57385   9.221   6.044   8.755  0.1813 -0.3395  1.0052
18122SOL    HW157386   9.167   6.085   8.822 -0.1095  0.9556 -0.0012
18122SOL    HW257387   9.168   6.048   8.675  0.1169 -2.7201  0.8698
18123SOL     OW57388   6.119   9.077   8.726  0.0763 -0.0452 -0.5682
18123SOL    HW157389   6.132   9.152   8.784 -0.4417  0.2838 -0.8721
18123SOL    HW257390   6.053   9.024   8.770 -0.0307  0.0058 -0.6668
18124SOL     OW57391   8.291   8.498   3.367 -0.5631 -0.3447 -0.2301
18124SOL    HW157392   8.234   8.479   3.442  0.9453 -1.0525  0.7529
18124SOL    HW257393   8.376   8.520   3.405  0.5213 -1.7554 -1.7326
18125SOL     OW57394   1.142   6.936   3.704  0.2690 -0.2171 -0.1547
18125SOL    HW157395   1.125   6.901   3.792  2.0056 -0.9454 -0.0940
18125SOL    HW257396   1.069   6.904   3.651 -0.1077 -0.8475  0.7271
18126SOL     OW57397   5.352   1.644   3.977 -0.0160  0.3402  0.5888
18126SOL    HW157398   5.359   1.552   4.004 -1.7490  0.0840  0.1872
18126SOL    HW257399   5.376   1.694   4.055 -2.3558 -0.4327  1.8554
18127SOL     OW57400   0.289   0.086   1.224  0.0531  0.4607  0.0518
18127SOL    HW157401   0.368   0.135   1.204  0.8108  0.0280  1.8252
18127SOL    HW257402   0.312  -0.006   1.206  0.9446 -0.0059  3.2526
18128SOL     OW57403   6.837   1.336   5.885 -0.2089  0.2901  0.2518
18128SOL    HW157404   6.866   1.276   5.953  2.9492  0.9300 -0.4683
18128SOL    HW257405   6.804   1.413   5.932  0.3118  0.0123  1.0689
18129SOL     OW57406   5.663   1.033   1.065 -0.0906  0.4829  0.2082
18129SOL    HW157407   5.643   1.112   1.015 -0.0866 -0.3089 -1.0669
18129SOL    HW257408   5.681   1.065   1.154 -1.1892  1.7936 -0.0189
18130SOL     OW57409   0.989   0.476   7.497  0.0459 -0.2738  0.1572
18130SOL    HW157410   0.944   0.428   7.427 -2.5642 -0.0594  1.6460
18130SOL    HW257411   1.067   0.423   7.516  0.9148 -0.2385 -2.9976
18131SOL     OW57412   9.417   6.011   7.615 -0.3300 -0.1682 -0.2017
18131SOL    HW157413   9.479   6.000   7.687  0.3544 -0.9781 -0.9130
18131SOL    HW257414   9.469   6.044   7.542 -1.2024  1.6151 -0.0495
18132SOL     OW57415   3.453   6.217   4.505  0.5611  0.0682 -0.0494
18132SOL    HW157416   3.490   6.292   4.553  0.0065  0.2023  0.1730
18132SOL    HW257417   3.426   6.254   4.421 -0.1381  0.2195  0.2380
18133SOL     OW57418   0.906   4.781   1.262 -0.4070 -0.6419 -0.7231
18133SOL    HW157419   0.881   4.693   1.289  2.0144 -1.0353  0.3703
18133SOL    HW257420   0.831   4.836   1.284 -1.6651 -2.3076 -0.7898
18134SOL     OW57421   0.094   2.841   0.765  0.4759 -0.7173 -0.5151
18134SOL    HW157422   0.124   2.885   0.685 -0.2520 -1.5988 -1.2837
18134SOL    HW257423   0.045   2.766   0.734 -0.4281 -0.6703  0.7664
18135SOL     OW57424   4.248   1.109   8.837  0.0294 -0.0242 -0.1981
18135SOL    HW157425   4.289   1.024   8.826 -0.3489 -0.3105  0.5801
18135SOL    HW257426   4.309   1.159   8.892  0.1128  0.1042 -0.4085
18136SOL     OW57427   6.254   9.331   8.274 -0.4136  0.2551 -0.1693
18136SOL    HW157428   6.329   9.389   8.289  0.2865 -0.6831  0.0231
18136SOL    HW257429   6.224   9.308   8.362 -0.0434 -0.4906 -0.2324
18137SOL     OW57430   3.885   5.000   0.566 -0.4042  0.3459  0.0721
18137SOL    HW157431   3.936   5.080   0.553  0.7797 -0.1870  1.2805
18137SOL    HW257432   3.821   5.022   0.634  0.8963 -0.1412  1.4777
18138SOL     OW57433   2.824   6.304   6.792  0.1209  0.1377 -0.2747
18138SOL    HW157434   2.864   6.316   6.706 -2.1158 -2.8857 -1.8137
18138SOL    HW257435   2.890   6.258   6.843  0.5960 -0.1221 -1.1167
18139SOL     OW57436   0.924   1.210   0.403 -0.8010  0.1938 -0.4214
18139SOL    HW157437   0.879   1.287   0.369 -1.0136  0.5803  0.7147
18139SOL    HW257438   0.853   1.155   0.437 -0.6794 -0.6611 -1.5119
18140SOL     OW57439   3.383   3.763   8.374 -0.1119  0.3325  0.1893
18140SOL    HW157440   3.424   3.692   8.423 -0.8816 -0.8191 -0.8201
18140SOL    HW257441   3.341   3.818   8.441 -1.2361 -1.2787  0.8283
18141SOL     OW57442   0.025   7.543   7.707  0.2756 -0.1567 -0.6163
18141SOL    HW157443   0.057   7.596   7.780  1.4606  1.0060 -1.9589
18141SOL    HW257444  -0.070   7.546   7.715  0.2931  2.9773 -1.2207
18142SOL     OW57445   8.672   2.354   2.597 -0.2507 -0.0206 -0.0429
18142SOL    HW157446   8.585   2.340   2.558 -1.0036  3.3255  0.3027
18142SOL    HW257447   8.664   2.319   2.685 -1.8504  1.7980  0.5832
18143SOL     OW57448   1.221   3.092   4.836 -0.0815  0.4303  0.6502
18143SOL    HW157449   1.160   3.018   4.839 -0.2329  0.5440  0.3685
18143SOL    HW257450   1.263   3.091   4.922 -1.2233  0.9560  1.2357
18144SOL     OW57451   4.315   2.094   9.067 -0.1834 -0.6589 -0.2906
18144SOL    HW157452   4.383   2.104   9.000 -0.8603 -1.1460 -1.0552
18144SOL    HW257453   4.348   2.025   9.125 -0.1602 -1.1025 -0.8305
18145SOL     OW57454   7.508   5.973   8.518  0.3150 -0.7212 -0.0917
18145SOL    HW157455   7.573   5.907   8.492  1.5979  0.7337 -0.6800
18145SOL    HW257456   7.473   6.006   8.435 -3.5584 -3.7107  0.2218
18146SOL     OW57457   6.978   0.210   5.811 -0.1507  0.1412  0.1642
18146SOL    HW157458   6.969   0.262   5.730  2.1505  0.3083 -0.0108
18146SOL    HW257459   6.970   0.119   5.782  0.8546  0.1941 -0.2800
18147SOL     OW57460   0.842   7.181   8.583 -0.1349  0.2264  0.0675
18147SOL    HW157461   0.909   7.189   8.515 -1.3153  2.3797 -0.8568
18147SOL    HW257462   0.884   7.126   8.650  0.7646 -2.6223 -2.6835
18148SOL     OW57463   4.197   4.681   0.081 -0.5202 -0.1934  0.2813
18148SOL    HW157464   4.174   4.589   0.088 -0.0588 -0.3151  0.2135
18148SOL    HW257465   4.162   4.708  -0.004  1.6429 -0.9838 -0.8975
18149SOL     OW57466   8.334   2.077   1.817  0.1783  0.1832 -0.5233
18149SOL    HW157467   8.376   1.993   1.837 -0.4518 -0.0342 -0.0879
18149SOL    HW257468   8.395   2.143   1.851 -0.6482 -0.1692  1.7305
18150SOL     OW57469   2.906   0.887   4.904  0.0168 -0.6018  0.1034
18150SOL    HW157470   2.942   0.887   4.815 -1.6763  1.5250 -0.5958
18150SOL    HW257471   2.827   0.834   4.898 -1.4082  1.5179 -0.2274
18151SOL     OW57472   5.209   1.210   1.322  0.2732  0.3833  0.0504
18151SOL    HW157473   5.210   1.164   1.238 -1.0419 -0.5021  0.5110
18151SOL    HW257474   5.167   1.293   1.304 -1.1492 -0.3134  0.0698
18152SOL     OW57475   7.802   2.236   3.219  0.5879 -0.2400 -0.1052
18152SOL    HW157476   7.716   2.242   3.261  0.2773 -0.8062 -0.6525
18152SOL    HW257477   7.829   2.327   3.206 -1.1588 -0.0260 -2.4369
18153SOL     OW57478   7.955   6.099   9.079 -0.2292  0.4588  0.6142
18153SOL    HW157479   7.956   6.051   9.161 -0.0939  0.3408  0.5437
18153SOL    HW257480   7.976   6.189   9.104  0.4011  0.3097  0.6382
18154SOL     OW57481   1.200   7.895   8.732 -0.4392  0.5005 -0.1135
18154SOL    HW157482   1.157   7.852   8.807  1.0516  0.3052  0.6387
18154SOL    HW257483   1.288   7.857   8.729 -0.1560  1.2231 -1.3750
18155SOL     OW57484   7.587   1.208   0.533 -0.1199 -0.6359  0.4314
18155SOL    HW157485   7.654   1.140   0.541  0.1783 -0.5524 -1.1991
18155SOL    HW257486   7.504   1.161   0.545  0.1376 -1.0868  0.4721
18156SOL     OW57487   7.929   7.369   1.054 -0.7265  0.0848 -0.1450
18156SOL    HW157488   7.984   7.382   0.977 -2.8537  0.8920 -1.5793
18156SOL    HW257489   7.919   7.457   1.092  0.0999 -0.2663  0.9226
18157SOL     OW57490   0.372   0.835   3.510  0.2338  0.3418  0.2294
18157SOL    HW157491   0.327   0.910   3.471  1.2298  0.6080 -0.4193
18157SOL    HW257492   0.308   0.799   3.572 -0.7362  0.9329 -0.4058
18158SOL     OW57493   5.506   2.224   5.449 -0.1612 -0.0978 -0.6509
18158SOL    HW157494   5.524   2.256   5.361 -1.3876 -0.3401 -1.0100
18158SOL    HW257495   5.527   2.131   5.447  0.3930  0.0225 -0.5089
18159SOL     OW57496   5.487   3.100   1.027  0.0942  0.3405 -0.0153
18159SOL    HW157497   5.543   3.060   1.092  0.1426 -1.7232 -1.2919
18159SOL    HW257498   5.398   3.083   1.058  0.1248 -0.2065 -0.2221
18160SOL     OW57499   1.197   6.385   2.385 -0.2251 -0.2442 -0.6047
18160SOL    HW157500   1.241   6.313   2.431 -1.0967 -1.1671 -1.1826
18160SOL    HW257501   1.104   6.364   2.390 -0.3077 -0.7627 -3.3654
18161SOL     OW57502   4.244   6.936   3.641 -0.6166  0.4753 -0.0660
18161SOL    HW157503   4.228   7.024   3.675 -0.2387  0.5000  0.0482
18161SOL    HW257504   4.178   6.924   3.572 -0.2429  1.1038 -0.5346
18162SOL     OW57505   4.566   2.453   8.405 -0.1701 -0.3909 -0.1168
18162SOL    HW157506   4.634   2.476   8.341 -1.3092 -0.9963 -1.5837
18162SOL    HW257507   4.543   2.536   8.446 -1.1969  0.4465 -2.3113
18163SOL     OW57508   2.577   1.313   8.443  0.0861 -0.8528 -0.7087
18163SOL    HW157509   2.544   1.352   8.362  0.9720  0.1968 -0.5840
18163SOL    HW257510   2.501   1.308   8.501  0.2796  2.5008 -0.0435
18164SOL     OW57511   6.079   1.049   1.679 -0.1814 -0.6918  0.5744
18164SOL    HW157512   6.076   1.137   1.718  0.8050 -1.1251  1.6555
18164SOL    HW257513   6.140   1.001   1.735 -0.2025 -1.8714 -0.4199
18165SOL     OW57514   9.057   6.589   5.966 -0.2908  0.2859 -0.4339
18165SOL    HW157515   9.074   6.556   5.878  1.2741 -1.0962  0.3744
18165SOL    HW257516   9.020   6.514   6.013  0.5411  0.5113  0.5872
18166SOL     OW57517   4.308   1.584   2.918 -0.7538 -0.0479  0.1698
18166SOL    HW157518   4.338   1.674   2.929 -2.6598  0.5734  0.5522
18166SOL    HW257519   4.302   1.549   3.006  0.7828 -0.8345 -0.0293
18167SOL     OW57520   3.823   4.851   8.919  0.6964  0.0146 -0.0826
18167SOL    HW157521   3.765   4.782   8.952 -0.8934  1.7726  0.9195
18167SOL    HW257522   3.792   4.867   8.830  1.7143 -1.2237 -0.6782
18168SOL     OW57523   1.816   8.772   7.537 -0.6183  0.7470 -0.1770
18168SOL    HW157524   1.789   8.680   7.530 -1.7507  1.0520  0.0585
18168SOL    HW257525   1.791   8.810   7.453  0.4669  0.6872 -0.5274
18169SOL     OW57526   3.115   6.950   8.257  0.2028  0.0352  0.3412
18169SOL    HW157527   3.140   6.964   8.348  2.0193 -2.3644  0.2560
18169SOL    HW257528   3.195   6.969   8.207 -0.5058  0.3891 -0.6669
18170SOL     OW57529   5.182   2.899   7.583 -0.6401  0.7264 -0.3838
18170SOL    HW157530   5.270   2.937   7.580 -0.6461  0.9602  1.7476
18170SOL    HW257531   5.181   2.835   7.512  0.7509  1.7677 -1.3720
18171SOL     OW57532   7.129   5.244   7.562 -0.0342  0.2033  0.0056
18171SOL    HW157533   7.212   5.226   7.606 -0.7694 -1.0799  0.8934
18171SOL    HW257534   7.145   5.222   7.470  1.0453  1.4136 -0.1233
18172SOL     OW57535   1.706   0.780   5.836  0.1325 -0.7023  0.3112
18172SOL    HW157536   1.735   0.717   5.771 -1.0860 -0.1477 -0.7782
18172SOL    HW257537   1.634   0.827   5.795  0.4586  0.8304  1.4235
18173SOL     OW57538   3.147   5.816   6.268  0.0883 -0.1730  0.2308
18173SOL    HW157539   3.104   5.731   6.280  0.3175 -0.4497 -0.8704
18173SOL    HW257540   3.099   5.857   6.196  0.4405  0.3275  0.2806
18174SOL     OW57541   3.139   5.584   3.424  0.0267 -0.4136 -0.2463
18174SOL    HW157542   3.056   5.632   3.429  1.7830  2.8916 -1.3059
18174SOL    HW257543   3.149   5.564   3.331  0.5486 -0.5882 -0.1539
18175SOL     OW57544   7.521   9.143   6.390  0.0873  0.2603  0.3294
18175SOL    HW157545   7.555   9.093   6.464 -0.1948  0.6523  0.7179
18175SOL    HW257546   7.593   9.202   6.366  0.3757 -0.2419 -0.0539
18176SOL     OW57547   3.064   2.866   5.251  0.5121 -0.0894 -0.1445
18176SOL    HW157548   3.081   2.772   5.260 -1.3793 -0.5152 -0.8680
18176SOL    HW257549   2.984   2.872   5.198 -1.8249  1.7846  3.3679
18177SOL     OW57550   3.855   3.699   5.392 -0.5533 -0.0558  1.0647
18177SOL    HW157551   3.827   3.686   5.301  0.3204  0.9672  0.6354
18177SOL    HW257552   3.847   3.612   5.432 -1.7271 -0.3392  0.2374
18178SOL     OW57553   9.266   2.431   1.996  0.3834 -0.1842 -0.0563
18178SOL    HW157554   9.332   2.494   2.024  1.1942 -0.2776 -1.6619
18178SOL    HW257555   9.182   2.477   2.005  1.0092  1.3115 -1.6724
18179SOL     OW57556   0.619   4.665   0.836 -0.1146 -0.3056  1.0991
18179SOL    HW157557   0.697   4.630   0.795 -0.5447  0.3348 -0.2757
18179SOL    HW257558   0.647   4.687   0.925  0.5134 -2.7841  1.5547
18180SOL     OW57559   1.162   4.671   7.422 -0.5867 -0.3580  0.1073
18180SOL    HW157560   1.253   4.698   7.406 -0.2396 -1.0250  0.8870
18180SOL    HW257561   1.120   4.750   7.457 -0.2380 -0.1164 -0.0130
18181SOL     OW57562   1.342   6.405   4.528  0.3343 -0.4049 -0.0105
18181SOL    HW157563   1.286   6.358   4.590 -1.5484  1.9624  0.1543
18181SOL    HW257564   1.335   6.496   4.553  1.5728  0.3273 -2.1562
18182SOL     OW57565   0.410   8.146   5.171  0.1954 -1.0274  0.6171
18182SOL    HW157566   0.447   8.141   5.082 -0.2417  1.3962  0.2769
18182SOL    HW257567   0.324   8.105   5.163 -1.3793  2.3880 -0.9949
18183SOL     OW57568   8.299   8.944   6.794  0.1909  0.4185  0.2194
18183SOL    HW157569   8.248   8.964   6.873  0.0534 -0.1202  0.2763
18183SOL    HW257570   8.384   8.914   6.828  1.3356  3.3958  0.0687
18184SOL     OW57571   0.117   6.830   4.388 -0.5965 -0.2469  0.4293
18184SOL    HW157572   0.122   6.754   4.447  1.6245  0.0876  0.7089
18184SOL    HW257573   0.199   6.827   4.339 -1.1345  1.1720 -0.5631
18185SOL     OW57574   6.037   2.725   1.184  0.4357  0.0755 -0.0329
18185SOL    HW157575   5.954   2.753   1.223  1.3322  1.1767  1.1211
18185SOL    HW257576   6.100   2.731   1.256  1.2585 -2.0678 -0.5455
18186SOL     OW57577   4.711   0.337   4.722  0.0755  0.0861 -0.2233
18186SOL    HW157578   4.697   0.407   4.658 -0.0308 -0.0386 -0.3356
18186SOL    HW257579   4.768   0.377   4.788 -0.3841  0.4317 -0.0327
18187SOL     OW57580   9.357   4.290   4.068 -0.4257 -0.1694 -0.0468
18187SOL    HW157581   9.380   4.368   4.016  0.4079 -1.2022 -1.2392
18187SOL    HW257582   9.280   4.255   4.023  1.1187 -1.8527 -1.4405
18188SOL     OW57583   7.684   3.360   3.951  0.3332 -0.6387  0.0217
18188SOL    HW157584   7.676   3.381   3.858  0.7829 -0.6470 -0.0221
18188SOL    HW257585   7.775   3.381   3.972  0.0415  0.0396  0.6248
18189SOL     OW57586   1.651   3.785   0.137 -0.1030  0.1166 -0.5441
18189SOL    HW157587   1.668   3.817   0.049 -0.8575  0.3023 -0.6280
18189SOL    HW257588   1.710   3.834   0.193  0.4705 -0.0931 -0.9626
18190SOL     OW57589   7.810   3.724   6.375 -0.6142 -0.0680  0.3448
18190SOL    HW157590   7.866   3.681   6.310 -0.0871  0.3330  0.5266
18190SOL    HW257591   7.816   3.669   6.452 -1.0358 -0.4058  0.1379
18191SOL     OW57592   8.111   1.145   4.550  0.1169 -0.1608 -0.0629
18191SOL    HW157593   8.189   1.148   4.496 -0.1438  2.3476 -0.3536
18191SOL    HW257594   8.072   1.059   4.532  2.2440 -1.0279 -0.6593
18192SOL     OW57595   4.484   6.204   3.151  0.1977 -0.1904 -0.2322
18192SOL    HW157596   4.448   6.284   3.189  0.4642 -1.0862  1.9963
18192SOL    HW257597   4.411   6.141   3.156  0.1573 -0.2412 -1.4654
18193SOL     OW57598   7.846   2.408   5.451  0.5960 -0.0516 -0.3182
18193SOL    HW157599   7.920   2.351   5.432  0.3980  0.1286 -1.6738
18193SOL    HW257600   7.870   2.451   5.533  1.3396 -1.0747  0.0176
18194SOL     OW57601   9.248   1.846   2.257 -0.1199  0.2040  0.5418
18194SOL    HW157602   9.309   1.880   2.193  0.7167 -1.1677  0.6070
18194SOL    HW257603   9.215   1.924   2.302  0.5124  1.0453 -0.4344
18195SOL     OW57604   1.484   6.924   0.592  0.6426  0.2842  0.1653
18195SOL    HW157605   1.438   6.994   0.545 -0.4948 -0.8104 -0.3685
18195SOL    HW257606   1.443   6.924   0.679 -0.6225 -0.9116 -0.4159
18196SOL     OW57607   4.361   1.704   6.899 -0.5460  0.1239  0.5612
18196SOL    HW157608   4.444   1.703   6.948 -0.9864 -0.9083  1.2986
18196SOL    HW257609   4.370   1.779   6.840  1.9085 -1.3989 -1.1030
18197SOL     OW57610   1.802   8.176   9.364  0.0417 -0.0310  0.0148
18197SOL    HW157611   1.725   8.217   9.324 -0.1750 -0.7495 -0.3039
18197SOL    HW257612   1.871   8.184   9.298  0.1642  0.3369  0.1831
18198SOL     OW57613   1.336   8.856   4.812 -0.1909 -0.2130 -0.4178
18198SOL    HW157614   1.241   8.851   4.797 -0.3442  1.5320 -0.0869
18198SOL    HW257615   1.344   8.860   4.908 -0.0856  4.7392 -0.5509
18199SOL     OW57616   6.350   5.696   1.821 -0.9309  0.1231 -0.0238
18199SOL    HW157617   6.396   5.744   1.890 -2.6813  1.4770  0.2464
18199SOL    HW257618   6.258   5.717   1.834 -1.3851 -0.3003 -2.2404
18200SOL     OW57619   1.443   2.936   4.235 -0.2218  0.1528  0.1349
18200SOL    HW157620   1.478   3.020   4.203 -0.1197  0.3492  0.7405
18200SOL    HW257621   1.375   2.961   4.298 -2.6528 -0.2212 -2.2425
18201SOL     OW57622   1.028   2.187   5.018 -0.1107  0.0495 -0.6268
18201SOL    HW157623   1.060   2.099   5.039 -2.1789 -0.4101  0.7318
18201SOL    HW257624   1.049   2.240   5.096 -1.9941 -0.1102  0.0258
18202SOL     OW57625   7.783   1.715   3.165  0.1513 -0.4133 -0.0884
18202SOL    HW157626   7.804   1.667   3.246 -0.1189  0.7278  0.6732
18202SOL    HW257627   7.845   1.681   3.100  2.9989  1.3974  1.5822
18203SOL     OW57628   5.954   0.961   8.762 -0.0578 -0.8264 -0.0056
18203SOL    HW157629   5.882   0.913   8.722 -0.6564 -0.6163  0.8039
18203SOL    HW257630   5.962   1.040   8.710  0.7719 -1.6799 -1.1955
18204SOL     OW57631   8.600   1.597   5.444 -0.0131 -0.0723  0.1423
18204SOL    HW157632   8.525   1.651   5.469  0.2013  0.0072  0.6176
18204SOL    HW257633   8.569   1.507   5.449  0.5620 -0.1519  2.5132
18205SOL     OW57634   8.911   4.235   7.406  0.1849 -0.1873  0.6208
18205SOL    HW157635   8.954   4.211   7.324 -0.7385  2.2629 -0.6369
18205SOL    HW257636   8.875   4.153   7.440  0.0769 -1.1460 -1.7382
18206SOL     OW57637   7.145   7.879   6.394 -0.4370  0.2207 -0.4478
18206SOL    HW157638   7.097   7.797   6.385  0.4921 -0.3194 -0.4966
18206SOL    HW257639   7.202   7.883   6.317  1.5156 -0.4237  0.9311
18207SOL     OW57640   4.543   2.895   8.903 -0.6125 -0.4309 -0.3506
18207SOL    HW157641   4.628   2.867   8.869  0.2846  0.5758  1.0193
18207SOL    HW257642   4.509   2.953   8.836 -0.6245 -1.5296 -1.3119
18208SOL     OW57643   6.605   2.628   1.949 -0.1146  0.0740 -0.0478
18208SOL    HW157644   6.653   2.644   1.868  0.9614 -0.0636  0.5407
18208SOL    HW257645   6.641   2.693   2.010  0.0408 -0.6962  0.6838
18209SOL     OW57646   5.318   4.577   3.067  0.2400  0.4327  0.0436
18209SOL    HW157647   5.271   4.600   3.146 -0.7778 -0.3238 -0.3357
18209SOL    HW257648   5.256   4.525   3.016  0.9788  0.6692 -1.1189
18210SOL     OW57649   8.204   4.214   7.231  0.0466 -0.5205  0.0724
18210SOL    HW157650   8.274   4.198   7.295 -0.2970  1.6707  1.0543
18210SOL    HW257651   8.212   4.307   7.210 -2.7474 -0.1483  0.4450
18211SOL     OW57652   2.042   7.389   6.154 -0.0377  0.8182 -0.6599
18211SOL    HW157653   2.064   7.452   6.085 -0.9956  1.4121 -0.4362
18211SOL    HW257654   2.019   7.444   6.229  3.2440  0.1861  0.8796
18212SOL     OW57655   4.409   2.962   8.294  0.5370  0.1202 -0.3367
18212SOL    HW157656   4.473   2.925   8.233  0.9314 -0.0470  0.1743
18212SOL    HW257657   4.459   3.024   8.347 -0.0040  0.9704 -0.8116
18213SOL     OW57658   5.158   2.588   8.413 -0.3132 -0.3289  0.1303
18213SOL    HW157659   5.225   2.650   8.384 -0.4849  0.2031  0.8586
18213SOL    HW257660   5.133   2.540   8.333 -0.8049  1.1279 -0.6066
18214SOL     OW57661   0.421   1.569   3.133 -0.2856  0.2801 -0.6309
18214SOL    HW157662   0.396   1.656   3.102  1.3519  1.2490  0.6984
18214SOL    HW257663   0.410   1.513   3.056 -1.4602  1.6323 -1.4765
18215SOL     OW57664   7.641   6.183   3.348  0.1089  0.2220  0.8499
18215SOL    HW157665   7.646   6.125   3.424  1.1502 -0.3171  0.3820
18215SOL    HW257666   7.549   6.208   3.343  0.0990  0.5807  2.5252
18216SOL     OW57667   5.738   5.566   1.240  0.0682  0.1339  0.4907
18216SOL    HW157668   5.718   5.473   1.236  0.7880 -0.0207  0.4205
18216SOL    HW257669   5.736   5.587   1.334  3.3904 -0.7457  0.8233
18217SOL     OW57670   8.984   1.173   6.626  0.4634  0.7304 -0.6514
18217SOL    HW157671   8.893   1.144   6.632 -0.3058  2.9362 -1.1881
18217SOL    HW257672   8.979   1.268   6.629  2.8107  0.8611 -0.1274
18218SOL     OW57673   2.018   5.024   4.571  0.1156 -0.2395  0.7011
18218SOL    HW157674   1.924   5.018   4.591 -0.0319  0.0347  0.1168
18218SOL    HW257675   2.057   5.065   4.648 -0.5628  1.5732  0.1284
18219SOL     OW57676   2.324   9.325   3.465 -0.3458 -0.0587 -0.7320
18219SOL    HW157677   2.372   9.405   3.443  0.1841 -0.0259  0.5255
18219SOL    HW257678   2.270   9.349   3.540 -0.3692 -0.8182 -0.5024
18220SOL     OW57679   8.710   6.530   1.395 -0.0343 -0.4218  0.3873
18220SOL    HW157680   8.796   6.551   1.358 -0.4176  0.3437 -0.0908
18220SOL    HW257681   8.711   6.435   1.405  1.0849 -0.3652  0.9347
18221SOL     OW57682   3.595   2.689   0.617 -0.4112  0.5692  0.6652
18221SOL    HW157683   3.553   2.773   0.598 -0.1427  0.7305  0.7811
18221SOL    HW257684   3.679   2.713   0.657  0.0428  0.2536 -0.0938
18222SOL     OW57685   6.849   9.430   2.816 -0.1878  0.1638  0.2262
18222SOL    HW157686   6.810   9.371   2.752  0.0075  0.6742 -0.3678
18222SOL    HW257687   6.810   9.404   2.900 -1.5195  0.4160 -0.3050
18223SOL     OW57688   1.822   4.051   5.472  0.0640 -0.0409 -0.1954
18223SOL    HW157689   1.741   4.030   5.518  0.7478 -2.3375  0.0498
18223SOL    HW257690   1.886   4.067   5.541 -0.1167  1.5398 -0.3881
18224SOL     OW57691   0.180   4.597   1.483 -0.5027 -0.5308  0.6924
18224SOL    HW157692   0.246   4.661   1.508  0.2332 -1.1193  0.2608
18224SOL    HW257693   0.102   4.622   1.533 -0.3607  0.9669  0.2086
18225SOL     OW57694   9.324   5.569   2.029  0.0449  0.3435 -0.0646
18225SOL    HW157695   9.356   5.484   1.999 -1.6965 -0.3287 -0.0328
18225SOL    HW257696   9.303   5.617   1.949  0.6259  0.6107 -0.0665
18226SOL     OW57697   6.462   5.662   5.920 -0.4703  0.3967  0.1483
18226SOL    HW157698   6.432   5.699   6.003 -0.2648 -0.1221  0.4551
18226SOL    HW257699   6.382   5.654   5.867 -0.3535  2.4868 -0.4201
18227SOL     OW57700   0.318   2.834   6.120 -0.6023 -0.2789 -0.4979
18227SOL    HW157701   0.347   2.852   6.209 -0.8523 -0.0114 -0.4714
18227SOL    HW257702   0.398   2.837   6.068 -0.6208  0.7597 -0.4690
18228SOL     OW57703   2.722   8.268   3.728  0.0268  0.0332 -0.0750
18228SOL    HW157704   2.687   8.180   3.745  0.6778 -0.1226  0.4633
18228SOL    HW257705   2.704   8.282   3.635  1.5372 -1.4140 -0.6118
18229SOL     OW57706   0.038   0.949   3.420 -0.2252  0.0581 -0.1286
18229SOL    HW157707   0.092   0.998   3.482  0.6517  0.2619 -1.0387
18229SOL    HW257708   0.034   0.861   3.457  1.5339 -0.2095 -0.5073
18230SOL     OW57709   1.531   5.916   5.279 -0.0797  0.1156  0.2149
18230SOL    HW157710   1.480   5.856   5.332  0.6713  1.6928  2.8314
18230SOL    HW257711   1.481   5.927   5.199 -3.0416  0.3697  2.0486
18231SOL     OW57712   0.592   1.475   5.541  0.5151 -0.3280  0.5079
18231SOL    HW157713   0.669   1.434   5.501 -0.2526 -0.2204 -1.1361
18231SOL    HW257714   0.592   1.444   5.632  1.2491 -2.1084 -0.0862
18232SOL     OW57715   2.895   7.257   8.098  0.2597 -0.1333  1.0304
18232SOL    HW157716   2.829   7.301   8.046  0.9373  1.1786  1.2777
18232SOL    HW257717   2.854   7.245   8.184  0.0326 -0.0910  0.9267
18233SOL     OW57718   1.729   0.916   3.504 -0.0792  0.5209  0.4310
18233SOL    HW157719   1.682   0.834   3.494  0.7900  0.0021  0.5731
18233SOL    HW257720   1.687   0.975   3.441  0.9197 -0.7709 -1.5210
18234SOL     OW57721   3.990   4.402   6.453 -0.0333 -0.0606 -0.4043
18234SOL    HW157722   3.909   4.375   6.410 -1.8055  1.2629  2.0298
18234SOL    HW257723   4.023   4.323   6.494  0.5179 -0.8426 -2.2754
18235SOL     OW57724   2.328   4.120   7.963  0.2136 -0.0187  0.0837
18235SOL    HW157725   2.233   4.111   7.970  0.3426 -0.8290  0.8853
18235SOL    HW257726   2.347   4.105   7.870 -0.4493  0.1820 -0.0832
18236SOL     OW57727   0.171   8.010   5.851  0.0364 -0.1666  0.6955
18236SOL    HW157728   0.244   7.969   5.804 -0.0026  0.9165 -0.3439
18236SOL    HW257729   0.188   8.104   5.843 -1.3825  0.0845  0.5864
18237SOL     OW57730   6.780   0.555   2.287 -0.6025 -0.3053 -0.3917
18237SOL    HW157731   6.745   0.524   2.371  0.3823 -0.9260 -0.2020
18237SOL    HW257732   6.722   0.517   2.221 -0.0955 -1.6075 -0.0964
18238SOL     OW57733   2.993   7.444   1.812  0.3742 -0.1334 -0.2080
18238SOL    HW157734   2.979   7.533   1.778  0.2784 -0.7471 -1.8386
18238SOL    HW257735   2.986   7.453   1.907 -1.4704  1.2905 -0.4378
18239SOL     OW57736   3.149   1.569   0.800  0.1680  0.9060  0.0662
18239SOL    HW157737   3.160   1.548   0.707  0.2828  0.6902  0.1278
18239SOL    HW257738   3.198   1.650   0.812  0.2585  0.8671 -0.0360
18240SOL     OW57739   2.930   4.438   8.512 -0.8547  0.0280 -0.1753
18240SOL    HW157740   3.007   4.494   8.522 -1.6919  1.3923 -1.1563
18240SOL    HW257741   2.936   4.405   8.422 -1.0896 -0.3263 -0.0591
18241SOL     OW57742   2.093   6.880   8.987  0.2347 -0.5716  0.0369
18241SOL    HW157743   2.159   6.906   8.923 -0.4192 -1.2699 -0.9345
18241SOL    HW257744   2.041   6.814   8.942 -1.0027 -0.1700  0.8644
18242SOL     OW57745   2.120   2.965   1.684 -0.2477  0.2645 -0.5615
18242SOL    HW157746   2.192   2.958   1.621  0.9329 -2.1755  1.0009
18242SOL    HW257747   2.150   3.032   1.746 -0.3394  0.8821 -1.1705
18243SOL     OW57748   0.950   6.300   2.384 -0.1901 -0.4779 -0.0448
18243SOL    HW157749   0.894   6.261   2.317 -1.5005 -0.6787  1.1424
18243SOL    HW257750   0.962   6.231   2.449  0.3923 -0.0289  0.3298
18244SOL     OW57751   3.777   3.643   4.366 -0.6444  0.7808 -0.0778
18244SOL    HW157752   3.824   3.706   4.311 -1.5652  1.0587 -0.5490
18244SOL    HW257753   3.732   3.586   4.304 -1.2411  0.7502  0.3858
18245SOL     OW57754   2.208   5.541   4.583 -0.0683 -0.0288 -0.4856
18245SOL    HW157755   2.151   5.616   4.570 -0.9417 -0.7928 -1.1365
18245SOL    HW257756   2.196   5.517   4.675  1.7124  1.8282  0.2486
18246SOL     OW57757   7.852   3.607   5.667  0.1797  0.4140  0.2457
18246SOL    HW157758   7.892   3.694   5.666  1.4941 -0.1537  1.4892
18246SOL    HW257759   7.927   3.547   5.664 -0.6790 -0.6704  0.3863
18247SOL     OW57760   4.188   7.847   1.758  0.0054  0.3227 -0.1349
18247SOL    HW157761   4.100   7.828   1.791 -0.1862  0.8440 -0.3413
18247SOL    HW257762   4.230   7.761   1.751 -0.5806  0.0458 -0.2965
18248SOL     OW57763   8.467   0.603   3.267 -0.8593 -0.3810  0.4605
18248SOL    HW157764   8.504   0.568   3.186 -0.3785 -2.1531  1.4255
18248SOL    HW257765   8.542   0.613   3.325 -1.2939  0.2259  0.9232
18249SOL     OW57766   8.216   3.339   2.549 -0.2844  0.7663  0.4588
18249SOL    HW157767   8.294   3.394   2.546  0.0584  0.3100  1.0794
18249SOL    HW257768   8.145   3.399   2.573 -0.0962  1.1414  0.0887
18250SOL     OW57769   4.384   6.366   5.511  0.2182 -0.8857  0.3485
18250SOL    HW157770   4.414   6.399   5.427 -0.0691 -1.7221 -0.0854
18250SOL    HW257771   4.324   6.434   5.544 -0.7452 -1.2031 -0.7555
18251SOL     OW57772   1.125   1.472   1.197  0.6228 -0.6404  0.2978
18251SOL    HW157773   1.047   1.520   1.223 -0.2471 -2.4669  1.1560
18251SOL    HW257774   1.135   1.492   1.104 -1.2488 -0.8544  0.0232
18252SOL     OW57775   5.796   0.636   7.376 -0.0803  0.3566 -0.1057
18252SOL    HW157776   5.702   0.633   7.363 -0.4612  1.6038  2.0882
18252SOL    HW257777   5.817   0.557   7.425 -0.0613  0.3136 -0.1837
18253SOL     OW57778   8.108   2.357   9.088  0.1079  0.0893 -0.5157
18253SOL    HW157779   8.037   2.421   9.077  0.1814  0.3406  0.3870
18253SOL    HW257780   8.165   2.396   9.155  1.8284  0.5170 -2.2002
18254SOL     OW57781   4.963   4.965   8.316 -0.3689  0.1996  0.1267
18254SOL    HW157782   5.011   5.023   8.376  1.0697 -2.2533  1.4213
18254SOL    HW257783   5.031   4.913   8.273 -1.6783 -1.2350 -0.2520
18255SOL     OW57784   8.886   8.033   9.042  0.3454 -0.1518  0.2358
18255SOL    HW157785   8.842   7.965   9.093 -0.1962  1.2675  1.7031
18255SOL    HW257786   8.816   8.071   8.988  0.4117  0.0379  0.2865
18256SOL     OW57787   7.650   0.220   3.503  0.2037  0.7169  0.3528
18256SOL    HW157788   7.664   0.247   3.593  2.0251 -0.3520  0.4271
18256SOL    HW257789   7.681   0.295   3.451  1.7347  0.2804  0.6021
18257SOL     OW57790   2.896   4.751   7.869  0.1208 -0.6004  0.2452
18257SOL    HW157791   2.890   4.677   7.809 -0.4110  0.6528 -1.2910
18257SOL    HW257792   2.984   4.787   7.853 -0.7633  0.9597 -1.3039
18258SOL     OW57793   7.877   8.223   5.872  0.0546 -0.0665  0.2739
18258SOL    HW157794   7.916   8.181   5.795  0.1061 -0.5469  0.5630
18258SOL    HW257795   7.838   8.151   5.922 -1.9791  0.4817 -0.4444
18259SOL     OW57796   1.753   3.712   2.667  0.0275  0.7447  0.4452
18259SOL    HW157797   1.705   3.707   2.584  0.5644 -2.4430  0.2603
18259SOL    HW257798   1.688   3.689   2.734  0.1297  1.1717  0.6928
18260SOL     OW57799   1.350   0.666   5.705  0.3274  0.1439  0.0012
18260SOL    HW157800   1.358   0.679   5.610 -2.5541 -0.8605 -0.4240
18260SOL    HW257801   1.395   0.741   5.743  0.4471  1.2206 -2.1870
18261SOL     OW57802   8.274   4.924   7.526 -0.4886  0.3438  0.1589
18261SOL    HW157803   8.334   4.875   7.583 -0.1682 -1.3952 -1.5954
18261SOL    HW257804   8.187   4.890   7.547 -0.3082 -0.7310 -0.7780
18262SOL     OW57805   8.997   6.118   3.830 -0.1483  0.2683  0.5272
18262SOL    HW157806   9.007   6.024   3.843 -0.4226  0.3945  1.7055
18262SOL    HW257807   8.928   6.126   3.764  0.6049 -0.3694 -0.3542
18263SOL     OW57808   1.191   8.183   4.260  0.0662  0.2358  0.0479
18263SOL    HW157809   1.202   8.264   4.312 -0.8199  0.8429 -0.7058
18263SOL    HW257810   1.225   8.206   4.173 -0.0196 -0.2682 -0.1179
18264SOL     OW57811   1.901   7.688   1.000 -0.8473 -0.2487  0.3346
18264SOL    HW157812   1.844   7.703   0.925  0.7736  1.9298 -0.5267
18264SOL    HW257813   1.988   7.679   0.962 -0.0737  0.4012  1.9268
18265SOL     OW57814   8.790   0.663   8.602  0.4572 -0.5523 -0.0230
18265SOL    HW157815   8.703   0.671   8.641  0.3067  0.8697 -0.5950
18265SOL    HW257816   8.850   0.686   8.673  0.2786  0.0364 -0.0578
18266SOL     OW57817   6.708   2.002   4.683 -0.0227 -0.6063  0.5075
18266SOL    HW157818   6.743   1.920   4.648 -1.1536 -1.0159  0.3210
18266SOL    HW257819   6.778   2.035   4.739  0.3403 -1.8541  0.8206
18267SOL     OW57820   6.198   2.621   0.650 -0.0160  0.4059 -0.1997
18267SOL    HW157821   6.160   2.623   0.738  2.2141 -0.6787  0.8209
18267SOL    HW257822   6.122   2.624   0.592 -1.5097  1.7263  1.7331
18268SOL     OW57823   5.059   2.473   6.449 -0.0624  0.0926 -0.4540
18268SOL    HW157824   5.040   2.512   6.534 -0.3068  0.2957 -0.6022
18268SOL    HW257825   4.997   2.401   6.441 -0.2162  0.2387 -0.5753
18269SOL     OW57826   5.026   2.993   8.860 -0.0280 -0.0163  0.0529
18269SOL    HW157827   5.044   3.036   8.776  1.2678 -2.7459 -1.1192
18269SOL    HW257828   4.983   3.061   8.912  1.5787  2.5930 -1.8568
18270SOL     OW57829   6.902   6.557   7.261  0.5928  0.4496  0.0527
18270SOL    HW157830   6.973   6.507   7.303 -0.0903  0.2312  0.9489
18270SOL    HW257831   6.883   6.507   7.181  0.3655 -0.3711  0.6140
18271SOL     OW57832   2.296   7.727   5.882  0.0416 -0.4197 -0.0557
18271SOL    HW157833   2.271   7.790   5.815  2.3082 -0.1584 -0.6746
18271SOL    HW257834   2.357   7.774   5.939  0.5723 -1.5840  0.3636
18272SOL     OW57835   7.361   8.180   8.511  0.6017  0.2244 -0.3723
18272SOL    HW157836   7.270   8.149   8.510  0.2776  1.1753 -0.4260
18272SOL    HW257837   7.402   8.132   8.583 -0.0237  0.0337 -0.1436
18273SOL     OW57838   5.108   4.265   5.216  0.3169 -0.3050 -0.3743
18273SOL    HW157839   5.155   4.199   5.165  1.4164  0.6556 -0.6396
18273SOL    HW257840   5.174   4.332   5.235 -0.6123  0.4014  0.4540
18274SOL     OW57841   2.147   6.977   2.977 -0.0801  0.1712 -0.5416
18274SOL    HW157842   2.052   6.983   2.974 -0.0036  0.8282 -2.2167
18274SOL    HW257843   2.167   6.950   3.067 -1.9279 -1.6703 -0.6459
18275SOL     OW57844   5.754   8.885   1.837  0.2002  0.2916 -0.0957
18275SOL    HW157845   5.662   8.870   1.815 -0.1244  0.3076  1.1990
18275SOL    HW257846   5.793   8.918   1.756 -0.4864 -1.5534 -1.2087
18276SOL     OW57847   2.024   6.358   3.075  0.0721 -0.0617 -0.2438
18276SOL    HW157848   2.076   6.299   3.020  0.0040 -0.2889 -0.0628
18276SOL    HW257849   2.088   6.415   3.116  0.0645  0.6322 -1.1811
18277SOL     OW57850   1.875   2.196   8.109  0.2413  0.0457 -0.1785
18277SOL    HW157851   1.872   2.292   8.115  1.4696  0.4374 -4.4004
18277SOL    HW257852   1.967   2.174   8.124  0.6501 -0.1146 -2.7671
18278SOL     OW57853   7.780   3.373   0.679 -0.0129 -0.1779  0.2158
18278SOL    HW157854   7.697   3.349   0.637  0.4939 -0.1371 -0.8168
18278SOL    HW257855   7.806   3.455   0.637  0.7546 -0.4026  0.2346
18279SOL     OW57856   4.795   2.529   6.943  0.0937 -0.4011  0.7442
18279SOL    HW157857   4.799   2.515   6.849 -0.5294  1.0546  0.4864
18279SOL    HW257858   4.885   2.548   6.968  0.0771  0.3053  0.2657
18280SOL     OW57859   6.295   3.208   0.927  0.1553 -0.5866  0.1347
18280SOL    HW157860   6.309   3.297   0.960 -0.3485 -0.3252 -0.3339
18280SOL    HW257861   6.256   3.222   0.841 -1.6949 -1.2859  0.8548
18281SOL     OW57862   8.680   2.158   3.232 -0.4032  0.0036 -0.4542
18281SOL    HW157863   8.613   2.153   3.300  0.8620  1.6699  0.9409
18281SOL    HW257864   8.750   2.211   3.270  1.1118 -0.5348 -2.4003
18282SOL     OW57865   0.923   5.930   7.823  0.0954  0.2087  0.2819
18282SOL    HW157866   0.864   6.005   7.832  1.2537  1.2300 -0.5120
18282SOL    HW257867   0.902   5.894   7.736  0.1511  0.1407  0.2972
18283SOL     OW57868   7.149   2.982   1.312  0.3303  0.0735  0.6581
18283SOL    HW157869   7.186   2.894   1.322 -1.0122 -0.5936 -0.0365
18283SOL    HW257870   7.204   3.024   1.246  0.6187 -0.4636  0.5474
18284SOL     OW57871   2.274   3.419   7.941 -0.6062 -0.6169  0.7324
18284SOL    HW157872   2.193   3.367   7.933 -2.2777  1.5396  2.7894
18284SOL    HW257873   2.321   3.378   8.014 -1.3308 -0.0380  1.5389
18285SOL     OW57874   8.718   8.933   5.911 -0.3870  0.0470  0.2050
18285SOL    HW157875   8.676   8.990   5.975  2.8237  1.8083  0.8650
18285SOL    HW257876   8.685   8.964   5.826 -0.5013  1.3739  0.7127
18286SOL     OW57877   3.613   8.462   4.994 -0.3873  0.4027  0.0398
18286SOL    HW157878   3.596   8.556   4.991 -0.6651  0.3321 -0.8076
18286SOL    HW257879   3.528   8.422   5.010 -0.7508  0.1539 -2.3337
18287SOL     OW57880   7.843   2.879   7.407 -0.3640 -0.4022 -0.8038
18287SOL    HW157881   7.860   2.966   7.370 -1.5221 -0.2342 -0.9666
18287SOL    HW257882   7.857   2.890   7.501  0.5183 -0.3020 -0.9448
18288SOL     OW57883   2.243   0.264   2.997  0.1027 -0.4070  0.0664
18288SOL    HW157884   2.336   0.245   3.006  0.5456  0.8278 -1.7548
18288SOL    HW257885   2.199   0.184   3.025  1.6890 -0.8800  1.2592
18289SOL     OW57886   7.975   0.129   5.657 -0.2331  0.1628 -0.0460
18289SOL    HW157887   7.935   0.213   5.633 -0.2761  0.3904  0.8067
18289SOL    HW257888   7.961   0.073   5.581 -0.7407  0.7428 -0.3848
18290SOL     OW57889   4.789   6.370   4.703  0.0647 -0.0608 -0.3574
18290SOL    HW157890   4.714   6.359   4.762  0.5834 -0.0453  0.3098
18290SOL    HW257891   4.809   6.464   4.706 -0.3450  0.0549 -1.1035
18291SOL     OW57892   3.442   4.838   2.940  0.6969  0.3867 -0.3417
18291SOL    HW157893   3.414   4.929   2.941  2.9973  1.1266 -0.1198
18291SOL    HW257894   3.503   4.830   3.013  0.7415 -1.2578 -0.5249
18292SOL     OW57895   4.189   8.463   0.164  0.1062 -0.2870  0.3106
18292SOL    HW157896   4.255   8.522   0.201 -0.7929  0.4144  0.8480
18292SOL    HW257897   4.176   8.494   0.075 -1.0285  0.9450  0.8770
18293SOL     OW57898   8.307   8.879   4.526 -0.3111 -0.7975  0.1180
18293SOL    HW157899   8.313   8.816   4.597 -0.1491  0.2497  1.0577
18293SOL    HW257900   8.215   8.904   4.524  0.0152  0.5531  1.2041
18294SOL     OW57901   0.995   9.023   2.464  0.3159 -0.1395 -0.3380
18294SOL    HW157902   0.918   8.969   2.444  0.2314 -0.0138 -0.3580
18294SOL    HW257903   1.070   8.965   2.450  0.2321 -0.2106 -0.4950
18295SOL     OW57904   0.098   6.494   1.652 -0.3691  0.3998  0.1111
18295SOL    HW157905   0.073   6.580   1.617  0.7773  1.0858  0.9201
18295SOL    HW257906   0.067   6.494   1.742  2.3364  1.2287  1.0942
18296SOL     OW57907   7.980   1.781   4.319 -0.4109  0.1749  0.4464
18296SOL    HW157908   7.980   1.689   4.291 -0.2572  0.7573 -1.5636
18296SOL    HW257909   7.887   1.801   4.332 -0.6513  0.4062 -1.4950
18297SOL     OW57910   3.459   8.289   3.021 -0.4472 -0.8995 -0.1229
18297SOL    HW157911   3.481   8.241   3.101  0.7677 -0.2908 -0.0819
18297SOL    HW257912   3.525   8.357   3.015 -0.5560 -0.9131 -1.6313
18298SOL     OW57913   1.257   6.421   1.491 -0.3012  0.7037  0.6172
18298SOL    HW157914   1.301   6.487   1.545 -0.2228  0.4256  0.8974
18298SOL    HW257915   1.279   6.445   1.401 -0.4153  1.1571  0.7079
18299SOL     OW57916   5.564   7.340   3.679  0.2542  0.1545  0.7486
18299SOL    HW157917   5.523   7.261   3.713  1.6685 -1.3325 -0.9062
18299SOL    HW257918   5.652   7.313   3.654 -0.2946  1.4254 -2.9311
18300SOL     OW57919   3.273   2.674   3.682 -0.3058  0.0330  0.2694
18300SOL    HW157920   3.223   2.622   3.620  0.7889 -1.4602  0.5975
18300SOL    HW257921   3.362   2.638   3.677 -0.4233 -0.8892  3.4873
18301SOL     OW57922   3.689   4.675   8.308 -0.4107  0.0428  0.1463
18301SOL    HW157923   3.623   4.668   8.376 -1.3654 -2.1078 -0.9450
18301SOL    HW257924   3.641   4.703   8.230  0.3629  0.6816 -0.1155
18302SOL     OW57925   0.571   7.690   8.676  0.3980  0.5926 -0.7523
18302SOL    HW157926   0.623   7.643   8.610 -0.6413  0.7344 -1.6756
18302SOL    HW257927   0.499   7.729   8.627  1.8446  4.1321 -0.1914
18303SOL     OW57928   0.161   4.428   9.254 -0.3971  0.3754  0.0047
18303SOL    HW157929   0.252   4.410   9.233  0.5571  3.1091  1.6319
18303SOL    HW257930   0.130   4.348   9.296  1.5691 -0.1421  0.5132
18304SOL     OW57931   8.566   7.477   2.072 -0.2515 -0.4189 -0.1630
18304SOL    HW157932   8.637   7.486   2.009 -0.6388 -1.1139 -0.6980
18304SOL    HW257933   8.603   7.426   2.144  0.1658  0.3094  0.1469
18305SOL     OW57934   1.856   0.997   5.931  0.2873 -0.0984  0.2071
18305SOL    HW157935   1.905   0.947   5.997  2.0740 -1.4661 -2.0924
18305SOL    HW257936   1.788   0.937   5.900  0.7318 -0.1706 -0.6421
18306SOL     OW57937   5.366   5.912   5.474 -0.1938 -0.1346  0.3759
18306SOL    HW157938   5.339   5.996   5.510  0.7923 -0.7012  2.4977
18306SOL    HW257939   5.417   5.935   5.396 -0.2292  1.2171  0.7472
18307SOL     OW57940   2.156   0.187   2.709 -0.0518 -0.0555 -0.3918
18307SOL    HW157941   2.225   0.202   2.774 -1.8240  1.1844  1.2373
18307SOL    HW257942   2.203   0.183   2.626  2.2241 -1.3311  0.8828
18308SOL     OW57943   3.965   2.616   4.323 -0.5527 -0.2215  0.8981
18308SOL    HW157944   3.974   2.709   4.344 -0.0885 -0.1467  0.3791
18308SOL    HW257945   4.010   2.571   4.394  1.2347  0.0403 -0.0424
18309SOL     OW57946   1.475   9.221   8.821  0.8072  0.5379  0.0676
18309SOL    HW157947   1.464   9.169   8.900  0.1602 -0.9309 -0.9646
18309SOL    HW257948   1.499   9.158   8.754 -0.8502  1.4191 -1.4153
18310SOL     OW57949   2.171   7.922   5.687 -0.3151 -0.1914  0.0346
18310SOL    HW157950   2.223   7.963   5.617  0.9581  0.5156  1.3568
18310SOL    HW257951   2.099   7.984   5.702  0.5208  0.6450  0.6940
18311SOL     OW57952   3.623   4.885   3.150 -0.3359 -0.4725 -0.1636
18311SOL    HW157953   3.677   4.954   3.111  0.1321 -0.3149  0.7422
18311SOL    HW257954   3.544   4.931   3.179 -0.2767 -0.4201 -0.0838
18312SOL     OW57955   2.136   3.296   1.895 -0.7799  0.5009  0.0083
18312SOL    HW157956   2.054   3.255   1.924 -0.8573  0.0671 -0.8046
18312SOL    HW257957   2.195   3.223   1.879  0.3648  0.8892  2.3115
18313SOL     OW57958   9.210   6.183   8.384  0.4167  0.5024  0.9275
18313SOL    HW157959   9.154   6.175   8.462 -0.1014  0.2442  0.5307
18313SOL    HW257960   9.259   6.264   8.399 -0.0323  0.7118  1.3060
18314SOL     OW57961   0.729   8.929   4.095  0.2924  0.2827  0.1728
18314SOL    HW157962   0.658   8.873   4.064 -0.1179 -0.5677  2.5407
18314SOL    HW257963   0.804   8.906   4.040  0.1669 -2.7372  1.1725
18315SOL     OW57964   3.425   2.223   4.778  0.7162 -0.4796 -0.5807
18315SOL    HW157965   3.512   2.214   4.816 -0.1783 -0.8995  1.4209
18315SOL    HW257966   3.438   2.281   4.703  2.8598 -1.2242 -0.8201
18316SOL     OW57967   9.062   3.752   3.462  0.2189 -0.0358  0.2340
18316SOL    HW157968   8.967   3.750   3.478  0.3562  0.3104  1.0855
18316SOL    HW257969   9.085   3.660   3.448 -0.7537  0.1490 -3.0292
18317SOL     OW57970   1.584   0.656   0.265  0.3611 -0.0396  0.3946
18317SOL    HW157971   1.659   0.623   0.314  0.8838 -1.7136 -1.4782
18317SOL    HW257972   1.508   0.631   0.319  1.0244 -0.2720  1.2307
18318SOL     OW57973   0.783   9.055   1.508 -0.3201 -0.7516  0.1581
18318SOL    HW157974   0.826   9.068   1.592 -1.1594 -3.6011  1.0805
18318SOL    HW257975   0.691   9.076   1.524 -0.0349  1.3384 -0.7719
18319SOL     OW57976   1.486   5.504   1.794 -0.5619  0.5298 -0.6580
18319SOL    HW157977   1.458   5.493   1.704 -1.0311  0.8892 -0.5596
18319SOL    HW257978   1.492   5.416   1.830 -0.4795  0.3955 -1.0082
18320SOL     OW57979   1.951   1.770   4.364  0.0285 -0.2572 -0.0564
18320SOL    HW157980   1.857   1.783   4.376 -0.5099 -2.4199 -1.6597
18320SOL    HW257981   1.992   1.827   4.429 -2.3447  2.1126 -0.5489
18321SOL     OW57982   0.671   7.151   2.569 -0.0473 -0.7379  0.5572
18321SOL    HW157983   0.656   7.138   2.663 -1.2476  0.3844  0.5248
18321SOL    HW257984   0.587   7.134   2.528 -0.0920  0.9576 -0.0981
18322SOL     OW57985   3.320   3.900   1.733 -0.0310 -0.2448  0.0646
18322SOL    HW157986   3.233   3.935   1.713  0.4725  0.1889 -1.4090
18322SOL    HW257987   3.306   3.805   1.737 -0.2817 -0.3042 -1.7614
18323SOL     OW57988   9.332   6.282   6.414 -0.6556  0.0587 -0.6217
18323SOL    HW157989   9.404   6.336   6.381 -0.4763 -0.6048 -1.3033
18323SOL    HW257990   9.359   6.258   6.503  0.5042 -1.1685 -1.2922
18324SOL     OW57991   7.802   3.373   0.948 -0.9370 -0.1268  0.2691
18324SOL    HW157992   7.761   3.398   0.865 -2.6267  0.4125  1.2452
18324SOL    HW257993   7.874   3.435   0.959  0.6941 -1.5841 -1.8550
18325SOL     OW57994   9.269   0.272   9.346 -0.3944  0.9148  0.1933
18325SOL    HW157995   9.227   0.203   9.396  1.2948  0.2500  0.7382
18325SOL    HW257996   9.311   0.327   9.412 -0.4223  1.5717 -0.3303
18326SOL     OW57997   7.247   0.606   7.923  0.1907  0.6470  0.0615
18326SOL    HW157998   7.252   0.691   7.965 -3.2387  1.3723 -0.8342
18326SOL    HW257999   7.176   0.560   7.968  0.0793 -0.6085 -1.3288
18327SOL     OW58000   7.979   6.126   2.208  0.3139  0.2534  0.1970
18327SOL    HW158001   8.070   6.152   2.196  0.1120  0.6777 -0.4572
18327SOL    HW258002   7.980   6.070   2.285  1.0542  0.6557  0.4873
18328SOL     OW58003   8.129   2.594   8.632 -0.3121 -0.6990  0.1909
18328SOL    HW158004   8.101   2.554   8.714 -1.0599  1.0485  0.8200
18328SOL    HW258005   8.218   2.624   8.650 -0.9137  0.8039  0.8230
18329SOL     OW58006   8.194   3.312   1.710 -0.0559  0.2578 -0.1028
18329SOL    HW158007   8.112   3.280   1.671 -0.3160  0.7359  0.0418
18329SOL    HW258008   8.196   3.405   1.686 -0.8486  0.8696  2.0821
18330SOL     OW58009   9.365   7.246   0.190 -0.3125  0.3068  0.0272
18330SOL    HW158010   9.411   7.319   0.232 -2.1919  2.1320 -0.9382
18330SOL    HW258011   9.285   7.235   0.241 -0.5288 -0.3715 -0.4532
18331SOL     OW58012   3.695   2.721   6.732  0.1312  0.2538 -0.9329
18331SOL    HW158013   3.705   2.711   6.637  1.0248 -1.1547 -0.7109
18331SOL    HW258014   3.702   2.815   6.747 -2.3294  0.7507 -2.5136
18332SOL     OW58015   1.239   6.175   1.177 -0.2522  0.0137 -0.0125
18332SOL    HW158016   1.245   6.268   1.200  3.3825 -0.7866  2.7009
18332SOL    HW258017   1.315   6.159   1.121 -0.2166 -1.5355  0.4519
18333SOL     OW58018   2.315   6.687   6.113 -0.1293  0.0405 -0.4064
18333SOL    HW158019   2.237   6.642   6.146 -0.3747  1.2987  0.8216
18333SOL    HW258020   2.386   6.659   6.170 -0.4126  1.6599  0.8004
18334SOL     OW58021   7.294   2.913   3.129 -0.1912  0.3263 -0.4637
18334SOL    HW158022   7.377   2.949   3.100  0.5420 -0.2253  0.8967
18334SOL    HW258023   7.301   2.819   3.110 -0.6445  0.3316 -0.6625
18335SOL     OW58024   4.259   5.973   9.175 -0.5184  0.0874  0.0531
18335SOL    HW158025   4.350   5.990   9.150 -0.7446  0.4103 -0.5750
18335SOL    HW258026   4.263   5.954   9.268  0.1932  0.1160  0.0338
18336SOL     OW58027   0.711   4.267   3.746  0.4035 -0.1248  0.1197
18336SOL    HW158028   0.750   4.352   3.769  1.7013 -0.7047  0.0766
18336SOL    HW258029   0.729   4.258   3.652  0.7659 -0.7199  0.2510
18337SOL     OW58030   8.760   3.740   3.480  0.0592 -0.1482  0.0965
18337SOL    HW158031   8.674   3.775   3.503 -0.0804 -0.9781  0.8363
18337SOL    HW258032   8.758   3.649   3.508  1.1178 -0.2234 -0.0386
18338SOL     OW58033   1.569   7.487   8.347  0.3731  0.0019 -0.3219
18338SOL    HW158034   1.566   7.518   8.438  2.1186  0.9678 -0.5834
18338SOL    HW258035   1.512   7.409   8.347 -0.6363  0.7061  1.3076
18339SOL     OW58036   5.928   0.084   7.438  0.0350 -0.0599  0.0920
18339SOL    HW158037   5.865   0.051   7.374  1.5176 -0.0329 -1.4066
18339SOL    HW258038   5.957   0.006   7.485 -0.3502 -0.2039  0.0941
18340SOL     OW58039   3.388   8.035   8.123  0.0499 -0.1225  0.3237
18340SOL    HW158040   3.365   8.120   8.160 -2.3191 -0.7934  0.5172
18340SOL    HW258041   3.326   8.023   8.051  0.7593 -1.4221 -0.0869
18341SOL     OW58042   7.177   4.387   1.812 -0.3505  0.0697 -0.3547
18341SOL    HW158043   7.183   4.478   1.781 -0.2057  0.4096  0.6403
18341SOL    HW258044   7.085   4.375   1.835 -1.0413 -1.0720 -3.5134
18342SOL     OW58045   2.330   7.765   8.576 -0.1712  0.3527  0.6491
18342SOL    HW158046   2.264   7.702   8.548  0.0101  0.6454 -0.4704
18342SOL    HW258047   2.412   7.715   8.577 -0.0101  0.5909 -0.3393
18343SOL     OW58048   6.969   1.900   9.133 -0.2855 -0.4920  0.3376
18343SOL    HW158049   7.037   1.908   9.067 -0.2011  0.0878  0.4978
18343SOL    HW258050   7.002   1.950   9.208 -0.8208 -0.3317  0.4675
18344SOL     OW58051   8.035   1.435   3.397 -0.0757  0.1915 -0.0045
18344SOL    HW158052   8.114   1.481   3.367  0.4936  0.5134  1.8823
18344SOL    HW258053   8.065   1.345   3.414 -0.4040 -0.0070 -0.4827
18345SOL     OW58054   7.088   5.508   7.985  0.2828 -0.2807  0.1278
18345SOL    HW158055   6.993   5.511   7.994  0.0738  0.2617 -2.0907
18345SOL    HW258056   7.120   5.570   8.051 -0.8462 -0.8904  1.2710
18346SOL     OW58057   3.275   0.322   5.015 -0.0059 -0.3214 -0.4804
18346SOL    HW158058   3.242   0.299   4.929  1.3895  1.1105 -1.4184
18346SOL    HW258059   3.200   0.363   5.059 -0.9405 -1.7561 -0.7143
18347SOL     OW58060   0.011   1.626   8.291 -0.3919  0.3071  0.2304
18347SOL    HW158061   0.035   1.717   8.306 -0.0771  0.8483 -3.0058
18347SOL    HW258062   0.084   1.590   8.242 -2.1958 -0.5253 -1.9784
18348SOL     OW58063   8.986   5.862   0.250 -0.0691 -0.5576 -0.5541
18348SOL    HW158064   9.075   5.884   0.223 -0.5997 -0.4060 -2.2634
18348SOL    HW258065   8.934   5.938   0.222 -0.7556 -0.6821  0.3582
18349SOL     OW58066   1.118   9.116   5.910  0.9389  0.3818  0.0740
18349SOL    HW158067   1.151   9.038   5.865 -0.1158 -0.5058  0.7973
18349SOL    HW258068   1.167   9.120   5.992 -0.1349 -0.4659  0.7731
18350SOL     OW58069   6.515   9.188   7.256  0.0493  0.2549  0.5793
18350SOL    HW158070   6.534   9.096   7.273 -2.0064  0.0006  1.7000
18350SOL    HW258071   6.584   9.236   7.302  1.0947 -0.7095  0.0347
18351SOL     OW58072   4.773   9.395   4.484  0.2207  0.2444 -0.3378
18351SOL    HW158073   4.846   9.412   4.543  0.6248  1.8679 -1.2534
18351SOL    HW258074   4.801   9.433   4.400 -0.1432 -2.3819 -1.7063
18352SOL     OW58075   1.377   8.024   7.190  0.2689 -0.3110  0.0407
18352SOL    HW158076   1.289   7.994   7.169  0.5948 -1.3266  0.0534
18352SOL    HW258077   1.403   7.970   7.265  0.3216  1.0529  1.0124
18353SOL     OW58078   6.004   4.066   8.096  0.0346  0.4316 -0.5562
18353SOL    HW158079   5.940   4.132   8.072 -1.5924 -1.2658 -1.0557
18353SOL    HW258080   6.007   4.007   8.021  1.6431  0.0668 -0.2317
18354SOL     OW58081   6.381   3.578   3.028  0.0338  0.5018 -0.8518
18354SOL    HW158082   6.363   3.569   3.122  0.1288 -1.5787 -1.0062
18354SOL    HW258083   6.452   3.641   3.024  0.7233 -0.1432  0.5681
18355SOL     OW58084   2.047   2.928   2.072 -0.4601 -0.2652 -0.1290
18355SOL    HW158085   2.077   2.928   2.163  1.6695 -1.7786 -0.7891
18355SOL    HW258086   1.971   2.987   2.072  0.3002  0.7929  2.3450
18356SOL     OW58087   5.648   4.767   3.484 -0.8168  0.5455  0.6202
18356SOL    HW158088   5.647   4.682   3.440 -0.1148  0.2047  1.2750
18356SOL    HW258089   5.557   4.779   3.513 -0.8911 -0.0263  0.6344
18357SOL     OW58090   8.698   3.565   5.800 -0.1992 -0.3420  0.6207
18357SOL    HW158091   8.794   3.557   5.799 -0.2758 -1.3615 -0.6326
18357SOL    HW258092   8.678   3.619   5.724 -0.5832  0.5560  1.3505
18358SOL     OW58093   8.856   7.361   6.405  0.3759  0.0512 -0.1974
18358SOL    HW158094   8.779   7.305   6.395  1.1226 -1.0523  0.1472
18358SOL    HW258095   8.858   7.413   6.324 -0.8170  0.2079 -0.1351
18359SOL     OW58096   4.514   1.347   0.419 -0.1225 -0.7520  0.2677
18359SOL    HW158097   4.510   1.328   0.325 -2.8043  0.9685 -0.0198
18359SOL    HW258098   4.479   1.268   0.461 -1.5135 -0.4898 -0.3600
18360SOL     OW58099   8.063   8.092   7.281  0.5188  0.1076 -0.2486
18360SOL    HW158100   8.087   8.183   7.298 -0.7752  0.7466 -1.7029
18360SOL    HW258101   7.999   8.072   7.348  1.2384  0.0678  0.4380
18361SOL     OW58102   8.395   7.806   5.550  0.6230  0.6125 -0.1379
18361SOL    HW158103   8.380   7.799   5.644 -1.9421  1.9378 -0.4044
18361SOL    HW258104   8.484   7.841   5.543  0.8323  0.5389  1.7725
18362SOL     OW58105   9.093   1.162   1.869 -0.3240 -0.4249 -0.4093
18362SOL    HW158106   9.087   1.255   1.888  0.7451 -0.3694 -0.3126
18362SOL    HW258107   9.062   1.118   1.948  0.2475 -0.1568 -0.0345
18363SOL     OW58108   8.851   7.683   2.596 -0.1873  0.3404  0.0706
18363SOL    HW158109   8.805   7.603   2.572 -0.7032  0.1719  1.5578
18363SOL    HW258110   8.892   7.713   2.515 -2.0406 -0.0854 -1.0396
18364SOL     OW58111   8.450   7.161   1.250  0.0816  0.2479 -0.4137
18364SOL    HW158112   8.438   7.193   1.339  1.0568  0.2367 -0.2686
18364SOL    HW258113   8.481   7.071   1.260 -1.8738 -0.4795 -0.8075
18365SOL     OW58114   3.182   0.590   2.279  0.0435  0.7036  0.3581
18365SOL    HW158115   3.260   0.557   2.234  0.0554  0.4296  0.5791
18365SOL    HW258116   3.193   0.562   2.370 -1.6553 -1.7668 -0.1730
18366SOL     OW58117   1.479   4.443   9.208 -0.4722 -0.2412 -0.2105
18366SOL    HW158118   1.564   4.400   9.212 -0.3311  0.1483  1.6673
18366SOL    HW258119   1.498   4.536   9.224 -1.2675 -0.1962  0.5664
18367SOL     OW58120   1.653   6.954   8.873 -0.6862  0.0252  0.3919
18367SOL    HW158121   1.567   6.957   8.915 -0.5923 -0.9072  0.6739
18367SOL    HW258122   1.639   6.904   8.792 -0.5222  0.3251  0.1813
18368SOL     OW58123   0.530   7.366   3.127 -0.0227  0.1585 -0.1009
18368SOL    HW158124   0.439   7.349   3.152  0.0481  1.4480  1.0929
18368SOL    HW258125   0.543   7.459   3.146  0.7686  0.6383 -2.7243
18369SOL     OW58126   6.354   0.998   7.160  0.5437  0.1576 -0.1287
18369SOL    HW158127   6.362   0.986   7.255  0.9750  0.4354 -0.1309
18369SOL    HW258128   6.383   0.915   7.123 -0.1949 -0.1631  0.0038
18370SOL     OW58129   4.436   3.893   5.728  0.8733  0.3158  0.5305
18370SOL    HW158130   4.472   3.873   5.641  2.2228  2.6180  0.5031
18370SOL    HW258131   4.487   3.839   5.788  0.4506 -0.7274 -0.0425
18371SOL     OW58132   8.152   8.885   2.931  0.6246  0.4416 -0.2034
18371SOL    HW158133   8.229   8.846   2.972 -0.8312 -1.3231  0.9429
18371SOL    HW258134   8.096   8.910   3.005 -0.3299  0.8130 -1.0351
18372SOL     OW58135   0.888   4.370   5.868  0.9184 -0.0281 -0.4143
18372SOL    HW158136   0.927   4.288   5.836  1.3225 -0.6523  1.6303
18372SOL    HW258137   0.960   4.434   5.863  0.3288  0.4757 -2.9595
18373SOL     OW58138   4.744   0.702   0.501 -0.2452 -0.6272 -0.0929
18373SOL    HW158139   4.735   0.768   0.433  1.4422 -0.3430 -0.0610
18373SOL    HW258140   4.760   0.620   0.453  0.5368 -0.5004 -0.0436
18374SOL     OW58141   7.710   7.388   5.482 -0.5544 -0.1059  0.0330
18374SOL    HW158142   7.684   7.326   5.551  0.3478 -0.4062  0.1051
18374SOL    HW258143   7.651   7.463   5.493  1.6583  1.2428  3.1340
18375SOL     OW58144   8.105   6.894   9.246  0.0321 -0.6318 -0.2899
18375SOL    HW158145   8.198   6.871   9.250 -0.0456 -1.0999 -1.0941
18375SOL    HW258146   8.060   6.818   9.282 -0.1735 -1.4146 -2.1313
18376SOL     OW58147   8.660   4.818   0.750  0.3826 -0.4844 -0.1555
18376SOL    HW158148   8.728   4.752   0.766  1.8901  1.5161  1.9970
18376SOL    HW258149   8.702   4.881   0.692  0.0273  0.2224  0.3535
18377SOL     OW58150   3.980   4.693   1.097  0.8319  0.2249  0.1669
18377SOL    HW158151   3.968   4.785   1.122  0.1807  0.1754  0.0511
18377SOL    HW258152   4.057   4.665   1.146  2.4110  1.4624 -1.5091
18378SOL     OW58153   7.661   9.206   2.384 -0.0905 -0.6933  0.1984
18378SOL    HW158154   7.697   9.195   2.295  1.3785 -1.6783  0.8938
18378SOL    HW258155   7.738   9.209   2.440 -1.0716 -1.8148  1.6222
18379SOL     OW58156   2.931   1.666   0.971  0.2208 -0.6810 -0.5641
18379SOL    HW158157   3.025   1.655   0.957  0.4314 -2.1500  1.6728
18379SOL    HW258158   2.901   1.581   1.003 -1.7327 -0.0171 -0.5357
18380SOL     OW58159   8.731   4.326   2.899  0.0176 -0.2587  0.2453
18380SOL    HW158160   8.671   4.252   2.892 -0.4556  0.2039 -0.6996
18380SOL    HW258161   8.818   4.287   2.894 -0.2348 -0.7367 -0.4166
18381SOL     OW58162   9.371   2.686   1.743 -0.5436  0.4251  0.3519
18381SOL    HW158163   9.279   2.703   1.762 -0.3094 -0.1769  2.1187
18381SOL    HW258164   9.405   2.645   1.823  0.2441 -3.2035 -1.7056
18382SOL     OW58165   5.193   7.971   5.285 -0.1890 -0.1637 -0.3083
18382SOL    HW158166   5.177   7.882   5.316 -0.2776 -0.3171 -0.7990
18382SOL    HW258167   5.111   8.017   5.300  0.7133  0.6294  2.6700
18383SOL     OW58168   1.557   2.878   2.010 -0.6768  0.0571  0.6427
18383SOL    HW158169   1.550   2.920   1.924  0.7058  0.9200  0.9272
18383SOL    HW258170   1.507   2.797   2.002  0.0048 -0.2079 -1.1897
18384SOL     OW58171   0.652   2.969   1.449 -0.1532  0.1540  0.1051
18384SOL    HW158172   0.746   2.973   1.466 -0.1274 -1.6109  0.5045
18384SOL    HW258173   0.640   3.018   1.368  1.2033 -0.1291 -0.2795
18385SOL     OW58174   2.384   6.367   0.151 -0.0321  0.1816 -0.4266
18385SOL    HW158175   2.402   6.432   0.220  1.1092 -0.7728  0.1968
18385SOL    HW258176   2.364   6.286   0.199  1.3523 -0.6419 -1.2015
18386SOL     OW58177   3.135   9.376   5.136  0.0603  1.0668  0.1735
18386SOL    HW158178   3.209   9.432   5.114  1.9015 -1.6847 -0.8304
18386SOL    HW258179   3.154   9.343   5.224  1.1561 -1.3498 -0.9318
18387SOL     OW58180   3.711   4.115   2.327  0.0945  0.2446 -0.2513
18387SOL    HW158181   3.637   4.112   2.267  0.0133 -0.9321 -0.0949
18387SOL    HW258182   3.709   4.204   2.364 -0.1171  0.8345 -1.6458
18388SOL     OW58183   2.044   7.317   1.310  0.5473 -0.3229 -0.1662
18388SOL    HW158184   2.030   7.343   1.219  0.7459  1.2336  0.2240
18388SOL    HW258185   2.026   7.396   1.360 -0.9105 -1.5404  1.2702
18389SOL     OW58186   7.828   7.703   5.429 -0.0850  0.3408 -0.2171
18389SOL    HW158187   7.799   7.705   5.338 -0.0892 -0.5305 -0.2414
18389SOL    HW258188   7.918   7.670   5.424 -0.4341 -0.6814  0.1744
18390SOL     OW58189   1.503   6.271   1.685 -0.2108  0.2010  0.2145
18390SOL    HW158190   1.429   6.316   1.726 -0.4884  0.0411 -0.1128
18390SOL    HW258191   1.471   6.245   1.599 -1.2427 -3.8748  1.7226
18391SOL     OW58192   2.789   5.895   8.210  0.0235 -0.6444  0.3736
18391SOL    HW158193   2.756   5.931   8.293  0.9267 -0.2807  0.5823
18391SOL    HW258194   2.777   5.800   8.219 -0.0038 -0.5974  0.8641
18392SOL     OW58195   5.134   2.383   0.997  0.3214  0.5504 -0.0195
18392SOL    HW158196   5.068   2.328   0.954  0.8922  0.0992 -0.3304
18392SOL    HW258197   5.124   2.469   0.957  0.9044  0.1148 -1.1400
18393SOL     OW58198   6.351   6.486   2.965  0.1462  0.2787 -0.1888
18393SOL    HW158199   6.382   6.520   2.882  0.8808  0.1679  0.0348
18393SOL    HW258200   6.294   6.554   3.000 -1.2408 -0.2425 -1.4061
18394SOL     OW58201   7.867   3.675   4.454 -0.8683  0.0979  0.0917
18394SOL    HW158202   7.887   3.661   4.361  1.6278 -0.8286  0.7537
18394SOL    HW258203   7.859   3.587   4.491 -1.9356  0.4616  0.7725
18395SOL     OW58204   4.038   0.822   8.435  0.2152  0.4373  0.3111
18395SOL    HW158205   4.109   0.798   8.375  0.8212  1.8595  0.4418
18395SOL    HW258206   4.007   0.907   8.403 -0.9061  0.1902  0.7238
18396SOL     OW58207   1.068   9.163   3.033  0.1714  0.2469 -0.2582
18396SOL    HW158208   1.104   9.228   2.973  2.4511 -0.1943  0.5839
18396SOL    HW258209   1.090   9.079   2.993  1.8797 -0.0537  1.2449
18397SOL     OW58210   4.989   8.679   9.223 -0.1817  0.0441 -0.2422
18397SOL    HW158211   5.005   8.606   9.283 -0.1079 -0.6178 -1.0501
18397SOL    HW258212   4.906   8.657   9.181  0.2095  0.0502 -1.0307
18398SOL     OW58213   3.336   2.145   8.990 -0.5587  0.4723 -0.3163
18398SOL    HW158214   3.397   2.072   8.985 -1.4884 -0.4214  1.2064
18398SOL    HW258215   3.249   2.105   8.988 -1.1154  1.7094 -2.0129
18399SOL     OW58216   2.513   4.163   3.414 -0.0158  0.4010 -0.5560
18399SOL    HW158217   2.424   4.197   3.405 -1.3273 -2.5961  0.3664
18399SOL    HW258218   2.543   4.149   3.324 -0.8234  0.5999 -0.8530
18400SOL     OW58219   9.316   7.576   2.199 -0.1105  0.3330  0.1900
18400SOL    HW158220   9.409   7.561   2.210 -0.0699 -1.4979 -2.3340
18400SOL    HW258221   9.275   7.527   2.271  0.6375 -2.9605 -1.5562
18401SOL     OW58222   7.213   1.391   6.174  0.2944  0.3761  0.0890
18401SOL    HW158223   7.152   1.464   6.188  0.5724  0.6955 -0.3667
18401SOL    HW258224   7.225   1.388   6.079 -0.9415 -1.2665 -0.0329
18402SOL     OW58225   6.069   3.649   3.750 -0.7465 -0.1168  0.1632
18402SOL    HW158226   6.112   3.731   3.725  0.2939 -0.6150  0.2967
18402SOL    HW258227   6.141   3.592   3.776 -1.5731 -0.6173  1.3741
18403SOL     OW58228   5.789   5.628   3.060  0.0149 -0.3269 -0.2987
18403SOL    HW158229   5.859   5.687   3.031 -0.4664 -0.0363 -0.8789
18403SOL    HW258230   5.710   5.662   3.019 -0.1315 -1.9022 -1.3679
18404SOL     OW58231   4.898   1.814   8.438 -0.6197  0.2497  0.0404
18404SOL    HW158232   4.814   1.820   8.482 -0.2230  1.4531  0.6727
18404SOL    HW258233   4.962   1.809   8.509 -0.0376  1.3142 -0.4025
18405SOL     OW58234   3.958   7.657   5.783  0.0999 -0.3413  0.2276
18405SOL    HW158235   3.929   7.728   5.840 -0.0657  0.1059 -0.4199
18405SOL    HW258236   3.936   7.577   5.832 -0.5468  0.0337  0.5549
18406SOL     OW58237   3.941   1.862   2.772  0.2903  0.1321  0.2442
18406SOL    HW158238   3.927   1.951   2.739  0.4788  0.1210  0.1372
18406SOL    HW258239   3.930   1.869   2.867 -1.0898  0.0088  0.1005
18407SOL     OW58240   2.189   1.519   0.132 -0.4162 -0.6349 -0.4415
18407SOL    HW158241   2.179   1.609   0.165  1.3626 -0.9110  0.9294
18407SOL    HW258242   2.270   1.522   0.081 -1.5728 -0.9367 -2.3290
18408SOL     OW58243   1.956   2.542   0.040  0.1921 -0.1659  0.3002
18408SOL    HW158244   1.872   2.503   0.014  0.3442 -1.0362  1.0778
18408SOL    HW258245   2.014   2.522  -0.033  0.4056 -1.8912  0.9106
18409SOL     OW58246   3.490   1.395   8.069 -0.4568  0.2518 -0.0544
18409SOL    HW158247   3.453   1.479   8.044 -1.2089  0.0427  0.3735
18409SOL    HW258248   3.555   1.416   8.136  1.2851  0.7772 -1.8490
18410SOL     OW58249   7.820   3.120   1.218 -0.0350 -0.3613  0.1747
18410SOL    HW158250   7.887   3.063   1.256 -0.4335 -2.1389 -1.6678
18410SOL    HW258251   7.755   3.060   1.182 -1.0972  1.2856 -0.7394
18411SOL     OW58252   4.663   0.264   8.024  0.3880 -0.3984 -0.3441
18411SOL    HW158253   4.730   0.312   7.976  1.3529  1.8178  3.0515
18411SOL    HW258254   4.712   0.197   8.073  0.1306  1.0273  1.9042
18412SOL     OW58255   6.240   0.508   3.833 -0.8794 -0.2428  0.0079
18412SOL    HW158256   6.297   0.546   3.767  0.3006 -1.0689  0.5385
18412SOL    HW258257   6.234   0.416   3.809  1.1955 -0.9843  2.1660
18413SOL     OW58258   7.062   8.044   7.798 -0.2050 -0.1981  0.2743
18413SOL    HW158259   7.099   8.008   7.878 -0.5916 -0.6029  0.2710
18413SOL    HW258260   7.121   8.115   7.774  0.5287 -0.7872  0.3193
18414SOL     OW58261   3.415   8.334   3.543 -0.3915  0.3847  0.0229
18414SOL    HW158262   3.504   8.361   3.521 -0.1694 -0.2492  0.1371
18414SOL    HW258263   3.424   8.289   3.627 -0.8022  0.2082 -0.0272
18415SOL     OW58264   1.754   1.224   0.620 -0.1934  0.4242  0.9355
18415SOL    HW158265   1.753   1.319   0.636 -0.9071  0.4146  0.9654
18415SOL    HW258266   1.667   1.195   0.646 -0.3843 -0.0526 -0.2166
18416SOL     OW58267   6.914   7.551   0.975 -0.4556  0.5452 -0.4340
18416SOL    HW158268   6.937   7.589   1.060  0.2415  1.3889 -0.9979
18416SOL    HW258269   6.944   7.460   0.981  0.6564  0.9139 -0.1957
18417SOL     OW58270   7.192   5.905   4.835 -0.4429 -0.2575 -0.0745
18417SOL    HW158271   7.132   5.844   4.878  1.3945 -1.4697  0.8142
18417SOL    HW258272   7.210   5.866   4.750 -0.5793 -0.0929 -0.1807
18418SOL     OW58273   7.594   0.697   4.009 -0.4504  0.0500  0.1178
18418SOL    HW158274   7.663   0.691   3.943 -0.1014 -0.1553  0.4961
18418SOL    HW258275   7.636   0.740   4.084 -1.1704  1.3804 -0.2179
18419SOL     OW58276   6.696   3.718   3.911 -0.0088  0.7060 -0.1814
18419SOL    HW158277   6.712   3.762   3.994  0.1969  0.6356 -0.1837
18419SOL    HW258278   6.601   3.722   3.900 -0.1062  0.0491  0.4210
18420SOL     OW58279   2.850   5.094   1.964 -0.0548  0.2913 -0.2154
18420SOL    HW158280   2.768   5.112   2.010 -0.2546  1.5517 -1.0199
18420SOL    HW258281   2.852   4.999   1.952 -0.9742  0.1728  0.5732
18421SOL     OW58282   3.810   4.838   4.146 -0.5660 -0.0197  0.4953
18421SOL    HW158283   3.840   4.922   4.111  1.4999 -1.4975 -1.4528
18421SOL    HW258284   3.733   4.815   4.093 -0.8827  0.4526  0.7542
18422SOL     OW58285   2.206   6.455   4.839 -0.0322 -0.3362 -0.4893
18422SOL    HW158286   2.248   6.382   4.795  1.8494 -0.0177  0.7191
18422SOL    HW258287   2.278   6.510   4.871 -1.3772  1.1912  0.0384
18423SOL     OW58288   9.365   6.860   8.559 -0.2164 -0.0364 -0.3857
18423SOL    HW158289   9.301   6.800   8.598 -0.8435  0.2553 -0.9556
18423SOL    HW258290   9.317   6.942   8.547  0.1562  0.0669 -1.1856
18424SOL     OW58291   7.782   1.248   1.598 -0.2952  0.2967  0.2973
18424SOL    HW158292   7.850   1.235   1.664  0.0459  1.1796  0.1247
18424SOL    HW258293   7.732   1.167   1.599  0.9994 -0.5157  0.1423
18425SOL     OW58294   3.594   8.339   7.954 -0.1835 -1.1298 -0.2813
18425SOL    HW158295   3.528   8.399   7.989 -0.0003 -1.9029  1.4070
18425SOL    HW258296   3.547   8.257   7.939  0.2857 -1.5366  0.4653
18426SOL     OW58297   0.333   8.801   1.907 -0.1728  0.6479 -0.5546
18426SOL    HW158298   0.360   8.890   1.888  0.4090  0.3926 -0.9531
18426SOL    HW258299   0.286   8.807   1.991  0.9034  1.1419  0.0203
18427SOL     OW58300   3.228   3.050   7.593  0.0947 -0.2877  0.3442
18427SOL    HW158301   3.226   3.145   7.577  1.5451 -0.1249  0.9936
18427SOL    HW258302   3.199   3.039   7.683 -0.9890 -0.5512 -0.0323
18428SOL     OW58303   8.859   6.545   9.231  0.6044 -0.5212  0.0869
18428SOL    HW158304   8.844   6.623   9.283 -2.1883 -1.3252  0.5856
18428SOL    HW258305   8.789   6.545   9.166  1.9636 -1.3792 -1.4308
18429SOL     OW58306   6.064   2.322   8.857 -0.3308  0.5361 -0.0928
18429SOL    HW158307   6.127   2.364   8.915  3.1472 -2.1016 -1.8405
18429SOL    HW258308   6.054   2.383   8.784 -0.7214  1.4765  0.7318
18430SOL     OW58309   0.642   9.192   5.989  0.1645 -0.3579  0.8669
18430SOL    HW158310   0.675   9.267   6.038 -1.2178  0.3797  0.6920
18430SOL    HW258311   0.706   9.180   5.918 -0.9311  2.3046 -0.6619
18431SOL     OW58312   6.283   8.248   6.530 -0.6566 -0.0100 -0.3562
18431SOL    HW158313   6.213   8.216   6.472  0.6710 -0.7882 -1.5617
18431SOL    HW258314   6.298   8.338   6.502 -1.2041  0.1689 -0.0733
18432SOL     OW58315   2.235   6.770   7.017  0.3784 -0.4621 -0.2465
18432SOL    HW158316   2.331   6.763   7.018  0.3963 -0.5819 -1.9836
18432SOL    HW258317   2.214   6.802   6.929 -1.0912  0.9662  0.6061
18433SOL     OW58318   8.220   1.027   2.199 -0.1670 -0.1924 -0.9796
18433SOL    HW158319   8.185   1.112   2.174 -0.4772  0.0107  0.1091
18433SOL    HW258320   8.289   1.048   2.262  0.4380 -0.6996 -1.4712
18434SOL     OW58321   1.624   2.153   2.021  0.1569  0.4137  0.2720
18434SOL    HW158322   1.668   2.229   1.983 -0.1540 -0.3547 -1.7178
18434SOL    HW258323   1.694   2.088   2.032  0.2201  0.5838  0.8787
18435SOL     OW58324   1.645   1.701   0.042  1.0228 -0.1152  0.0147
18435SOL    HW158325   1.588   1.733   0.112 -0.3342  0.2701 -1.2431
18435SOL    HW258326   1.691   1.780   0.011  0.2867  0.0280 -0.7263
18436SOL     OW58327   8.548   8.180   7.789 -0.0390 -0.5294 -0.5352
18436SOL    HW158328   8.624   8.235   7.809 -0.4435 -0.4675  0.9060
18436SOL    HW258329   8.577   8.091   7.808  0.0285 -0.6252 -1.0829
18437SOL     OW58330   9.083   2.971   3.688 -0.3702 -0.4803 -0.1544
18437SOL    HW158331   9.071   2.938   3.599  1.0759  1.4554 -1.1127
18437SOL    HW258332   9.177   2.986   3.696 -0.6800  0.9759  1.0678
18438SOL     OW58333   1.342   5.466   2.927  0.9608  0.3823 -0.1390
18438SOL    HW158334   1.355   5.436   2.837 -1.2843 -0.8715 -0.0536
18438SOL    HW258335   1.431   5.474   2.962  1.8465  0.5206 -2.3253
18439SOL     OW58336   8.588   1.622   7.240 -0.2507 -0.2011 -0.1410
18439SOL    HW158337   8.515   1.578   7.284  1.2603  0.1231  2.7508
18439SOL    HW258338   8.564   1.715   7.243  0.7186  0.0073  1.7162
18440SOL     OW58339   8.303   3.988   5.971 -0.2713 -0.2514  0.2134
18440SOL    HW158340   8.392   4.012   5.999  0.6125 -1.5102 -1.4293
18440SOL    HW258341   8.309   3.980   5.876 -2.0233 -0.8643  0.1377
18441SOL     OW58342   6.136   8.293   1.977 -0.2348  0.1270  0.0346
18441SOL    HW158343   6.134   8.380   2.018 -1.1246  0.4830 -0.7206
18441SOL    HW258344   6.103   8.234   2.044 -0.5469  0.5324  0.2424
18442SOL     OW58345   6.067   3.410   4.738 -0.3332 -0.3479  0.5884
18442SOL    HW158346   6.023   3.351   4.798  1.3348 -0.5496  1.6652
18442SOL    HW258347   6.159   3.408   4.766 -0.2583  2.8534  0.7614
18443SOL     OW58348   3.160   1.467   8.155 -0.5455  0.2079 -0.2434
18443SOL    HW158349   3.156   1.405   8.081 -2.1294 -0.6280  0.4988
18443SOL    HW258350   3.068   1.492   8.169 -0.3925 -0.4168  2.0649
18444SOL     OW58351   6.147   0.810   5.511 -0.0388 -0.3732 -0.7543
18444SOL    HW158352   6.240   0.832   5.506  0.3200 -0.9005  2.2729
18444SOL    HW258353   6.107   0.884   5.558 -1.4454  0.5587 -3.3602
18445SOL     OW58354   8.535   2.122   6.567 -0.5750 -0.1861 -0.3010
18445SOL    HW158355   8.576   2.191   6.619  0.3717 -1.0980  0.1801
18445SOL    HW258356   8.444   2.121   6.596 -1.0353  2.0250 -1.5623
18446SOL     OW58357   4.652   4.236   7.084  0.3578  0.3697  0.1939
18446SOL    HW158358   4.599   4.279   7.151  0.2794  0.5122  0.0422
18446SOL    HW258359   4.741   4.264   7.101  0.3824  0.1385  0.4420
18447SOL     OW58360   2.476   7.498   0.343 -0.1922  0.2076  0.2238
18447SOL    HW158361   2.485   7.542   0.428  0.3331 -1.6978  1.1780
18447SOL    HW258362   2.442   7.412   0.364  0.2068 -0.3881 -1.4842
18448SOL     OW58363   9.055   3.823   2.628 -0.4039  0.1727  0.3529
18448SOL    HW158364   9.117   3.791   2.694 -0.4995 -2.0080 -0.5821
18448SOL    HW258365   9.003   3.889   2.675  1.0844  0.3722  1.7841
18449SOL     OW58366   1.975   8.288   1.004 -0.1741 -0.3492  0.3526
18449SOL    HW158367   1.916   8.272   0.930 -0.4729 -1.9513  0.9113
18449SOL    HW258368   2.039   8.216   0.999 -0.2154 -0.4910  1.6480
18450SOL     OW58369   4.605   0.028   2.153  0.3910  0.2143 -0.1732
18450SOL    HW158370   4.629   0.077   2.074 -2.7800  0.2398 -1.1792
18450SOL    HW258371   4.573   0.094   2.213  1.0652 -0.0180  0.4385
18451SOL     OW58372   0.947   0.635   1.304 -0.3643 -0.1534 -0.1259
18451SOL    HW158373   0.963   0.603   1.393  1.1396  1.0823  0.0786
18451SOL    HW258374   1.035   0.657   1.271 -0.8384 -1.0872 -2.1073
18452SOL     OW58375   2.813   4.143   1.851 -0.2616  0.4806  0.0887
18452SOL    HW158376   2.755   4.094   1.792  1.0242  0.2273 -0.9848
18452SOL    HW258377   2.755   4.209   1.891 -1.5060 -0.4146 -0.1870
18453SOL     OW58378   2.939   1.656   8.772  0.0638  0.1088 -0.2707
18453SOL    HW158379   2.937   1.681   8.864 -0.8224  0.3443 -0.3477
18453SOL    HW258380   2.859   1.605   8.760 -0.1041  0.5492 -1.0439
18454SOL     OW58381   7.756   8.722   1.794  0.0520 -0.0939  0.3661
18454SOL    HW158382   7.702   8.643   1.787 -0.0264  0.0421 -0.7511
18454SOL    HW258383   7.787   8.737   1.705 -0.6019  1.5932  0.4076
18455SOL     OW58384   9.363   5.081   7.509 -0.3145  0.0810  0.2626
18455SOL    HW158385   9.366   5.035   7.593 -0.2628 -0.0112  0.2101
18455SOL    HW258386   9.383   5.014   7.444  1.6854  0.5857  0.3277
18456SOL     OW58387   2.688   2.846   5.171  0.0585 -0.4973  0.4567
18456SOL    HW158388   2.764   2.800   5.135  0.5524 -0.5787  1.5919
18456SOL    HW258389   2.614   2.813   5.120  0.6756 -1.0256 -0.1064
18457SOL     OW58390   6.632   7.420   6.023 -0.0481 -0.2839  0.0067
18457SOL    HW158391   6.568   7.361   6.062 -0.7974 -1.6113 -3.0664
18457SOL    HW258392   6.693   7.363   5.976  1.0860  1.2116 -0.4026
18458SOL     OW58393   6.349   0.688   4.831 -0.0845 -0.4141  0.0845
18458SOL    HW158394   6.283   0.720   4.892  0.9331 -0.8374  1.4207
18458SOL    HW258395   6.312   0.606   4.797  0.0275 -0.9690  1.2995
18459SOL     OW58396   5.619   7.630   2.690  0.1859 -0.9758 -0.4586
18459SOL    HW158397   5.713   7.624   2.708 -0.0066  0.0202  0.9558
18459SOL    HW258398   5.578   7.598   2.770 -0.7034  2.7227  0.6434
18460SOL     OW58399   8.647   9.383   2.274  0.6614  0.0837 -0.0125
18460SOL    HW158400   8.697   9.452   2.317  1.5254 -0.3487 -0.3008
18460SOL    HW258401   8.709   9.344   2.211  0.7741 -2.1328  1.4159
18461SOL     OW58402   9.052   7.081   9.438 -0.6453 -0.4301  0.0532
18461SOL    HW158403   9.136   7.126   9.424 -0.2161 -1.2594 -0.0210
18461SOL    HW258404   9.021   7.062   9.350  0.8882 -3.4615  0.1150
18462SOL     OW58405   9.419   8.580   6.631 -0.6270 -0.4348 -0.3605
18462SOL    HW158406   9.406   8.632   6.552  0.5554 -0.2934 -0.4700
18462SOL    HW258407   9.507   8.603   6.661 -1.0721 -0.4437  1.0289
18463SOL     OW58408   1.885   7.485   3.502  0.0851  0.0536  0.1901
18463SOL    HW158409   1.876   7.495   3.407  0.9127  0.9801  0.2009
18463SOL    HW258410   1.864   7.572   3.537  0.9143  0.0215  0.7691
18464SOL     OW58411   4.135   8.637   2.515  0.6527 -0.2764  0.0123
18464SOL    HW158412   4.062   8.696   2.532 -0.4152 -1.9095  1.1610
18464SOL    HW258413   4.179   8.676   2.439 -1.7868  0.3643 -1.1267
18465SOL     OW58414   4.820   3.860   7.830  0.0219  0.1805  0.1166
18465SOL    HW158415   4.753   3.810   7.783 -1.5804  0.7072  1.8074
18465SOL    HW258416   4.783   3.947   7.841  1.3552  0.7421  0.3109
18466SOL     OW58417   5.643   8.009   6.336  0.2647  0.0330  0.0860
18466SOL    HW158418   5.575   7.949   6.306  0.1438  0.1575  0.1147
18466SOL    HW258419   5.624   8.021   6.429  1.1025 -0.9883  0.4004
18467SOL     OW58420   8.528   0.553   5.937 -0.7097  0.2642  0.3096
18467SOL    HW158421   8.475   0.488   5.891  0.8613 -1.9480  1.5427
18467SOL    HW258422   8.495   0.552   6.027  0.1275  0.2889  0.6190
18468SOL     OW58423   7.119   4.564   3.942 -0.5064  0.0092 -0.0714
18468SOL    HW158424   7.183   4.552   3.872  0.6054  0.2205  0.8873
18468SOL    HW258425   7.172   4.588   4.018 -1.7031 -0.2082  0.8340
18469SOL     OW58426   9.042   9.344   8.885 -0.3614 -0.3347 -0.2193
18469SOL    HW158427   9.019   9.253   8.905  0.7931 -0.2669  1.5268
18469SOL    HW258428   8.980   9.396   8.936 -0.7056 -0.1607 -0.8279
18470SOL     OW58429   8.441   9.330   0.892  0.1470  0.5003  0.4761
18470SOL    HW158430   8.504   9.365   0.829  0.7527 -1.4621 -0.0629
18470SOL    HW258431   8.385   9.271   0.840 -0.7140  0.5136  1.3698
18471SOL     OW58432   4.287   0.938   7.859 -0.1716 -0.8402 -0.7039
18471SOL    HW158433   4.205   0.903   7.893 -0.4225 -0.6403 -1.0957
18471SOL    HW258434   4.342   0.862   7.844 -0.1112 -0.9399  0.0128
18472SOL     OW58435   5.337   0.660   2.970  0.6544  0.3033 -0.7143
18472SOL    HW158436   5.277   0.733   2.980  1.1155  0.6178 -0.2404
18472SOL    HW258437   5.367   0.665   2.879  0.1707  0.2955 -0.8780
18473SOL     OW58438   5.856   4.653   1.588  0.4802  0.1299  0.2454
18473SOL    HW158439   5.896   4.597   1.655  2.6613  0.1279 -1.0183
18473SOL    HW258440   5.774   4.610   1.566  2.3490 -2.9022 -1.0885
18474SOL     OW58441   3.504   7.516   3.605  0.2979 -0.3668 -0.1546
18474SOL    HW158442   3.569   7.583   3.626  0.1003  0.4304 -2.0344
18474SOL    HW258443   3.420   7.559   3.615  0.1455 -0.5521 -0.6501
18475SOL     OW58444   1.103   0.184   2.868 -0.3909 -0.0002 -0.1276
18475SOL    HW158445   1.020   0.231   2.866 -0.2823  0.1801 -0.6876
18475SOL    HW258446   1.165   0.247   2.906 -0.1978  0.3968 -1.0852
18476SOL     OW58447   9.389   6.831   0.241 -0.2308 -0.0779  0.0666
18476SOL    HW158448   9.297   6.850   0.258 -0.8001 -1.8918 -0.8896
18476SOL    HW258449   9.416   6.775   0.315  0.0913  0.3900  0.3065
18477SOL     OW58450   0.024   7.316   5.230  0.3218  0.0845 -0.2673
18477SOL    HW158451  -0.071   7.323   5.229  0.0509 -2.3350  2.4558
18477SOL    HW258452   0.049   7.340   5.320  2.2632  0.4160 -0.8645
18478SOL     OW58453   7.326   8.321   5.949 -0.3366 -0.3732  0.3333
18478SOL    HW158454   7.417   8.303   5.926 -0.2437 -1.0243  1.2049
18478SOL    HW258455   7.282   8.237   5.942 -0.4052 -0.4961  2.0844
18479SOL     OW58456   8.824   6.847   2.381  0.0222 -0.1201 -0.2982
18479SOL    HW158457   8.843   6.797   2.460  0.7326 -0.3877 -0.6363
18479SOL    HW258458   8.798   6.781   2.316  1.6095 -0.1311 -0.9406
18480SOL     OW58459   0.116   0.393   5.524 -0.1359 -0.2101  0.2187
18480SOL    HW158460   0.184   0.451   5.559  1.5908 -2.1863  0.2302
18480SOL    HW258461   0.148   0.369   5.437 -0.9619 -0.9181  0.1097
18481SOL     OW58462   8.984   1.349   8.763  0.3689 -0.3198 -0.2020
18481SOL    HW158463   8.914   1.408   8.791 -0.0843 -1.0720  0.2795
18481SOL    HW258464   9.064   1.402   8.768  0.2306 -0.2862  2.0286
18482SOL     OW58465   5.825   9.204   6.272 -0.2770 -0.5022  0.3217
18482SOL    HW158466   5.798   9.220   6.182 -1.1995  2.0138  1.0112
18482SOL    HW258467   5.916   9.233   6.275 -0.5474  0.3503  0.4300
18483SOL     OW58468   3.127   1.013   4.114  0.0447  0.2066 -0.0835
18483SOL    HW158469   3.177   1.066   4.176  0.7486 -1.2111  0.6012
18483SOL    HW258470   3.193   0.971   4.059 -0.4193 -0.8778  0.1574
18484SOL     OW58471   0.884   8.808   4.803 -0.3234  0.1528 -0.1574
18484SOL    HW158472   0.907   8.860   4.880  0.4669 -0.4445  0.0141
18484SOL    HW258473   0.842   8.730   4.838 -0.0886 -0.0563 -0.3382
18485SOL     OW58474   5.254   3.786   5.542 -0.1789 -0.4697 -0.2986
18485SOL    HW158475   5.235   3.803   5.449 -2.6931  0.5308  0.3433
18485SOL    HW258476   5.271   3.872   5.579 -0.5023 -0.7196  0.4362
18486SOL     OW58477   1.955   2.099   6.379  0.3804  0.8632 -0.0298
18486SOL    HW158478   1.998   2.142   6.452  0.3055  0.5121  0.2190
18486SOL    HW258479   2.012   2.116   6.304  0.9014  0.4912  0.2785
18487SOL     OW58480   1.722   0.146   1.480 -0.4498 -0.1316  0.3946
18487SOL    HW158481   1.722   0.210   1.551  2.6791  0.4331 -0.0645
18487SOL    HW258482   1.716   0.198   1.400  1.1475 -0.4375  0.0557
18488SOL     OW58483   5.022   0.214   6.899 -0.2880 -0.1086 -0.0766
18488SOL    HW158484   5.013   0.167   6.817  0.1609 -0.5054  0.0967
18488SOL    HW258485   5.107   0.187   6.933  0.2670  1.3338 -0.2877
18489SOL     OW58486   2.972   0.642   6.183  0.5256 -0.0733  0.2594
18489SOL    HW158487   3.042   0.649   6.247 -0.8089  0.9520  1.6495
18489SOL    HW258488   2.927   0.560   6.205  2.3360 -1.6428 -1.7458
18490SOL     OW58489   9.021   5.511   0.509 -0.3472  0.2201 -0.0178
18490SOL    HW158490   9.042   5.444   0.574  0.5307  1.8887  1.4777
18490SOL    HW258491   8.949   5.474   0.458 -1.2192 -1.0386  2.0664
18491SOL     OW58492   1.231   1.175   8.864  0.1122  0.1722 -0.4173
18491SOL    HW158493   1.325   1.185   8.879  0.0855  1.5859 -1.1566
18491SOL    HW258494   1.207   1.097   8.914  1.4939  0.3577  0.5543
18492SOL     OW58495   6.595   1.312   1.286  1.3822  0.3687  0.4604
18492SOL    HW158496   6.577   1.396   1.328 -1.2461 -0.2469  0.7073
18492SOL    HW258497   6.544   1.315   1.204  0.8074 -1.1861  0.7451
18493SOL     OW58498   9.349   3.651   8.727  0.2893  0.1758  0.1456
18493SOL    HW158499   9.257   3.655   8.700  0.1670  0.3499  0.5777
18493SOL    HW258500   9.379   3.742   8.722  0.8946 -0.1036 -1.5284
18494SOL     OW58501   4.761   8.747   0.056 -0.0590 -0.6597  0.3409
18494SOL    HW158502   4.842   8.779   0.096 -0.6943  0.3780  0.8356
18494SOL    HW258503   4.790   8.687  -0.013  1.0957 -1.0274  1.1331
18495SOL     OW58504   6.603   4.182   0.716  0.4615 -0.2651 -0.3010
18495SOL    HW158505   6.648   4.266   0.710 -1.0441  0.4272 -2.2523
18495SOL    HW258506   6.671   4.121   0.744  1.9127  1.3149 -0.2741
18496SOL     OW58507   7.290   4.566   7.730  0.1261 -0.5579  0.0975
18496SOL    HW158508   7.208   4.526   7.760  0.0996  0.7019  1.7167
18496SOL    HW258509   7.348   4.492   7.715 -0.7388 -1.3594  0.6460
18497SOL     OW58510   0.786   5.020   7.174 -0.2966 -0.1917 -0.0534
18497SOL    HW158511   0.701   4.984   7.149  0.1231  0.1266 -2.0619
18497SOL    HW258512   0.771   5.115   7.178 -0.0618 -0.1383 -0.3790
18498SOL     OW58513   3.284   2.459   6.879 -0.1970 -0.6140 -0.0346
18498SOL    HW158514   3.321   2.371   6.888  0.8468 -0.2547 -0.7219
18498SOL    HW258515   3.360   2.517   6.879 -0.7891  0.1725 -1.0615
18499SOL     OW58516   8.456   4.426   5.394 -0.6292 -0.0324  0.0487
18499SOL    HW158517   8.512   4.368   5.445 -1.0239  1.3225  2.0745
18499SOL    HW258518   8.514   4.498   5.369 -0.3592 -0.8299 -1.7307
18500SOL     OW58519   8.146   2.513   2.170 -0.2553  0.2936 -0.1747
18500SOL    HW158520   8.102   2.515   2.085 -2.4785  1.1442  0.9583
18500SOL    HW258521   8.135   2.423   2.200  1.2969 -0.2435 -1.1392
18501SOL     OW58522   4.950   8.534   5.486 -0.2284  0.2935  0.0294
18501SOL    HW158523   5.029   8.587   5.477  0.1805  0.1331  2.2621
18501SOL    HW258524   4.885   8.596   5.519  0.5173 -0.7304  3.6257
18502SOL     OW58525   4.402   8.639   0.984 -0.1772 -0.5017  0.2001
18502SOL    HW158526   4.378   8.571   1.047 -1.8352 -0.2967 -0.1850
18502SOL    HW258527   4.473   8.600   0.932 -0.4746 -1.5881  0.5930
18503SOL     OW58528   4.836   5.320   5.872  0.2921 -0.2416 -0.3982
18503SOL    HW158529   4.907   5.290   5.815  0.4224 -0.9461  0.1207
18503SOL    HW258530   4.860   5.287   5.959 -0.3099  0.1277 -0.0907
18504SOL     OW58531   7.792   8.992   7.272  0.1335 -0.3619 -0.1606
18504SOL    HW158532   7.869   9.002   7.216  0.4402 -1.0965  0.1316
18504SOL    HW258533   7.825   8.953   7.353 -0.2634  0.9046  0.6418
18505SOL     OW58534   7.298   0.172   1.520 -0.3549 -0.7300  0.2567
18505SOL    HW158535   7.389   0.149   1.538 -0.7253 -1.9376  0.6419
18505SOL    HW258536   7.303   0.236   1.449  0.8454 -0.0059  0.9815
18506SOL     OW58537   6.886   0.670   4.249  0.0172 -0.4708 -0.0405
18506SOL    HW158538   6.974   0.634   4.238  0.4577  0.8046 -0.9056
18506SOL    HW258539   6.841   0.650   4.168  0.1193  0.4975 -0.3444
18507SOL     OW58540   2.644   7.394   1.195 -0.7308  0.0985 -0.1117
18507SOL    HW158541   2.738   7.377   1.202 -0.9135 -0.5384  0.7299
18507SOL    HW258542   2.608   7.364   1.278 -1.7494 -0.1095 -0.6310
18508SOL     OW58543   1.862   0.386   3.756 -0.8149 -0.1745  0.6511
18508SOL    HW158544   1.843   0.297   3.726 -0.4539  0.4667 -1.5390
18508SOL    HW258545   1.778   0.432   3.751 -0.1930  0.7293 -2.2617
18509SOL     OW58546   0.655   7.730   5.076  0.0186  0.1388  0.7130
18509SOL    HW158547   0.566   7.762   5.090  0.1504  0.3353  1.0954
18509SOL    HW258548   0.657   7.645   5.120 -0.3412 -0.4154 -0.3296
18510SOL     OW58549   2.351   7.198   5.446 -0.3704 -0.3321  0.2999
18510SOL    HW158550   2.371   7.116   5.401  0.6556  0.6073 -0.9987
18510SOL    HW258551   2.374   7.267   5.383  0.8391  1.0188  2.1513
18511SOL     OW58552   1.966   5.725   4.547 -0.3359  0.5163  0.0545
18511SOL    HW158553   1.890   5.784   4.546 -0.7991 -0.0836 -0.5557
18511SOL    HW258554   1.931   5.642   4.577 -0.0323  0.0836 -0.7758
18512SOL     OW58555   6.916   6.928   4.569  0.0135 -0.5327  0.5806
18512SOL    HW158556   6.994   6.897   4.522 -0.7248 -0.1077 -0.9881
18512SOL    HW258557   6.950   6.988   4.635  1.1451 -1.6451  1.0375
18513SOL     OW58558   7.895   3.358   9.147 -0.5670 -0.2498  0.3543
18513SOL    HW158559   7.888   3.304   9.225 -2.2627 -1.2671 -0.4741
18513SOL    HW258560   7.936   3.301   9.082 -1.3722 -0.1812 -0.2088
18514SOL     OW58561   7.879   0.732   5.704 -0.1685 -0.2968  0.1675
18514SOL    HW158562   7.827   0.795   5.754  0.0002  0.6582 -0.8514
18514SOL    HW258563   7.949   0.784   5.665  0.8240 -1.3613  0.4927
18515SOL     OW58564   0.775   4.728   5.289  0.1882 -0.2551 -0.1505
18515SOL    HW158565   0.780   4.633   5.303  0.6611 -0.0714  1.0305
18515SOL    HW258566   0.862   4.751   5.256  1.1094  0.1773  2.4106
18516SOL     OW58567   6.247   6.513   2.592  0.5338  0.5757  0.3421
18516SOL    HW158568   6.274   6.557   2.512  1.0577  0.7469  0.6112
18516SOL    HW258569   6.318   6.530   2.654  1.5442 -2.0506 -0.0562
18517SOL     OW58570   0.610   6.293   4.576 -0.2340  0.3284  0.0620
18517SOL    HW158571   0.621   6.215   4.631 -0.6656  0.5672  0.4816
18517SOL    HW258572   0.571   6.358   4.634  1.7441  1.4346  0.1947
18518SOL     OW58573   1.544   0.308   4.774 -0.2642  0.3895  0.1563
18518SOL    HW158574   1.501   0.277   4.853  1.3152 -2.5651 -0.0714
18518SOL    HW258575   1.507   0.254   4.704  1.5326 -0.0587 -0.4676
18519SOL     OW58576   5.650   6.306   1.336  0.1183  0.0602 -0.8419
18519SOL    HW158577   5.695   6.235   1.382  0.4756  0.8699  0.0586
18519SOL    HW258578   5.716   6.374   1.324 -0.4074  0.5399 -1.0635
18520SOL     OW58579   7.639   6.038   3.608 -0.0001 -0.3190  0.1233
18520SOL    HW158580   7.733   6.028   3.594 -0.0266 -1.0340  0.4401
18520SOL    HW258581   7.632   6.080   3.694 -0.0144 -2.3200  1.1393
18521SOL     OW58582   3.483   8.837   1.662  0.0453  0.0226 -0.1053
18521SOL    HW158583   3.516   8.750   1.687 -1.0456 -1.2070 -2.7197
18521SOL    HW258584   3.554   8.875   1.610  0.1201  0.3085  0.2009
18522SOL     OW58585   8.493   0.105   0.286 -0.2004  0.0072 -0.6698
18522SOL    HW158586   8.436   0.175   0.253 -0.2052 -0.1346 -0.9652
18522SOL    HW258587   8.452   0.077   0.367 -0.7814 -0.3771 -1.0922
18523SOL     OW58588   2.307   1.161   7.484 -0.0439 -0.2463 -0.3631
18523SOL    HW158589   2.249   1.232   7.511  0.2406 -0.2274  0.2229
18523SOL    HW258590   2.371   1.154   7.556 -0.1443 -1.1650 -0.3521
18524SOL     OW58591   2.129   9.440   5.380 -0.3558  0.0185  0.6209
18524SOL    HW158592   2.214   9.428   5.336 -0.4165  1.7092  0.0156
18524SOL    HW258593   2.113   9.534   5.375 -2.7577 -0.4002 -0.1742
18525SOL     OW58594   3.444   4.265   7.461 -0.0377  0.1766  0.1223
18525SOL    HW158595   3.527   4.284   7.417 -0.8487  1.4262 -0.9198
18525SOL    HW258596   3.438   4.170   7.460  1.0115  0.0968 -0.5045
18526SOL     OW58597   8.304   1.298   8.483 -0.0101  0.2253 -0.5104
18526SOL    HW158598   8.338   1.247   8.410  4.0394  1.1899  0.5997
18526SOL    HW258599   8.364   1.371   8.492 -0.9370  0.6405  3.2017
18527SOL     OW58600   9.296   0.628   5.119 -0.3797 -0.0163 -0.3430
18527SOL    HW158601   9.368   0.691   5.116 -0.9625  0.7055  0.8098
18527SOL    HW258602   9.232   0.662   5.056  1.0974 -1.7184 -2.8956
18528SOL     OW58603   7.282   5.482   5.946 -0.4451  0.2151  0.3220
18528SOL    HW158604   7.255   5.398   5.907 -0.4163  0.7155 -0.7986
18528SOL    HW258605   7.320   5.458   6.030  1.9954 -1.1661 -1.1164
18529SOL     OW58606   4.796   4.755   2.291 -0.0315 -0.0044 -0.5582
18529SOL    HW158607   4.790   4.662   2.311 -0.7043  0.2368  0.4263
18529SOL    HW258608   4.709   4.778   2.257  0.2121  0.2068 -1.0451
18530SOL     OW58609   1.726   0.006   1.829 -0.0798 -0.3225 -0.0600
18530SOL    HW158610   1.690  -0.081   1.849 -0.5864 -0.0415  0.2521
18530SOL    HW258611   1.772   0.031   1.909  1.4094 -0.9782 -0.6957
18531SOL     OW58612   4.859   4.841   7.838 -0.5003  0.3064 -0.5048
18531SOL    HW158613   4.876   4.840   7.932 -1.3231  3.3865 -0.2863
18531SOL    HW258614   4.798   4.768   7.824 -0.4240 -0.1330  1.3333
18532SOL     OW58615   8.984   3.084   7.981  0.0471  0.6441 -0.2966
18532SOL    HW158616   9.044   3.153   7.952 -0.7710  1.3172 -0.4234
18532SOL    HW258617   8.901   3.107   7.940 -0.2575 -0.3594 -0.2392
18533SOL     OW58618   5.459   3.985   8.255  0.4880  0.1267  0.8424
18533SOL    HW158619   5.495   3.938   8.180  0.0268  0.1070  0.6304
18533SOL    HW258620   5.531   4.041   8.286  1.4140 -1.5895  1.8305
18534SOL     OW58621   4.802   7.913   3.427  0.4204  0.1842  0.2814
18534SOL    HW158622   4.844   7.975   3.487 -0.3041  1.4761 -0.5192
18534SOL    HW258623   4.708   7.926   3.441  0.2707 -0.9374  0.3068
18535SOL     OW58624   8.389   5.466   1.005  0.1124 -0.2291 -0.0577
18535SOL    HW158625   8.353   5.379   1.024 -0.8528 -0.4166 -2.4937
18535SOL    HW258626   8.371   5.517   1.084 -0.5846 -1.8631  0.8691
18536SOL     OW58627   2.238   2.393   1.784 -0.0558 -0.1386 -0.0903
18536SOL    HW158628   2.210   2.355   1.867  0.0901  1.0667  0.5182
18536SOL    HW258629   2.159   2.430   1.745 -0.0395 -0.2829 -0.2616
18537SOL     OW58630   4.686   7.213   3.767  0.4903  0.1087 -0.6190
18537SOL    HW158631   4.619   7.216   3.699  0.5291  2.1789 -0.6032
18537SOL    HW258632   4.765   7.245   3.724  0.6087  1.0643  0.2953
18538SOL     OW58633   2.746   4.363   0.163 -0.0516 -0.3263  0.0704
18538SOL    HW158634   2.834   4.350   0.126  0.5204  0.5609  1.0786
18538SOL    HW258635   2.736   4.458   0.168 -0.4980 -0.4285  1.2825
18539SOL     OW58636   4.220   1.054   0.850 -0.2775  0.4408  0.5765
18539SOL    HW158637   4.193   1.024   0.937 -0.4748  0.2126  0.4400
18539SOL    HW258638   4.315   1.061   0.855 -0.3784  1.4873  1.1361
18540SOL     OW58639   0.355   6.887   2.936  0.6652 -0.5660 -0.6109
18540SOL    HW158640   0.342   6.818   2.872  0.9792  0.2416 -1.5549
18540SOL    HW258641   0.398   6.844   3.010  1.3639 -1.2686 -1.4166
18541SOL     OW58642   8.291   0.049   2.932  0.3116  0.1419  0.1725
18541SOL    HW158643   8.264  -0.037   2.901 -0.2753 -0.1579  1.4632
18541SOL    HW258644   8.248   0.111   2.873 -0.4913 -0.4244  0.1613
18542SOL     OW58645   7.822   1.345   8.621 -0.4997 -0.2033  0.1217
18542SOL    HW158646   7.915   1.360   8.607 -0.4685  0.1242  0.6769
18542SOL    HW258647   7.796   1.410   8.685 -0.7408 -1.3965  1.2561
18543SOL     OW58648   5.690   8.691   2.781 -0.1954 -0.6040 -0.8000
18543SOL    HW158649   5.760   8.642   2.825  0.6668  0.9046 -0.4583
18543SOL    HW258650   5.612   8.636   2.792  0.5968 -1.5600  0.1942
18544SOL     OW58651   9.120   7.980   4.423 -0.2702  0.7689 -0.2080
18544SOL    HW158652   9.128   7.896   4.468  1.2829  0.5089 -0.9317
18544SOL    HW258653   9.119   7.957   4.330  0.3120  1.5577 -0.4113
18545SOL     OW58654   3.976   1.806   5.782 -0.0956 -0.3316  0.2138
18545SOL    HW158655   4.034   1.847   5.846  0.2649  0.6143 -0.7132
18545SOL    HW258656   3.890   1.807   5.823  0.0516  0.6598  0.4982
18546SOL     OW58657   3.415   3.795   0.555 -0.0039 -0.3144 -0.1973
18546SOL    HW158658   3.494   3.745   0.535 -0.7355 -2.0077  0.9909
18546SOL    HW258659   3.378   3.752   0.632 -1.0837  1.6100  0.4024
18547SOL     OW58660   7.260   3.577   6.934 -0.1243 -0.3702 -0.1705
18547SOL    HW158661   7.246   3.555   6.842  0.6760 -2.4063  0.1781
18547SOL    HW258662   7.334   3.638   6.933 -0.5863  0.1758 -0.9291
18548SOL     OW58663   5.798   6.901   1.995  0.2278  0.8795  0.2399
18548SOL    HW158664   5.854   6.826   2.017  0.6160  0.7917 -1.0305
18548SOL    HW258665   5.730   6.900   2.063 -0.4204 -1.3003 -0.3961
18549SOL     OW58666   1.202   5.830   1.940  0.3074  0.3883  0.0921
18549SOL    HW158667   1.138   5.900   1.926  0.8282  0.6491 -1.0762
18549SOL    HW258668   1.287   5.874   1.938  0.5502 -0.0031  1.3048
18550SOL     OW58669   8.177   4.290   2.544  0.2856  0.4364 -0.3702
18550SOL    HW158670   8.218   4.351   2.605  1.4332 -0.0046 -0.6933
18550SOL    HW258671   8.113   4.344   2.497  0.2628  1.0535  0.3530
18551SOL     OW58672   1.681   1.512   1.870 -0.0742  0.1093 -0.0462
18551SOL    HW158673   1.684   1.587   1.812  0.2952  1.1741  1.3229
18551SOL    HW258674   1.772   1.493   1.890 -0.2006 -0.0824  0.3744
18552SOL     OW58675   7.541   6.322   6.470 -0.6314  0.0699 -0.4202
18552SOL    HW158676   7.537   6.242   6.523  0.7987  0.9053  0.9862
18552SOL    HW258677   7.608   6.303   6.404  0.6372  0.5453  0.7043
18553SOL     OW58678   7.836   5.898   2.047  0.0051 -0.6233  0.6238
18553SOL    HW158679   7.802   5.845   2.119 -0.8406 -0.1122  0.6169
18553SOL    HW258680   7.858   5.982   2.088  0.2716 -0.5994  0.4312
18554SOL     OW58681   1.364   5.161   2.096  0.0111  0.1361  0.0491
18554SOL    HW158682   1.353   5.207   2.179 -0.6738 -0.8465  0.4995
18554SOL    HW258683   1.395   5.074   2.120  0.3349  0.0275 -0.7528
18555SOL     OW58684   7.633   0.499   2.182 -0.0475  0.3262 -0.0002
18555SOL    HW158685   7.671   0.498   2.270  0.7694 -0.1583 -0.3481
18555SOL    HW258686   7.702   0.535   2.127 -1.4428  3.0331 -0.0713
18556SOL     OW58687   1.585   5.301   7.692  0.0602  0.0879 -0.1205
18556SOL    HW158688   1.577   5.220   7.743 -1.9230 -0.1894 -0.8083
18556SOL    HW258689   1.659   5.285   7.633  0.9639 -0.4390  1.1444
18557SOL     OW58690   4.265   1.188   7.340 -0.0083 -0.3060 -0.1830
18557SOL    HW158691   4.322   1.138   7.399 -0.9220  0.0081  0.9952
18557SOL    HW258692   4.234   1.124   7.276  0.3467 -0.8261  0.1677
18558SOL     OW58693   6.851   6.505   5.358 -0.3810  0.5389  0.9737
18558SOL    HW158694   6.792   6.570   5.397 -1.7269 -1.2950  2.0324
18558SOL    HW258695   6.798   6.459   5.294  0.8423  1.0958 -0.4636
18559SOL     OW58696   8.594   6.401   2.963 -0.3217  0.1711  0.1043
18559SOL    HW158697   8.668   6.454   2.993  1.3712 -0.6111 -2.4994
18559SOL    HW258698   8.546   6.457   2.903 -0.4950 -0.1063 -0.0197
18560SOL     OW58699   7.085   3.487   0.999 -0.3781 -0.0668  0.1426
18560SOL    HW158700   7.039   3.464   0.919 -1.3700 -0.1710  0.7354
18560SOL    HW258701   7.125   3.572   0.981  1.8622 -1.4008 -1.4739
18561SOL     OW58702   8.433   3.267   0.333  0.2627 -0.0099  0.1262
18561SOL    HW158703   8.387   3.337   0.380  0.8666 -0.2460  1.0907
18561SOL    HW258704   8.461   3.307   0.251  0.3883  0.8067  0.5647
18562SOL     OW58705   7.178   2.753   0.310 -0.2897  0.2553  0.4341
18562SOL    HW158706   7.128   2.693   0.254 -2.5263  2.7723 -0.3616
18562SOL    HW258707   7.112   2.802   0.359  1.3756  3.1143 -0.0213
18563SOL     OW58708   3.150   1.187   1.404  0.1242 -0.2598  0.3939
18563SOL    HW158709   3.240   1.182   1.436  0.2011 -2.9914 -0.1574
18563SOL    HW258710   3.110   1.105   1.431 -1.4094 -0.2539 -1.7051
18564SOL     OW58711   8.293   6.729   3.493  0.7365  0.0577 -0.1720
18564SOL    HW158712   8.260   6.818   3.503  1.9108  0.4202  0.5613
18564SOL    HW258713   8.256   6.699   3.410  0.0766  1.1101 -0.2670
18565SOL     OW58714   6.779   0.287   2.533  0.0277 -0.8243 -0.2285
18565SOL    HW158715   6.729   0.227   2.588 -2.5996 -0.6417 -2.3186
18565SOL    HW258716   6.827   0.230   2.473  1.0666 -0.9357  0.6796
18566SOL     OW58717   8.058   4.607   5.017 -0.0057 -0.1709  0.7325
18566SOL    HW158718   8.080   4.691   4.977  1.9285 -0.5831  0.8994
18566SOL    HW258719   8.028   4.629   5.105  0.7712  0.3241  0.8731
18567SOL     OW58720   7.327   1.953   6.109 -0.0480 -0.0155 -0.0904
18567SOL    HW158721   7.267   2.015   6.150  0.1365  0.2375 -0.2019
18567SOL    HW258722   7.325   1.977   6.016  1.2084  0.8205  0.0833
18568SOL     OW58723   1.290   8.114   4.870  0.2761  0.9291 -0.1359
18568SOL    HW158724   1.350   8.182   4.899  1.3513 -0.0934  0.1095
18568SOL    HW258725   1.220   8.114   4.935 -0.0949  2.2851 -0.5454
18569SOL     OW58726   7.508   0.301   2.057  0.1236 -0.2975  0.4533
18569SOL    HW158727   7.420   0.306   2.096  0.7508 -3.9315  2.5088
18569SOL    HW258728   7.561   0.360   2.110 -0.5983  0.2952  0.5288
18570SOL     OW58729   1.800   3.579   9.161 -0.9556  0.3536 -0.5473
18570SOL    HW158730   1.720   3.596   9.111 -1.3576 -0.0477 -0.0390
18570SOL    HW258731   1.812   3.484   9.156 -0.3636  0.4413 -0.8472
18571SOL     OW58732   1.314   5.415   3.609 -0.0426  0.1846  0.2354
18571SOL    HW158733   1.243   5.362   3.574  0.1501 -0.7041  1.1353
18571SOL    HW258734   1.271   5.479   3.666 -0.1358 -0.3709  0.8005
18572SOL     OW58735   1.588   8.023   0.354 -0.1568 -0.6119 -0.5185
18572SOL    HW158736   1.517   7.990   0.409  0.0082  0.3346  0.2719
18572SOL    HW258737   1.583   7.969   0.274 -1.9117 -0.4008 -0.5757
18573SOL     OW58738   7.975   7.800   8.382 -0.1222 -0.1385  0.1473
18573SOL    HW158739   7.916   7.750   8.326  0.7804 -1.4725  0.3563
18573SOL    HW258740   8.016   7.734   8.438  1.4664  0.7586  0.0815
18574SOL     OW58741   4.653   7.902   8.552  0.2163  0.2946 -0.0985
18574SOL    HW158742   4.637   7.853   8.472 -0.3754 -1.6986  1.2086
18574SOL    HW258743   4.631   7.993   8.530  0.3414 -0.1922 -2.2526
18575SOL     OW58744   3.692   3.501   2.076  0.1444 -0.3544  0.4576
18575SOL    HW158745   3.788   3.507   2.081  0.1376  1.5614 -1.0867
18575SOL    HW258746   3.661   3.553   2.151  0.3098  0.8781 -0.3152
18576SOL     OW58747   1.925   5.221   3.133 -0.0221 -0.3278 -0.3484
18576SOL    HW158748   1.888   5.280   3.068 -2.1745 -1.0617  0.1621
18576SOL    HW258749   1.971   5.278   3.194  0.3960  0.5346 -1.4562
18577SOL     OW58750   5.902   2.361   7.219 -0.3962 -0.2864 -1.0063
18577SOL    HW158751   5.967   2.292   7.211 -0.0849  0.1402 -2.3343
18577SOL    HW258752   5.940   2.424   7.280  0.2957 -0.1937 -1.5296
18578SOL     OW58753   8.553   6.901   1.313 -0.2529 -0.1140 -0.4778
18578SOL    HW158754   8.535   6.809   1.327  0.7494 -0.0207  1.6269
18578SOL    HW258755   8.587   6.932   1.397  1.7569  1.5789 -1.8617
18579SOL     OW58756   2.786   4.643   4.864 -0.4671 -0.1623 -0.0485
18579SOL    HW158757   2.705   4.684   4.833 -0.2557 -0.2951 -0.7712
18579SOL    HW258758   2.852   4.712   4.855 -0.3650 -0.2647 -0.0760
18580SOL     OW58759   0.773   6.216   6.742 -0.1765 -0.1398  0.4308
18580SOL    HW158760   0.856   6.191   6.784 -0.6372 -3.0426 -0.3230
18580SOL    HW258761   0.793   6.216   6.648 -0.3918  1.6998  0.3606
18581SOL     OW58762   9.131   1.215   2.991  0.4024 -0.2247  0.0632
18581SOL    HW158763   9.086   1.258   2.918  0.8873 -1.1814 -0.8128
18581SOL    HW258764   9.221   1.246   2.985  0.2557  0.3518  0.7762
18582SOL     OW58765   8.762   4.980   5.785  0.0180  0.1634  0.5626
18582SOL    HW158766   8.818   4.987   5.708  0.6813 -0.0914  1.0174
18582SOL    HW258767   8.682   5.026   5.760 -0.1305 -0.7105 -0.5961
18583SOL     OW58768   0.876   5.713   8.010  0.2039 -0.2972 -0.4874
18583SOL    HW158769   0.802   5.678   7.960  0.8117 -0.6781 -1.1430
18583SOL    HW258770   0.897   5.796   7.967 -1.3413  0.9901  1.1715
18584SOL     OW58771   4.904   4.979   3.886 -0.1579 -0.1908 -0.4339
18584SOL    HW158772   4.910   5.069   3.855 -0.2917  0.2327  0.7486
18584SOL    HW258773   4.955   4.978   3.967  0.9864 -1.5028 -1.1380
18585SOL     OW58774   3.139   5.179   1.926  0.0304 -0.3554 -0.1462
18585SOL    HW158775   3.145   5.264   1.969  1.1022 -0.7981  0.5960
18585SOL    HW258776   3.058   5.141   1.959  0.9038 -0.7456  1.5934
18586SOL     OW58777   7.346   0.260   6.880  0.1559  0.0251  0.4248
18586SOL    HW158778   7.441   0.259   6.877  0.1715  2.0314 -0.4633
18586SOL    HW258779   7.320   0.249   6.788 -0.4012  2.2313  0.2887
18587SOL     OW58780   4.004   3.939   5.166 -0.1815 -0.4567 -0.4285
18587SOL    HW158781   4.047   4.001   5.226  1.7896 -2.2999  0.1210
18587SOL    HW258782   4.018   3.977   5.079 -0.2268  0.5784 -0.0015
18588SOL     OW58783   5.724   8.783   6.902  0.0114 -0.5968 -0.1232
18588SOL    HW158784   5.640   8.779   6.947 -0.4313  1.0090 -0.7737
18588SOL    HW258785   5.726   8.704   6.847 -1.4906 -0.1586 -0.8329
18589SOL     OW58786   6.087   6.815   4.056 -0.2114 -0.0056  0.1346
18589SOL    HW158787   6.069   6.724   4.076 -0.0770  0.0566  0.5343
18589SOL    HW258788   6.183   6.822   4.061 -0.2106  0.1215 -0.0477
18590SOL     OW58789   0.544   3.103   7.783 -0.7385  0.4498  0.4231
18590SOL    HW158790   0.570   3.045   7.854 -0.8780  0.2321  0.2971
18590SOL    HW258791   0.624   3.120   7.734 -0.9944 -1.0195 -0.5569
18591SOL     OW58792   1.836   3.554   1.245 -0.0727 -0.1134 -0.0275
18591SOL    HW158793   1.860   3.643   1.219  0.2075 -0.2106 -0.1015
18591SOL    HW258794   1.748   3.563   1.283  0.3279  0.3362  0.8111
18592SOL     OW58795   8.132   4.600   1.036  0.3590  0.2986 -0.0851
18592SOL    HW158796   8.109   4.523   1.087 -0.1513 -0.1892 -1.0369
18592SOL    HW258797   8.159   4.665   1.101  0.0252 -0.4135  0.7749
18593SOL     OW58798   3.130   7.697   8.536  0.3438  0.4394  0.5602
18593SOL    HW158799   3.048   7.660   8.568  0.0512 -0.4694 -1.1469
18593SOL    HW258800   3.160   7.755   8.606 -0.6413 -0.8754  2.1110
18594SOL     OW58801   7.492   7.270   6.990  0.2372  0.3481  0.0018
18594SOL    HW158802   7.464   7.308   6.907  0.2512  0.6366  0.1299
18594SOL    HW258803   7.411   7.251   7.036  0.2235 -0.0255 -0.1726
18595SOL     OW58804   8.949   6.567   7.477  0.9249  0.3651  0.2010
18595SOL    HW158805   8.955   6.652   7.521 -0.3597  1.8958 -2.4530
18595SOL    HW258806   8.870   6.574   7.423  1.8238 -1.8679 -1.4425
18596SOL     OW58807   2.822   7.746   8.130 -0.0426  0.1776 -0.3463
18596SOL    HW158808   2.827   7.836   8.096 -0.6803  0.2714 -0.1979
18596SOL    HW258809   2.876   7.695   8.069  1.2893  0.8482  0.2413
18597SOL     OW58810   8.767   2.443   7.301  0.0809 -0.2322 -0.4365
18597SOL    HW158811   8.689   2.487   7.267  1.5368  2.1965 -0.7618
18597SOL    HW258812   8.797   2.387   7.230 -0.3612  0.1775 -0.9409
18598SOL     OW58813   5.357   0.118   2.601 -0.1909  0.0916  0.4509
18598SOL    HW158814   5.267   0.114   2.634  0.5470  0.0261  2.5288
18598SOL    HW258815   5.347   0.122   2.506 -2.3960  0.3012  0.6537
18599SOL     OW58816   0.837   9.013   6.312 -0.0831  0.3104 -0.1222
18599SOL    HW158817   0.856   8.986   6.222 -1.0706 -1.9111  0.3054
18599SOL    HW258818   0.922   9.018   6.355  0.2724 -0.0124 -0.7961
18600SOL     OW58819   2.717   5.727   6.039 -0.7004  0.2721 -0.3953
18600SOL    HW158820   2.632   5.771   6.046 -0.4231  0.7960 -0.3061
18600SOL    HW258821   2.765   5.754   6.118 -0.1399  0.6641 -0.8605
18601SOL     OW58822   3.581   5.368   1.615 -0.3415  0.0978 -0.1810
18601SOL    HW158823   3.564   5.299   1.551  0.0240  0.2781 -0.4746
18601SOL    HW258824   3.653   5.333   1.669 -0.4598  0.0633 -0.0443
18602SOL     OW58825   7.959   3.134   2.578 -0.8863 -0.1947  0.2420
18602SOL    HW158826   7.964   3.039   2.585 -0.4291 -0.1231  0.8956
18602SOL    HW258827   8.032   3.158   2.520  0.4900 -0.0413  1.9705
18603SOL     OW58828   9.276   8.000   7.558 -0.5320 -0.1207 -0.3604
18603SOL    HW158829   9.333   7.951   7.499  0.0206  0.7142 -0.5169
18603SOL    HW258830   9.194   7.949   7.560 -0.5206 -0.1925 -1.7574
18604SOL     OW58831   8.553   6.545   5.850 -0.5509 -0.2796 -0.5339
18604SOL    HW158832   8.500   6.565   5.927  0.1299 -2.1957  0.4466
18604SOL    HW258833   8.607   6.623   5.838  0.1813 -0.4251  1.6340
18605SOL     OW58834   5.563   5.763   4.090 -0.0338  0.8378  0.2379
18605SOL    HW158835   5.515   5.746   4.009  0.0541  0.1835  0.3203
18605SOL    HW258836   5.502   5.814   4.143  0.1174  1.7615 -0.4586
18606SOL     OW58837   6.746   6.690   0.518 -0.3987  0.0364 -0.0132
18606SOL    HW158838   6.697   6.621   0.562 -2.3736  0.7049 -1.1245
18606SOL    HW258839   6.750   6.761   0.582 -0.5830 -0.1296  0.1830
18607SOL     OW58840   3.407   7.253   4.929 -0.7708  0.2927  0.0208
18607SOL    HW158841   3.395   7.303   4.848 -2.3795  0.9607  0.6274
18607SOL    HW258842   3.488   7.204   4.916  0.2811  2.2340 -1.0341
18608SOL     OW58843   7.182   9.086   1.059 -0.5749 -0.6874 -0.5595
18608SOL    HW158844   7.245   9.134   1.113 -1.3656 -1.2630  0.9128
18608SOL    HW258845   7.236   9.031   1.003  0.2619 -0.7222  0.2558
18609SOL     OW58846   5.797   0.088   9.023  0.7213  0.1556 -0.1975
18609SOL    HW158847   5.891   0.085   9.038  0.9320 -2.8478 -1.6312
18609SOL    HW258848   5.769  -0.004   9.028 -1.8504  0.8165 -1.3749
18610SOL     OW58849   8.639   8.209   8.256  0.1409 -0.1679  0.2666
18610SOL    HW158850   8.731   8.229   8.275  0.9053 -0.8351 -2.5890
18610SOL    HW258851   8.621   8.255   8.174 -1.5633 -1.5195 -0.1347
18611SOL     OW58852   8.764   1.982   3.998 -0.5232  0.4345 -0.4228
18611SOL    HW158853   8.677   1.987   4.036 -0.0419 -0.7957  0.8767
18611SOL    HW258854   8.774   1.890   3.973  0.8310  0.3288  0.4673
18612SOL     OW58855   1.708   8.446   2.445 -0.0517 -0.5806  0.0990
18612SOL    HW158856   1.712   8.542   2.444  0.3302 -0.5810  0.8892
18612SOL    HW258857   1.767   8.421   2.516  2.4647 -1.5470 -2.2510
18613SOL     OW58858   2.869   8.215   0.499  0.6087  0.9005 -0.3107
18613SOL    HW158859   2.863   8.145   0.564  0.5198  0.3734 -0.8849
18613SOL    HW258860   2.790   8.207   0.447 -0.3073  2.5910  0.7630
18614SOL     OW58861   8.520   8.973   7.092 -0.6781 -0.1940 -0.2992
18614SOL    HW158862   8.575   8.921   7.151  0.6815  0.8344 -0.6150
18614SOL    HW258863   8.535   8.936   7.005 -1.7990 -0.9910 -0.1496
18615SOL     OW58864   9.379   1.938   4.003  0.0523 -0.0177 -0.4499
18615SOL    HW158865   9.414   1.999   4.068 -0.2466 -1.3395  0.9802
18615SOL    HW258866   9.313   1.989   3.956  1.0079  1.2672 -0.4389
18616SOL     OW58867   6.973   0.443   2.145  0.1557 -0.5156 -0.3613
18616SOL    HW158868   6.893   0.471   2.188 -0.1330 -1.3370 -0.3568
18616SOL    HW258869   7.041   0.455   2.211  0.3240  1.8660 -0.9515
18617SOL     OW58870   7.743   1.960   5.749 -0.0787  0.2787  0.0475
18617SOL    HW158871   7.673   1.958   5.814  0.2820  2.0337  0.5346
18617SOL    HW258872   7.700   1.993   5.669  0.1160  1.0672  0.2632
18618SOL     OW58873   6.266   6.954   3.816  0.1963 -0.1222  0.5403
18618SOL    HW158874   6.170   6.954   3.818  0.1758 -0.1314 -0.5032
18618SOL    HW258875   6.291   6.930   3.906 -0.7553  2.2386  1.4575
18619SOL     OW58876   3.990   0.015   1.437 -0.0731  0.2370  0.5695
18619SOL    HW158877   4.036  -0.026   1.510 -2.0428  0.0248  1.7435
18619SOL    HW258878   4.059   0.041   1.376  1.3954 -2.8819  0.7856
18620SOL     OW58879   8.480   6.154   7.581 -0.6630  0.3627  0.1582
18620SOL    HW158880   8.521   6.239   7.569 -0.3764  0.5431  2.1606
18620SOL    HW258881   8.398   6.173   7.628  0.8582 -0.6935  3.3706
18621SOL     OW58882   6.627   8.266   3.389  0.1799  0.4248  0.1018
18621SOL    HW158883   6.720   8.246   3.380 -0.2979 -2.6820  1.6409
18621SOL    HW258884   6.613   8.277   3.483 -1.4358 -1.4728  0.1064
18622SOL     OW58885   8.396   1.165   8.263 -0.5875  0.3738  0.4750
18622SOL    HW158886   8.486   1.132   8.267 -0.7980 -0.1561  0.9798
18622SOL    HW258887   8.369   1.148   8.173 -0.4467 -0.1946  0.5329
18623SOL     OW58888   5.967   5.164   3.639  0.2893 -0.3970  0.1067
18623SOL    HW158889   6.047   5.204   3.673  1.1014 -0.5338 -1.5732
18623SOL    HW258890   5.996   5.079   3.605 -0.8376 -1.0483  0.7636
18624SOL     OW58891   4.299   1.664   7.430 -0.0732 -0.2900 -0.6472
18624SOL    HW158892   4.289   1.576   7.393 -1.4262  0.0853 -1.2139
18624SOL    HW258893   4.328   1.718   7.356  0.8491 -0.2733 -0.2775
18625SOL     OW58894   4.304   1.147   7.673 -0.1562 -0.4289 -0.0505
18625SOL    HW158895   4.294   1.073   7.613 -0.9126 -1.6086  1.4844
18625SOL    HW258896   4.277   1.112   7.758 -0.3891  1.5849  0.7214
18626SOL     OW58897   3.427   0.230   6.243  0.4389 -0.0358 -0.0929
18626SOL    HW158898   3.388   0.144   6.233 -2.2906  1.1126  0.1790
18626SOL    HW258899   3.365   0.290   6.200  2.9593  1.6407 -1.5065
18627SOL     OW58900   6.636   3.437   2.384 -0.0960  0.4250 -0.3338
18627SOL    HW158901   6.679   3.379   2.322  2.1138  0.3940  1.1823
18627SOL    HW258902   6.704   3.500   2.410 -1.6788  1.9997  0.1179
18628SOL     OW58903   2.920   2.274   5.508 -0.1458 -0.0566 -0.1748
18628SOL    HW158904   2.875   2.352   5.538 -2.0726 -0.5436 -1.7092
18628SOL    HW258905   2.900   2.207   5.573  2.8610  1.0751  2.0376
18629SOL     OW58906   4.411   2.908   7.759  0.1941 -0.0910 -0.0510
18629SOL    HW158907   4.380   2.944   7.676  2.2235 -2.4759 -1.9094
18629SOL    HW258908   4.331   2.893   7.810 -1.1115  0.9373 -1.7611
18630SOL     OW58909   5.880   9.134   9.382 -0.0401 -0.7907 -0.0537
18630SOL    HW158910   5.903   9.102   9.469 -0.2025 -1.3235 -0.2087
18630SOL    HW258911   5.835   9.061   9.340 -0.2845 -0.4119 -0.4554
18631SOL     OW58912   5.023   7.416   5.054 -0.7193  0.0954 -0.6086
18631SOL    HW158913   4.947   7.370   5.018 -2.4535  2.6284 -0.3220
18631SOL    HW258914   5.026   7.499   5.006  0.1647  1.2031  1.3069
18632SOL     OW58915   6.100   9.085   0.796 -0.0664 -0.4852 -0.3506
18632SOL    HW158916   6.156   9.122   0.864  0.1444 -2.4499  0.5780
18632SOL    HW258917   6.123   9.133   0.716  1.0530  0.5078  0.5567
18633SOL     OW58918   0.714   2.287   6.787 -0.1886  0.4848 -0.1134
18633SOL    HW158919   0.625   2.318   6.773 -0.6354  0.8586  3.1309
18633SOL    HW258920   0.766   2.367   6.800  0.4224  0.2202 -0.8681
18634SOL     OW58921   0.846   6.662   7.241  0.2596 -0.1434  0.0052
18634SOL    HW158922   0.860   6.700   7.155 -1.5979 -0.2340 -0.3604
18634SOL    HW258923   0.872   6.570   7.231  2.2847  0.3831  0.1989
18635SOL     OW58924   8.371   2.276   8.390  0.0115  0.2506  0.0270
18635SOL    HW158925   8.366   2.370   8.373 -1.8840  0.2809  0.5761
18635SOL    HW258926   8.430   2.242   8.323  1.4313  1.9480  0.3775
18636SOL     OW58927   5.848   9.278   8.492  0.0186 -0.0010  0.6205
18636SOL    HW158928   5.914   9.313   8.552  1.5055  0.0739 -1.0199
18636SOL    HW258929   5.884   9.194   8.463 -0.2577  0.3788 -0.8631
18637SOL     OW58930   5.383   0.818   3.953  0.4195  0.8024 -0.0460
18637SOL    HW158931   5.364   0.725   3.958  1.0721  0.6120 -0.9537
18637SOL    HW258932   5.389   0.846   4.044  1.3184 -0.2691  0.2322
18638SOL     OW58933   5.285   9.156   3.625 -0.0315  0.1962 -0.1651
18638SOL    HW158934   5.299   9.233   3.680  0.6450 -0.9042  1.2288
18638SOL    HW258935   5.368   9.143   3.580 -0.4293  0.8003 -1.0941
18639SOL     OW58936   6.193   1.304   1.116  0.5169 -0.0330 -0.8086
18639SOL    HW158937   6.283   1.335   1.104  0.7937 -0.1444  0.8264
18639SOL    HW258938   6.192   1.218   1.073  1.0401  0.2098 -1.3161
18640SOL     OW58939   6.797   3.489   6.765  0.0516 -0.1094  0.3678
18640SOL    HW158940   6.868   3.431   6.792  1.1886  0.9031 -0.3783
18640SOL    HW258941   6.771   3.535   6.844  0.5763 -0.1281  0.5524
18641SOL     OW58942   2.283   0.082   7.654 -0.5834  0.0649 -0.4811
18641SOL    HW158943   2.341   0.149   7.690 -0.0788 -0.4187 -0.3951
18641SOL    HW258944   2.225   0.059   7.726 -0.9499  0.6233 -0.5972
18642SOL     OW58945   7.596   3.473   8.645  0.4827  0.0981  1.0581
18642SOL    HW158946   7.667   3.522   8.687  0.1345  0.9554  0.6534
18642SOL    HW258947   7.520   3.492   8.700  0.0147  1.2652  0.0177
18643SOL     OW58948   4.088   0.465   3.909 -0.2107  0.1242  0.0581
18643SOL    HW158949   4.002   0.429   3.887 -0.9392 -0.2564  3.2767
18643SOL    HW258950   4.146   0.432   3.840 -2.0310 -2.1665 -0.4459
18644SOL     OW58951   4.783   2.664   4.015  0.1110  0.5113  0.5868
18644SOL    HW158952   4.841   2.664   3.939 -0.2732  0.4770  0.2923
18644SOL    HW258953   4.775   2.571   4.038 -0.5039  0.4379  0.1045
18645SOL     OW58954   7.217   4.629   0.085  0.1834  0.4355  0.0281
18645SOL    HW158955   7.218   4.547   0.135  1.5207 -0.0283 -0.7432
18645SOL    HW258956   7.267   4.610   0.006 -0.4990  1.6595 -0.7170
18646SOL     OW58957   2.975   0.167   1.806 -0.3476 -0.0451 -0.0281
18646SOL    HW158958   3.031   0.160   1.884 -3.4661  0.6796  2.3528
18646SOL    HW258959   2.940   0.079   1.793  0.1123 -0.1483 -0.5764
18647SOL     OW58960   6.979   4.013   8.254 -0.3766  0.2848 -0.1290
18647SOL    HW158961   6.963   4.036   8.162 -0.1865 -1.7766 -0.6919
18647SOL    HW258962   6.892   4.015   8.294 -0.8428 -1.4997 -1.0024
18648SOL     OW58963   0.505   8.986   5.905  0.0596  0.7106  0.4460
18648SOL    HW158964   0.427   8.976   5.960 -1.4912  0.8379 -1.6482
18648SOL    HW258965   0.548   9.065   5.939 -0.9403  0.8714  1.3864
18649SOL     OW58966   7.795   2.440   4.128  0.2828  0.1137  0.4474
18649SOL    HW158967   7.842   2.399   4.201  2.4475  0.2150 -0.8635
18649SOL    HW258968   7.786   2.371   4.063 -0.3583  0.4209  0.2026
18650SOL     OW58969   9.439   5.723   9.229  0.6424  0.3403  0.3957
18650SOL    HW158970   9.363   5.665   9.231  1.2947 -0.5546 -0.4359
18650SOL    HW258971   9.508   5.674   9.273  1.5223  0.0038 -1.3216
18651SOL     OW58972   2.185   5.889   7.155 -0.4425 -0.0671  0.2455
18651SOL    HW158973   2.230   5.917   7.235 -1.0730  1.1726  0.1776
18651SOL    HW258974   2.102   5.936   7.157 -0.9214 -0.8608 -0.6094
18652SOL     OW58975   1.553   3.879   7.965 -0.0053 -0.1276 -0.0980
18652SOL    HW158976   1.483   3.880   8.030 -1.6392  1.1628 -1.8442
18652SOL    HW258977   1.548   3.792   7.926 -0.4695 -0.1271 -0.0424
18653SOL     OW58978   6.721   8.758   2.609  0.1178  0.1955  0.1455
18653SOL    HW158979   6.785   8.828   2.622  1.1476 -1.0495  2.0696
18653SOL    HW258980   6.710   8.752   2.515  0.8981  2.1716 -0.0892
18654SOL     OW58981   9.173   8.527   6.208  0.3296 -0.1044 -0.3117
18654SOL    HW158982   9.105   8.595   6.207  0.4842  0.0415 -0.6531
18654SOL    HW258983   9.139   8.458   6.152 -0.1808 -0.6573  0.6486
18655SOL     OW58984   5.403   8.132   4.780  0.3706 -0.0721  0.0931
18655SOL    HW158985   5.491   8.126   4.817  0.9584 -0.3778 -1.3532
18655SOL    HW258986   5.365   8.208   4.823  1.1752 -0.2109  1.0700
18656SOL     OW58987   5.680   3.132   2.934 -0.4631 -0.1159  0.3995
18656SOL    HW158988   5.594   3.171   2.950 -0.6546 -0.0624 -0.6996
18656SOL    HW258989   5.667   3.077   2.857  1.0562  1.8611 -1.3387
18657SOL     OW58990   2.482   3.508   5.628  0.0032  0.3186  0.3158
18657SOL    HW158991   2.498   3.537   5.718 -0.2919  0.0899  0.4429
18657SOL    HW258992   2.450   3.418   5.637 -1.3583  0.7695  0.0590
18658SOL     OW58993   0.325   9.054   9.436 -0.1954 -0.1224 -0.2386
18658SOL    HW158994   0.365   9.115   9.499 -0.0501 -0.2943 -0.1622
18658SOL    HW258995   0.338   8.968   9.476  0.1349 -0.2545 -0.6338
18659SOL     OW58996   4.182   9.080   9.293  0.5963 -0.3735 -0.8592
18659SOL    HW158997   4.193   8.987   9.313  0.1105 -0.3537 -0.4810
18659SOL    HW258998   4.113   9.083   9.226 -1.2286 -0.1292  0.9881
18660SOL     OW58999   4.713   1.864   3.172 -0.3597  0.3161 -0.4430
18660SOL    HW159000   4.639   1.821   3.215  1.4941 -1.6509  0.8713
18660SOL    HW259001   4.722   1.948   3.217  0.9556 -1.3076  2.4758
18661SOL     OW59002   4.595   4.060   0.036  0.6496 -0.4107  0.0614
18661SOL    HW159003   4.532   4.029  -0.028  1.7154 -0.6484 -0.8887
18661SOL    HW259004   4.550   4.052   0.120 -0.5131 -0.7358 -0.5821
18662SOL     OW59005   2.265   5.035   3.909 -0.2249 -0.1512 -0.6028
18662SOL    HW159006   2.278   5.006   4.000 -1.7510 -0.6266 -0.5249
18662SOL    HW259007   2.350   5.019   3.867  0.4465 -0.0838  0.6909
18663SOL     OW59008   2.027   7.369   1.682  0.2017 -0.0253  0.1909
18663SOL    HW159009   2.042   7.356   1.776 -1.3188 -0.1890  0.4206
18663SOL    HW259010   1.957   7.434   1.678 -0.7323 -1.0946 -0.8148
18664SOL     OW59011   3.141   4.762   1.868 -0.0636 -0.2538 -0.1688
18664SOL    HW159012   3.103   4.746   1.954 -1.9476  0.0429 -0.9160
18664SOL    HW259013   3.178   4.677   1.842 -2.7137 -1.3465 -0.5946
18665SOL     OW59014   2.102   8.035   3.246 -0.0866 -0.2324 -0.1610
18665SOL    HW159015   2.196   8.050   3.246  0.1258 -1.3845  1.3507
18665SOL    HW259016   2.087   7.972   3.175  0.3949 -0.6771  0.1331
18666SOL     OW59017   4.033   8.465   6.360  0.1394 -0.4368  0.4074
18666SOL    HW159018   3.992   8.476   6.275  1.4630 -0.0062 -0.1868
18666SOL    HW259019   4.026   8.371   6.378 -0.0448 -0.5442 -0.2323
18667SOL     OW59020   7.043   8.700   7.513 -0.4081  0.2535 -0.5736
18667SOL    HW159021   7.067   8.621   7.464 -1.4199 -0.9335  0.7996
18667SOL    HW259022   6.978   8.670   7.576  0.1121  1.9543  0.8056
18668SOL     OW59023   0.158   4.548   7.065  0.5138  0.4673  0.0702
18668SOL    HW159024   0.201   4.556   6.980 -0.9832 -0.6440 -0.8070
18668SOL    HW259025   0.070   4.584   7.052 -0.0526 -0.5843  0.8749
18669SOL     OW59026   5.556   1.221   0.768  0.2808 -0.1731  0.1916
18669SOL    HW159027   5.577   1.253   0.856  1.5849 -0.4705 -0.0048
18669SOL    HW259028   5.637   1.179   0.738 -0.2611 -0.3525 -1.0268
18670SOL     OW59029   4.075   1.551   5.845  0.1494  0.0843  0.4910
18670SOL    HW159030   4.033   1.635   5.824  2.0623  0.9592  0.0639
18670SOL    HW259031   4.035   1.524   5.927 -2.9587 -0.3080 -1.0927
18671SOL     OW59032   1.143   4.590   7.062  0.1380  0.3169  0.1349
18671SOL    HW159033   1.097   4.639   7.130 -2.3619 -1.5549 -0.1547
18671SOL    HW259034   1.226   4.565   7.102 -0.6626  0.5297  1.9809
18672SOL     OW59035   0.098   6.495   0.532  0.2109 -0.0771 -0.4981
18672SOL    HW159036   0.110   6.544   0.614 -2.0144 -0.0753 -0.1545
18672SOL    HW259037   0.004   6.500   0.515  0.1207 -3.1465 -1.1327
18673SOL     OW59038   6.746   5.608   0.236 -0.1367  0.1368  0.0082
18673SOL    HW159039   6.759   5.550   0.311 -0.8188  1.2488  0.9953
18673SOL    HW259040   6.832   5.610   0.192  0.2579 -0.5296  0.7349
18674SOL     OW59041   4.958   8.403   3.037  0.8277  0.2572 -0.6772
18674SOL    HW159042   4.967   8.309   3.048 -0.1603  0.0116 -1.8912
18674SOL    HW259043   4.900   8.430   3.108  1.0196 -0.0555 -0.4004
18675SOL     OW59044   3.468   7.436   2.552 -0.4012  0.5936 -0.2825
18675SOL    HW159045   3.527   7.504   2.519 -0.6087  0.4961 -0.8481
18675SOL    HW259046   3.526   7.363   2.574  0.0464  1.5974  2.0664
18676SOL     OW59047   7.491   2.234   4.773 -0.1502 -0.6903 -0.0201
18676SOL    HW159048   7.400   2.246   4.800  0.0567  0.2355  0.2748
18676SOL    HW259049   7.535   2.204   4.852  0.3252  1.4054  0.5440
18677SOL     OW59050   0.488   3.136   4.971  1.1717  0.1256 -0.5163
18677SOL    HW159051   0.456   3.218   4.934  0.6899 -0.2315 -0.9011
18677SOL    HW259052   0.470   3.071   4.903  1.6652 -0.2749 -0.2627
18678SOL     OW59053   3.012   0.582   0.552 -0.4719  0.1508 -0.1600
18678SOL    HW159054   3.034   0.489   0.548  1.0192  0.5157 -0.7153
18678SOL    HW259055   3.064   0.622   0.482 -1.9739  1.2372 -0.6774
18679SOL     OW59056   9.040   6.260   4.334 -0.3654  0.2027 -0.2965
18679SOL    HW159057   9.045   6.298   4.246  0.7472 -1.6249 -1.0676
18679SOL    HW259058   9.063   6.168   4.321  0.2290  0.0053  1.9842
18680SOL     OW59059   1.829   5.476   4.673  0.5693 -0.4102  0.1860
18680SOL    HW159060   1.805   5.415   4.604 -1.6351  0.9972 -0.3144
18680SOL    HW259061   1.749   5.490   4.724  1.6386  0.1839  1.7769
18681SOL     OW59062   2.538   0.810   1.907 -0.3738  0.3771  1.1251
18681SOL    HW159063   2.537   0.869   1.832  0.4432  0.3254  1.0715
18681SOL    HW259064   2.587   0.733   1.877 -0.7517  0.0062  1.4470
18682SOL     OW59065   4.971   3.723   2.790 -0.2110 -0.3694  0.1507
18682SOL    HW159066   4.961   3.803   2.841  2.3995  0.5200 -0.6449
18682SOL    HW259067   5.041   3.674   2.833  0.6597 -0.5348 -1.3875
18683SOL     OW59068   1.233   5.355   1.076 -0.5911  0.0196  1.0233
18683SOL    HW159069   1.229   5.291   1.005  0.7488 -1.8269  2.5571
18683SOL    HW259070   1.211   5.305   1.154  4.4958  0.3617  2.8740
18684SOL     OW59071   8.339   4.491   1.425 -0.1558  0.3443 -0.2579
18684SOL    HW159072   8.356   4.510   1.332 -0.0728  0.7656 -0.1565
18684SOL    HW259073   8.247   4.513   1.438 -0.1084  0.4918 -0.1830
18685SOL     OW59074   2.358   4.882   1.098 -0.5052  0.5641  0.1422
18685SOL    HW159075   2.268   4.893   1.127 -0.4751  2.6951 -0.5186
18685SOL    HW259076   2.400   4.965   1.116  0.9678  0.0613 -0.8466
18686SOL     OW59077   4.277   4.537   1.997  0.5677  0.1452 -0.1194
18686SOL    HW159078   4.240   4.625   2.001  1.2287  0.4237 -0.1416
18686SOL    HW259079   4.309   4.529   1.907  0.3467 -0.1860 -0.1712
18687SOL     OW59080   0.348   4.273   0.183 -0.3400 -0.0546  0.2162
18687SOL    HW159081   0.346   4.274   0.087  1.6648  0.7212  0.1649
18687SOL    HW259082   0.380   4.185   0.204  3.0176  1.0684  0.0429
18688SOL     OW59083   0.143   6.161   7.462  0.2710  0.5776 -0.3362
18688SOL    HW159084   0.133   6.180   7.368 -1.5623  1.1664 -0.0404
18688SOL    HW259085   0.159   6.246   7.502  2.5840  0.1510 -0.2662
18689SOL     OW59086   8.856   6.867   9.085  0.2698 -0.1762 -0.6277
18689SOL    HW159087   8.910   6.807   9.033 -0.8915  0.1086 -2.2028
18689SOL    HW259088   8.911   6.944   9.098  0.7244 -0.4180 -1.1048
18690SOL     OW59089   8.499   0.057   5.182 -0.1291  0.3856 -0.2164
18690SOL    HW159090   8.586   0.054   5.223 -1.0672 -0.1752  1.8167
18690SOL    HW259091   8.517   0.070   5.089  2.0442  3.1286  0.5160
18691SOL     OW59092   7.729   6.498   7.107  0.0843 -0.1702  0.6955
18691SOL    HW159093   7.653   6.488   7.165  1.4167 -3.1018  2.0393
18691SOL    HW259094   7.805   6.494   7.166  1.3353  2.9221 -0.5855
18692SOL     OW59095   5.463   8.798   7.786  0.5168 -0.2050 -0.0194
18692SOL    HW159096   5.505   8.724   7.830 -0.1255 -0.3939  0.2848
18692SOL    HW259097   5.514   8.874   7.813  2.1435 -0.7217 -1.5910
18693SOL     OW59098   0.286   9.084   6.846 -0.1659 -0.3655  0.5634
18693SOL    HW159099   0.201   9.082   6.802  0.0720 -0.2040  0.1001
18693SOL    HW259100   0.342   9.028   6.793  0.2259  0.1355  0.4447
18694SOL     OW59101   2.451   4.671   5.350  0.2865 -0.1165  0.0498
18694SOL    HW159102   2.440   4.763   5.324  0.8456  0.0544  0.4059
18694SOL    HW259103   2.468   4.675   5.444  1.8193 -0.4648 -0.1962
18695SOL     OW59104   2.113   1.376   8.273 -0.2347  0.4587  0.3380
18695SOL    HW159105   2.029   1.354   8.231 -0.5593 -1.6990  2.0185
18695SOL    HW259106   2.088   1.415   8.357  0.4135 -1.8266  1.6301
18696SOL     OW59107   5.478   6.790   2.607 -0.0471  0.1935 -0.1438
18696SOL    HW159108   5.429   6.873   2.611 -0.8835 -0.4083  3.5648
18696SOL    HW259109   5.570   6.816   2.613 -0.1252  0.9789 -1.8427
18697SOL     OW59110   7.565   3.176   0.995  0.2214  0.4550 -0.5895
18697SOL    HW159111   7.643   3.212   1.037 -0.2798  0.5520  0.2559
18697SOL    HW259112   7.561   3.221   0.910  0.7998  0.8161 -0.4259
18698SOL     OW59113   7.258   1.654   4.722  0.1425  0.0937  0.1538
18698SOL    HW159114   7.191   1.680   4.785 -0.6097  0.8027 -0.9325
18698SOL    HW259115   7.341   1.664   4.770 -0.3242  1.8395  0.6331
18699SOL     OW59116   9.283   6.791   3.948  0.6288  0.3714 -0.2016
18699SOL    HW159117   9.275   6.701   3.980  1.3964  0.0618 -0.8619
18699SOL    HW259118   9.246   6.845   4.018  1.4223 -0.3618  0.8020
18700SOL     OW59119   4.933   6.980   3.984 -0.1604 -0.3383 -0.5128
18700SOL    HW159120   4.980   6.999   3.903 -1.2920 -1.7669 -1.5239
18700SOL    HW259121   5.000   6.948   4.044  0.6533  0.5805 -0.9124
18701SOL     OW59122   6.674   5.343   2.179  0.2101  0.2615 -0.2384
18701SOL    HW159123   6.667   5.278   2.110  0.2315  1.1953 -1.1364
18701SOL    HW259124   6.758   5.386   2.164  0.8273 -0.4188  1.1772
18702SOL     OW59125   4.261   7.241   4.740  0.3127  0.8178 -0.2490
18702SOL    HW159126   4.308   7.181   4.797  1.1388  0.2607 -1.4843
18702SOL    HW259127   4.307   7.235   4.656 -0.5956  1.9534 -0.8434
18703SOL     OW59128   4.878   8.605   4.046 -0.1489  0.1847 -0.6713
18703SOL    HW159129   4.807   8.654   4.087 -1.4123 -1.1725 -1.1900
18703SOL    HW259130   4.952   8.614   4.106 -1.7475 -1.1791  1.5848
18704SOL     OW59131   5.727   0.925   2.333 -0.3173 -0.1553  0.0009
18704SOL    HW159132   5.771   0.865   2.274  1.2839  2.2007 -1.2471
18704SOL    HW259133   5.651   0.957   2.284  0.4553  1.0421 -0.4275
18705SOL     OW59134   3.859   6.029   6.967  0.6600  0.5711  0.3337
18705SOL    HW159135   3.814   5.952   7.003  2.2054 -2.2098 -3.3350
18705SOL    HW259136   3.950   6.017   6.993  1.1284  0.4229 -1.2867
18706SOL     OW59137   7.130   8.236   9.424  0.2922  0.9829  0.4920
18706SOL    HW159138   7.176   8.317   9.444  0.1499  1.2177 -0.1334
18706SOL    HW259139   7.133   8.229   9.329 -0.8745  0.9510  0.4472
18707SOL     OW59140   6.893   0.238   1.960  0.1580  0.4765  0.4967
18707SOL    HW159141   6.924   0.303   2.023  2.0425 -0.0041  0.1133
18707SOL    HW259142   6.966   0.227   1.900 -1.3015  0.2980 -1.2873
18708SOL     OW59143   2.354   3.857   2.579  0.0540 -0.1229  0.1493
18708SOL    HW159144   2.303   3.787   2.538 -0.3824 -0.4970  1.3124
18708SOL    HW259145   2.435   3.815   2.607  0.3421  0.1260 -0.3146
18709SOL     OW59146   3.095   1.869   0.384  0.1920  0.6980 -0.2122
18709SOL    HW159147   3.014   1.895   0.429  1.2833  0.5789  1.9098
18709SOL    HW259148   3.070   1.797   0.327 -1.0765  0.2399  0.9184
18710SOL     OW59149   1.078   0.202   0.630  0.3187 -0.1979 -0.3581
18710SOL    HW159150   1.091   0.241   0.716 -2.0859  0.4573 -0.2515
18710SOL    HW259151   1.164   0.168   0.605  1.9762  3.1585  0.5169
18711SOL     OW59152   5.599   2.385   5.217  0.4091 -0.3080 -0.3575
18711SOL    HW159153   5.599   2.458   5.278 -0.0637 -0.7084  0.1280
18711SOL    HW259154   5.561   2.420   5.137  1.2172  0.2724 -0.4934
18712SOL     OW59155   1.828   9.067   1.355  0.2698  0.7736  0.0041
18712SOL    HW159156   1.870   9.076   1.440 -0.7724  1.7591  0.4310
18712SOL    HW259157   1.874   9.129   1.298  0.3010  0.8411  0.1051
18713SOL     OW59158   2.852   4.397   6.563 -0.6634  0.3778 -0.1543
18713SOL    HW159159   2.878   4.427   6.650 -1.3701 -0.6502  0.4232
18713SOL    HW259160   2.809   4.312   6.578 -2.2742  0.9539 -1.3227
18714SOL     OW59161   3.719   3.361   4.952 -0.3875  0.5776 -0.2423
18714SOL    HW159162   3.671   3.306   5.013  0.7484  0.1945  0.3207
18714SOL    HW259163   3.811   3.337   4.964 -0.1468  0.4304 -2.1685
18715SOL     OW59164   8.413   2.182   4.366 -0.1812 -0.1664  0.2385
18715SOL    HW159165   8.335   2.195   4.420  0.7852 -0.7504  1.7894
18715SOL    HW259166   8.459   2.110   4.407  2.7245  2.0960  1.1040
18716SOL     OW59167   2.517   4.918   3.907 -0.4597  0.5141  0.2084
18716SOL    HW159168   2.612   4.924   3.908 -0.4804  0.8442  1.7963
18716SOL    HW259169   2.498   4.829   3.937 -0.6621  0.6213  0.4009
18717SOL     OW59170   5.220   3.982   2.945 -0.7616 -0.2159  0.0503
18717SOL    HW159171   5.243   3.889   2.955  0.2296 -0.2442 -2.2868
18717SOL    HW259172   5.259   4.008   2.862 -0.5361  2.4811  0.9583
18718SOL     OW59173   6.409   1.956   3.377  0.5302  0.0070  0.0629
18718SOL    HW159174   6.337   1.927   3.433  1.7462 -0.8940  1.1786
18718SOL    HW259175   6.409   1.895   3.303 -0.9974  1.1252 -0.8959
18719SOL     OW59176   8.794   2.809   2.797  0.4642 -0.5212  0.1609
18719SOL    HW159177   8.786   2.721   2.835  1.8837 -0.3361  0.9071
18719SOL    HW259178   8.887   2.829   2.801  0.1617  1.0143 -0.0297
18720SOL     OW59179   5.574   7.991   3.740  0.8568 -0.1317  0.0290
18720SOL    HW159180   5.480   7.988   3.719  0.8550  2.5665 -0.4297
18720SOL    HW259181   5.611   7.916   3.694 -1.2375 -1.9211  1.1509
18721SOL     OW59182   1.582   0.409   5.965  0.4954  0.3252  0.3740
18721SOL    HW159183   1.618   0.490   6.002 -1.6405 -0.0238  3.4072
18721SOL    HW259184   1.517   0.440   5.901  0.8096  0.9814  0.3633
18722SOL     OW59185   4.477   4.765   8.518  0.5780  0.1645 -0.3639
18722SOL    HW159186   4.429   4.803   8.444 -1.0933 -1.6690 -0.2833
18722SOL    HW259187   4.551   4.720   8.478  1.7131  2.2120 -0.5850
18723SOL     OW59188   1.664   2.575   9.123  0.2427  0.5608 -0.2545
18723SOL    HW159189   1.596   2.616   9.068  0.1385 -0.6680 -1.0661
18723SOL    HW259190   1.702   2.508   9.066  0.9470  0.0720  0.7985
18724SOL     OW59191   6.836   1.099   4.473 -0.5360  0.4312 -0.0515
18724SOL    HW159192   6.845   1.179   4.422 -0.0755  1.3644  1.4583
18724SOL    HW259193   6.750   1.105   4.514  0.0119  0.7776  1.0806
18725SOL     OW59194   9.091   1.375   4.732 -0.4949  0.6857 -0.1671
18725SOL    HW159195   9.122   1.373   4.823  0.7984  0.4962 -0.6016
18725SOL    HW259196   9.025   1.444   4.731 -1.0387  0.2031  1.0788
18726SOL     OW59197   1.345   4.232   0.572  0.4745 -0.5839 -0.0145
18726SOL    HW159198   1.384   4.145   0.575  0.8017 -0.4855 -1.0350
18726SOL    HW259199   1.348   4.256   0.479 -0.8855 -0.0558  0.0731
18727SOL     OW59200   6.179   1.726   1.291 -0.4572  0.4164  0.0339
18727SOL    HW159201   6.194   1.726   1.197  0.2716 -0.9202  0.1374
18727SOL    HW259202   6.108   1.663   1.304 -1.1850  1.2844  0.2880
18728SOL     OW59203   8.901   3.411   1.759  0.0456 -0.2337  0.1580
18728SOL    HW159204   8.993   3.382   1.756  0.3686  0.6472  1.3318
18728SOL    HW259205   8.899   3.478   1.827 -1.2286  0.6580 -0.7351
18729SOL     OW59206   6.405   3.686   1.130 -0.1533  0.7477  0.5304
18729SOL    HW159207   6.488   3.732   1.117 -0.6095  1.7260  0.9962
18729SOL    HW259208   6.338   3.752   1.111 -0.8275 -0.1769 -0.3157
18730SOL     OW59209   7.925   5.933   5.147  0.3082  0.2617  0.3587
18730SOL    HW159210   8.001   5.956   5.093 -0.9740 -1.3340 -2.1698
18730SOL    HW259211   7.894   5.850   5.112 -2.6378  0.8877  1.3347
18731SOL     OW59212   2.794   7.170   1.833  0.5898  0.2017 -0.0049
18731SOL    HW159213   2.785   7.264   1.843 -2.9907  0.1743 -2.1174
18731SOL    HW259214   2.804   7.137   1.922 -0.0845  2.3885  0.9147
18732SOL     OW59215   2.276   4.562   1.609 -0.4847  0.2657  0.2473
18732SOL    HW159216   2.225   4.538   1.686 -0.3177 -0.8857  0.0064
18732SOL    HW259217   2.360   4.517   1.621  1.4204  4.0171  1.8333
18733SOL     OW59218   7.721   0.934   7.929  0.5605  0.2593 -0.8447
18733SOL    HW159219   7.766   1.016   7.945  0.3782  0.3911 -1.0022
18733SOL    HW259220   7.634   0.946   7.968  1.2006 -0.5747  0.8753
18734SOL     OW59221   2.866   5.533   5.529 -0.0665 -0.2602 -0.4684
18734SOL    HW159222   2.817   5.605   5.568 -0.1304  0.4835 -1.8577
18734SOL    HW259223   2.801   5.486   5.477  0.2530 -0.5066 -0.6428
18735SOL     OW59224   4.639   2.159   5.075  0.1230  0.0389  0.0185
18735SOL    HW159225   4.615   2.124   5.161  2.3845  0.2812  0.7865
18735SOL    HW259226   4.566   2.137   5.018 -1.3935 -0.1691  2.0065
18736SOL     OW59227   8.083   3.751   3.710  0.2271  0.4724 -0.7695
18736SOL    HW159228   8.173   3.725   3.693  0.1594  0.1705 -0.6601
18736SOL    HW259229   8.030   3.679   3.677 -0.0153  1.0708 -1.6932
18737SOL     OW59230   2.881   3.827   8.624  0.0135 -0.2472  0.1146
18737SOL    HW159231   2.919   3.902   8.669 -1.0112  0.4903 -0.2285
18737SOL    HW259232   2.849   3.770   8.694  0.5435 -0.2399  0.3680
18738SOL     OW59233   7.220   8.784   4.519 -0.8626  0.2539  0.2224
18738SOL    HW159234   7.241   8.830   4.600 -0.8753  0.7959 -0.0841
18738SOL    HW259235   7.125   8.776   4.520 -0.8321 -0.1287  0.4687
18739SOL     OW59236   5.474   2.125   2.130 -0.1485 -0.4431 -0.0984
18739SOL    HW159237   5.527   2.085   2.199  0.7108 -1.3586 -1.2650
18739SOL    HW259238   5.426   2.195   2.173  3.4715  1.6942  0.6166
18740SOL     OW59239   6.678   4.394   3.556 -0.1206 -0.1953  0.1701
18740SOL    HW159240   6.629   4.457   3.609  0.9760 -0.0830  1.0731
18740SOL    HW259241   6.676   4.314   3.608  0.4690 -0.2490  0.1025
18741SOL     OW59242   2.282   5.231   6.286 -0.2987 -0.1583  0.0187
18741SOL    HW159243   2.217   5.210   6.219 -0.5625 -0.9114  0.5031
18741SOL    HW259244   2.274   5.160   6.350  0.8929 -0.1766  0.1652
18742SOL     OW59245   1.103   8.557   0.899 -0.3232  0.6307 -0.1825
18742SOL    HW159246   1.118   8.479   0.953  0.7121  0.8475 -0.1571
18742SOL    HW259247   1.048   8.613   0.953  1.1172  1.0646  0.8489
18743SOL     OW59248   7.029   3.837   4.989 -0.2336 -0.2449  0.4043
18743SOL    HW159249   7.115   3.796   4.977 -0.1803  0.0348 -0.1961
18743SOL    HW259250   6.972   3.791   4.927  0.1124  1.4248 -1.2016
18744SOL     OW59251   4.885   6.062   1.426 -0.3559  0.1913 -0.8372
18744SOL    HW159252   4.846   6.139   1.384  1.0368  1.6935  0.5487
18744SOL    HW259253   4.980   6.075   1.416 -0.0857 -0.7877  0.3671
18745SOL     OW59254   1.246   8.899   8.097 -0.6726 -0.6197 -0.9741
18745SOL    HW159255   1.180   8.925   8.161 -1.5785 -0.2596 -2.0331
18745SOL    HW259256   1.195   8.866   8.022  0.3884 -2.7693 -0.7994
18746SOL     OW59257   8.114   0.145   2.343  0.0186 -0.8111 -0.0218
18746SOL    HW159258   8.181   0.103   2.289 -0.2794 -2.0328  0.5445
18746SOL    HW259259   8.085   0.077   2.403  1.0793  0.8133  2.4073
18747SOL     OW59260   6.576   0.547   1.087  0.0780  0.4077 -0.7777
18747SOL    HW159261   6.642   0.549   1.018 -1.9022  2.4681 -2.6914
18747SOL    HW259262   6.512   0.481   1.057  0.2763 -0.2157  0.1412
18748SOL     OW59263   8.854   4.502   2.364  0.5132  0.1735  0.0813
18748SOL    HW159264   8.858   4.410   2.338 -1.6889 -0.0403  0.4701
18748SOL    HW259265   8.897   4.504   2.450  0.0473 -0.5751  0.3295
18749SOL     OW59266   6.131   8.001   3.119 -0.2200 -0.2941  0.2957
18749SOL    HW159267   6.119   7.920   3.068 -0.3327 -1.1563  1.6563
18749SOL    HW259268   6.172   8.062   3.058 -1.3018 -0.9597 -1.1394
18750SOL     OW59269   8.630   1.346   8.856  0.3551 -0.1384  0.2176
18750SOL    HW159270   8.613   1.386   8.771  1.1759  0.4279  0.3232
18750SOL    HW259271   8.681   1.410   8.904  0.7982 -0.8858  0.7598
18751SOL     OW59272   5.394   1.638   8.353  0.3748 -0.6107  0.3078
18751SOL    HW159273   5.347   1.720   8.338  2.6381  0.7939  0.6097
18751SOL    HW259274   5.331   1.581   8.396 -2.3210 -0.2637 -2.9660
18752SOL     OW59275   6.586   3.546   2.752 -0.0018 -0.7281  0.8258
18752SOL    HW159276   6.655   3.580   2.695 -0.1490 -0.3792  0.8492
18752SOL    HW259277   6.614   3.457   2.773 -1.1406 -1.7397 -1.7367
18753SOL     OW59278   8.833   6.732   4.169  0.3973  0.1906 -0.5514
18753SOL    HW159279   8.753   6.695   4.132  0.7611  0.7430 -1.9500
18753SOL    HW259280   8.807   6.815   4.208 -0.3007 -1.1958  1.9880
18754SOL     OW59281   0.906   1.951   3.663 -0.0855  0.4948  0.0794
18754SOL    HW159282   0.971   1.903   3.713 -0.1246  0.8198  0.4394
18754SOL    HW259283   0.827   1.948   3.717 -0.4081 -0.0077 -0.4102
18755SOL     OW59284   4.203   9.374   4.081 -0.3848  0.4663 -0.0345
18755SOL    HW159285   4.172   9.460   4.051 -2.5232 -0.7465 -1.4163
18755SOL    HW259286   4.298   9.379   4.070 -0.4866  2.5744 -0.3163
18756SOL     OW59287   3.949   3.905   0.300  0.0527  0.0430 -0.3211
18756SOL    HW159288   3.975   3.981   0.352  1.6251 -1.3666  1.0312
18756SOL    HW259289   3.930   3.940   0.213 -0.8540  2.1948  0.7089
18757SOL     OW59290   6.484   1.065   1.297  0.1390 -0.3841 -0.0030
18757SOL    HW159291   6.551   1.131   1.280 -0.1774 -0.2624 -0.8226
18757SOL    HW259292   6.435   1.099   1.372 -0.0358  0.3364 -0.4341
18758SOL     OW59293   7.615   7.347   8.040 -0.1102  0.3804  0.0551
18758SOL    HW159294   7.599   7.324   8.132 -1.2887 -0.0012 -0.2333
18758SOL    HW259295   7.596   7.266   7.992  0.2512  0.6539 -0.5458
18759SOL     OW59296   1.169   7.616   7.497 -0.1530 -0.3093 -0.0897
18759SOL    HW159297   1.250   7.583   7.537  0.6661  0.2712 -1.2357
18759SOL    HW259298   1.158   7.703   7.534 -0.3032 -0.4206  0.1297
18760SOL     OW59299   1.641   0.117   6.483 -0.5256  0.3513  0.2370
18760SOL    HW159300   1.722   0.167   6.470  0.2147 -1.2497 -1.6212
18760SOL    HW259301   1.625   0.076   6.398 -2.0789 -1.1364  1.2330
18761SOL     OW59302   4.601   2.863   4.022  0.4533 -0.2500 -0.0900
18761SOL    HW159303   4.664   2.792   4.030 -0.2216 -0.8627 -0.1628
18761SOL    HW259304   4.639   2.921   3.956  1.4324 -0.0806  0.6042
18762SOL     OW59305   7.302   4.678   0.519 -0.1422  0.2774 -0.1685
18762SOL    HW159306   7.259   4.760   0.494  1.0034  0.9077 -0.1122
18762SOL    HW259307   7.388   4.682   0.475  0.4278 -0.2992  0.8809
18763SOL     OW59308   6.588   8.481   7.120 -0.2747  0.2609 -0.2591
18763SOL    HW159309   6.555   8.393   7.102  1.9322 -0.5412 -0.5038
18763SOL    HW259310   6.624   8.510   7.036  2.0764  0.0414  0.6629
18764SOL     OW59311   2.496   2.616   6.453  0.0095  0.6162 -0.0164
18764SOL    HW159312   2.484   2.585   6.363  0.6772 -0.1481  0.1507
18764SOL    HW259313   2.590   2.606   6.469 -0.3286 -0.6412  1.2674
18765SOL     OW59314   5.558   3.661   7.096 -0.3910  0.2867  0.2282
18765SOL    HW159315   5.509   3.681   7.016  0.1382  0.4822 -0.0479
18765SOL    HW259316   5.490   3.644   7.162 -0.8330 -0.4249 -0.3952
18766SOL     OW59317   2.634   9.262   4.642 -0.1243  0.2743  0.2571
18766SOL    HW159318   2.551   9.275   4.596 -1.5225 -1.2859  2.2589
18766SOL    HW259319   2.658   9.348   4.676 -1.8674  0.3993  1.2059
18767SOL     OW59320   1.069   8.136   8.769 -0.0981 -0.7918 -0.2360
18767SOL    HW159321   0.981   8.110   8.742  0.1175 -0.6543 -1.1206
18767SOL    HW259322   1.112   8.054   8.794 -1.0159 -0.6560  1.8814
18768SOL     OW59323   4.607   6.257   6.339  0.4300 -0.0277 -0.3958
18768SOL    HW159324   4.610   6.169   6.376  1.4614  0.3089  0.3283
18768SOL    HW259325   4.699   6.284   6.332  0.0384  2.0864  2.0291
18769SOL     OW59326   5.526   6.189   5.979 -0.3967 -0.1036  0.1422
18769SOL    HW159327   5.518   6.285   5.981  1.9343  0.1905 -1.9663
18769SOL    HW259328   5.506   6.165   5.889 -1.0507 -1.6070  0.6877
18770SOL     OW59329   4.279   5.089   5.241  0.1614 -0.4782 -0.2230
18770SOL    HW159330   4.260   5.012   5.189  0.7153 -0.6996 -0.1056
18770SOL    HW259331   4.232   5.074   5.324  0.1256 -0.6091 -0.2661
18771SOL     OW59332   6.551   0.988   6.273 -0.4101 -0.3465  0.0968
18771SOL    HW159333   6.638   1.025   6.287 -1.5593  3.3982 -1.7444
18771SOL    HW259334   6.525   0.956   6.359  1.8377  0.7368  1.2329
18772SOL     OW59335   4.331   3.276   2.248  0.4621 -0.0698  0.3554
18772SOL    HW159336   4.296   3.363   2.233 -0.0582 -0.0665  1.5398
18772SOL    HW259337   4.259   3.227   2.288  0.3196 -1.4451 -1.5168
18773SOL     OW59338   8.785   5.303   2.998 -0.2950  0.3893 -0.6228
18773SOL    HW159339   8.782   5.230   3.060 -0.1241  2.1457  1.5123
18773SOL    HW259340   8.856   5.279   2.938 -0.1459 -1.1291  0.1120
18774SOL     OW59341   6.366   0.763   5.779 -0.1689  0.4298  0.6129
18774SOL    HW159342   6.279   0.724   5.765 -0.0880  1.2899 -2.5979
18774SOL    HW259343   6.423   0.718   5.717  1.0582  1.9541  0.6095
18775SOL     OW59344   0.207   0.374   5.262 -0.4090 -0.2961  0.9955
18775SOL    HW159345   0.300   0.393   5.251 -0.3166  0.5701  3.0168
18775SOL    HW259346   0.165   0.410   5.184  0.5632  2.2401  1.5987
18776SOL     OW59347   7.495   4.298   1.141  0.2841  0.7234 -0.0486
18776SOL    HW159348   7.505   4.215   1.095  0.6433 -0.0351  1.3494
18776SOL    HW259349   7.414   4.335   1.107  0.7037  0.3324 -1.4950
18777SOL     OW59350   2.231   6.174   0.283  0.2248  0.4860  0.4058
18777SOL    HW159351   2.221   6.198   0.375  1.5212  3.0563 -0.0800
18777SOL    HW259352   2.155   6.212   0.240 -0.2127 -0.4399  0.3461
18778SOL     OW59353   7.854   3.091   4.610  0.2341 -0.4500 -0.1389
18778SOL    HW159354   7.847   3.018   4.671 -1.9684 -0.3387 -0.2235
18778SOL    HW259355   7.802   3.065   4.534  1.3309  0.2486 -1.1579
18779SOL     OW59356   5.062   5.264   2.923 -0.2009 -0.7576  0.2667
18779SOL    HW159357   5.073   5.236   2.832 -1.0857 -1.5765  0.3993
18779SOL    HW259358   5.076   5.184   2.974 -0.5624 -0.4872  0.7965
18780SOL     OW59359   1.093   6.020   7.467 -0.0208 -0.4135 -0.3165
18780SOL    HW159360   1.168   5.966   7.444 -0.1226 -0.2131 -1.1373
18780SOL    HW259361   1.047   6.034   7.384 -1.0371 -0.6448  0.1932
18781SOL     OW59362   3.666   0.048   0.253 -0.3556 -0.1981 -0.1604
18781SOL    HW159363   3.673  -0.025   0.315  0.3779  0.2341  0.2702
18781SOL    HW259364   3.738   0.107   0.277  0.9467 -0.7884 -2.4224
18782SOL     OW59365   7.135   2.268   6.736 -0.3609 -0.0948 -0.1518
18782SOL    HW159366   7.118   2.207   6.665  1.1211 -0.2329 -0.4028
18782SOL    HW259367   7.222   2.303   6.717 -0.1685  0.2449  1.3118
18783SOL     OW59368   4.022   9.153   8.953 -0.3892  0.1581  0.2891
18783SOL    HW159369   4.103   9.105   8.934 -0.8415 -0.5668  0.1377
18783SOL    HW259370   3.959   9.117   8.890 -1.1760 -0.2599  1.3050
18784SOL     OW59371   0.581   6.519   9.166 -0.0874  0.2685 -0.0728
18784SOL    HW159372   0.504   6.522   9.222  1.6772  0.2180  2.4308
18784SOL    HW259373   0.609   6.427   9.168 -0.1651  0.2068 -1.2937
18785SOL     OW59374   9.320   9.067   0.046 -0.2736  0.5328 -0.0103
18785SOL    HW159375   9.384   9.094  -0.020 -0.3991 -0.9438 -0.7542
18785SOL    HW259376   9.371   9.017   0.110 -0.5063  0.1623 -0.1113
18786SOL     OW59377   2.136   6.505   6.223 -0.5994  0.1360  0.0465
18786SOL    HW159378   2.164   6.426   6.178 -0.5276 -1.0732  2.1215
18786SOL    HW259379   2.046   6.486   6.250  0.5205 -0.6577  3.5024
18787SOL     OW59380   1.386   6.466   0.350  0.0437 -0.6824  0.7912
18787SOL    HW159381   1.448   6.395   0.367  0.3022 -0.5497  0.3990
18787SOL    HW259382   1.313   6.425   0.303 -0.8232 -1.1169  2.4776
18788SOL     OW59383   8.000   2.528   1.918  0.5591  0.3787 -0.0494
18788SOL    HW159384   7.991   2.453   1.859 -1.7610 -0.5386  1.3868
18788SOL    HW259385   7.911   2.559   1.931  1.1331  1.2213  2.1095
18789SOL     OW59386   9.001   4.429   1.247 -0.6898 -0.1065  0.3331
18789SOL    HW159387   9.047   4.394   1.324 -0.3644 -0.8632 -0.2092
18789SOL    HW259388   8.977   4.352   1.195  1.2089  0.5325 -1.5364
18790SOL     OW59389   8.085   4.398   0.274 -0.0290 -0.0875  0.2356
18790SOL    HW159390   8.080   4.487   0.308  1.0662 -0.5163  1.5572
18790SOL    HW259391   8.178   4.377   0.274 -0.0965 -0.4899 -2.0631
18791SOL     OW59392   4.580   9.184   7.360  0.6654 -0.3724  0.8509
18791SOL    HW159393   4.571   9.246   7.288 -1.5693 -0.5232  0.9881
18791SOL    HW259394   4.518   9.214   7.426  0.0509 -2.3664  1.2025
18792SOL     OW59395   4.476   4.856   7.824  0.3141  0.0318  0.2493
18792SOL    HW159396   4.559   4.886   7.788 -0.1826  0.7730 -0.2704
18792SOL    HW259397   4.483   4.760   7.823  0.8021  0.0772 -0.6142
18793SOL     OW59398   9.377   5.669   4.585  0.2194 -0.5654 -0.0709
18793SOL    HW159399   9.414   5.582   4.569  0.2051 -0.4879 -0.5144
18793SOL    HW259400   9.350   5.701   4.499  0.7533  0.1184  0.0098
18794SOL     OW59401   1.316   9.211   1.363 -0.0714 -0.3612  0.8491
18794SOL    HW159402   1.394   9.161   1.386  0.7007  0.7537  0.7103
18794SOL    HW259403   1.274   9.231   1.446 -0.2302 -1.0028  0.9218
18795SOL     OW59404   3.812   5.885   0.777 -0.3195  0.7745 -0.0698
18795SOL    HW159405   3.901   5.915   0.758 -0.2070 -0.7537 -2.1031
18795SOL    HW259406   3.755   5.952   0.738 -0.0652  0.9958 -0.0578
18796SOL     OW59407   8.051   5.114   8.834 -0.8332 -0.4821 -0.3010
18796SOL    HW159408   8.068   5.089   8.743  0.1064  0.8285 -0.4873
18796SOL    HW259409   8.090   5.201   8.844 -0.0426 -1.0098  1.6276
18797SOL     OW59410   1.562   2.508   2.833 -0.2427  0.3469  0.2526
18797SOL    HW159411   1.544   2.549   2.917  0.9846  1.2771  0.0671
18797SOL    HW259412   1.655   2.521   2.818 -0.1787 -0.9802 -0.6367
18798SOL     OW59413   1.297   5.125   8.136  0.3010 -0.2560  0.6232
18798SOL    HW159414   1.211   5.137   8.175 -0.6445 -1.6057 -0.9951
18798SOL    HW259415   1.324   5.212   8.108 -1.3965 -0.1164 -0.6027
18799SOL     OW59416   6.930   6.443   2.590 -0.0474  0.0376 -0.5144
18799SOL    HW159417   6.923   6.428   2.684 -0.4997 -0.0588 -0.5632
18799SOL    HW259418   6.981   6.523   2.583 -1.4332  0.9676 -0.1406
18800SOL     OW59419   1.889   3.715   4.123  0.3838 -0.0270  0.2227
18800SOL    HW159420   1.817   3.673   4.170  1.5084 -0.8981  1.2075
18800SOL    HW259421   1.910   3.792   4.175 -0.0140  0.3888 -0.2231
18801SOL     OW59422   4.134   8.510   8.446 -0.0757  0.1051 -0.3484
18801SOL    HW159423   4.103   8.597   8.421 -0.9631  0.1265  0.8040
18801SOL    HW259424   4.112   8.454   8.372 -0.2231  0.6909 -0.7535
18802SOL     OW59425   3.710   7.875   5.591 -0.2618  0.2778 -0.6210
18802SOL    HW159426   3.657   7.935   5.645  1.2426  0.3382  0.8270
18802SOL    HW259427   3.743   7.811   5.653  1.2448  0.1541 -1.5453
18803SOL     OW59428   1.154   0.200   3.971 -0.6298  0.4850  0.7248
18803SOL    HW159429   1.142   0.280   4.023  1.7097  0.6060  1.1578
18803SOL    HW259430   1.241   0.169   3.997  0.0633 -0.1227 -2.2282
18804SOL     OW59431   4.536   6.765   3.970  0.2687 -0.1739  0.1503
18804SOL    HW159432   4.592   6.840   3.989  0.9837 -0.9958  1.3144
18804SOL    HW259433   4.583   6.716   3.903  1.8603 -1.8199  2.3829
18805SOL     OW59434   8.020   3.978   2.236  0.0681 -0.1058  0.5951
18805SOL    HW159435   8.039   3.988   2.329  1.7000 -1.3399  0.4084
18805SOL    HW259436   7.958   3.905   2.232 -0.4678  0.3401  0.7622
18806SOL     OW59437   0.139   7.812   9.359  0.1739 -0.4461 -0.0316
18806SOL    HW159438   0.182   7.733   9.392  0.4596 -0.2032  0.1783
18806SOL    HW259439   0.141   7.873   9.433  3.2379  1.0865 -1.2950
18807SOL     OW59440   3.383   6.103   2.424 -0.4957 -0.3492  0.5982
18807SOL    HW159441   3.343   6.045   2.359  0.5031  0.5679 -0.8607
18807SOL    HW259442   3.320   6.175   2.434 -0.8505 -0.7109  0.9677
18808SOL     OW59443   9.151   2.659   7.866 -0.0030  0.2964 -0.2046
18808SOL    HW159444   9.155   2.743   7.911  0.6650  0.5087 -0.6678
18808SOL    HW259445   9.227   2.658   7.809  0.4702 -0.9904  0.4285
18809SOL     OW59446   0.242   7.910   0.574  0.3058  0.4194  0.7874
18809SOL    HW159447   0.169   7.904   0.637  0.0404  1.2588  0.5744
18809SOL    HW259448   0.221   7.846   0.507 -0.5743  1.1023  0.3989
18810SOL     OW59449   1.237   2.532   5.024 -0.3292  0.2355  0.0857
18810SOL    HW159450   1.216   2.573   4.940 -1.6363  0.1921  0.3799
18810SOL    HW259451   1.162   2.553   5.080  0.1025 -0.5310  0.9550
18811SOL     OW59452   1.416   7.764   2.871 -0.3308 -0.3282  0.1429
18811SOL    HW159453   1.466   7.687   2.900 -0.1354  0.0608  0.8497
18811SOL    HW259454   1.482   7.831   2.853 -0.5248 -0.1959 -0.0727
18812SOL     OW59455   6.504   8.034   6.894  0.6446  0.5700 -0.1738
18812SOL    HW159456   6.501   7.985   6.811  3.4325  0.6344 -0.3653
18812SOL    HW259457   6.517   8.125   6.867 -1.8004  1.0783  0.2690
18813SOL     OW59458   8.327   7.539   1.673  0.5344 -0.1889 -0.2483
18813SOL    HW159459   8.233   7.537   1.652  0.4492 -0.9641  0.1984
18813SOL    HW259460   8.330   7.537   1.769  0.9763  1.3717 -0.2086
18814SOL     OW59461   9.196   7.614   3.437 -0.3072  0.5292 -0.3980
18814SOL    HW159462   9.263   7.651   3.379 -1.3725  0.8220 -1.4718
18814SOL    HW259463   9.238   7.609   3.522  0.4693  2.5454 -0.6324
18815SOL     OW59464   1.836   5.506   4.042  0.5659  0.1987 -0.1499
18815SOL    HW159465   1.891   5.578   4.072  1.7116 -1.1350  0.9692
18815SOL    HW259466   1.894   5.430   4.038  0.2297  0.0310 -4.6950
18816SOL     OW59467   5.558   5.790   4.629 -0.9390 -0.3759 -0.3093
18816SOL    HW159468   5.554   5.859   4.562  2.9666 -0.8445 -1.1105
18816SOL    HW259469   5.558   5.838   4.712 -1.4773  0.4186 -0.7549
18817SOL     OW59470   2.851   6.988   8.393  1.0583 -0.2449  0.2625
18817SOL    HW159471   2.828   7.080   8.405  1.3947 -0.1080 -0.1464
18817SOL    HW259472   2.933   6.990   8.345 -0.3341 -0.8170 -2.1908
18818SOL     OW59473   0.154   3.078   5.534 -0.5237 -0.4739 -0.3509
18818SOL    HW159474   0.116   3.166   5.528 -0.4541 -0.4113  0.1412
18818SOL    HW259475   0.104   3.026   5.471  0.0559  0.1439 -1.3415
18819SOL     OW59476   4.147   4.674   6.122 -0.3475 -0.0886 -0.6147
18819SOL    HW159477   4.129   4.587   6.085 -1.9907  0.4351 -1.1049
18819SOL    HW259478   4.176   4.657   6.212 -0.4851 -1.1518 -0.7688
18820SOL     OW59479   5.411   3.042   7.643  0.2831 -0.4120 -0.0761
18820SOL    HW159480   5.465   2.981   7.694 -0.3217 -0.3051  0.7144
18820SOL    HW259481   5.349   3.078   7.707 -0.6645 -0.4632 -0.9386
18821SOL     OW59482   5.406   2.032   8.152  0.4926  0.1620  0.1191
18821SOL    HW159483   5.379   2.030   8.244 -0.7690  2.0497 -0.1762
18821SOL    HW259484   5.323   2.030   8.103  0.9934  2.5099 -0.8923
18822SOL     OW59485   3.842   7.894   6.892 -0.3679 -0.2062 -0.1832
18822SOL    HW159486   3.938   7.895   6.887 -0.3795  0.9125 -0.4236
18822SOL    HW259487   3.822   7.832   6.962  0.5024 -1.0671 -0.6853
18823SOL     OW59488   5.336   2.826   0.424 -0.1993  0.1695  0.0327
18823SOL    HW159489   5.394   2.854   0.353 -0.4911 -0.1174 -0.3238
18823SOL    HW259490   5.364   2.737   0.444  0.9993  0.8595  1.4486
18824SOL     OW59491   3.297   1.216   9.418 -0.6603  0.7506  0.3031
18824SOL    HW159492   3.206   1.228   9.445 -1.2272 -2.3609 -0.1011
18824SOL    HW259493   3.339   1.174   9.492 -0.4231 -1.0111 -0.8027
18825SOL     OW59494   8.778   3.467   3.263 -0.2649  0.0439  0.0527
18825SOL    HW159495   8.780   3.410   3.340  1.4770 -1.5757 -1.1402
18825SOL    HW259496   8.870   3.487   3.246 -0.6883  0.9568 -1.1981
18826SOL     OW59497   4.904   1.661   7.378  0.2212 -0.2638  0.4182
18826SOL    HW159498   4.823   1.700   7.412  0.4593  0.0920  0.5759
18826SOL    HW259499   4.956   1.735   7.348 -0.0344 -0.5718 -0.8545
18827SOL     OW59500   3.951   3.173   3.697 -0.7650 -0.4269 -0.6090
18827SOL    HW159501   3.856   3.160   3.702 -1.1176  1.6414 -1.1471
18827SOL    HW259502   3.967   3.251   3.751  0.7292 -1.1916  0.0659
18828SOL     OW59503   3.638   4.529   4.827 -0.3023 -0.4972 -0.1496
18828SOL    HW159504   3.722   4.540   4.871 -0.9127 -0.5617  1.0388
18828SOL    HW259505   3.581   4.490   4.892 -1.5438  0.4709 -0.6302
18829SOL     OW59506   5.308   1.792   9.130  0.0922  0.0164  0.7263
18829SOL    HW159507   5.269   1.874   9.099  0.7738  0.2150  0.3720
18829SOL    HW259508   5.234   1.739   9.157 -0.4668  0.1961 -0.3921
18830SOL     OW59509   0.836   3.194   2.738  0.2949 -0.2968  0.2566
18830SOL    HW159510   0.926   3.207   2.768  0.4753  0.2373 -0.4958
18830SOL    HW259511   0.820   3.100   2.750  1.3683 -0.6097 -0.7241
18831SOL     OW59512   3.749   6.505   6.191  0.1335 -0.2407  0.2237
18831SOL    HW159513   3.763   6.448   6.115  0.4448 -0.2124  0.2590
18831SOL    HW259514   3.772   6.450   6.266  0.6228 -0.0065  0.2462
18832SOL     OW59515   0.880   2.155   7.424 -0.5888  0.4511 -0.2336
18832SOL    HW159516   0.839   2.076   7.388  0.5361 -0.6084  0.7721
18832SOL    HW259517   0.860   2.152   7.517 -1.5822  2.0140 -0.3755
18833SOL     OW59518   6.843   1.829   2.263 -0.6670  0.2087  0.3202
18833SOL    HW159519   6.846   1.803   2.171  0.0692 -1.1344  0.7062
18833SOL    HW259520   6.761   1.878   2.272 -1.2514 -0.5503 -0.8219
18834SOL     OW59521   3.582   1.191   3.675  0.1434  0.2594 -0.1237
18834SOL    HW159522   3.497   1.149   3.663  0.3759 -0.2337 -0.0183
18834SOL    HW259523   3.645   1.119   3.680  0.7856  0.6597 -1.9371
18835SOL     OW59524   2.329   3.984   2.822  0.1720 -0.3017  0.4956
18835SOL    HW159525   2.407   3.959   2.872  2.1429  0.6231 -2.0433
18835SOL    HW259526   2.330   3.928   2.745  0.8077  2.7279 -1.7824
18836SOL     OW59527   5.928   8.889   5.110 -0.3484  0.0906  0.1585
18836SOL    HW159528   5.839   8.906   5.081  0.1882 -1.4471 -2.5425
18836SOL    HW259529   5.930   8.796   5.133  0.4601  0.1896  0.5361
18837SOL     OW59530   1.480   2.691   8.568  0.2780  0.3157 -0.3819
18837SOL    HW159531   1.528   2.701   8.485  1.3750 -3.0749 -0.2387
18837SOL    HW259532   1.544   2.711   8.636 -0.0121  0.9517 -0.2902
18838SOL     OW59533   7.504   7.657   6.759 -0.9550  0.2393  0.3612
18838SOL    HW159534   7.478   7.684   6.847 -2.5368  1.0057 -0.3417
18838SOL    HW259535   7.530   7.737   6.715 -1.8881  0.1140 -0.4437
18839SOL     OW59536   0.577   9.411   3.124 -0.1936 -0.2410 -0.1589
18839SOL    HW159537   0.513   9.348   3.093 -1.7231 -0.0954  2.5073
18839SOL    HW259538   0.530   9.495   3.126  1.0762  0.5239 -1.2883
18840SOL     OW59539   3.129   5.380   0.525  0.7463  0.1260 -0.2085
18840SOL    HW159540   3.164   5.298   0.560  0.9570  0.4358  0.3258
18840SOL    HW259541   3.076   5.354   0.450 -0.5010 -0.6479  0.9111
18841SOL     OW59542   6.113   1.267   4.176 -0.2831  0.2631  0.2484
18841SOL    HW159543   6.036   1.265   4.118 -0.7421 -0.8157  0.8751
18841SOL    HW259544   6.097   1.197   4.239  1.4948 -0.3547  0.0350
18842SOL     OW59545   2.861   5.510   8.890  0.2232  0.0677  0.1838
18842SOL    HW159546   2.898   5.425   8.915 -0.9831 -0.3883  0.4554
18842SOL    HW259547   2.813   5.491   8.809  0.6572  0.6698 -0.2131
18843SOL     OW59548   7.242   3.889   1.763 -0.1332  0.5555  0.3316
18843SOL    HW159549   7.286   3.804   1.763 -0.6678  0.2730  1.3016
18843SOL    HW259550   7.312   3.953   1.750  0.4953  0.0711  1.3176
18844SOL     OW59551   3.083   3.738   5.044  0.3484  0.3341  0.2073
18844SOL    HW159552   3.113   3.659   5.000 -0.1506 -0.2706  0.9446
18844SOL    HW259553   3.157   3.799   5.038 -0.6141  1.2052 -3.7015
18845SOL     OW59554   6.243   6.342   5.237  0.6155 -0.7446  0.3016
18845SOL    HW159555   6.288   6.346   5.321  1.4794 -0.8803 -0.1428
18845SOL    HW259556   6.242   6.433   5.206 -0.5272 -0.5599  0.8827
18846SOL     OW59557   8.099   8.496   4.984 -0.8035 -0.1180  0.0442
18846SOL    HW159558   8.146   8.456   5.057 -0.6156  0.3755  0.1922
18846SOL    HW259559   8.099   8.590   5.003  0.5256  0.1901 -1.3201
18847SOL     OW59560   7.775   4.361   7.991 -0.3312  0.4887 -0.2456
18847SOL    HW159561   7.844   4.307   7.952 -1.4446 -0.6864 -0.6027
18847SOL    HW259562   7.814   4.449   7.996  1.0124 -0.0523 -0.8849
18848SOL     OW59563   7.266   7.113   6.995  0.2187  0.0791  0.3311
18848SOL    HW159564   7.241   7.202   6.971  1.9212 -0.1650 -2.6087
18848SOL    HW259565   7.287   7.070   6.912  0.8236 -2.6439  1.8089
18849SOL     OW59566   4.795   5.797   1.136  0.7544 -0.0683  0.8146
18849SOL    HW159567   4.826   5.725   1.191 -0.0588 -1.6962 -0.8129
18849SOL    HW259568   4.875   5.845   1.112  1.2663 -0.2426  2.1355
18850SOL     OW59569   1.635   6.875   9.259  0.3051 -0.6046 -0.4355
18850SOL    HW159570   1.671   6.856   9.346  1.0189  1.4975 -0.2350
18850SOL    HW259571   1.582   6.798   9.237  0.6230 -1.4261  1.5862
18851SOL     OW59572   5.652   6.251   1.639 -0.6825 -0.5389  0.6639
18851SOL    HW159573   5.680   6.165   1.610 -0.1750 -0.0289 -0.3966
18851SOL    HW259574   5.733   6.294   1.669 -0.8201 -0.1713  0.5085
18852SOL     OW59575   3.669   2.067   8.467 -0.2569 -0.3155  0.3013
18852SOL    HW159576   3.724   2.058   8.545  0.1147 -1.3586 -0.0772
18852SOL    HW259577   3.671   2.161   8.447  0.4043 -0.1774  0.9894
18853SOL     OW59578   0.508   4.294   7.566  0.2743  0.2441  0.5936
18853SOL    HW159579   0.497   4.245   7.648  0.6448 -0.6960  0.0823
18853SOL    HW259580   0.455   4.246   7.502 -1.0498  1.6913  0.5578
18854SOL     OW59581   1.077   3.847   4.395  0.2167  0.0786  0.2813
18854SOL    HW159582   1.098   3.913   4.329 -1.1250 -0.2137 -0.4549
18854SOL    HW259583   1.121   3.767   4.364 -0.0632  0.0482 -0.0377
18855SOL     OW59584   4.254   2.792   8.458 -0.0124 -0.1324  0.2329
18855SOL    HW159585   4.308   2.845   8.399 -1.3327  2.3400  1.2015
18855SOL    HW259586   4.253   2.705   8.417  1.0921  0.8951 -2.1006
18856SOL     OW59587   7.457   5.441   4.499  0.1370  0.1327  0.4067
18856SOL    HW159588   7.390   5.373   4.491  1.0585 -0.8532  0.8840
18856SOL    HW259589   7.418   5.519   4.460  0.0206 -1.3476 -2.5383
18857SOL     OW59590   8.349   7.272   4.855  0.3481  0.2206  0.4274
18857SOL    HW159591   8.320   7.332   4.924  0.2888 -0.5234  1.0510
18857SOL    HW259592   8.444   7.269   4.864  0.2870 -0.4019  0.9206
18858SOL     OW59593   3.162   1.485   3.168 -0.5111  0.0411 -0.1498
18858SOL    HW159594   3.186   1.495   3.076 -3.2362  1.1225 -0.7790
18858SOL    HW259595   3.229   1.535   3.216  0.9612 -0.6012 -1.5117
18859SOL     OW59596   2.736   7.660   4.817 -0.8370 -0.0776  0.7772
18859SOL    HW159597   2.719   7.732   4.877 -2.0289  0.4700 -0.1986
18859SOL    HW259598   2.766   7.588   4.873 -0.2654  0.9671  1.8211
18860SOL     OW59599   1.814   4.881   4.201  0.1639 -0.0067  0.6539
18860SOL    HW159600   1.902   4.918   4.203 -0.0369  0.6215 -0.9531
18860SOL    HW259601   1.813   4.824   4.124 -1.7182  2.3616 -1.1623
18861SOL     OW59602   7.824   9.146   3.211  0.4779  0.7296 -0.2787
18861SOL    HW159603   7.842   9.150   3.305  1.1030  2.3815 -0.4477
18861SOL    HW259604   7.865   9.225   3.176  0.4872 -0.0131 -1.9839
18862SOL     OW59605   1.729   3.984   6.199  0.9902  0.1765 -0.2048
18862SOL    HW159606   1.748   4.015   6.110  0.3876 -0.4173 -0.5525
18862SOL    HW259607   1.780   4.040   6.256  0.9306  0.9474 -0.9031
18863SOL     OW59608   6.078   0.366   6.337 -1.0192 -0.0295 -0.0550
18863SOL    HW159609   6.163   0.360   6.294 -1.9201 -0.1603 -1.8838
18863SOL    HW259610   6.054   0.276   6.357 -2.1719 -0.3183 -2.5294
18864SOL     OW59611   2.125   7.594   9.301 -0.1920 -0.4861 -0.2051
18864SOL    HW159612   2.207   7.643   9.294  0.9450 -2.3758 -0.6627
18864SOL    HW259613   2.152   7.502   9.298 -2.4531 -1.1470 -1.8000
18865SOL     OW59614   7.841   6.417   3.818  0.1156  0.0970 -0.4573
18865SOL    HW159615   7.826   6.363   3.895  2.9409 -0.4698 -0.2501
18865SOL    HW259616   7.842   6.506   3.851 -1.8086  0.1050 -0.3648
18866SOL     OW59617   0.967   2.757   2.892 -0.6787  0.2526  0.2527
18866SOL    HW159618   1.057   2.785   2.904 -0.5073 -0.3727  0.4239
18866SOL    HW259619   0.939   2.801   2.812  0.1205 -0.3959 -0.3897
18867SOL     OW59620   5.204   4.609   4.690 -0.3031 -0.1886  0.7580
18867SOL    HW159621   5.234   4.519   4.683  1.4334  0.5134 -1.2651
18867SOL    HW259622   5.109   4.602   4.704 -0.1361 -2.3016  0.9846
18868SOL     OW59623   2.893   8.549   3.300  0.9842  0.0956 -0.5787
18868SOL    HW159624   2.936   8.586   3.377 -0.2625  0.0782  0.1512
18868SOL    HW259625   2.964   8.525   3.241  1.9761 -0.2621  0.7436
18869SOL     OW59626   7.509   0.343   1.786 -0.6955  0.2127  0.4803
18869SOL    HW159627   7.475   0.424   1.748 -1.5244  0.5319  1.8602
18869SOL    HW259628   7.479   0.345   1.877  1.4755 -0.4182  1.2261
18870SOL     OW59629   1.183   1.396   3.967 -0.4261  0.0473 -0.0077
18870SOL    HW159630   1.123   1.462   3.932 -0.3682  0.1344  0.0556
18870SOL    HW259631   1.234   1.368   3.891 -1.3441 -0.8808 -0.2891
18871SOL     OW59632   4.046   0.487   4.511  0.1496 -0.0551  0.4680
18871SOL    HW159633   4.013   0.398   4.502  0.0071  0.1138 -0.7648
18871SOL    HW259634   4.005   0.519   4.592 -0.8486 -0.6470  0.2157
18872SOL     OW59635   7.030   7.669   0.711 -0.9441 -0.9556  0.2861
18872SOL    HW159636   6.986   7.646   0.793  1.0063 -2.8815  0.8247
18872SOL    HW259637   7.057   7.760   0.723 -0.1085 -1.4147  2.0582
18873SOL     OW59638   3.050   0.404   7.025  0.0881 -0.0221 -0.0205
18873SOL    HW159639   3.114   0.389   7.095  0.8935 -1.7501 -1.0918
18873SOL    HW259640   3.040   0.319   6.984 -1.7310  0.5944 -0.8870
18874SOL     OW59641   3.489   5.211   3.438 -0.0721  0.3011  0.2223
18874SOL    HW159642   3.452   5.268   3.371  2.0242  0.0844 -1.1476
18874SOL    HW259643   3.576   5.247   3.456 -0.1811 -0.2887  2.0514
18875SOL     OW59644   1.796   5.685   3.805 -0.5537 -0.0791 -0.4257
18875SOL    HW159645   1.821   5.616   3.866  2.6298  2.3793  1.1786
18875SOL    HW259646   1.723   5.730   3.848 -0.8105 -0.7028 -0.2080
18876SOL     OW59647   7.144   6.576   0.025  0.5350 -0.4750  0.1301
18876SOL    HW159648   7.174   6.576   0.115  1.8387 -0.1516 -0.2958
18876SOL    HW259649   7.167   6.490  -0.009  1.7881  0.0733 -0.4509
18877SOL     OW59650   4.576   4.971   2.474  0.1340  0.3990  0.2819
18877SOL    HW159651   4.660   5.017   2.468  1.1702 -1.6475 -2.2604
18877SOL    HW259652   4.584   4.900   2.409 -3.0847 -0.5967  0.9151
18878SOL     OW59653   4.772   0.681   8.659  0.3035 -0.3136  0.1060
18878SOL    HW159654   4.741   0.770   8.676  1.4624  0.0312  0.4654
18878SOL    HW259655   4.823   0.687   8.579  0.2923 -0.6810  0.0679
18879SOL     OW59656   7.575   2.785   3.410  0.3578 -0.5342  0.2069
18879SOL    HW159657   7.576   2.862   3.468  0.0452 -0.3780  0.0062
18879SOL    HW259658   7.649   2.732   3.439  0.7542 -0.0113  0.1477
18880SOL     OW59659   7.823   4.840   0.572 -0.5034  0.1779  0.1208
18880SOL    HW159660   7.781   4.785   0.638  0.8941  1.1330  1.8457
18880SOL    HW259661   7.915   4.845   0.600  0.5903 -1.0966 -3.0529
18881SOL     OW59662   4.568   9.390   7.883 -0.2233  0.3499 -0.5017
18881SOL    HW159663   4.598   9.382   7.793 -0.0984 -0.7924 -0.3613
18881SOL    HW259664   4.645   9.372   7.936 -0.3567  0.7784 -0.1530
18882SOL     OW59665   0.879   2.379   5.582  0.2574  0.3179 -0.2258
18882SOL    HW159666   0.803   2.436   5.591  0.2889  0.3420 -0.1170
18882SOL    HW259667   0.848   2.292   5.607  0.5738  0.5450  0.9933
18883SOL     OW59668   7.957   2.728   5.849  0.3856 -0.1951 -0.3616
18883SOL    HW159669   7.909   2.808   5.825  1.3800  0.5344  0.0471
18883SOL    HW259670   7.923   2.704   5.935  1.1505  0.6554  0.1907
18884SOL     OW59671   7.378   2.076   6.546  0.2668 -0.1535  0.5201
18884SOL    HW159672   7.418   2.140   6.488 -1.1289 -0.2050 -0.5098
18884SOL    HW259673   7.283   2.088   6.535 -0.0200 -2.1724  0.5346
18885SOL     OW59674   8.645   2.559   0.345 -0.1725  0.0123  0.0946
18885SOL    HW159675   8.708   2.492   0.320  1.0215  0.9799  0.4869
18885SOL    HW259676   8.565   2.535   0.298  0.2693 -1.6287  0.1607
18886SOL     OW59677   3.600   6.933   1.212 -0.1202 -0.1296  0.3612
18886SOL    HW159678   3.682   6.899   1.247  0.3970  0.6225 -0.1071
18886SOL    HW259679   3.577   6.871   1.142 -0.5093 -0.9304  1.1842
18887SOL     OW59680   0.361   0.476   3.514 -0.3477  0.0760 -0.0290
18887SOL    HW159681   0.380   0.385   3.492  0.0579 -0.1001  1.0038
18887SOL    HW259682   0.331   0.473   3.605 -0.0879  0.9940  0.0945
18888SOL     OW59683   1.573   0.198   0.413 -0.2748  0.0069 -0.2771
18888SOL    HW159684   1.568   0.102   0.404  3.7898 -0.1484 -2.3611
18888SOL    HW259685   1.556   0.231   0.325  1.7326  0.9276 -0.3534
18889SOL     OW59686   8.959   0.609   8.204 -0.0488 -0.2924 -0.0828
18889SOL    HW159687   8.949   0.535   8.265  1.7010 -0.8967 -0.5082
18889SOL    HW259688   8.984   0.682   8.260  1.5880 -0.8562 -0.0387
18890SOL     OW59689   4.319   4.784   1.773  1.2210  0.2318  0.2091
18890SOL    HW159690   4.319   4.847   1.845 -0.0558 -2.2722  2.4753
18890SOL    HW259691   4.410   4.784   1.742  1.9103  1.0111  2.1295
18891SOL     OW59692   0.004   7.150   5.515  0.4001 -0.0937  0.0261
18891SOL    HW159693  -0.025   7.239   5.493 -1.2405 -0.6051  0.0757
18891SOL    HW259694  -0.077   7.100   5.523  1.1966 -1.0154  2.5931
18892SOL     OW59695   4.970   2.494   2.296 -0.2836  0.6604 -0.1468
18892SOL    HW159696   5.058   2.530   2.310  0.0154  0.0932 -0.5496
18892SOL    HW259697   4.954   2.440   2.373 -0.2824  0.7710 -0.0688
18893SOL     OW59698   1.369   4.971   4.004  0.4683 -0.2296 -0.0084
18893SOL    HW159699   1.460   5.000   4.015  1.1147 -2.0498 -0.3597
18893SOL    HW259700   1.375   4.896   3.944 -1.3924  0.3269 -0.9286
18894SOL     OW59701   0.146   0.034   8.023  0.6462  0.1227  0.4803
18894SOL    HW159702   0.234  -0.004   8.028 -0.8789 -3.7555 -0.2221
18894SOL    HW259703   0.110   0.021   8.111  0.2399  0.2402  0.3317
18895SOL     OW59704   9.258   5.050   0.369 -0.7618 -0.0644 -0.2190
18895SOL    HW159705   9.287   5.131   0.410 -0.1770 -0.5064  0.2589
18895SOL    HW259706   9.186   5.019   0.423 -0.1065 -0.5551  0.3842
18896SOL     OW59707   0.677   2.629   6.093 -0.3891  0.1859  0.3336
18896SOL    HW159708   0.666   2.660   6.183 -0.1152  0.5804  0.2339
18896SOL    HW259709   0.591   2.640   6.052 -0.9294 -1.4758  1.0003
18897SOL     OW59710   0.603   5.137   7.601  0.6484  0.9556 -0.2057
18897SOL    HW159711   0.539   5.147   7.531  0.8390 -0.3328 -0.5820
18897SOL    HW259712   0.583   5.207   7.662 -0.9656  0.7300 -0.4483
18898SOL     OW59713   5.498   0.047   3.304  0.3301 -0.5755  0.4978
18898SOL    HW159714   5.485  -0.031   3.250 -1.7682 -1.0497  1.6392
18898SOL    HW259715   5.515   0.117   3.240 -0.8425 -1.3712 -0.7101
18899SOL     OW59716   9.410   7.429   9.265 -0.1248  0.1316  0.1559
18899SOL    HW159717   9.469   7.407   9.193  1.2096 -0.6353  1.4750
18899SOL    HW259718   9.463   7.478   9.327 -1.1521  0.4012  0.8478
18900SOL     OW59719   1.503   2.360   0.768  0.2919  1.1943  0.2766
18900SOL    HW159720   1.449   2.434   0.798  0.5431  0.8862  1.5138
18900SOL    HW259721   1.537   2.321   0.849 -0.1311 -0.4985 -0.3450
18901SOL     OW59722   9.104   6.316   3.211 -0.8226 -0.0973 -0.3935
18901SOL    HW159723   9.042   6.381   3.245 -0.9971  0.2743 -1.3770
18901SOL    HW259724   9.096   6.241   3.270 -1.1127  0.5212  0.3631
18902SOL     OW59725   1.724   8.635   1.807  0.2105  0.9276  0.3530
18902SOL    HW159726   1.731   8.729   1.789 -1.3527  0.9063 -0.4155
18902SOL    HW259727   1.630   8.619   1.816  0.2317 -1.0763 -2.3337
18903SOL     OW59728   2.945   2.064   0.848  0.4319 -0.7019 -0.5779
18903SOL    HW159729   3.001   2.001   0.894 -0.1676 -1.2875 -0.6522
18903SOL    HW259730   2.856   2.033   0.863 -0.1838  2.4278  2.8996
18904SOL     OW59731   1.516   1.119   5.099 -0.1695 -0.2082 -0.2081
18904SOL    HW159732   1.424   1.096   5.107 -0.2338  0.2409  0.3658
18904SOL    HW259733   1.516   1.211   5.069  0.0892  0.0973  0.7184
18905SOL     OW59734   2.740   7.574   7.848 -0.0808 -0.1228 -0.1834
18905SOL    HW159735   2.721   7.498   7.903  0.8285  1.3039  2.1859
18905SOL    HW259736   2.685   7.644   7.885  0.7331  0.9190 -0.9251
18906SOL     OW59737   7.880   1.915   8.549 -0.5376  0.0264 -0.0313
18906SOL    HW159738   7.824   1.968   8.493  0.9057 -0.4820 -1.9932
18906SOL    HW259739   7.943   1.978   8.587 -0.9098  0.2216  0.2641
18907SOL     OW59740   8.500   2.682   9.400  0.5995 -1.0867 -0.6692
18907SOL    HW159741   8.485   2.681   9.306  1.9439  0.9340 -0.9365
18907SOL    HW259742   8.573   2.621   9.414  0.9586 -0.7428 -1.0417
18908SOL     OW59743   1.445   4.368   8.738  0.0935 -0.4945 -0.2050
18908SOL    HW159744   1.354   4.363   8.766  0.7796 -0.5812  2.1380
18908SOL    HW259745   1.495   4.345   8.817  2.1380 -0.2060 -1.3952
18909SOL     OW59746   6.973   1.977   0.583 -0.1105 -0.2250  0.4946
18909SOL    HW159747   6.963   2.043   0.652  0.4146  0.6481 -0.2494
18909SOL    HW259748   6.948   2.023   0.502  2.6931 -0.1602 -0.3893
18910SOL     OW59749   1.870   3.702   5.406 -0.2287 -0.0957 -0.1347
18910SOL    HW159750   1.896   3.793   5.393 -0.5546  0.0313  0.1100
18910SOL    HW259751   1.946   3.662   5.448  0.0761 -0.0413 -0.6236
18911SOL     OW59752   7.040   6.712   7.620  0.1106  0.0129 -0.2461
18911SOL    HW159753   7.017   6.724   7.712 -1.6263  0.5410 -0.7324
18911SOL    HW259754   7.130   6.744   7.614  0.5679 -0.8696  1.4439
18912SOL     OW59755   5.380   0.709   0.883  0.1594  0.4606  0.1692
18912SOL    HW159756   5.463   0.757   0.887 -1.0175  2.6271 -0.1127
18912SOL    HW259757   5.322   0.757   0.943 -1.1784 -0.3913 -0.4164
18913SOL     OW59758   2.293   9.000   7.905 -0.1659  0.1572 -0.0080
18913SOL    HW159759   2.220   8.948   7.872 -0.6085  0.7128  0.0979
18913SOL    HW259760   2.273   9.089   7.878  0.3937  0.3331  0.1600
18914SOL     OW59761   4.176   6.523   1.010 -0.6038  0.3210  0.0843
18914SOL    HW159762   4.233   6.464   1.060  0.6200  3.1972  2.2373
18914SOL    HW259763   4.088   6.486   1.021  0.3601 -2.2193 -0.3564
18915SOL     OW59764   7.131   1.106   4.187  0.2245  0.4045 -0.0928
18915SOL    HW159765   7.215   1.087   4.229 -0.1217 -1.1488 -0.0397
18915SOL    HW259766   7.067   1.062   4.243 -0.3969 -0.3221 -1.3503
18916SOL     OW59767   2.302   7.938   4.483 -0.5252  0.3318  0.4653
18916SOL    HW159768   2.339   7.858   4.444  1.0082  1.0650  0.3904
18916SOL    HW259769   2.358   7.955   4.559  0.2645  2.3097 -0.5158
18917SOL     OW59770   9.405   1.800   8.604 -0.3734  0.2179  0.5956
18917SOL    HW159771   9.401   1.711   8.569 -1.9151 -0.0905  1.5137
18917SOL    HW259772   9.331   1.845   8.564  2.0095  1.9575 -2.0902
18918SOL     OW59773   3.965   3.841   4.283  0.4513 -0.3090  0.1301
18918SOL    HW159774   4.041   3.824   4.339  2.4716  0.9988 -2.1537
18918SOL    HW259775   3.986   3.799   4.200 -2.1489 -1.4788  0.0156
18919SOL     OW59776   5.634   9.438   5.944 -0.3534  0.6181  0.0758
18919SOL    HW159777   5.685   9.359   5.960 -1.7707 -0.4281 -0.3697
18919SOL    HW259778   5.636   9.450   5.849 -0.0323  1.1988  0.1530
18920SOL     OW59779   3.161   3.807   6.934  0.2640 -0.8517  0.2211
18920SOL    HW159780   3.204   3.722   6.943  0.0161 -0.9806  0.1993
18920SOL    HW259781   3.152   3.839   7.024 -1.8570 -1.9638  0.4455
18921SOL     OW59782   0.198   4.924   1.558  0.1724  0.4029  0.3223
18921SOL    HW159783   0.211   5.019   1.567  1.1097  0.2425  0.7110
18921SOL    HW259784   0.177   4.912   1.465  1.2735  0.8702 -0.0045
18922SOL     OW59785   0.988   3.799   5.474 -0.2120  0.0555  0.6496
18922SOL    HW159786   1.044   3.871   5.445  0.6135 -0.8899 -0.1170
18922SOL    HW259787   0.984   3.809   5.569  0.3190  0.8148  0.5913
18923SOL     OW59788   0.577   4.998   1.859  0.4391 -0.1652  0.0009
18923SOL    HW159789   0.612   5.086   1.863  0.9988 -0.3862 -0.0471
18923SOL    HW259790   0.544   4.980   1.947  2.3418 -0.7378  0.6202
18924SOL     OW59791   7.471   7.314   8.979 -0.4874  0.2016  0.0255
18924SOL    HW159792   7.420   7.393   8.997 -0.9140  0.1600 -0.9843
18924SOL    HW259793   7.417   7.264   8.918  0.2992 -0.3310 -0.2318
18925SOL     OW59794   6.918   8.424   6.609 -0.0687  0.1478  0.1111
18925SOL    HW159795   7.009   8.424   6.579 -0.4964 -0.8694 -1.2193
18925SOL    HW259796   6.868   8.450   6.532 -1.2717 -3.3438 -0.3774
18926SOL     OW59797   6.145   0.766   4.996 -0.1001 -0.6087 -0.8551
18926SOL    HW159798   6.080   0.824   4.955  0.0508  0.0072 -0.2364
18926SOL    HW259799   6.093   0.695   5.032 -0.5604  0.4248  0.5648
18927SOL     OW59800   3.752   0.660   8.998  0.0729  0.2890 -0.2452
18927SOL    HW159801   3.843   0.645   8.972  0.6740 -0.6756  2.2870
18927SOL    HW259802   3.717   0.572   9.013 -1.2365  0.6689 -0.9975
18928SOL     OW59803   1.183   8.904   9.180  0.0658  0.4375  0.4616
18928SOL    HW159804   1.219   8.904   9.091  1.0493 -0.6894  0.8486
18928SOL    HW259805   1.096   8.867   9.170 -0.0318  0.8031 -0.1063
18929SOL     OW59806   8.985   6.741   8.817  0.3642 -0.2825 -0.1729
18929SOL    HW159807   8.991   6.837   8.814  1.5971 -0.3134  0.7833
18929SOL    HW259808   9.076   6.712   8.809 -0.0544 -1.4005 -1.0057
18930SOL     OW59809   0.724   4.732   5.630 -0.1268  0.0928  0.6695
18930SOL    HW159810   0.813   4.697   5.636 -0.1126 -0.2384 -1.3130
18930SOL    HW259811   0.690   4.725   5.720  1.8774  0.3565  1.4852
18931SOL     OW59812   7.246   2.331   7.257  0.5292  0.5643  0.0965
18931SOL    HW159813   7.229   2.341   7.164 -3.0379  0.9242  0.7217
18931SOL    HW259814   7.324   2.384   7.273  2.6503 -1.4337 -3.0559
18932SOL     OW59815   9.144   6.558   6.830  0.2513  0.4397 -0.2967
18932SOL    HW159816   9.179   6.478   6.869  2.5511  1.3868 -0.3570
18932SOL    HW259817   9.145   6.622   6.902 -4.7025 -0.3895  0.6871
18933SOL     OW59818   0.593   4.213   8.854 -0.3115 -0.5037  0.0167
18933SOL    HW159819   0.659   4.147   8.833  0.8418  1.3070 -2.2684
18933SOL    HW259820   0.637   4.274   8.913 -0.1511  0.3309 -0.9589
18934SOL     OW59821   2.985   7.423   4.436 -0.3136 -0.0286  0.0548
18934SOL    HW159822   3.008   7.331   4.425 -0.7555 -0.3314  1.5121
18934SOL    HW259823   2.931   7.425   4.515  0.9511  1.6744  0.9307
18935SOL     OW59824   9.331   1.688   4.110 -0.4256 -0.2732 -0.1992
18935SOL    HW159825   9.401   1.697   4.175 -0.6195  1.0750 -0.1737
18935SOL    HW259826   9.350   1.756   4.045 -2.5194  1.0702  0.5490
18936SOL     OW59827   4.629   4.405   5.904 -0.2976 -0.2880 -0.2111
18936SOL    HW159828   4.619   4.447   5.989 -1.5542  0.4906 -0.7372
18936SOL    HW259829   4.673   4.470   5.849 -0.3561 -0.4410 -0.4402
18937SOL     OW59830   9.355   8.112   0.764  0.2322 -0.1584  0.2720
18937SOL    HW159831   9.394   8.030   0.794  0.6879  0.4883  1.4956
18937SOL    HW259832   9.351   8.104   0.669  2.0339 -0.8220  0.2384
18938SOL     OW59833   5.406   5.643   1.165  0.2224 -0.0211 -0.3890
18938SOL    HW159834   5.369   5.566   1.122 -0.2112  0.1921 -0.4044
18938SOL    HW259835   5.495   5.618   1.188 -0.0475 -0.6563 -0.0431
18939SOL     OW59836   6.518   2.475   5.533  0.6181  0.0016  0.3212
18939SOL    HW159837   6.460   2.415   5.486 -0.1123  1.4856 -0.7108
18939SOL    HW259838   6.600   2.425   5.544  0.4264 -0.7722 -1.5539
18940SOL     OW59839   0.749   1.199   1.060 -0.0474  0.3281 -0.9010
18940SOL    HW159840   0.808   1.139   1.105  0.6529  1.2641 -0.5588
18940SOL    HW259841   0.725   1.153   0.979 -0.8874 -1.1292  0.1670
18941SOL     OW59842   6.904   8.011   6.513  0.3130  0.1638 -0.5152
18941SOL    HW159843   6.971   7.953   6.550 -0.1028 -0.2130 -0.3602
18941SOL    HW259844   6.859   7.958   6.448 -2.6428 -0.9308  2.3113
18942SOL     OW59845   1.035   5.555   0.531 -0.4013 -0.1955 -0.5210
18942SOL    HW159846   1.112   5.505   0.557  0.1700  1.3831  0.9352
18942SOL    HW259847   0.977   5.491   0.491 -1.3979 -2.8778  4.7114
18943SOL     OW59848   0.979   5.065   2.588  0.2298 -0.6537 -0.1733
18943SOL    HW159849   0.915   5.076   2.658  0.8745  2.4591  0.0127
18943SOL    HW259850   1.055   5.024   2.630  0.1020 -0.0487  0.6575
18944SOL     OW59851   6.932   3.296   3.219 -0.0405 -0.9901 -0.5154
18944SOL    HW159852   6.844   3.258   3.212 -0.1403 -0.8831  0.1324
18944SOL    HW259853   6.984   3.226   3.259 -0.5672  0.0509  2.1094
18945SOL     OW59854   4.789   3.345   1.350  0.0393  0.2803  0.7028
18945SOL    HW159855   4.856   3.278   1.358 -1.1910 -0.8315  1.9972
18945SOL    HW259856   4.778   3.379   1.439 -0.5061  1.0279  0.3528
18946SOL     OW59857   3.630   2.018   6.875  0.2071  0.0605  0.3430
18946SOL    HW159858   3.568   1.978   6.814  0.8235 -0.2234 -0.1053
18946SOL    HW259859   3.583   2.093   6.911 -0.5414 -0.3814  0.3126
18947SOL     OW59860   3.205   9.201   7.692 -0.2492  0.6514 -0.0012
18947SOL    HW159861   3.186   9.295   7.685 -0.1668  0.6702  0.0207
18947SOL    HW259862   3.298   9.197   7.712  0.2086  0.5031 -2.0362
18948SOL     OW59863   6.970   3.363   4.277  0.5438 -0.8486 -0.1807
18948SOL    HW159864   6.975   3.367   4.373  1.1631 -2.1962 -0.1391
18948SOL    HW259865   6.877   3.349   4.258 -0.1355  2.9141  0.0479
18949SOL     OW59866   5.441   5.081   1.878 -0.7260 -0.4040 -0.3667
18949SOL    HW159867   5.482   5.085   1.964 -0.5620  3.2382 -0.5436
18949SOL    HW259868   5.357   5.124   1.889 -1.6594 -1.8610 -1.5545
18950SOL     OW59869   6.401   0.672   2.154  0.4803 -0.2560 -0.2804
18950SOL    HW159870   6.431   0.704   2.068  0.7247  0.9388  0.2360
18950SOL    HW259871   6.453   0.722   2.217 -0.1399 -0.6827  0.5765
18951SOL     OW59872   1.021   8.671   3.424  0.5690  0.3838 -0.1595
18951SOL    HW159873   1.077   8.599   3.395  0.3309  0.7901 -1.6952
18951SOL    HW259874   1.016   8.729   3.348  1.2623  2.3395  1.2589
18952SOL     OW59875   1.897   2.634   2.666 -0.5589  0.0639  0.0894
18952SOL    HW159876   1.888   2.589   2.751 -1.2485  0.6070  0.3134
18952SOL    HW259877   1.834   2.706   2.671 -0.5421  0.1450 -0.8607
18953SOL     OW59878   9.168   2.227   2.599  0.1082  0.4382 -0.1510
18953SOL    HW159879   9.178   2.255   2.690 -0.4052 -0.4650  0.1813
18953SOL    HW259880   9.132   2.304   2.555 -1.0669  0.3960  0.7213
18954SOL     OW59881   8.946   8.386   2.305  0.1740  0.6812  0.3372
18954SOL    HW159882   8.916   8.427   2.386 -0.8526  0.5623  0.0234
18954SOL    HW259883   8.879   8.321   2.285 -1.4775  3.1380 -2.5002
18955SOL     OW59884   4.551   4.171   5.743  0.1924  0.2907 -0.7017
18955SOL    HW159885   4.558   4.115   5.666  0.2774 -0.5686 -0.0702
18955SOL    HW259886   4.544   4.260   5.707  5.2806  0.4437 -1.6142
18956SOL     OW59887   0.748   1.573   5.950 -0.0489  0.1708  0.0475
18956SOL    HW159888   0.756   1.635   5.878 -0.4908  1.4517  1.0738
18956SOL    HW259889   0.705   1.496   5.912 -1.5582  1.3899 -0.7338
18957SOL     OW59890   1.035   3.961   2.861  0.1635  0.2944  0.1295
18957SOL    HW159891   1.041   4.029   2.928  3.2475  1.0713 -0.8374
18957SOL    HW259892   1.126   3.934   2.846 -0.3911  0.2661 -3.8361
18958SOL     OW59893   9.216   8.313   2.339  0.1027 -0.0632  0.2157
18958SOL    HW159894   9.126   8.332   2.315  0.6921  1.6732 -0.7367
18958SOL    HW259895   9.223   8.218   2.333 -1.8590 -0.2928  1.1005
18959SOL     OW59896   1.130   4.400   7.463  0.1219 -0.3671 -0.2719
18959SOL    HW159897   1.039   4.381   7.440  0.6127  0.1508 -2.7932
18959SOL    HW259898   1.137   4.496   7.460  0.7769 -0.4060 -0.2219
18960SOL     OW59899   2.387   0.812   1.080 -0.2789 -0.1485  0.5273
18960SOL    HW159900   2.321   0.876   1.108 -0.6999 -0.3553  0.0114
18960SOL    HW259901   2.375   0.738   1.140 -2.5170 -1.4202 -1.3940
18961SOL     OW59902   4.321   4.603   4.293  0.3283 -0.1054  0.3093
18961SOL    HW159903   4.228   4.618   4.309  0.3513 -0.3430  0.6813
18961SOL    HW259904   4.332   4.619   4.199  0.3580  2.2346  0.6757
18962SOL     OW59905   2.200   3.242   8.293 -0.4973 -0.2631  0.1099
18962SOL    HW159906   2.197   3.155   8.335  0.0479 -1.1739 -1.6918
18962SOL    HW259907   2.291   3.251   8.264 -0.5932  0.8568  0.1621
18963SOL     OW59908   8.161   5.424   1.940  0.7597  0.6764 -0.0482
18963SOL    HW159909   8.080   5.411   1.890  0.7356  0.2410  0.0989
18963SOL    HW259910   8.223   5.458   1.876 -0.0751  2.8378  0.2570
18964SOL     OW59911   2.462   3.832   1.426  0.3756 -0.6661  0.3156
18964SOL    HW159912   2.392   3.863   1.369  0.4396  0.2257  0.7098
18964SOL    HW259913   2.537   3.822   1.368  0.4038  0.1178  0.2058
18965SOL     OW59914   6.210   2.773   9.009 -1.3154 -0.1031  0.1926
18965SOL    HW159915   6.205   2.867   9.027 -2.5974  0.0158 -0.7345
18965SOL    HW259916   6.238   2.734   9.092 -1.2003  1.0517  0.6969
18966SOL     OW59917   0.177   7.467   7.240  0.0858  0.4077  0.4876
18966SOL    HW159918   0.182   7.376   7.272  1.1055  0.8925  1.7513
18966SOL    HW259919   0.268   7.496   7.238 -0.2255  1.3472 -0.1346
18967SOL     OW59920   1.300   0.090   5.360  0.4475  0.1224 -0.4564
18967SOL    HW159921   1.364   0.046   5.304 -0.6322 -1.1698 -0.7073
18967SOL    HW259922   1.225   0.030   5.361  0.3109  0.3179  2.0582
18968SOL     OW59923   0.148   3.473   0.487  0.3440 -0.2834 -0.5603
18968SOL    HW159924   0.221   3.535   0.489 -1.1361  1.5455 -1.5310
18968SOL    HW259925   0.078   3.517   0.535 -0.5992 -1.4010 -0.8892
18969SOL     OW59926   6.106   6.914   2.804 -0.3706 -0.1035  0.1886
18969SOL    HW159927   6.132   6.914   2.712  0.6299 -0.3885  0.4619
18969SOL    HW259928   6.016   6.882   2.804  0.4677 -2.5969 -0.4710
18970SOL     OW59929   7.523   3.778   5.935  0.4540 -0.1080 -0.4641
18970SOL    HW159930   7.452   3.820   5.983  0.9878 -0.0813  0.3259
18970SOL    HW259931   7.480   3.713   5.880 -0.1213 -0.7448  0.7029
18971SOL     OW59932   5.220   8.314   6.603  0.1117  0.0591 -0.7420
18971SOL    HW159933   5.260   8.262   6.674 -2.8791  1.2835  1.9423
18971SOL    HW259934   5.205   8.250   6.533  0.3417 -1.8294  0.8720
18972SOL     OW59935   6.896   8.937   9.077 -0.5572 -0.8447 -0.4741
18972SOL    HW159936   6.835   8.982   9.136 -0.9157 -0.5729 -1.0504
18972SOL    HW259937   6.970   8.914   9.133 -1.9138 -2.6632  0.6210
18973SOL     OW59938   3.043   5.810   7.092  0.2137  0.0335 -0.0994
18973SOL    HW159939   2.973   5.832   7.030 -0.1947 -0.4479  0.1821
18973SOL    HW259940   3.033   5.716   7.106 -0.2310  0.2849  1.3437
18974SOL     OW59941   7.646   7.242   6.205  0.3079  0.0535  0.1749
18974SOL    HW159942   7.657   7.303   6.277 -1.0728 -0.3910  0.7860
18974SOL    HW259943   7.567   7.192   6.228  0.8167 -1.2361 -0.8120
18975SOL     OW59944   8.936   6.849   2.045  0.7105  0.5263 -0.1167
18975SOL    HW159945   8.878   6.841   1.969 -0.8439  0.3820  1.0467
18975SOL    HW259946   8.993   6.772   2.040 -0.8877 -0.7060  0.0792
18976SOL     OW59947   3.949   3.572   0.801  0.1222  0.4396  0.0890
18976SOL    HW159948   3.879   3.598   0.861 -0.0309 -1.8488  0.9711
18976SOL    HW259949   3.954   3.643   0.737 -2.3758  1.0829  0.5612
18977SOL     OW59950   8.082   7.010   3.587  0.6283 -0.2514  0.1708
18977SOL    HW159951   8.028   6.931   3.598 -1.2126  0.6965 -1.7180
18977SOL    HW259952   8.041   7.075   3.644  1.7011 -0.4185  1.1519
18978SOL     OW59953   7.982   6.356   6.961 -0.2647 -0.1639  0.7635
18978SOL    HW159954   7.947   6.319   7.042  0.7579  0.3217  1.4481
18978SOL    HW259955   8.043   6.424   6.991  3.1739 -2.6817 -0.2762
18979SOL     OW59956   9.432   2.376   2.752  0.2848 -0.1518 -0.5348
18979SOL    HW159957   9.415   2.421   2.835  0.7415  0.0293 -0.5395
18979SOL    HW259958   9.508   2.321   2.769  0.7445  0.3324 -1.0033
18980SOL     OW59959   0.683   6.295   1.290 -0.0118  0.2159  0.4726
18980SOL    HW159960   0.678   6.255   1.377  1.3981  0.5871  0.7384
18980SOL    HW259961   0.769   6.269   1.257 -0.2541  0.6646 -0.5261
18981SOL     OW59962   3.942   0.259   6.845 -0.8928 -0.1951 -0.5561
18981SOL    HW159963   3.930   0.164   6.847 -0.0178 -0.2978  0.1282
18981SOL    HW259964   3.863   0.292   6.802 -1.9643 -1.0973  0.6653
18982SOL     OW59965   2.278   1.308   9.189 -0.1701  0.5158 -0.1283
18982SOL    HW159966   2.340   1.257   9.241  0.3348  0.4179 -0.8181
18982SOL    HW259967   2.212   1.338   9.252  0.2547  0.1263  0.5029
18983SOL     OW59968   3.371   2.369   1.438  0.1112  0.0720 -0.0056
18983SOL    HW159969   3.424   2.298   1.401  0.3809 -0.2890  1.0741
18983SOL    HW259970   3.412   2.449   1.406  0.7463 -0.2245  0.0718
18984SOL     OW59971   6.122   2.803   6.692  0.0379  0.1277 -0.2545
18984SOL    HW159972   6.061   2.865   6.652 -0.4364 -0.0367  0.1991
18984SOL    HW259973   6.075   2.770   6.769  1.2716  1.1200  0.9421
18985SOL     OW59974   8.656   6.093   6.366 -0.0198  0.2102 -0.4865
18985SOL    HW159975   8.670   6.184   6.391 -0.8139  0.8738 -2.2923
18985SOL    HW259976   8.743   6.061   6.342  0.2230  0.5669 -0.0874
18986SOL     OW59977   5.239   1.399   6.208 -0.4378  0.5154  0.1081
18986SOL    HW159978   5.260   1.433   6.295  0.3943 -1.4067  0.6789
18986SOL    HW259979   5.317   1.349   6.182 -0.3448  1.7378 -2.1036
18987SOL     OW59980   9.205   7.246   7.684 -0.4463  0.5195  0.1799
18987SOL    HW159981   9.159   7.189   7.747 -2.0241  0.2879 -1.1361
18987SOL    HW259982   9.289   7.203   7.670 -1.3545 -1.1642 -0.2827
18988SOL     OW59983   2.825   2.806   2.263 -0.5383  0.5946 -0.0160
18988SOL    HW159984   2.810   2.896   2.293 -0.4882  1.1175 -1.4921
18988SOL    HW259985   2.920   2.799   2.258 -0.5240  0.2012  0.8555
18989SOL     OW59986   8.558   5.126   2.145  0.0854  0.1464  0.5032
18989SOL    HW159987   8.632   5.119   2.085 -0.4111  1.0118 -0.2174
18989SOL    HW259988   8.485   5.086   2.098 -0.1835  0.3457  0.7490
18990SOL     OW59989   9.183   5.953   7.756  0.4963 -0.2810  0.1067
18990SOL    HW159990   9.272   5.957   7.721  0.4261  1.0660  0.0847
18990SOL    HW259991   9.129   5.927   7.681  0.5111  1.4479 -0.5104
18991SOL     OW59992   1.689   0.658   6.076  0.2664  0.3175  0.5995
18991SOL    HW159993   1.601   0.676   6.110 -0.0603 -1.5940  0.8163
18991SOL    HW259994   1.686   0.687   5.985 -0.0813  1.7493  1.0462
18992SOL     OW59995   2.712   0.684   6.683  0.3369  0.0858  0.2596
18992SOL    HW159996   2.652   0.694   6.757 -0.3640  1.7873 -0.5100
18992SOL    HW259997   2.784   0.632   6.718  0.6872  2.0097  2.5373
18993SOL     OW59998   6.105   2.696   4.812 -0.3731  0.0997  0.3989
18993SOL    HW159999   6.069   2.746   4.885  2.1643  0.0630  1.7101
18993SOL    HW260000   6.193   2.670   4.840  0.9462  0.6674 -2.9324
18994SOL     OW60001   1.394   6.544   7.266  0.0649 -0.3139  0.1200
18994SOL    HW160002   1.346   6.493   7.331 -0.8915  1.5412  0.9065
18994SOL    HW260003   1.446   6.606   7.317 -2.3840  2.6584 -0.8594
18995SOL     OW60004   0.197   1.787   1.905 -0.1609  0.4866 -0.0979
18995SOL    HW160005   0.260   1.772   1.835 -1.7630  0.5688 -1.5834
18995SOL    HW260006   0.196   1.882   1.917  0.4994  0.4336  0.4169
18996SOL     OW60007   0.587   8.674   0.241  0.2153  0.1536  0.0453
18996SOL    HW160008   0.664   8.647   0.192  1.2228  2.3890  0.3612
18996SOL    HW260009   0.519   8.685   0.175  0.7190  0.1270 -0.4822
18997SOL     OW60010   2.546   4.818   4.795  0.3598 -0.2680 -0.1607
18997SOL    HW160011   2.533   4.891   4.736 -0.2927 -0.5581 -0.3777
18997SOL    HW260012   2.588   4.856   4.872 -2.0678  0.7676  0.7144
18998SOL     OW60013   9.089   7.498   1.142 -0.3369  0.8375  0.0252
18998SOL    HW160014   9.124   7.423   1.190 -1.0159  0.9993  0.7846
18998SOL    HW260015   9.143   7.503   1.062 -0.2762 -0.4366 -0.0226
18999SOL     OW60016   6.903   5.715   5.186  0.2074 -0.0808 -0.4138
18999SOL    HW160017   6.940   5.677   5.107  1.3848 -0.6308  0.3922
18999SOL    HW260018   6.833   5.772   5.155  0.4804 -0.5100 -1.8279
19000SOL     OW60019   8.298   4.911   6.651  0.4106 -0.5609 -0.4735
19000SOL    HW160020   8.330   4.994   6.618  2.7124 -1.9675 -1.9167
19000SOL    HW260021   8.260   4.867   6.575 -1.5421 -0.5290  0.4396
19001SOL     OW60022   0.283   6.619   3.823  0.4639  0.3464 -0.0800
19001SOL    HW160023   0.265   6.586   3.734  0.5042  1.7941 -0.6315
19001SOL    HW260024   0.261   6.712   3.819  0.4664  0.4213  1.4400
19002SOL     OW60025   8.487   4.723   9.182 -0.3055 -0.2003  0.7546
19002SOL    HW160026   8.475   4.645   9.128 -0.1282 -0.6985  1.4261
19002SOL    HW260027   8.562   4.768   9.144 -0.4391 -0.3280  0.3361
19003SOL     OW60028   4.544   0.086   5.212 -0.6117 -0.1028  0.9243
19003SOL    HW160029   4.566   0.066   5.121  0.7119 -0.6206  1.3461
19003SOL    HW260030   4.450   0.073   5.217 -1.5197  4.3062 -1.5173
19004SOL     OW60031   1.733   7.002   7.150 -0.4599 -0.3975  0.1094
19004SOL    HW160032   1.647   6.970   7.121 -0.7525  0.9899 -0.6371
19004SOL    HW260033   1.714   7.090   7.184  0.4656 -0.6014  1.1436
19005SOL     OW60034   7.017   0.501   5.716 -0.6700 -0.0744 -0.3794
19005SOL    HW160035   6.934   0.542   5.738 -0.9394 -1.1992  0.7499
19005SOL    HW260036   7.004   0.464   5.629 -0.6268  1.6514 -1.1383
19006SOL     OW60037   7.378   6.212   4.252 -0.3501 -0.2830  0.3188
19006SOL    HW160038   7.356   6.244   4.339  2.5505  1.0165  0.6435
19006SOL    HW260039   7.418   6.288   4.208 -0.1921 -1.3960 -1.5225
19007SOL     OW60040   0.227   6.493   9.064 -0.1380  0.3718  0.0174
19007SOL    HW160041   0.164   6.426   9.090 -1.4908  1.7669  0.3966
19007SOL    HW260042   0.289   6.498   9.137  1.6865 -2.4545 -1.2319
19008SOL     OW60043   4.522   5.387   4.845  0.0489 -0.2711 -0.1244
19008SOL    HW160044   4.457   5.439   4.798  0.6137  0.4303 -0.1298
19008SOL    HW260045   4.484   5.374   4.932 -0.4628 -0.5603 -0.3890
19009SOL     OW60046   1.917   4.475   7.524 -0.1355 -0.2743  0.0339
19009SOL    HW160047   1.944   4.397   7.475  1.3626 -0.3966  1.0228
19009SOL    HW260048   1.923   4.547   7.461 -0.0033 -0.7040 -0.4459
19010SOL     OW60049   3.879   8.818   8.634 -0.2244  0.5410  0.2200
19010SOL    HW160050   3.926   8.816   8.717 -1.1646 -0.8692  0.7351
19010SOL    HW260051   3.810   8.753   8.644  0.0653 -0.1335 -1.9074
19011SOL     OW60052   1.643   9.059   8.696  0.1161  0.4842  0.6541
19011SOL    HW160053   1.717   9.071   8.638 -0.0728 -2.8375 -0.3643
19011SOL    HW260054   1.680   9.065   8.784  1.1831  1.1429  0.1602
19012SOL     OW60055   1.402   0.718   5.028  0.0552 -0.0890 -0.0701
19012SOL    HW160056   1.375   0.729   5.119  0.4275  0.1503  0.0135
19012SOL    HW260057   1.320   0.720   4.979 -0.0730  0.9324  0.1555
19013SOL     OW60058   4.239   9.327   6.786  0.5653  0.3160  0.0301
19013SOL    HW160059   4.321   9.279   6.785  0.2153 -0.2854  0.1109
19013SOL    HW260060   4.171   9.261   6.774  0.2047  1.0556 -2.2764
19014SOL     OW60061   5.592   2.144   3.984  0.4788  0.4401  0.2163
19014SOL    HW160062   5.556   2.076   3.925  0.9918  0.4328 -0.0885
19014SOL    HW260063   5.515   2.197   4.008  0.0778 -0.2318  0.4360
19015SOL     OW60064   7.651   8.730   4.137 -0.1503 -0.4523  0.2628
19015SOL    HW160065   7.608   8.801   4.185  1.5585  1.5786 -1.0908
19015SOL    HW260066   7.728   8.709   4.190  1.3851  1.3481 -1.1824
19016SOL     OW60067   8.914   3.971   8.273 -0.1244 -0.1304  0.5460
19016SOL    HW160068   8.975   3.932   8.211  0.8194 -1.5608  2.3041
19016SOL    HW260069   8.866   4.036   8.222  0.8678 -0.9972 -1.5654
19017SOL     OW60070   4.133   4.183   3.429 -0.6379 -0.2740 -0.2482
19017SOL    HW160071   4.110   4.214   3.342 -0.2781 -1.6457 -0.8364
19017SOL    HW260072   4.216   4.227   3.449 -1.7205  1.5846  0.2365
19018SOL     OW60073   2.299   5.449   5.340  0.4210 -0.1596  0.3326
19018SOL    HW160074   2.266   5.538   5.355 -0.0855 -0.1066 -1.0337
19018SOL    HW260075   2.245   5.415   5.269  1.1625 -1.2680  0.2915
19019SOL     OW60076   7.578   3.822   0.515  0.1546 -0.9549 -0.2658
19019SOL    HW160077   7.660   3.817   0.466  1.6275  0.7441  1.9231
19019SOL    HW260078   7.599   3.785   0.600 -1.2305 -0.0286  0.4905
19020SOL     OW60079   4.111   8.662   3.291  0.3347  0.3494 -0.0697
19020SOL    HW160080   4.206   8.660   3.307  0.7833 -1.1975 -2.6295
19020SOL    HW260081   4.099   8.739   3.235  0.0507  0.5441  0.2546
19021SOL     OW60082   9.163   5.552   4.151  1.0252 -0.8971  0.3515
19021SOL    HW160083   9.232   5.618   4.146  0.8382 -0.6796  0.5992
19021SOL    HW260084   9.157   5.517   4.062  0.4997  0.0808 -0.0141
19022SOL     OW60085   3.328   4.820   4.515  0.6283 -0.0988  0.1618
19022SOL    HW160086   3.364   4.749   4.568  0.2830  0.2532  0.8703
19022SOL    HW260087   3.249   4.847   4.561  0.3746  0.2798 -0.4807
19023SOL     OW60088   8.352   3.181   5.844  0.4146 -0.5003  0.5570
19023SOL    HW160089   8.406   3.259   5.831 -0.0052 -0.4453 -0.9886
19023SOL    HW260090   8.280   3.191   5.781  0.3990 -2.1722  0.2808
19024SOL     OW60091   5.743   0.327   7.896 -0.0084 -0.0222 -0.0518
19024SOL    HW160092   5.780   0.360   7.978  1.1991 -1.4766  0.0141
19024SOL    HW260093   5.817   0.324   7.836 -0.2315 -1.8400 -0.2795
19025SOL     OW60094   6.696   5.372   5.005 -0.5568 -0.9469 -0.3072
19025SOL    HW160095   6.678   5.436   4.937 -2.7132 -0.5842  0.5745
19025SOL    HW260096   6.697   5.423   5.087 -1.0047 -1.8110  0.2507
19026SOL     OW60097   3.679   8.635   9.399  0.7458 -0.4267  0.1462
19026SOL    HW160098   3.691   8.638   9.494 -1.7167 -0.3931  0.4824
19026SOL    HW260099   3.612   8.569   9.385  0.9384 -0.2758 -1.5744
19027SOL     OW60100   4.301   2.423   6.875  0.0298 -0.2859  0.0917
19027SOL    HW160101   4.215   2.462   6.889 -0.8393 -1.6714 -1.1511
19027SOL    HW260102   4.288   2.363   6.801  1.4723 -2.3293  1.4434
19028SOL     OW60103   0.136   3.497   0.217 -0.3767  0.0426  0.1704
19028SOL    HW160104   0.123   3.488   0.311 -0.7648  0.0601  0.1203
19028SOL    HW260105   0.231   3.489   0.204 -0.1103  1.8362  0.7706
19029SOL     OW60106   8.227   5.814   1.871 -0.0913  0.1238 -0.0322
19029SOL    HW160107   8.215   5.905   1.846 -0.3390 -0.2315 -1.2273
19029SOL    HW260108   8.182   5.805   1.955  0.5767  1.2769  0.4609
19030SOL     OW60109   4.319   9.069   3.825 -0.3920  0.3281 -0.3090
19030SOL    HW160110   4.336   9.118   3.905 -1.9976  2.1306 -1.0322
19030SOL    HW260111   4.400   9.021   3.809  0.1568  0.4307  2.0457
19031SOL     OW60112   1.490   4.626   5.372 -1.0893  0.2920 -0.6904
19031SOL    HW160113   1.557   4.645   5.438 -2.6816 -0.9892  1.3235
19031SOL    HW260114   1.539   4.627   5.289  1.8375 -2.4438  0.8667
19032SOL     OW60115   3.536   2.583   1.329 -0.4209 -0.3711  0.8817
19032SOL    HW160116   3.597   2.544   1.391  0.8428 -0.1975 -0.2399
19032SOL    HW260117   3.577   2.666   1.304  0.8784 -2.0803 -2.9193
19033SOL     OW60118   2.534   4.176   5.232  0.1308 -0.3668  0.1391
19033SOL    HW160119   2.571   4.089   5.220 -0.8594 -1.1070  2.2494
19033SOL    HW260120   2.468   4.184   5.163  0.3160 -1.2200 -0.1428
19034SOL     OW60121   9.425   2.529   1.461 -0.3047 -0.4240  0.1833
19034SOL    HW160122   9.417   2.547   1.368 -1.1345  0.4875  0.4266
19034SOL    HW260123   9.400   2.436   1.469  1.4546 -0.9910 -0.7126
19035SOL     OW60124   4.560   1.371   5.863  0.4173 -0.3881 -0.6249
19035SOL    HW160125   4.587   1.416   5.943  1.2238 -1.1328 -0.4618
19035SOL    HW260126   4.482   1.322   5.889  1.3533 -1.5569  0.0306
19036SOL     OW60127   5.216   6.729   3.577  0.2388  0.2682  0.3489
19036SOL    HW160128   5.123   6.729   3.599  0.6179  0.0952  2.0514
19036SOL    HW260129   5.243   6.638   3.584  0.8027  0.4863  1.0918
19037SOL     OW60130   1.576   0.630   2.933  0.3885 -0.0842  0.6524
19037SOL    HW160131   1.526   0.549   2.936 -0.7901  0.6363  0.9314
19037SOL    HW260132   1.626   0.632   3.014  0.0006 -0.2693  0.8925
19038SOL     OW60133   4.287   8.161   5.386 -0.2313  0.3161  0.6494
19038SOL    HW160134   4.230   8.131   5.457 -2.8196  1.2804 -0.9287
19038SOL    HW260135   4.271   8.098   5.315 -1.5407  2.1958 -0.7816
19039SOL     OW60136   9.105   7.776   5.495 -0.0260 -0.2041 -0.2800
19039SOL    HW160137   9.025   7.728   5.514  1.1899 -1.7270  1.1469
19039SOL    HW260138   9.122   7.828   5.574  0.6904 -0.3165 -0.3569
19040SOL     OW60139   6.408   2.555   0.889  0.4821 -0.3026 -0.0137
19040SOL    HW160140   6.314   2.564   0.874  0.3618 -1.7223 -0.2195
19040SOL    HW260141   6.448   2.618   0.829 -0.2519 -1.5539 -1.8603
19041SOL     OW60142   8.043   7.321   3.290 -0.1509 -0.4519  0.0650
19041SOL    HW160143   8.130   7.311   3.329  0.1495 -0.1090 -0.5143
19041SOL    HW260144   8.029   7.416   3.287  0.1439 -0.4394 -1.3486
19042SOL     OW60145   6.130   6.922   2.544 -0.1368 -0.1203 -0.3855
19042SOL    HW160146   6.093   6.839   2.515  1.1285 -0.8276 -0.0492
19042SOL    HW260147   6.222   6.918   2.516 -0.0999  1.2217 -0.4819
19043SOL     OW60148   3.355   5.268   7.288 -0.1587  1.0805  0.3133
19043SOL    HW160149   3.265   5.273   7.320  0.1865 -0.8838  1.6906
19043SOL    HW260150   3.392   5.191   7.333  1.2744  0.0517 -2.5364
19044SOL     OW60151   7.144   4.147   5.891 -0.4364 -0.6486  0.1151
19044SOL    HW160152   7.066   4.114   5.934 -1.6646  1.2295 -0.6258
19044SOL    HW260153   7.150   4.096   5.810 -0.5630 -1.1769  0.4353
19045SOL     OW60154   4.151   0.088   2.636  0.4516  0.5502 -0.9334
19045SOL    HW160155   4.235   0.074   2.681 -0.7248 -2.0675  0.5398
19045SOL    HW260156   4.160   0.042   2.553  0.6669  0.7617 -1.0296
19046SOL     OW60157   0.638   7.901   7.392  0.0506 -0.1422 -0.1597
19046SOL    HW160158   0.596   7.833   7.340  0.3608  0.3527 -1.0694
19046SOL    HW260159   0.711   7.857   7.435 -0.6144 -0.7099  0.4118
19047SOL     OW60160   2.623   7.012   3.229 -0.3953  0.5874 -0.2131
19047SOL    HW160161   2.711   6.975   3.243 -0.8683 -0.1938  0.7218
19047SOL    HW260162   2.639   7.091   3.178  0.7432 -0.3293 -1.3390
19048SOL     OW60163   4.665   7.359   1.978 -0.0210 -0.1838  0.5962
19048SOL    HW160164   4.627   7.410   2.049 -0.9175  0.6415 -0.4682
19048SOL    HW260165   4.681   7.422   1.908  1.9233 -0.7794  0.4551
19049SOL     OW60166   8.803   2.441   5.897 -0.3462 -0.1385 -0.4454
19049SOL    HW160167   8.767   2.520   5.937  2.3662  1.0304 -0.1591
19049SOL    HW260168   8.873   2.474   5.840  1.9024 -2.4058  0.8910
19050SOL     OW60169   9.030   7.982   1.197  0.3327  0.0831  0.5723
19050SOL    HW160170   9.011   7.889   1.181  0.9062  0.1194 -0.3792
19050SOL    HW260171   8.945   8.021   1.217 -0.2180 -0.2785 -0.9708
19051SOL     OW60172   8.988   8.594   8.331 -0.0305  0.4414  0.3335
19051SOL    HW160173   9.004   8.621   8.421  1.8804 -1.3730  0.5655
19051SOL    HW260174   9.073   8.597   8.288 -0.5451 -0.7478 -0.8431
19052SOL     OW60175   1.622   8.638   9.372 -0.4131 -0.2129 -0.6499
19052SOL    HW160176   1.643   8.638   9.278  0.6506  1.9209 -0.4501
19052SOL    HW260177   1.692   8.585   9.412  0.8331  1.3356 -0.7433
19053SOL     OW60178   0.611   0.428   0.941  0.3187 -0.1997 -0.3429
19053SOL    HW160179   0.631   0.416   0.848  0.8157 -2.0832 -0.0116
19053SOL    HW260180   0.697   0.425   0.984  0.0413  0.1225  0.2398
19054SOL     OW60181   2.707   5.670   6.487  0.3458  0.3694  0.0690
19054SOL    HW160182   2.796   5.669   6.522  0.7868  0.6816 -1.0058
19054SOL    HW260183   2.651   5.647   6.561  1.2755  0.6986  0.8820
19055SOL     OW60184   4.833   4.321   9.435 -0.1171  0.0741  0.6497
19055SOL    HW160185   4.882   4.272   9.501 -1.7757 -1.2813  0.9091
19055SOL    HW260186   4.758   4.356   9.483 -1.3540 -0.9567 -0.5248
19056SOL     OW60187   3.186   1.969   5.135 -0.0682  0.3004 -0.2004
19056SOL    HW160188   3.256   1.987   5.198 -0.6179 -1.1361  0.8349
19056SOL    HW260189   3.106   1.968   5.188 -0.2966 -3.0678 -0.5451
19057SOL     OW60190   1.094   6.630   4.907  0.0119  0.9003 -0.4130
19057SOL    HW160191   1.070   6.581   4.986  0.9236  2.5487  0.9184
19057SOL    HW260192   1.021   6.616   4.847 -0.7356 -0.3182  0.7446
19058SOL     OW60193   1.333   3.013   5.131 -0.3255 -0.1161 -0.2269
19058SOL    HW160194   1.427   3.026   5.118 -0.7535  1.0592 -2.3388
19058SOL    HW260195   1.326   2.927   5.173  1.6278 -0.6325 -0.9253
19059SOL     OW60196   6.045   1.562   7.794  0.5426  0.5121  0.1205
19059SOL    HW160197   6.054   1.500   7.721  4.0338  0.0341  0.8913
19059SOL    HW260198   6.040   1.507   7.872 -0.9981  1.0863  0.4312
19060SOL     OW60199   5.991   0.561   5.967 -0.0819 -0.4860  0.2997
19060SOL    HW160200   6.047   0.627   6.007 -0.2764 -0.8031  1.0900
19060SOL    HW260201   5.983   0.590   5.875 -1.5443  1.5321  1.0195
19061SOL     OW60202   7.838   2.591   4.739  0.0323  0.2444 -0.1243
19061SOL    HW160203   7.746   2.584   4.762  0.2271  0.5880  0.7672
19061SOL    HW260204   7.875   2.506   4.763  0.2598  0.6441  0.9616
19062SOL     OW60205   2.264   9.283   8.015  0.0867  0.1962 -0.0504
19062SOL    HW160206   2.224   9.261   8.099 -0.8176 -1.0269 -0.7842
19062SOL    HW260207   2.351   9.243   8.018 -0.3968 -0.8788 -0.1671
19063SOL     OW60208   0.676   1.849   0.255  0.5610  0.2690  0.1311
19063SOL    HW160209   0.756   1.902   0.248  1.5122 -1.0587  0.7822
19063SOL    HW260210   0.623   1.878   0.181  0.1600  3.5954  1.6328
19064SOL     OW60211   8.375   7.975   5.284  0.2524 -0.0986 -0.1262
19064SOL    HW160212   8.301   7.957   5.341 -0.2901  1.0586 -0.4556
19064SOL    HW260213   8.413   7.889   5.266 -0.6099 -0.6313  0.5711
19065SOL     OW60214   3.548   5.578   0.406  0.2691 -0.4415  0.0893
19065SOL    HW160215   3.583   5.494   0.437 -0.6030 -0.4540  1.0581
19065SOL    HW260216   3.458   5.580   0.439  0.5129  1.2026  0.7245
19066SOL     OW60217   6.776   8.660   8.343  0.1630  0.9148  0.1035
19066SOL    HW160218   6.705   8.655   8.407  1.0677  0.9103  1.1214
19066SOL    HW260219   6.847   8.704   8.390  2.0450 -2.1619  0.2697
19067SOL     OW60220   2.321   5.024   7.839  0.3869  0.1018  0.1963
19067SOL    HW160221   2.329   5.116   7.862  1.5914  0.2388 -0.7216
19067SOL    HW260222   2.409   4.998   7.811 -0.1234 -1.1039 -0.3550
19068SOL     OW60223   6.324   9.240   3.094  0.2485 -0.2545  0.0610
19068SOL    HW160224   6.383   9.170   3.064  0.5011 -0.0873  0.1635
19068SOL    HW260225   6.270   9.259   3.017  0.0296 -0.7181  0.1008
19069SOL     OW60226   7.887   2.865   3.432 -0.3887 -0.4651 -0.4005
19069SOL    HW160227   7.885   2.904   3.519  0.6250  1.7196 -1.3020
19069SOL    HW260228   7.859   2.775   3.445  0.0728 -0.2729  2.2321
19070SOL     OW60229   5.858   4.826   5.946  0.0374 -0.4501  0.1957
19070SOL    HW160230   5.879   4.886   6.018  1.6089  0.8731 -1.3066
19070SOL    HW260231   5.818   4.882   5.879  1.3302 -1.0915 -1.1445
19071SOL     OW60232   3.803   2.359   2.464 -0.0935 -0.6947 -0.2384
19071SOL    HW160233   3.809   2.332   2.372  0.6336  1.2097 -0.7691
19071SOL    HW260234   3.720   2.322   2.494  0.2656 -2.4202 -1.2813
19072SOL     OW60235   0.784   6.697   9.161  0.1913 -0.0419 -0.7243
19072SOL    HW160236   0.717   6.630   9.172  3.0052 -2.6181  1.6383
19072SOL    HW260237   0.786   6.743   9.245  1.8942 -0.5336 -0.4735
19073SOL     OW60238   9.309   6.318   7.595  0.0753  0.0630  0.8277
19073SOL    HW160239   9.233   6.308   7.652  0.0511  0.9990  0.9688
19073SOL    HW260240   9.384   6.314   7.654  0.0349  1.4089  0.9851
19074SOL     OW60241   5.097   6.648   8.666 -0.3688 -0.8188 -0.2856
19074SOL    HW160242   5.029   6.581   8.675  0.5076 -1.7756 -0.6751
19074SOL    HW260243   5.059   6.713   8.608 -0.8071 -1.5505 -0.8269
19075SOL     OW60244   5.267   7.072   8.821  0.0133 -0.0353 -0.2907
19075SOL    HW160245   5.340   7.017   8.851 -0.2130  0.2793  0.8745
19075SOL    HW260246   5.210   7.079   8.897  0.7612  3.0047  0.0563
19076SOL     OW60247   9.272   0.830   7.124 -0.2393 -0.3247 -0.0257
19076SOL    HW160248   9.341   0.775   7.161 -0.7770 -2.2760 -1.7435
19076SOL    HW260249   9.259   0.794   7.036 -1.6815  1.6322 -0.6374
19077SOL     OW60250   4.827   8.308   6.714  0.2205  0.0797 -0.0464
19077SOL    HW160251   4.814   8.262   6.797 -1.8049 -2.2543 -1.5803
19077SOL    HW260252   4.767   8.382   6.718  0.7182  0.4436  0.8874
19078SOL     OW60253   5.321   1.798   2.809 -0.0997 -1.0193 -0.1381
19078SOL    HW160254   5.326   1.715   2.762  0.8394 -1.5870  0.9474
19078SOL    HW260255   5.332   1.774   2.901 -0.9204  0.1867  0.2836
19079SOL     OW60256   4.963   0.195   3.311  0.1598 -0.1716 -0.1174
19079SOL    HW160257   4.994   0.160   3.395  1.6921  0.2705 -0.4873
19079SOL    HW260258   5.039   0.188   3.253 -1.8270 -3.6943 -2.4699
19080SOL     OW60259   6.391   4.369   6.600 -0.1378  0.2259  0.5678
19080SOL    HW160260   6.382   4.465   6.598  1.4646  0.3885 -0.4009
19080SOL    HW260261   6.459   4.353   6.666  0.0620 -0.1949  0.2598
19081SOL     OW60262   3.461   0.494   8.127 -0.1003 -0.5157  0.3007
19081SOL    HW160263   3.472   0.494   8.222  0.5620  0.3224  0.2341
19081SOL    HW260264   3.427   0.407   8.106 -2.7807  0.1811  1.5952
19082SOL     OW60265   2.028   4.929   0.768  0.3255 -0.1439 -0.3565
19082SOL    HW160266   1.978   5.005   0.798  0.1581 -0.5439  0.4137
19082SOL    HW260267   2.020   4.930   0.673 -3.3034 -1.6284 -0.1760
19083SOL     OW60268   6.575   2.572   9.122 -0.0191  0.0096  0.1993
19083SOL    HW160269   6.633   2.646   9.107  2.3743 -1.3663  2.3266
19083SOL    HW260270   6.591   2.513   9.048  0.6956  0.0099  0.3552
19084SOL     OW60271   5.241   6.278   4.508  0.0070  0.6260 -0.1217
19084SOL    HW160272   5.190   6.252   4.432 -0.4414  0.7406  0.1411
19084SOL    HW260273   5.177   6.288   4.578  0.1758  2.3908 -0.2065
19085SOL     OW60274   8.539   1.131   0.314  0.3661  0.0288  0.2859
19085SOL    HW160275   8.539   1.107   0.406 -0.5122 -1.9290 -0.2004
19085SOL    HW260276   8.489   1.061   0.271  0.8854  0.8403 -1.6819
19086SOL     OW60277   2.076   6.255   8.596  0.2537 -0.4765  0.1151
19086SOL    HW160278   2.156   6.287   8.555 -0.5058  1.3290  0.0349
19086SOL    HW260279   2.040   6.330   8.642 -2.2702 -0.8149 -1.1966
19087SOL     OW60280   2.035   4.712   1.730 -0.0571  0.6394  0.2485
19087SOL    HW160281   2.040   4.807   1.721 -1.3764  0.7456  0.5178
19087SOL    HW260282   2.013   4.680   1.643  0.8016  0.5377  0.0628
19088SOL     OW60283   8.560   2.545   8.679  0.5980 -0.1499 -0.4685
19088SOL    HW160284   8.554   2.539   8.584  2.4978  0.8237 -0.6626
19088SOL    HW260285   8.508   2.623   8.701  1.8535  0.8196 -0.9113
19089SOL     OW60286   4.788   2.560   8.290  0.1893 -0.0594  0.2941
19089SOL    HW160287   4.878   2.529   8.298  0.3356  0.3309  0.1803
19089SOL    HW260288   4.768   2.553   8.197  0.0822 -0.1944  0.3270
19090SOL     OW60289   1.170   8.561   8.135 -0.3418  0.2515 -0.6842
19090SOL    HW160290   1.110   8.486   8.127  1.2727 -1.0264 -1.1575
19090SOL    HW260291   1.241   8.541   8.075  0.6289  1.6850 -0.0369
19091SOL     OW60292   5.826   7.026   5.631 -0.5282 -0.1205  0.0073
19091SOL    HW160293   5.891   6.977   5.580 -0.3585  0.3905 -0.2731
19091SOL    HW260294   5.820   6.980   5.714  1.0944  0.5278  0.4936
19092SOL     OW60295   2.448   8.958   0.708  0.3183 -0.5101 -0.1377
19092SOL    HW160296   2.464   8.872   0.749 -1.5409 -1.3285 -1.0639
19092SOL    HW260297   2.535   8.990   0.686  1.1886 -1.2708  1.9903
19093SOL     OW60298   3.973   0.350   4.217 -0.2674  0.1002 -0.5441
19093SOL    HW160299   3.971   0.445   4.210 -0.3562 -0.0095 -2.3277
19093SOL    HW260300   4.007   0.333   4.305 -0.0373  1.7754 -0.2912
19094SOL     OW60301   7.882   0.590   0.614  0.3293 -0.5591  0.1054
19094SOL    HW160302   7.895   0.656   0.682  1.0628 -0.4485 -0.1318
19094SOL    HW260303   7.790   0.598   0.590  0.1447 -0.3879  0.8676
19095SOL     OW60304   5.616   2.906   8.787 -0.1201  0.3748  0.5750
19095SOL    HW160305   5.570   2.907   8.703 -0.4934  1.3273  0.7801
19095SOL    HW260306   5.655   2.993   8.794  1.8877 -0.4902  0.3154
19096SOL     OW60307   9.193   5.283   2.428 -0.2246  0.1061 -0.5996
19096SOL    HW160308   9.249   5.249   2.497  0.0892  0.8432 -0.4902
19096SOL    HW260309   9.237   5.257   2.347 -1.1525 -1.7099 -0.5489
19097SOL     OW60310   2.503   4.098   4.124  0.0292  0.2821  0.4297
19097SOL    HW160311   2.577   4.095   4.185 -0.8986 -0.7499  1.5367
19097SOL    HW260312   2.462   4.012   4.131 -1.2332  0.8075 -0.2278
19098SOL     OW60313   5.830   9.331   1.416 -0.4283  0.2607  0.2861
19098SOL    HW160314   5.912   9.302   1.455  0.6404  0.8668 -1.4582
19098SOL    HW260315   5.844   9.323   1.322 -1.6624  2.2379 -0.1025
19099SOL     OW60316   1.589   0.147   5.953 -0.0363  0.0613 -0.3487
19099SOL    HW160317   1.496   0.135   5.974 -0.1922  0.1056 -0.9978
19099SOL    HW260318   1.605   0.240   5.970  0.1209 -0.1527  0.6569
19100SOL     OW60319   6.309   1.354   5.287  0.2675  0.4842  0.4904
19100SOL    HW160320   6.268   1.368   5.202 -2.2279 -1.5568  1.3271
19100SOL    HW260321   6.395   1.316   5.266 -1.4690 -2.7335 -1.0752
19101SOL     OW60322   0.138   6.997   9.364 -0.0311 -0.4649 -0.1573
19101SOL    HW160323   0.214   7.020   9.311 -0.2938 -1.1378 -0.8279
19101SOL    HW260324   0.068   7.053   9.331  0.4505  1.0200  1.2570
19102SOL     OW60325   1.973   1.960   3.865 -0.2995  0.2085 -0.0413
19102SOL    HW160326   1.995   1.921   3.950  1.1070  1.2162  0.0932
19102SOL    HW260327   1.878   1.960   3.862 -0.3559 -0.3625  1.2952
19103SOL     OW60328   8.354   3.733   1.942 -0.3802  0.4411 -0.2109
19103SOL    HW160329   8.386   3.728   1.852  0.6395  1.1188  0.1024
19103SOL    HW260330   8.292   3.806   1.942 -1.0112 -0.0838 -0.5365
19104SOL     OW60331   2.966   7.607   6.801  0.4459 -0.4497 -0.5579
19104SOL    HW160332   2.975   7.514   6.782 -0.0167 -0.6537  0.1891
19104SOL    HW260333   2.871   7.623   6.798  0.5065 -0.0625 -0.4094
19105SOL     OW60334   2.564   5.042   7.686  0.1846 -0.0697  0.0061
19105SOL    HW160335   2.621   5.117   7.667 -0.1980  0.1573 -0.2654
19105SOL    HW260336   2.502   5.041   7.613  0.2609 -0.7244 -0.0491
19106SOL     OW60337   9.205   7.842   7.197  0.2360 -0.0807 -0.1906
19106SOL    HW160338   9.190   7.747   7.191 -1.1393  0.2358 -2.2147
19106SOL    HW260339   9.153   7.870   7.272  1.6786 -1.1037  1.2300
19107SOL     OW60340   7.627   1.642   1.767 -0.3558 -1.1004 -0.3207
19107SOL    HW160341   7.598   1.563   1.813  0.9516 -0.6834  1.2573
19107SOL    HW260342   7.684   1.609   1.697 -0.1843 -1.5749  0.0446
19108SOL     OW60343   2.574   7.042   3.508  0.3671  0.4327  0.0937
19108SOL    HW160344   2.606   6.954   3.529 -0.5427  0.3363  1.0645
19108SOL    HW260345   2.585   7.049   3.413 -1.0950 -1.3552 -0.2338
19109SOL     OW60346   5.913   7.417   4.878 -0.5338 -0.8836 -0.3501
19109SOL    HW160347   5.873   7.412   4.965 -1.0821 -2.2336 -0.6799
19109SOL    HW260348   5.949   7.330   4.863 -0.3822 -0.6332 -1.4509
19110SOL     OW60349   8.420   4.630   7.992 -0.3827  0.0511  0.2631
19110SOL    HW160350   8.405   4.541   7.959 -0.1958  0.1508 -0.0855
19110SOL    HW260351   8.493   4.663   7.940 -0.7309  0.5670  0.0987
19111SOL     OW60352   7.310   3.197   2.037  0.4068  0.0613 -0.3238
19111SOL    HW160353   7.318   3.206   2.132  0.3954  0.0853 -0.3252
19111SOL    HW260354   7.337   3.107   2.019 -0.3601 -0.1893 -0.2091
19112SOL     OW60355   2.545   7.349   9.025  0.3867 -0.2475  0.0223
19112SOL    HW160356   2.544   7.295   9.104 -1.2898  0.9279  0.8459
19112SOL    HW260357   2.633   7.385   9.021  0.3356  0.0825  1.6530
19113SOL     OW60358   5.334   3.171   1.951  0.1453 -0.5757 -0.7350
19113SOL    HW160359   5.406   3.132   2.000 -0.2915 -1.0424 -0.4480
19113SOL    HW260360   5.353   3.265   1.949  0.5080 -0.6404 -0.2441
19114SOL     OW60361   4.560   7.604   3.279  0.0080 -0.2299 -0.3250
19114SOL    HW160362   4.631   7.580   3.219 -1.1469  0.8933 -2.1942
19114SOL    HW260363   4.492   7.538   3.264 -0.3860  0.1984 -0.4215
19115SOL     OW60364   6.037   6.043   1.903  0.2567  0.4896 -0.0452
19115SOL    HW160365   6.037   6.136   1.883 -1.3242  0.7209  0.9377
19115SOL    HW260366   5.988   6.036   1.985  1.2973 -1.0826  0.4585
19116SOL     OW60367   9.204   4.299   2.019 -0.0117 -0.1377  0.1299
19116SOL    HW160368   9.166   4.373   2.066  0.9856  0.1634  0.4900
19116SOL    HW260369   9.130   4.244   1.995 -0.7978  1.2307 -0.5722
19117SOL     OW60370   0.070   3.223   1.094  0.3588 -0.3264  0.2038
19117SOL    HW160371   0.023   3.150   1.134 -0.4452 -1.1505 -2.1671
19117SOL    HW260372   0.162   3.205   1.111  0.0088 -0.1925  2.4090
19118SOL     OW60373   3.261   5.751   5.166  0.5023  1.0763 -0.8951
19118SOL    HW160374   3.287   5.665   5.197  2.4570  1.7893 -0.4652
19118SOL    HW260375   3.268   5.807   5.243 -1.6013  1.4706 -0.9552
19119SOL     OW60376   2.349   2.296   7.177  0.6088 -0.4012 -0.3674
19119SOL    HW160377   2.288   2.261   7.242  1.3541 -0.0606  0.5385
19119SOL    HW260378   2.430   2.249   7.193  1.0007  0.1909 -0.5837
19120SOL     OW60379   0.854   6.165   0.219 -0.2094  0.1787 -0.4843
19120SOL    HW160380   0.861   6.231   0.289  1.2410 -1.3068  0.8046
19120SOL    HW260381   0.826   6.215   0.142 -2.2771  1.7913  1.2500
19121SOL     OW60382   7.948   7.581   8.812 -0.8514 -0.4828  0.5837
19121SOL    HW160383   7.957   7.500   8.863 -1.9679 -0.1081  1.3924
19121SOL    HW260384   7.913   7.645   8.874  0.3703  0.7379  0.0489
19122SOL     OW60385   7.277   1.854   6.794  0.7718  0.4916  0.1775
19122SOL    HW160386   7.228   1.804   6.728  0.8750 -0.4595  0.8119
19122SOL    HW260387   7.218   1.860   6.868  0.1405  2.7237 -0.4647
19123SOL     OW60388   4.433   8.401   0.813 -0.2775  0.0020  0.2462
19123SOL    HW160389   4.528   8.401   0.826  0.1406 -1.3202 -2.4655
19123SOL    HW260390   4.406   8.312   0.835 -0.6286 -0.1160 -0.6609
19124SOL     OW60391   0.439   1.301   6.098  0.3070  0.4955  0.5447
19124SOL    HW160392   0.452   1.374   6.159  0.3214  1.0659 -0.1366
19124SOL    HW260393   0.349   1.311   6.068  0.2949  0.2065  0.4873
19125SOL     OW60394   7.090   3.543   3.923  0.3398  0.0442 -0.1086
19125SOL    HW160395   7.117   3.520   4.012 -1.4582  0.7299  0.6505
19125SOL    HW260396   7.153   3.499   3.866  0.0551 -2.4049  1.4232
19126SOL     OW60397   3.293   9.394   3.963  0.4851  0.2773  0.1135
19126SOL    HW160398   3.290   9.303   3.932  0.7461 -0.3962  2.0322
19126SOL    HW260399   3.318   9.444   3.885 -2.1247 -0.9708 -1.6121
19127SOL     OW60400   5.169   0.274   6.269 -0.0457  0.1622  0.5187
19127SOL    HW160401   5.108   0.324   6.323 -0.4830 -1.3020  1.3889
19127SOL    HW260402   5.132   0.186   6.265  1.3955 -0.4412  0.0761
19128SOL     OW60403   0.936   8.815   9.198 -0.3907 -0.6184 -0.5753
19128SOL    HW160404   0.968   8.797   9.287  1.0428  0.5321 -0.8391
19128SOL    HW260405   0.842   8.800   9.203 -0.6018  1.2565  1.6164
19129SOL     OW60406   0.852   7.201   0.725  0.4649  0.4312  0.0570
19129SOL    HW160407   0.878   7.283   0.766  1.3111  0.5644 -0.7247
19129SOL    HW260408   0.756   7.199   0.732  0.4265  1.5920 -0.1392
19130SOL     OW60409   2.666   2.580   8.938  0.4096  0.1990  0.0293
19130SOL    HW160410   2.702   2.551   9.022 -0.5811 -0.9156  0.0850
19130SOL    HW260411   2.571   2.587   8.954  0.6272  4.0428  0.1967
19131SOL     OW60412   3.050   9.077   1.804  0.5804 -0.5122 -0.4539
19131SOL    HW160413   3.120   9.015   1.824  2.6882  1.4044 -1.5441
19131SOL    HW260414   3.066   9.102   1.713 -0.4924  1.2424 -0.1913
19132SOL     OW60415   2.301   2.681   0.683 -0.1183 -0.0389 -0.5195
19132SOL    HW160416   2.251   2.672   0.765 -0.2021  1.9978 -0.3171
19132SOL    HW260417   2.242   2.647   0.616 -0.1747 -1.4392  0.2095
19133SOL     OW60418   0.865   2.582   0.880 -0.1170  0.3864 -0.0969
19133SOL    HW160419   0.844   2.662   0.832 -0.5797  0.7043  0.6391
19133SOL    HW260420   0.944   2.604   0.929 -1.6306  1.1969  2.0418
19134SOL     OW60421   7.622   2.393   7.890  0.3950 -0.6520  0.3116
19134SOL    HW160422   7.639   2.323   7.827 -1.6155  0.3736 -1.4507
19134SOL    HW260423   7.691   2.458   7.873 -0.6578  0.0448 -1.5523
19135SOL     OW60424   8.295   6.669   7.507 -0.2366  0.0711 -0.1553
19135SOL    HW160425   8.200   6.677   7.510 -0.3507 -1.3707  0.7008
19135SOL    HW260426   8.327   6.729   7.574 -0.6144 -0.3623  0.4171
19136SOL     OW60427   6.099   0.909   2.043 -0.1103  0.3060 -0.0378
19136SOL    HW160428   6.010   0.887   2.015  0.0887 -1.1558  0.4148
19136SOL    HW260429   6.090   0.931   2.135  0.0407 -0.1425  0.0847
19137SOL     OW60430   8.322   8.374   2.227 -0.1849  0.1665 -0.0848
19137SOL    HW160431   8.400   8.330   2.259 -0.5436 -0.5281 -0.1653
19137SOL    HW260432   8.251   8.343   2.284 -0.9841 -1.7446 -2.0660
19138SOL     OW60433   2.301   1.335   8.583 -0.2999  0.3273 -0.0980
19138SOL    HW160434   2.298   1.242   8.558 -1.6827  0.0757  0.9563
19138SOL    HW260435   2.225   1.374   8.540 -0.4462  0.7067  0.4966
19139SOL     OW60436   2.966   3.478   4.731  0.3201  0.0498 -0.5260
19139SOL    HW160437   2.970   3.422   4.654  2.4256  0.3916 -0.7032
19139SOL    HW260438   3.029   3.548   4.713 -0.4810  1.1247  0.7351
19140SOL     OW60439   6.382   5.006   9.167  0.1565 -0.5000 -0.4937
19140SOL    HW160440   6.443   5.080   9.159 -0.4122  0.1484  0.9875
19140SOL    HW260441   6.337   5.021   9.251 -2.6207 -0.5035 -1.9212
19141SOL     OW60442   2.280   9.186   9.301 -0.1844  0.4763  0.4582
19141SOL    HW160443   2.187   9.194   9.322 -0.6722 -0.5196 -1.2373
19141SOL    HW260444   2.282   9.155   9.211  1.7630 -1.3193  1.0648
19142SOL     OW60445   4.612   9.408   7.162 -0.0072  0.1232  0.3870
19142SOL    HW160446   4.548   9.462   7.115 -0.3334 -0.3338  0.3020
19142SOL    HW260447   4.696   9.453   7.149 -0.5270  1.4990  1.6958
19143SOL     OW60448   8.094   0.058   8.669 -0.4157 -0.0139 -0.2947
19143SOL    HW160449   8.152   0.130   8.691 -2.4492  1.6798 -0.3048
19143SOL    HW260450   8.128  -0.016   8.718  1.0233  1.2288  0.6298
19144SOL     OW60451   2.927   7.249   6.173  0.5091  0.5078 -0.0014
19144SOL    HW160452   2.915   7.244   6.268 -0.0346  2.4807  0.0691
19144SOL    HW260453   2.885   7.170   6.139  1.6401 -0.7515  1.4689
19145SOL     OW60454   5.566   5.074   3.669  0.0028 -0.6930 -0.3422
19145SOL    HW160455   5.547   5.011   3.739 -2.1316 -0.3056 -0.5546
19145SOL    HW260456   5.586   5.155   3.715 -0.2359 -0.7429 -0.1469
19146SOL     OW60457   7.491   5.052   2.499 -0.0932  0.4429  0.0428
19146SOL    HW160458   7.576   5.088   2.476 -0.4827 -0.3870 -2.8102
19146SOL    HW260459   7.441   5.053   2.418 -1.1984 -3.5000  0.5635
19147SOL     OW60460   6.883   6.019   4.584 -0.0848  0.2195 -0.9798
19147SOL    HW160461   6.957   6.006   4.525 -0.2159 -1.3082 -0.8268
19147SOL    HW260462   6.912   6.086   4.645  1.3197 -0.6477 -0.6852
19148SOL     OW60463   5.326   2.536   4.037 -0.3220  0.1868  0.2099
19148SOL    HW160464   5.255   2.600   4.045 -0.4476 -0.0867  1.3443
19148SOL    HW260465   5.370   2.539   4.122  1.1329  0.4806 -0.5300
19149SOL     OW60466   7.218   0.981   2.371 -0.2625 -0.4821 -0.1509
19149SOL    HW160467   7.275   0.979   2.448 -0.1995  1.3030 -0.1336
19149SOL    HW260468   7.279   0.977   2.297 -0.0596  1.7290 -0.1367
19150SOL     OW60469   0.234   0.455   1.198 -0.2246  0.3851  0.2966
19150SOL    HW160470   0.225   0.406   1.116 -0.5750 -0.3272  0.7540
19150SOL    HW260471   0.153   0.506   1.204 -0.8942 -0.7497  0.9711
19151SOL     OW60472   0.833   2.562   3.786 -0.0710 -0.1306  0.3496
19151SOL    HW160473   0.837   2.618   3.709 -0.7521  1.0061  1.1327
19151SOL    HW260474   0.906   2.501   3.775  0.6243  0.8538 -0.5497
19152SOL     OW60475   0.934   5.042   8.781  0.0009  0.1504  0.4633
19152SOL    HW160476   0.853   5.083   8.751  0.4433  1.4751  1.0383
19152SOL    HW260477   0.964   5.098   8.852  0.3785 -1.4527  1.5917
19153SOL     OW60478   2.977   3.060   5.907  0.1550  0.0535 -0.0057
19153SOL    HW160479   3.060   3.087   5.869  1.2450 -1.4337  1.2551
19153SOL    HW260480   2.967   3.115   5.985  0.8099 -0.9470  0.7931
19154SOL     OW60481   1.635   0.922   6.792  0.3126  0.2620  0.0656
19154SOL    HW160482   1.562   0.866   6.818  0.3987  0.7313  1.3454
19154SOL    HW260483   1.688   0.868   6.734  1.3233 -1.5768  2.6105
19155SOL     OW60484   8.566   2.809   2.127  0.3020  0.8127 -0.6377
19155SOL    HW160485   8.650   2.785   2.166  1.1943  0.2555 -2.8070
19155SOL    HW260486   8.505   2.812   2.201  1.2854 -3.0498  0.4694
19156SOL     OW60487   8.512   1.686   5.070 -0.2032 -0.5445 -0.0145
19156SOL    HW160488   8.522   1.593   5.091 -0.4312 -0.7334 -0.7462
19156SOL    HW260489   8.423   1.707   5.100 -0.8347 -1.0180 -1.5288
19157SOL     OW60490   5.435   4.468   7.031 -0.0078 -0.2318 -0.0062
19157SOL    HW160491   5.431   4.372   7.038  2.4551 -0.2348  2.1251
19157SOL    HW260492   5.525   4.486   7.004 -0.1683  1.5171  0.6004
19158SOL     OW60493   1.304   1.540   2.388 -0.0658 -0.4572  0.3025
19158SOL    HW160494   1.222   1.539   2.339 -0.5234  1.0050  1.0004
19158SOL    HW260495   1.362   1.481   2.340 -0.7674  0.2978 -1.4989
19159SOL     OW60496   6.240   1.558   6.056 -0.1380 -0.4811  0.4850
19159SOL    HW160497   6.258   1.652   6.060  0.8331 -0.6599  0.5794
19159SOL    HW260498   6.233   1.538   5.963  0.2663 -0.4201  0.4408
19160SOL     OW60499   7.337   4.398   5.457 -0.0154  0.4768  0.1355
19160SOL    HW160500   7.279   4.446   5.517  0.6076 -0.2850  1.3634
19160SOL    HW260501   7.424   4.408   5.495  0.1752 -1.3013  0.1885
19161SOL     OW60502   3.662   7.027   5.122 -0.3602 -0.5373 -0.1698
19161SOL    HW160503   3.665   6.989   5.034 -0.2541 -1.5461  0.2666
19161SOL    HW260504   3.571   7.055   5.132 -0.2855 -0.0676 -0.7399
19162SOL     OW60505   6.722   8.775   5.615  0.1028 -0.3989 -0.1069
19162SOL    HW160506   6.696   8.749   5.703  0.5499  0.6169  0.3382
19162SOL    HW260507   6.660   8.731   5.557  0.6765 -2.1935  0.6200
19163SOL     OW60508   7.113   0.831   6.930  0.1698  0.1909  0.0838
19163SOL    HW160509   7.056   0.847   7.005 -0.7683  0.0123 -0.5765
19163SOL    HW260510   7.161   0.751   6.952 -0.2846 -0.0006  0.3814
19164SOL     OW60511   6.373   7.282   5.379 -0.6848 -0.1833 -0.1442
19164SOL    HW160512   6.432   7.354   5.357  0.3755 -0.9239  0.2142
19164SOL    HW260513   6.290   7.324   5.403 -0.4311  0.8520 -1.0414
19165SOL     OW60514   2.542   6.434   1.698 -0.3717 -0.3957 -0.1072
19165SOL    HW160515   2.494   6.461   1.620  0.5109 -1.4119 -1.0258
19165SOL    HW260516   2.474   6.412   1.763 -1.1070  0.1241 -0.7021
19166SOL     OW60517   2.748   1.270   6.646 -0.2409  0.1186  0.0511
19166SOL    HW160518   2.691   1.331   6.693 -0.1879 -0.5525  1.0100
19166SOL    HW260519   2.692   1.233   6.578 -1.4176 -1.6708  1.9478
19167SOL     OW60520   4.807   4.387   1.356  0.2496 -0.2731 -0.2273
19167SOL    HW160521   4.783   4.391   1.263 -0.2362  0.7736 -0.0582
19167SOL    HW260522   4.876   4.321   1.359  1.0859  0.4979 -1.5233
19168SOL     OW60523   8.411   8.065   0.760  0.0037 -0.5771 -0.0885
19168SOL    HW160524   8.341   8.117   0.799  0.1320 -0.5533  0.1155
19168SOL    HW260525   8.490   8.094   0.807  0.5050  1.0269 -1.8510
19169SOL     OW60526   6.612   6.718   6.008  0.0941 -0.0770 -0.5101
19169SOL    HW160527   6.671   6.730   6.082  1.3473  1.0655 -1.6498
19169SOL    HW260528   6.658   6.657   5.950 -0.2216  0.1482 -1.0045
19170SOL     OW60529   2.949   2.915   1.402 -0.4022 -0.0597  0.2366
19170SOL    HW160530   2.942   2.933   1.309 -1.1079 -0.6631  0.1701
19170SOL    HW260531   3.022   2.853   1.409  0.3446  0.8001  0.2032
19171SOL     OW60532   5.222   5.674   5.509 -0.0217 -0.4576 -0.1842
19171SOL    HW160533   5.232   5.650   5.417 -0.5590  0.6755 -0.5600
19171SOL    HW260534   5.245   5.767   5.512 -1.8321 -0.0035  0.4633
19172SOL     OW60535   5.856   8.320   1.015 -0.3749 -0.1582 -0.1229
19172SOL    HW160536   5.804   8.351   0.940 -3.1678 -0.7514  1.5142
19172SOL    HW260537   5.884   8.232   0.990 -0.3650  0.0684 -0.9250
19173SOL     OW60538   3.871   3.996   5.831 -0.1447 -0.0316  0.0641
19173SOL    HW160539   3.925   3.962   5.903  0.8627  0.3916 -0.4831
19173SOL    HW260540   3.823   4.070   5.870 -0.6170 -0.6397  0.6493
19174SOL     OW60541   3.397   8.585   9.261 -0.7099 -0.1069  0.6660
19174SOL    HW160542   3.315   8.634   9.257 -1.6725 -1.7914 -1.0754
19174SOL    HW260543   3.371   8.498   9.291  0.5148 -0.4617  0.7022
19175SOL     OW60544   2.324   6.537   1.576 -0.2245 -0.0756 -0.7540
19175SOL    HW160545   2.342   6.598   1.504  1.5259  0.4140  0.0893
19175SOL    HW260546   2.263   6.473   1.538 -0.4925  1.0318 -2.2316
19176SOL     OW60547   1.032   2.605   5.210 -0.0272  0.1174  0.0394
19176SOL    HW160548   1.040   2.556   5.292  0.8519  1.1396  0.5919
19176SOL    HW260549   0.940   2.629   5.205 -0.2851 -0.8162  0.2125
19177SOL     OW60550   6.498   0.042   3.104 -0.1837 -0.1206  0.6506
19177SOL    HW160551   6.460   0.047   3.016 -0.8254  1.0505  0.9829
19177SOL    HW260552   6.437  -0.010   3.154  0.3375 -1.0525  0.3364
19178SOL     OW60553   4.986   5.101   9.227 -0.2472  0.0924  0.0808
19178SOL    HW160554   5.027   5.034   9.281  2.2358  0.6916 -0.9633
19178SOL    HW260555   4.956   5.167   9.290  1.6693  0.2930  0.8425
19179SOL     OW60556   0.997   4.819   7.177  0.0153 -0.3560 -0.2308
19179SOL    HW160557   0.919   4.864   7.209  0.7894  0.7142  0.1735
19179SOL    HW260558   1.027   4.767   7.251 -0.0903 -0.4669 -0.2656
19180SOL     OW60559   5.848   7.644   5.082 -0.2852  0.3262 -0.6158
19180SOL    HW160560   5.758   7.665   5.059 -0.5327 -0.9167 -0.7984
19180SOL    HW260561   5.901   7.702   5.027 -0.9910  3.0927  1.5499
19181SOL     OW60562   9.057   1.471   6.944  0.0011  0.0143  0.1232
19181SOL    HW160563   8.991   1.424   6.994 -1.2271  0.2394 -1.2309
19181SOL    HW260564   9.139   1.425   6.961 -1.0143 -2.0331 -0.4338
19182SOL     OW60565   9.000   0.510   6.732 -0.0860 -0.0752 -0.7852
19182SOL    HW160566   9.079   0.458   6.749  0.5558  2.0227  3.2083
19182SOL    HW260567   8.936   0.478   6.796 -1.0399  1.1392 -1.1148
19183SOL     OW60568   3.014   4.491   6.366 -0.1150 -0.3046  0.0502
19183SOL    HW160569   3.098   4.466   6.405 -0.2578 -0.9961 -0.0622
19183SOL    HW260570   2.949   4.449   6.422 -0.3048 -1.7489 -1.2119
19184SOL     OW60571   0.101   1.903   5.388  0.1004 -0.5334 -0.5216
19184SOL    HW160572   0.175   1.845   5.372  0.2857 -1.1959  2.3880
19184SOL    HW260573   0.140   1.989   5.400  0.4845 -0.9496  1.4017
19185SOL     OW60574   7.421   3.628   3.798 -0.1973  0.2843  0.3728
19185SOL    HW160575   7.426   3.679   3.878  0.8162 -0.0202  0.5103
19185SOL    HW260576   7.365   3.680   3.739 -1.2117  0.3494  1.3786
19186SOL     OW60577   6.275   2.930   4.035  0.0809 -0.4514  0.0916
19186SOL    HW160578   6.188   2.967   4.052 -0.1103 -0.4050 -0.9172
19186SOL    HW260579   6.271   2.904   3.942  0.5559 -2.0082  0.4914
19187SOL     OW60580   3.659   4.074   2.806  0.6599 -0.4083  0.2376
19187SOL    HW160581   3.706   3.994   2.830  0.4198 -0.1842  1.5218
19187SOL    HW260582   3.581   4.043   2.760  0.3859 -0.9284  1.0462
19188SOL     OW60583   9.033   2.259   5.573  0.3742  0.3475  0.3129
19188SOL    HW160584   9.064   2.209   5.650  1.5835  0.0937 -0.3187
19188SOL    HW260585   9.030   2.195   5.503 -0.4138  0.6550  0.0677
19189SOL     OW60586   4.301   5.334   6.252 -0.0689  0.3351 -0.1149
19189SOL    HW160587   4.310   5.352   6.346  3.5394  1.0740 -0.5453
19189SOL    HW260588   4.322   5.241   6.243 -0.8267  0.1625 -0.1667
19190SOL     OW60589   6.903   8.137   2.491 -0.0919 -0.7021  0.0733
19190SOL    HW160590   6.839   8.182   2.547  0.7697  0.8201 -0.1249
19190SOL    HW260591   6.878   8.161   2.402  2.1197  1.8682  0.0759
19191SOL     OW60592   8.185   8.761   0.224 -0.1862 -0.3339  0.0920
19191SOL    HW160593   8.210   8.671   0.203 -1.6445 -0.5923 -0.5489
19191SOL    HW260594   8.206   8.811   0.145  1.3303  0.0532  0.7074
19192SOL     OW60595   2.691   0.935   3.981  0.2347  0.5455  0.2381
19192SOL    HW160596   2.695   0.856   3.927 -0.8885 -0.3963  1.4837
19192SOL    HW260597   2.777   0.940   4.024  0.4450  0.2288 -0.1493
19193SOL     OW60598   4.790   6.939   6.145  0.1451 -0.0201  0.6039
19193SOL    HW160599   4.732   7.005   6.107  0.5287 -0.0198  0.0038
19193SOL    HW260600   4.788   6.956   6.239  2.5475  2.7550  0.1992
19194SOL     OW60601   9.097   2.802   2.341 -0.0636  0.0437 -0.3955
19194SOL    HW160602   9.107   2.884   2.389 -1.8560 -1.7458  3.1768
19194SOL    HW260603   9.003   2.785   2.340  0.3659 -2.6788  0.1858
19195SOL     OW60604   8.088   0.221   8.078 -0.1134 -0.2824  0.2631
19195SOL    HW160605   8.063   0.294   8.134 -0.7780 -0.7218  0.5435
19195SOL    HW260606   8.149   0.260   8.015  1.2023  0.0662  1.7061
19196SOL     OW60607   9.373   1.597   0.720  0.0546  0.6890 -0.7116
19196SOL    HW160608   9.412   1.655   0.785  1.2597  1.1709 -1.8376
19196SOL    HW260609   9.303   1.552   0.766  0.8516  1.0737  0.8942
19197SOL     OW60610   8.775   7.266   3.149 -0.0480 -0.4158 -0.1467
19197SOL    HW160611   8.841   7.292   3.213  1.2173  3.1037 -2.6554
19197SOL    HW260612   8.692   7.268   3.196  1.1413 -0.4554  1.9863
19198SOL     OW60613   4.552   2.989   6.546  0.2385 -0.0176 -0.2130
19198SOL    HW160614   4.603   2.987   6.465 -0.0771 -0.1683 -0.4086
19198SOL    HW260615   4.506   3.073   6.542  0.0137 -0.1451 -0.3206
19199SOL     OW60616   6.053   1.817   1.652 -0.4378  0.4113 -0.2204
19199SOL    HW160617   6.128   1.877   1.648  0.8318 -1.0883  0.8283
19199SOL    HW260618   5.989   1.855   1.591  1.0744  1.8147 -0.9622
19200SOL     OW60619   6.963   1.606   2.132 -0.0202  0.4159 -0.3205
19200SOL    HW160620   6.982   1.574   2.044  0.7905  1.7597 -0.6577
19200SOL    HW260621   6.897   1.546   2.166 -0.4689 -0.0252 -1.9135
19201SOL     OW60622   8.575   4.291   5.148 -0.3861 -0.0106  0.0917
19201SOL    HW160623   8.650   4.332   5.107 -1.1143  2.1292  0.8395
19201SOL    HW260624   8.597   4.288   5.241 -0.0784 -1.9118 -0.0256
19202SOL     OW60625   0.534   4.820   9.313 -0.1857  0.3761  0.0978
19202SOL    HW160626   0.537   4.820   9.409 -0.8131 -2.3486  0.1494
19202SOL    HW260627   0.441   4.829   9.292 -0.3655 -1.9274 -0.1875
19203SOL     OW60628   7.635   7.094   7.148 -0.1452 -0.5599 -0.1942
19203SOL    HW160629   7.597   7.175   7.114  0.8526  0.5006  1.1710
19203SOL    HW260630   7.698   7.067   7.080 -0.5608 -0.2722 -0.6993
19204SOL     OW60631   0.271   2.662   0.036  1.0261  0.1173  0.2163
19204SOL    HW160632   0.357   2.673  -0.005  0.7638  1.4849  0.0056
19204SOL    HW260633   0.219   2.734   0.000 -0.8239 -1.9023 -1.2312
19205SOL     OW60634   2.515   3.616   5.907  0.2024 -0.1574  0.9352
19205SOL    HW160635   2.428   3.653   5.917  0.0042 -0.6248  0.9548
19205SOL    HW260636   2.528   3.563   5.986  1.9311  2.7580  2.6683
19206SOL     OW60637   4.542   2.389   3.511 -0.0599 -0.2608  0.2279
19206SOL    HW160638   4.566   2.359   3.424  0.7201  0.6331  0.1193
19206SOL    HW260639   4.462   2.342   3.532 -0.0054 -0.8149 -0.7867
19207SOL     OW60640   8.881   6.462   7.993 -0.3485 -0.0097  0.5269
19207SOL    HW160641   8.859   6.457   8.086 -1.1820  1.1944  0.4053
19207SOL    HW260642   8.799   6.441   7.948  0.3212 -1.6371  0.0614
19208SOL     OW60643   7.988   3.736   0.348  0.7176 -0.4292 -0.0567
19208SOL    HW160644   8.031   3.708   0.267  0.4405  0.9460 -0.6947
19208SOL    HW260645   8.039   3.811   0.378 -1.1504  1.1584 -0.7655
19209SOL     OW60646   0.424   9.240   0.142  0.6413  0.4645 -0.5423
19209SOL    HW160647   0.363   9.297   0.189  1.2983  0.6164  0.1274
19209SOL    HW260648   0.508   9.283   0.150  1.2664 -0.9212  0.5126
19210SOL     OW60649   3.901   1.034   2.492  0.5975  0.1160  0.7228
19210SOL    HW160650   3.961   1.108   2.499  0.5746  0.1796  0.2708
19210SOL    HW260651   3.823   1.063   2.539  0.4187  0.5609  0.1663
19211SOL     OW60652   7.698   1.806   4.329  0.3697  0.2713 -0.1458
19211SOL    HW160653   7.632   1.759   4.278  0.8364 -0.7426  0.1957
19211SOL    HW260654   7.650   1.881   4.365 -0.3105  0.2002 -0.8829
19212SOL     OW60655   5.662   7.250   2.520 -0.1064  0.3619 -0.0303
19212SOL    HW160656   5.723   7.190   2.477 -0.5216 -0.3386  0.3405
19212SOL    HW260657   5.679   7.335   2.480  0.9856  0.1327 -0.0518
19213SOL     OW60658   4.194   8.501   7.444  0.4209 -0.8381  0.0337
19213SOL    HW160659   4.170   8.571   7.505 -1.7605 -0.7837 -0.8359
19213SOL    HW260660   4.111   8.478   7.401  1.5993 -2.1296 -1.5883
19214SOL     OW60661   7.889   0.452   2.073  0.1055  0.1392 -0.5174
19214SOL    HW160662   7.975   0.492   2.070  1.2750 -2.2435 -0.2863
19214SOL    HW260663   7.881   0.418   2.162 -1.0181  0.2535 -0.5624
19215SOL     OW60664   7.653   4.786   2.189  0.3928 -0.7839 -0.0671
19215SOL    HW160665   7.649   4.753   2.279  3.2637 -0.4177  0.2330
19215SOL    HW260666   7.715   4.859   2.192 -0.3947  0.0174 -2.1271
19216SOL     OW60667   8.291   1.056   9.407  0.1008  0.0137 -0.5593
19216SOL    HW160668   8.265   1.014   9.326  0.5012  2.0781 -1.8077
19216SOL    HW260669   8.351   1.126   9.379  0.9963  0.1340  1.5838
19217SOL     OW60670   9.199   9.219   1.428  0.2316  0.2596 -0.4503
19217SOL    HW160671   9.208   9.201   1.521  0.8692  2.1154 -0.1405
19217SOL    HW260672   9.262   9.161   1.385 -0.1536 -0.6823  0.2461
19218SOL     OW60673   8.162   3.506   3.020  0.4404 -0.2861  0.2415
19218SOL    HW160674   8.168   3.417   2.985  1.1702 -0.9760  2.0291
19218SOL    HW260675   8.228   3.556   2.973  0.4370 -0.8447 -0.3553
19219SOL     OW60676   0.460   2.047   8.782 -0.1518  0.2961  0.1490
19219SOL    HW160677   0.382   2.066   8.729 -1.2695  0.2507  1.7459
19219SOL    HW260678   0.504   2.132   8.790 -0.7319  0.5795  0.3385
19220SOL     OW60679   8.198   2.533   4.894 -0.2994 -0.4081 -0.6417
19220SOL    HW160680   8.267   2.480   4.853  0.3071 -0.1227 -0.0039
19220SOL    HW260681   8.118   2.482   4.881 -0.1553 -0.2300 -2.3476
19221SOL     OW60682   8.447   1.715   8.237  0.5655 -0.1037 -0.7457
19221SOL    HW160683   8.371   1.735   8.291  1.1713 -1.5339  0.6541
19221SOL    HW260684   8.436   1.624   8.210  1.4048 -0.1008 -1.1499
19222SOL     OW60685   9.236   6.208   3.690  0.1620  0.0230 -0.7346
19222SOL    HW160686   9.183   6.162   3.754 -0.1738  1.8676  0.3317
19222SOL    HW260687   9.295   6.141   3.655 -0.7020 -1.3296  0.3740
19223SOL     OW60688   6.024   6.179   2.801 -0.3691  0.1525  0.2677
19223SOL    HW160689   6.034   6.135   2.716  0.4550 -0.4444  0.6687
19223SOL    HW260690   6.014   6.272   2.778  2.8438  0.4158 -0.3787
19224SOL     OW60691   6.490   5.824   1.575  0.1732 -0.1616  0.4274
19224SOL    HW160692   6.582   5.851   1.572  0.3825 -0.4150  2.9274
19224SOL    HW260693   6.481   5.781   1.661 -1.6986 -2.2866 -0.7766
19225SOL     OW60694   0.350   8.982   5.333 -0.1435  1.2069 -0.1178
19225SOL    HW160695   0.445   8.976   5.321 -0.3590 -0.7679 -1.0430
19225SOL    HW260696   0.338   8.980   5.428  0.6974  0.6578 -0.0181
19226SOL     OW60697   1.325   2.023   1.069  0.3148  0.0229  0.2401
19226SOL    HW160698   1.263   1.970   1.119  1.9432 -0.0464  2.2273
19226SOL    HW260699   1.310   1.996   0.978 -1.2311 -1.3770  0.8715
19227SOL     OW60700   4.742   7.898   7.611 -0.4130 -0.0571  0.0788
19227SOL    HW160701   4.699   7.966   7.664 -2.7309  0.2098 -2.0148
19227SOL    HW260702   4.684   7.823   7.617 -0.9272  0.1055 -2.3272
19228SOL     OW60703   0.655   6.940   8.790  0.2180  0.1338  0.0467
19228SOL    HW160704   0.650   6.880   8.864 -0.6590  0.4621  0.2618
19228SOL    HW260705   0.696   7.019   8.826 -0.0210  0.2183  0.1342
19229SOL     OW60706   2.141   4.866   4.869  0.2773 -0.3092 -0.6945
19229SOL    HW160707   2.193   4.900   4.942  1.1536 -1.9285 -0.5295
19229SOL    HW260708   2.104   4.943   4.828  0.0466  0.6495  1.2645
19230SOL     OW60709   7.216   5.458   2.754 -0.0691  0.3699 -0.3344
19230SOL    HW160710   7.122   5.457   2.771 -0.1419  1.2431 -0.6594
19230SOL    HW260711   7.249   5.377   2.793 -0.8557  0.3654  0.3256
19231SOL     OW60712   7.857   5.244   5.754  0.2715  0.1450  0.1834
19231SOL    HW160713   7.863   5.306   5.826  0.0178  0.9654 -0.4964
19231SOL    HW260714   7.833   5.297   5.678  0.1398 -0.7683 -0.4228
19232SOL     OW60715   8.559   0.271   0.794  0.3203  0.3462 -0.1307
19232SOL    HW160716   8.471   0.240   0.772  0.7651 -0.3832 -0.8986
19232SOL    HW260717   8.560   0.361   0.761 -0.0831  0.3034 -0.2773
19233SOL     OW60718   3.306   1.781   8.392  0.0700 -0.2192  0.3889
19233SOL    HW160719   3.354   1.841   8.449 -0.0644  0.7927 -0.5301
19233SOL    HW260720   3.239   1.742   8.448  1.1117 -0.6395  1.3544
19234SOL     OW60721   0.016   1.999   3.586  0.3410  0.2168  0.0880
19234SOL    HW160722  -0.050   1.951   3.535 -1.6801  0.3695  2.4594
19234SOL    HW260723   0.048   1.934   3.649  0.7204  0.8142  0.5081
19235SOL     OW60724   6.054   8.602   5.936  0.6226  0.2049  0.0566
19235SOL    HW160725   6.093   8.595   5.849  2.1486  0.7188  0.6806
19235SOL    HW260726   5.963   8.575   5.923  0.8336  0.2235 -1.6830
19236SOL     OW60727   2.804   7.594   1.952  0.4740  0.1081 -0.1817
19236SOL    HW160728   2.775   7.504   1.961 -3.4250  1.4485  2.0609
19236SOL    HW260729   2.865   7.608   2.025 -0.8735 -0.0658  1.0061
19237SOL     OW60730   1.817   5.165   5.448 -0.9636  1.1902 -0.4623
19237SOL    HW160731   1.781   5.104   5.383  2.0006 -0.9256 -0.2202
19237SOL    HW260732   1.742   5.188   5.503 -2.2550 -1.9489 -0.7994
19238SOL     OW60733   1.304   6.379   8.452 -0.2274 -0.2175  0.4344
19238SOL    HW160734   1.215   6.358   8.425 -0.8336 -0.3078  2.4304
19238SOL    HW260735   1.331   6.450   8.394 -1.1250 -1.0385 -1.0183
19239SOL     OW60736   3.879   0.134   1.662 -0.1048  0.8978 -0.3390
19239SOL    HW160737   3.908   0.116   1.572  1.1134  0.9785  0.0274
19239SOL    HW260738   3.948   0.097   1.717 -0.3862  1.6778  0.5385
19240SOL     OW60739   0.225   5.949   8.280 -0.0702  0.4315  0.4489
19240SOL    HW160740   0.209   6.001   8.201  1.2375  0.8321  0.4312
19240SOL    HW260741   0.320   5.954   8.293 -0.2813  0.4379  2.0898
19241SOL     OW60742   1.856   6.099   6.581  0.0289  0.1223 -0.2853
19241SOL    HW160743   1.883   6.086   6.490 -1.6098 -1.9954 -0.5188
19241SOL    HW260744   1.897   6.026   6.629  0.1529  0.7106  0.5163
19242SOL     OW60745   0.293   6.433   0.816  0.5534 -0.0346  0.1435
19242SOL    HW160746   0.287   6.467   0.905  1.0554 -1.9289  0.9151
19242SOL    HW260747   0.213   6.383   0.803  1.5171 -1.6513  0.3471
19243SOL     OW60748   3.062   6.416   3.245  0.0163 -0.2070 -0.2311
19243SOL    HW160749   3.071   6.511   3.254  1.3238 -0.1592 -1.7899
19243SOL    HW260750   3.003   6.404   3.170  1.5851 -0.6091 -1.4313
19244SOL     OW60751   2.285   4.945   4.151  0.1284  0.3000  0.3975
19244SOL    HW160752   2.220   5.005   4.188  2.5241  2.3783  1.3861
19244SOL    HW260753   2.304   4.885   4.223 -0.1502  0.1195  0.3251
19245SOL     OW60754   1.777   7.963   0.712 -0.3658  0.6181 -0.7295
19245SOL    HW160755   1.755   8.039   0.658  1.0806  1.5231 -0.0679
19245SOL    HW260756   1.868   7.977   0.738 -0.1430 -1.2421 -0.4210
19246SOL     OW60757   2.879   7.280   6.446  0.3937 -0.0018 -0.3352
19246SOL    HW160758   2.846   7.199   6.482 -0.8040  0.7378  0.2520
19246SOL    HW260759   2.922   7.324   6.519  2.2186 -0.6966 -0.9592
19247SOL     OW60760   3.809   1.945   1.600  0.2972  0.0594 -0.4099
19247SOL    HW160761   3.818   1.988   1.685 -0.0538  0.5857 -0.6411
19247SOL    HW260762   3.883   1.885   1.596 -1.2072 -2.0339  1.4842
19248SOL     OW60763   3.357   5.379   0.814 -0.3145 -0.1464 -0.0623
19248SOL    HW160764   3.418   5.431   0.867  0.7094 -0.3832 -0.9749
19248SOL    HW260765   3.347   5.297   0.863  1.5092 -0.8120 -0.7706
19249SOL     OW60766   7.191   1.213   3.576 -0.3727  0.0799 -0.2789
19249SOL    HW160767   7.257   1.218   3.507 -0.7421 -0.9058 -0.7039
19249SOL    HW260768   7.221   1.143   3.634  0.6068  1.7312  1.2947
19250SOL     OW60769   0.989   4.860   4.013 -0.3706 -0.2046 -0.0224
19250SOL    HW160770   0.975   4.810   3.933 -0.4734  1.5780 -1.1492
19250SOL    HW260771   0.948   4.808   4.082 -0.7792 -1.4864 -1.2176
19251SOL     OW60772   3.009   2.236   1.233  0.4000 -0.9236  0.1424
19251SOL    HW160773   3.095   2.204   1.261  0.3597 -1.4580 -0.3324
19251SOL    HW260774   2.967   2.160   1.191 -0.8946 -1.0944  1.6979
19252SOL     OW60775   8.145   3.361   0.248  0.2661  0.1507  0.0878
19252SOL    HW160776   8.128   3.445   0.204 -0.3059 -0.2559 -0.4739
19252SOL    HW260777   8.187   3.307   0.181 -0.9007 -0.5827 -0.0597
19253SOL     OW60778   2.301   3.426   9.132  0.4977 -0.2361  0.0190
19253SOL    HW160779   2.286   3.520   9.143 -1.6304 -0.7465  1.8949
19253SOL    HW260780   2.254   3.403   9.052  3.1550  0.7070 -1.8910
19254SOL     OW60781   1.142   2.759   7.048 -0.0980  0.4903 -0.8002
19254SOL    HW160782   1.092   2.762   6.966  0.7064  0.6456 -1.2950
19254SOL    HW260783   1.142   2.666   7.071  1.8976  0.0493 -2.3984
19255SOL     OW60784   1.861   1.186   7.157 -0.2171 -0.4728  0.4448
19255SOL    HW160785   1.823   1.112   7.109 -0.0603 -0.7926  0.8117
19255SOL    HW260786   1.931   1.148   7.208  1.4448  0.3221 -1.1736
19256SOL     OW60787   7.785   8.064   6.845  0.5305  0.2961 -0.0736
19256SOL    HW160788   7.859   8.063   6.906  0.0389  0.2395  0.5298
19256SOL    HW260789   7.809   8.129   6.779  1.8025 -0.8382 -0.7468
19257SOL     OW60790   1.373   6.891   8.274  0.3565  0.0480 -0.1218
19257SOL    HW160791   1.376   6.801   8.306 -0.1475  0.2198  0.4134
19257SOL    HW260792   1.465   6.917   8.265  0.5017 -0.1505  0.7699
19258SOL     OW60793   3.379   4.711   8.343  0.6487 -0.3505  0.1695
19258SOL    HW160794   3.289   4.742   8.332  0.9711  0.4519 -0.2959
19258SOL    HW260795   3.403   4.677   8.257  0.5495 -1.2038  0.4842
19259SOL     OW60796   7.185   8.791   0.895  0.1935 -0.0071  0.1245
19259SOL    HW160797   7.211   8.713   0.944  3.0673 -0.9298 -2.6835
19259SOL    HW260798   7.110   8.762   0.842  0.6076 -0.5759 -0.1520
19260SOL     OW60799   7.892   7.210   0.163 -0.7490 -0.0615 -0.6397
19260SOL    HW160800   7.832   7.228   0.091  0.3427  0.6805 -1.3972
19260SOL    HW260801   7.837   7.207   0.241 -1.7490  0.6227 -1.3101
19261SOL     OW60802   0.434   2.096   1.098 -0.1424 -0.0290 -0.0047
19261SOL    HW160803   0.529   2.101   1.098 -0.1173 -0.3040 -0.9616
19261SOL    HW260804   0.414   2.019   1.044 -0.9013 -0.0661  0.3179
19262SOL     OW60805   4.108   6.239   3.968 -1.2173  1.0452  0.5004
19262SOL    HW160806   4.152   6.271   4.046 -0.3410 -0.7058  0.7504
19262SOL    HW260807   4.037   6.184   4.002  0.3753 -1.3176  0.0888
19263SOL     OW60808   0.107   7.448   5.006 -0.9021 -1.0254 -0.3455
19263SOL    HW160809   0.022   7.443   4.963 -1.0725 -0.3710 -0.0924
19263SOL    HW260810   0.097   7.397   5.086 -1.1975 -0.5589 -0.0870
19264SOL     OW60811   8.635   6.510   8.650  0.2430  0.1842  0.1679
19264SOL    HW160812   8.564   6.448   8.634  0.1817  0.4458 -0.5966
19264SOL    HW260813   8.627   6.574   8.580  0.3894  0.9868  0.8785
19265SOL     OW60814   7.278   9.163   4.266 -0.4482  0.2213 -0.3982
19265SOL    HW160815   7.282   9.130   4.356 -0.7833  0.2295 -0.3827
19265SOL    HW260816   7.276   9.258   4.277 -0.8106  0.2152 -0.4041
19266SOL     OW60817   8.219   9.030   1.574  0.5582  0.0037 -0.3231
19266SOL    HW160818   8.310   9.008   1.594  0.6115 -0.3493 -0.9634
19266SOL    HW260819   8.224   9.091   1.500  0.3088  0.6323  0.1678
19267SOL     OW60820   3.308   1.857   9.192 -0.1051  0.2336 -0.6186
19267SOL    HW160821   3.262   1.841   9.274  0.7461  2.6651  0.3778
19267SOL    HW260822   3.399   1.836   9.211  0.0338  0.4534 -1.0334
19268SOL     OW60823   6.233   2.056   5.496 -0.0753  0.0270  0.4347
19268SOL    HW160824   6.143   2.044   5.464  0.5864 -2.4801 -0.6714
19268SOL    HW260825   6.223   2.104   5.578 -2.4479 -0.4267  0.4727
19269SOL     OW60826   0.350   6.516   9.327  0.0060 -0.3961  0.0228
19269SOL    HW160827   0.367   6.563   9.409 -0.3644 -0.8008  0.3382
19269SOL    HW260828   0.313   6.432   9.355  1.5288 -1.2544 -0.4971
19270SOL     OW60829   0.545   3.298   3.296 -0.2159 -0.2304  0.2618
19270SOL    HW160830   0.602   3.288   3.220 -1.8835 -0.0789 -1.0541
19270SOL    HW260831   0.457   3.302   3.259 -0.8825  2.5088  1.9991
19271SOL     OW60832   4.378   8.079   1.464 -0.6316  0.7546 -0.3861
19271SOL    HW160833   4.452   8.040   1.511  0.1526  1.2617 -1.1936
19271SOL    HW260834   4.316   8.007   1.454 -0.0004  0.1786 -0.2109
19272SOL     OW60835   1.097   5.718   7.484 -0.4669 -0.0539 -0.2064
19272SOL    HW160836   1.144   5.760   7.556 -2.3323 -1.5139  1.9558
19272SOL    HW260837   1.162   5.662   7.443  0.6778  0.9227  0.2360
19273SOL     OW60838   2.606   4.697   8.888 -0.7837  0.2507  0.0708
19273SOL    HW160839   2.666   4.654   8.828  0.3450  1.9612 -0.0586
19273SOL    HW260840   2.644   4.684   8.975 -0.7248  0.5385  0.0878
19274SOL     OW60841   7.481   3.399   7.003 -0.7984 -0.4375  0.8650
19274SOL    HW160842   7.477   3.318   7.054 -0.4788 -1.0534 -0.0701
19274SOL    HW260843   7.413   3.455   7.040 -2.3568 -1.8823  0.2290
19275SOL     OW60844   7.727   8.946   1.920  0.1314 -0.0898 -0.2739
19275SOL    HW160845   7.746   8.859   1.886  1.4899  0.3389 -0.6549
19275SOL    HW260846   7.689   8.994   1.847 -0.6469 -0.3731 -0.0548
19276SOL     OW60847   9.203   4.481   4.913 -0.6406 -0.0565 -0.6309
19276SOL    HW160848   9.141   4.514   4.978  1.6375  0.4109  1.3786
19276SOL    HW260849   9.233   4.397   4.949 -1.6479 -1.3227 -2.6205
19277SOL     OW60850   5.804   5.698   6.783 -0.1813 -0.5274  0.1033
19277SOL    HW160851   5.711   5.717   6.771 -0.1665  0.6164  1.6915
19277SOL    HW260852   5.849   5.758   6.724 -0.3367  1.0835  1.5926
19278SOL     OW60853   6.814   1.450   7.951  0.7752  0.0110  0.0082
19278SOL    HW160854   6.723   1.463   7.925  1.0793  3.4965  0.5566
19278SOL    HW260855   6.811   1.438   8.046  0.6182 -3.1527 -0.3472
19279SOL     OW60856   2.258   3.769   5.930 -0.5084  0.1301  0.4165
19279SOL    HW160857   2.175   3.783   5.977 -0.4274  1.1420  0.2771
19279SOL    HW260858   2.291   3.858   5.913  0.8808 -0.2736  0.9570
19280SOL     OW60859   2.672   0.719   4.938  0.5032  0.4087  0.2924
19280SOL    HW160860   2.658   0.713   4.843 -1.2220 -1.1795  0.6251
19280SOL    HW260861   2.589   0.753   4.972  1.1350  1.0400  1.2350
19281SOL     OW60862   8.961   1.841   3.561 -0.7450 -0.0028  0.1114
19281SOL    HW160863   8.891   1.871   3.503 -0.0396  0.1420 -0.6700
19281SOL    HW260864   8.932   1.755   3.592 -1.0040 -0.1920 -0.6564
19282SOL     OW60865   7.079   7.646   1.838 -0.0928 -0.7041  0.5473
19282SOL    HW160866   7.115   7.716   1.893 -0.5939  0.4998 -0.6225
19282SOL    HW260867   7.154   7.617   1.785  0.0647 -0.9025  0.8775
19283SOL     OW60868   8.415   5.722   7.968  0.4451 -0.6462 -0.3620
19283SOL    HW160869   8.388   5.658   8.033 -0.1675 -0.4249 -0.3926
19283SOL    HW260870   8.425   5.803   8.017  1.9793 -0.9274 -0.1796
19284SOL     OW60871   2.643   1.422   3.666  0.3648  0.1278  0.4897
19284SOL    HW160872   2.684   1.467   3.592 -0.2832  0.5583  0.3907
19284SOL    HW260873   2.549   1.423   3.646  0.2323 -0.1598  1.0955
19285SOL     OW60874   9.063   3.851   4.011  0.3993 -0.0089  0.4190
19285SOL    HW160875   9.033   3.929   4.058  0.0939  0.5492 -0.7065
19285SOL    HW260876   9.079   3.787   4.081 -0.5808  0.6335  1.2581
19286SOL     OW60877   0.047   4.392   6.701  0.6818  0.6041  0.1363
19286SOL    HW160878  -0.028   4.401   6.643  0.4159 -1.0662  0.2142
19286SOL    HW260879   0.011   4.403   6.789  0.3520 -1.0511  0.2317
19287SOL     OW60880   0.407   0.137   6.984  0.3146  0.1566  0.2978
19287SOL    HW160881   0.367   0.117   6.900  0.8099  1.6603 -0.3293
19287SOL    HW260882   0.476   0.071   6.995  1.3512  0.9330 -1.2879
19288SOL     OW60883   2.401   9.112   2.409  0.6604  0.1944 -0.1713
19288SOL    HW160884   2.456   9.034   2.401  0.2942  0.0362 -1.1751
19288SOL    HW260885   2.325   9.094   2.355  1.4669  2.0341 -2.0096
19289SOL     OW60886   5.528   2.286   7.913  0.5428  0.3391  0.3675
19289SOL    HW160887   5.539   2.221   7.983  1.4051 -0.8631 -0.8659
19289SOL    HW260888   5.435   2.279   7.889  0.8030 -1.0480 -0.3208
19290SOL     OW60889   5.244   5.227   1.977 -0.3158 -0.2696  0.5398
19290SOL    HW160890   5.180   5.284   1.933  0.4440  1.1062  1.1802
19290SOL    HW260891   5.236   5.249   2.070  0.3282 -0.8540  0.7365
19291SOL     OW60892   5.534   9.133   9.210 -0.5072 -0.4381  0.7300
19291SOL    HW160893   5.441   9.110   9.205 -0.1934 -1.9249  1.6706
19291SOL    HW260894   5.539   9.199   9.279 -1.1348  1.1632 -0.7057
19292SOL     OW60895   1.106   9.336   6.729  0.3002 -0.1368 -0.1010
19292SOL    HW160896   1.120   9.414   6.675 -1.9436 -0.3609 -1.0708
19292SOL    HW260897   1.128   9.263   6.671  1.6224 -0.2641  0.5486
19293SOL     OW60898   5.066   8.361   3.724 -0.5825 -0.4401 -0.0025
19293SOL    HW160899   5.090   8.336   3.635  2.0974  0.4009  0.4411
19293SOL    HW260900   5.043   8.278   3.767 -0.4754 -1.0134 -1.0376
19294SOL     OW60901   0.708   4.583   4.517  0.0790  0.4654  0.0934
19294SOL    HW160902   0.702   4.523   4.592  0.1363 -0.9683 -1.0095
19294SOL    HW260903   0.751   4.531   4.449  1.0713  2.1176 -0.5686
19295SOL     OW60904   5.624   2.597   0.281 -0.1976  0.2425 -0.5181
19295SOL    HW160905   5.664   2.547   0.352  0.9048  1.8956  0.0777
19295SOL    HW260906   5.626   2.539   0.206  3.4850  0.2577 -0.5326
19296SOL     OW60907   7.107   5.393   5.389  0.5181  0.3450  0.2051
19296SOL    HW160908   7.141   5.305   5.402  1.8229  1.0030  1.3781
19296SOL    HW260909   7.100   5.429   5.477 -1.1177  1.0194 -0.1795
19297SOL     OW60910   6.681   0.552   2.537  0.3062  0.2149  0.3880
19297SOL    HW160911   6.585   0.550   2.533  0.3778 -2.0669 -0.3770
19297SOL    HW260912   6.707   0.461   2.547  2.3844  0.8916  1.4096
19298SOL     OW60913   3.748   8.108   4.932  0.0266 -0.2136  0.1385
19298SOL    HW160914   3.690   8.111   4.855  0.3069 -1.9891 -0.1595
19298SOL    HW260915   3.707   8.045   4.991  1.0218 -0.5912  0.4444
19299SOL     OW60916   2.423   7.416   2.842 -0.0330  0.7648  0.0349
19299SOL    HW160917   2.507   7.461   2.856  0.1028  0.5956 -0.2364
19299SOL    HW260918   2.415   7.358   2.918 -0.5595  1.7735  0.7678
19300SOL     OW60919   1.718   1.931   3.793 -0.3922  0.2673  0.1553
19300SOL    HW160920   1.632   1.933   3.837 -0.4240 -0.9722  0.1697
19300SOL    HW260921   1.697   1.922   3.700 -0.2838  0.4757  0.1112
19301SOL     OW60922   7.356   1.094   8.512  0.4188 -0.1211  0.1542
19301SOL    HW160923   7.355   1.085   8.416 -0.0096 -0.9119  0.2219
19301SOL    HW260924   7.439   1.054   8.538  0.2074 -0.5588  0.1647
19302SOL     OW60925   3.032   6.974   5.468 -0.1370  0.0114 -0.4086
19302SOL    HW160926   3.091   7.049   5.476  0.2483 -0.0070 -2.7842
19302SOL    HW260927   2.948   7.005   5.501  0.8424  0.4133  1.8625
19303SOL     OW60928   0.905   9.104   7.729  0.8950  0.2715  0.2548
19303SOL    HW160929   0.963   9.148   7.668 -1.6917  1.3695 -1.5200
19303SOL    HW260930   0.922   9.010   7.714  0.8762  0.5357 -1.6080
19304SOL     OW60931   9.265   6.898   5.177 -0.0609 -0.6569 -0.3263
19304SOL    HW160932   9.214   6.957   5.122 -0.0317  1.0071  1.3959
19304SOL    HW260933   9.204   6.827   5.198 -0.2014 -1.1009 -2.1016
19305SOL     OW60934   1.012   3.555   8.413  0.1579  0.2084 -0.4377
19305SOL    HW160935   1.066   3.512   8.479  0.9707 -0.3239 -1.4208
19305SOL    HW260936   0.924   3.520   8.428  0.5020 -0.5699 -0.1863
19306SOL     OW60937   1.581   8.484   3.455 -0.5423  0.2244 -0.2924
19306SOL    HW160938   1.568   8.573   3.486  2.5512  0.1166  1.5723
19306SOL    HW260939   1.598   8.433   3.535  0.5127 -1.4602 -1.5389
19307SOL     OW60940   8.561   0.159   8.157  0.2488 -0.1448 -0.0913
19307SOL    HW160941   8.604   0.206   8.230  0.4990  0.7034 -0.7700
19307SOL    HW260942   8.622   0.169   8.084  0.4749 -1.8666 -0.1578
19308SOL     OW60943   4.770   1.325   4.066 -0.2715  0.5770  0.0558
19308SOL    HW160944   4.774   1.412   4.026  0.9025 -1.1069 -3.6920
19308SOL    HW260945   4.861   1.303   4.085 -0.2884 -0.8313 -1.3762
19309SOL     OW60946   1.106   1.175   6.909  0.5496  0.0712  0.1910
19309SOL    HW160947   1.198   1.152   6.924  0.1259 -1.2471  0.8186
19309SOL    HW260948   1.104   1.208   6.819  1.5702 -0.2457  0.0490
19310SOL     OW60949   5.203   0.420   0.289  0.1899 -0.1007 -0.5024
19310SOL    HW160950   5.280   0.477   0.286  0.0837 -0.0200 -1.8919
19310SOL    HW260951   5.194   0.386   0.200 -0.2771 -1.5967  0.1018
19311SOL     OW60952   2.573   7.455   8.600  0.3848 -0.1169  0.0398
19311SOL    HW160953   2.513   7.392   8.640  0.4207 -0.9491 -1.1612
19311SOL    HW260954   2.632   7.401   8.547  2.6598  0.6280  1.7377
19312SOL     OW60955   3.148   2.313   0.450  0.1690 -0.2879  0.2155
19312SOL    HW160956   3.185   2.262   0.522 -1.0115 -1.2051  0.1733
19312SOL    HW260957   3.164   2.261   0.372  1.4940  0.7307 -0.2192
19313SOL     OW60958   0.750   2.868   3.993 -0.4959 -0.0388  0.9388
19313SOL    HW160959   0.837   2.889   3.961 -1.0599  1.9353  0.6332
19313SOL    HW260960   0.707   2.953   4.005 -3.0307 -1.0176 -0.7406
19314SOL     OW60961   0.618   2.467   4.831  0.5337 -0.6750  0.2377
19314SOL    HW160962   0.701   2.425   4.852  1.6016  0.1944 -2.0365
19314SOL    HW260963   0.614   2.465   4.736 -1.7875 -0.1681  0.3016
19315SOL     OW60964   1.130   9.148   7.610  0.1333 -0.1085 -0.0372
19315SOL    HW160965   1.183   9.175   7.685  0.6970 -2.1502  0.3152
19315SOL    HW260966   1.188   9.093   7.558 -0.7658 -0.0498 -1.1280
19316SOL     OW60967   4.431   3.731   7.607  0.3971 -0.2882  0.8305
19316SOL    HW160968   4.439   3.705   7.699 -0.4512  0.6678  1.1872
19316SOL    HW260969   4.360   3.796   7.607  0.2347 -0.4608 -0.5364
19317SOL     OW60970   0.480   1.778   2.007 -0.0427 -0.1770  0.2034
19317SOL    HW160971   0.532   1.745   1.934  1.7059  2.2252  0.3259
19317SOL    HW260972   0.507   1.724   2.082  0.5627 -0.4778 -0.2279
19318SOL     OW60973   0.997   6.578   7.925  0.6526  0.6468 -0.3363
19318SOL    HW160974   0.964   6.503   7.874  0.6676  0.4739 -0.0907
19318SOL    HW260975   0.989   6.652   7.865 -0.5104  0.6721 -0.1700
19319SOL     OW60976   2.138   6.107   3.748 -0.5537  0.0872  0.8299
19319SOL    HW160977   2.156   6.061   3.830  0.7917 -0.0326  0.4682
19319SOL    HW260978   2.138   6.039   3.681  0.6216  0.4948  0.4089
19320SOL     OW60979   8.466   3.843   0.430 -0.0170 -0.6302 -0.9489
19320SOL    HW160980   8.483   3.800   0.346  1.7555 -2.3346  0.2676
19320SOL    HW260981   8.525   3.801   0.492 -0.4261  1.4567  0.9268
19321SOL     OW60982   6.591   4.178   8.468 -0.0028 -0.0697 -0.1565
19321SOL    HW160983   6.535   4.106   8.500  1.7795 -0.7280  1.6003
19321SOL    HW260984   6.541   4.217   8.396 -1.8504 -1.8698  0.0938
19322SOL     OW60985   5.995   1.203   3.344  0.5828  0.9266  0.4097
19322SOL    HW160986   6.038   1.253   3.274 -2.7907  1.2496 -1.5597
19322SOL    HW260987   5.990   1.264   3.417  1.7161  1.5274 -0.0052
19323SOL     OW60988   7.565   4.460   5.578 -0.3439  0.3420  0.4313
19323SOL    HW160989   7.631   4.421   5.635  0.8112  0.5937 -0.7015
19323SOL    HW260990   7.583   4.554   5.581  1.7480  0.1568 -2.6839
19324SOL     OW60991   2.982   5.581   4.874  0.2835 -0.0380 -0.3418
19324SOL    HW160992   3.052   5.554   4.814  1.8088 -1.9077  2.1854
19324SOL    HW260993   3.001   5.673   4.893  1.8715 -0.4268  0.0277
19325SOL     OW60994   7.502   0.770   7.796 -0.2848  0.5224 -0.4549
19325SOL    HW160995   7.427   0.830   7.801  0.7989  2.0166 -1.5519
19325SOL    HW260996   7.574   0.819   7.835 -0.4060 -1.8452  2.9225
19326SOL     OW60997   8.896   0.700   2.941  0.1568 -0.4369 -0.0910
19326SOL    HW160998   8.877   0.655   3.023  1.6721  0.2923  0.6789
19326SOL    HW260999   8.986   0.732   2.952  0.9123 -1.5739 -2.5903
19327SOL     OW61000   4.208   4.904   4.218 -0.4118  0.5170  0.0599
19327SOL    HW161001   4.272   4.873   4.154  0.3966 -2.2168  2.0780
19327SOL    HW261002   4.260   4.927   4.295 -1.6443  0.1528  1.0256
19328SOL     OW61003   8.743   6.080   9.214 -0.0889  0.1343  0.2759
19328SOL    HW161004   8.782   6.146   9.271 -1.1229  1.4533 -0.5099
19328SOL    HW261005   8.649   6.083   9.233 -0.7752  2.1187 -2.9493
19329SOL     OW61006   1.812   4.761   8.685  0.2810 -0.3734  0.6600
19329SOL    HW161007   1.758   4.689   8.653  0.7338 -0.1418 -0.6611
19329SOL    HW261008   1.757   4.807   8.749  0.2912 -2.3846  2.1401
19330SOL     OW61009   3.893   9.363   3.302 -0.0959  0.3913 -0.5380
19330SOL    HW161010   3.963   9.417   3.338 -0.0908  0.7377 -1.0683
19330SOL    HW261011   3.936   9.307   3.238 -0.5510  1.7252 -2.0394
19331SOL     OW61012   3.790   5.218   7.053 -0.3805 -0.1017  0.3766
19331SOL    HW161013   3.759   5.301   7.089 -2.0100  0.3055 -1.8407
19331SOL    HW261014   3.883   5.232   7.037 -0.5473  1.1526  0.4329
19332SOL     OW61015   7.418   0.319   8.155  0.4825  0.0152 -0.3250
19332SOL    HW161016   7.467   0.375   8.215  0.7929  0.5579 -1.0709
19332SOL    HW261017   7.472   0.241   8.145  1.6062  0.9465 -1.7623
19333SOL     OW61018   2.511   3.184   6.292 -0.3453  0.0002  0.0922
19333SOL    HW161019   2.486   3.099   6.257 -1.0378  0.1401  0.2525
19333SOL    HW261020   2.496   3.178   6.386 -1.2182  0.5814 -0.0015
19334SOL     OW61021   0.027   3.010   8.866 -0.3469 -0.4125  0.3935
19334SOL    HW161022  -0.012   3.006   8.779  0.5036  1.1321 -0.0783
19334SOL    HW261023   0.101   2.950   8.861  0.3542  0.4891 -0.3120
19335SOL     OW61024   5.380   7.750   6.724  0.2535 -0.7206  0.0493
19335SOL    HW161025   5.452   7.687   6.733  1.2335  0.2611 -0.7401
19335SOL    HW261026   5.380   7.798   6.806 -0.0031 -1.2443  0.3553
19336SOL     OW61027   0.253   0.317   6.489 -0.5608  0.1606 -0.5109
19336SOL    HW161028   0.296   0.373   6.425 -0.4358  0.5946 -0.0522
19336SOL    HW261029   0.319   0.254   6.516  0.3848  1.9697  1.5658
19337SOL     OW61030   6.308   3.028   6.625 -0.0194 -0.2890  0.0668
19337SOL    HW161031   6.306   2.938   6.592  0.2776 -0.8840  1.5967
19337SOL    HW261032   6.272   3.021   6.714 -1.3269  1.3434 -0.3209
19338SOL     OW61033   2.345   4.332   0.550 -0.0074 -0.4756  1.2037
19338SOL    HW161034   2.382   4.357   0.465 -3.9623 -0.1664 -0.5470
19338SOL    HW261035   2.349   4.411   0.603 -0.2351  0.1882  0.2491
19339SOL     OW61036   8.544   8.275   7.388 -0.0271  0.1693 -0.4056
19339SOL    HW161037   8.548   8.333   7.464  0.6374 -0.3046 -0.0713
19339SOL    HW261038   8.527   8.188   7.425  0.6251 -0.1203 -0.7635
19340SOL     OW61039   6.799   2.739   8.109  0.7902 -0.4800  0.1972
19340SOL    HW161040   6.784   2.834   8.103  1.1608 -0.3490  1.2309
19340SOL    HW261041   6.762   2.715   8.194  1.0854 -1.1958  0.1256
19341SOL     OW61042   7.955   2.127   4.865 -0.3236  0.4183  0.0007
19341SOL    HW161043   8.044   2.096   4.874  0.1576  1.6769 -0.2887
19341SOL    HW261044   7.905   2.078   4.931  1.0406  1.4995  1.8838
19342SOL     OW61045   9.286   3.131   4.040  0.3789  0.5535 -0.2289
19342SOL    HW161046   9.227   3.152   4.112  0.6438  0.0273  0.1387
19342SOL    HW261047   9.341   3.209   4.030 -0.7606  1.2842 -0.9554
19343SOL     OW61048   6.848   0.182   4.057  0.6081 -0.1220 -0.1470
19343SOL    HW161049   6.814   0.206   3.971  0.5764  0.3222 -0.0169
19343SOL    HW261050   6.781   0.126   4.095  0.5795 -0.2426 -0.3739
19344SOL     OW61051   6.720   1.364   1.604  0.1528  0.1408  0.0668
19344SOL    HW161052   6.645   1.305   1.607  1.2809 -1.3284 -0.1642
19344SOL    HW261053   6.792   1.313   1.640  1.4514  0.9221 -1.3695
19345SOL     OW61054   0.464   3.642   0.661  0.0434 -0.4076  0.4906
19345SOL    HW161055   0.503   3.718   0.705  1.4361 -1.6374  1.4575
19345SOL    HW261056   0.527   3.571   0.676 -1.6961 -2.0027  0.4879
19346SOL     OW61057   1.338   0.140   8.331 -0.0075 -0.0638  0.4790
19346SOL    HW161058   1.306   0.059   8.289 -2.0009  0.4251  0.9850
19346SOL    HW261059   1.432   0.139   8.315  0.3466 -3.5584  2.2786
19347SOL     OW61060   3.683   4.233   7.682  0.2247  1.0331  0.4527
19347SOL    HW161061   3.754   4.283   7.642 -1.1203  1.1297 -1.9388
19347SOL    HW261062   3.604   4.280   7.656 -0.8490 -0.4192  1.0725
19348SOL     OW61063   0.590   3.841   7.547 -0.6577 -0.0020 -0.1081
19348SOL    HW161064   0.495   3.834   7.558 -0.6662 -0.0184 -0.1860
19348SOL    HW261065   0.624   3.852   7.635 -0.6466 -1.0419  0.0245
19349SOL     OW61066   4.139   4.972   5.485  0.4674  0.1344  0.4856
19349SOL    HW161067   4.106   4.886   5.460  2.5623 -0.2667 -1.0560
19349SOL    HW261068   4.157   4.965   5.579  0.9430 -1.2087  0.3038
19350SOL     OW61069   8.216   5.662   0.964 -0.1435 -0.0817 -0.4991
19350SOL    HW161070   8.296   5.610   0.963  1.7228  2.6587 -0.8103
19350SOL    HW261071   8.195   5.672   1.057  1.1378  0.9931 -0.3100
19351SOL     OW61072   8.329   7.338   3.434  0.3935 -0.1632 -0.2032
19351SOL    HW161073   8.322   7.415   3.491  0.4586  0.0563 -0.4922
19351SOL    HW261074   8.407   7.355   3.381  0.7121 -0.6701  0.0948
19352SOL     OW61075   1.447   3.993   4.623  0.0867 -0.0352  0.1423
19352SOL    HW161076   1.407   4.069   4.580  1.6899  0.0675 -1.2217
19352SOL    HW261077   1.384   3.922   4.611 -0.1955  0.3944 -0.9613
19353SOL     OW61078   3.438   4.720   2.060  0.2498  0.4098 -0.2994
19353SOL    HW161079   3.500   4.654   2.093 -1.7258 -1.4481 -0.1814
19353SOL    HW261080   3.443   4.710   1.965 -1.0832 -0.9433 -0.2491
19354SOL     OW61081   1.039   3.392   6.848 -0.0221 -0.0895 -0.7541
19354SOL    HW161082   1.088   3.437   6.779 -0.2484  0.1422 -0.7638
19354SOL    HW261083   1.080   3.421   6.929  0.8237 -1.0539 -0.8270
19355SOL     OW61084   1.572   0.257   2.702 -0.4952  0.1813 -0.1501
19355SOL    HW161085   1.594   0.228   2.791 -0.2927 -0.9760 -0.5687
19355SOL    HW261086   1.544   0.177   2.658 -1.5901  0.9265 -0.8324
19356SOL     OW61087   8.356   8.063   2.495  0.1597  0.1100 -0.1744
19356SOL    HW161088   8.287   8.007   2.530 -0.7849  0.0802 -2.0676
19356SOL    HW261089   8.361   8.136   2.557 -1.8532  0.3436 -0.2678
19357SOL     OW61090   2.985   7.934   9.163  0.3249  0.1597  0.2291
19357SOL    HW161091   2.963   7.924   9.071  2.4473 -1.5257 -0.1127
19357SOL    HW261092   3.077   7.962   9.163  0.5894 -0.6594  1.8439
19358SOL     OW61093   6.782   0.927   9.070  0.7833 -0.3217  0.0762
19358SOL    HW161094   6.831   0.958   9.146 -0.1918  0.1647  0.5191
19358SOL    HW261095   6.800   0.833   9.066 -1.4578 -0.9348  2.6802
19359SOL     OW61096   4.348   7.369   5.483  0.3937  0.0544  0.1818
19359SOL    HW161097   4.343   7.308   5.557  2.1927 -0.1735  0.1306
19359SOL    HW261098   4.290   7.330   5.418  1.2773 -1.4723  0.2645
19360SOL     OW61099   0.440   8.534   8.603  0.2719 -0.8202 -0.1007
19360SOL    HW161100   0.523   8.509   8.562  1.0760  0.0092  0.9979
19360SOL    HW261101   0.416   8.459   8.658  1.0176 -0.5047  0.6649
19361SOL     OW61102   2.607   4.227   8.359  0.4832 -0.1558  0.1136
19361SOL    HW161103   2.534   4.184   8.314  0.6526 -0.3201 -0.0030
19361SOL    HW261104   2.582   4.320   8.360  0.0998 -0.2610  0.4017
19362SOL     OW61105   7.281   1.216   0.049  0.2628  0.1263  0.0722
19362SOL    HW161106   7.244   1.203  -0.038  0.2885  1.2329 -0.1102
19362SOL    HW261107   7.372   1.243   0.034  0.6226 -0.8547  0.4718
19363SOL     OW61108   6.470   8.833   9.330 -0.0486 -0.3424  0.1749
19363SOL    HW161109   6.505   8.822   9.241  1.1384  0.0084  0.5959
19363SOL    HW261110   6.546   8.824   9.387 -1.1611 -2.9219  1.3136
19364SOL     OW61111   4.105   8.429   8.706  0.2172  0.3095 -0.4850
19364SOL    HW161112   4.119   8.454   8.615  0.4628  2.6163  0.1661
19364SOL    HW261113   4.183   8.460   8.752 -0.0910 -0.4626  0.5814
19365SOL     OW61114   0.054   8.190   3.593 -0.0462 -0.0247 -0.2281
19365SOL    HW161115   0.116   8.252   3.553  0.0118  0.3292  0.4126
19365SOL    HW261116   0.062   8.111   3.539 -0.6074  0.7407 -1.4617
19366SOL     OW61117   4.230   7.582   4.353  0.4320  0.2548  0.6860
19366SOL    HW161118   4.156   7.641   4.345  0.4951  0.0908 -1.2663
19366SOL    HW261119   4.297   7.634   4.398  0.6332  1.8347 -1.3532
19367SOL     OW61120   2.951   7.080   8.793  0.7096 -0.1097  0.0172
19367SOL    HW161121   2.958   7.138   8.717  1.1646 -0.0946  0.0738
19367SOL    HW261122   2.915   7.136   8.861 -0.2486 -0.2685 -0.3486
19368SOL     OW61123   8.417   2.157   3.348 -0.1352  0.5215  0.3463
19368SOL    HW161124   8.380   2.168   3.261 -0.6614  0.0724  0.5063
19368SOL    HW261125   8.348   2.112   3.398 -0.9151  3.2173  1.7764
19369SOL     OW61126   5.827   0.712   2.201  0.6733  0.0222  0.0394
19369SOL    HW161127   5.769   0.636   2.194  1.7798 -0.9257  1.1216
19369SOL    HW261128   5.913   0.680   2.177  1.0801  1.0203  0.1261
19370SOL     OW61129   7.181   4.798   2.469  0.4429 -0.3859  0.2827
19370SOL    HW161130   7.128   4.815   2.391  0.6340  3.4612  0.8961
19370SOL    HW261131   7.246   4.734   2.440 -0.3405 -0.0549 -2.3545
19371SOL     OW61132   1.079   9.171   3.729 -0.0141 -0.2656 -0.3966
19371SOL    HW161133   1.051   9.227   3.802 -0.4812 -1.0556  0.0349
19371SOL    HW261134   1.009   9.107   3.720  0.7241 -1.0465 -0.6075
19372SOL     OW61135   1.235   1.666   0.501 -0.4914 -0.1332  0.1721
19372SOL    HW161136   1.207   1.756   0.519 -1.9646 -0.1471 -1.9676
19372SOL    HW261137   1.159   1.624   0.460  1.4899 -1.2101 -2.5081
19373SOL     OW61138   8.067   7.000   7.263  0.0827 -0.1520 -0.0335
19373SOL    HW161139   8.158   6.972   7.271  0.3399 -0.0713 -2.1972
19373SOL    HW261140   8.072   7.093   7.240 -0.4794 -0.4210 -1.3029
19374SOL     OW61141   9.441   6.228   8.906 -0.3701 -0.4919  0.4976
19374SOL    HW161142   9.438   6.323   8.919  2.0798 -0.0120 -1.9466
19374SOL    HW261143   9.374   6.194   8.965 -1.2084  2.7349  1.5347
19375SOL     OW61144   1.759   7.033   6.827 -0.3607  0.1065 -0.0047
19375SOL    HW161145   1.788   6.942   6.831 -1.1775 -0.1813 -0.4231
19375SOL    HW261146   1.738   7.056   6.918  1.4243  0.4114  0.3376
19376SOL     OW61147   0.862   5.562   1.899  0.1422 -0.1760 -0.1027
19376SOL    HW161148   0.888   5.642   1.853 -3.5489  1.1648 -0.0841
19376SOL    HW261149   0.879   5.581   1.992 -1.1977  0.8631 -0.0411
19377SOL     OW61150   6.720   1.522   3.080 -0.5566  0.1548  0.1368
19377SOL    HW161151   6.707   1.600   3.134  0.7298  0.5907 -0.1791
19377SOL    HW261152   6.758   1.555   2.998  3.8942 -1.1583  1.5257
19378SOL     OW61153   8.734   6.779   3.211  0.4917  0.3966 -0.7217
19378SOL    HW161154   8.781   6.771   3.293 -0.9120  0.4456  0.1050
19378SOL    HW261155   8.643   6.796   3.237 -0.0656 -0.1123 -2.2674
19379SOL     OW61156   0.632   8.168   6.845  0.2962 -0.2776 -0.3071
19379SOL    HW161157   0.588   8.117   6.913  0.8830 -0.3080  0.0482
19379SOL    HW261158   0.599   8.131   6.763  0.5608 -1.0837 -0.0485
19380SOL     OW61159   7.285   4.537   3.161  0.3496  0.5198 -0.8155
19380SOL    HW161160   7.334   4.604   3.114  1.0368 -0.1174 -1.0254
19380SOL    HW261161   7.304   4.456   3.113  1.3417 -0.2005  0.7543
19381SOL     OW61162   4.492   4.300   9.386  0.3432 -0.2410 -0.0518
19381SOL    HW161163   4.533   4.366   9.441 -0.1312 -0.2014  0.2598
19381SOL    HW261164   4.531   4.217   9.414  1.1170 -0.0688 -0.6104
19382SOL     OW61165   3.481   9.108   5.780  0.1494 -0.1472 -0.1184
19382SOL    HW161166   3.527   9.141   5.703 -0.0652  1.3150  0.3501
19382SOL    HW261167   3.514   9.019   5.792 -0.4742 -0.7236 -2.3965
19383SOL     OW61168   7.350   2.564   5.522  0.4902  0.0431 -0.4101
19383SOL    HW161169   7.428   2.543   5.574 -0.4510 -1.6575  0.3446
19383SOL    HW261170   7.348   2.498   5.453 -1.6752 -1.5156  1.0905
19384SOL     OW61171   8.390   7.709   1.329  0.4506  0.3977 -0.8283
19384SOL    HW161172   8.329   7.781   1.309  0.9186  1.2543  0.7676
19384SOL    HW261173   8.334   7.636   1.353  0.0228  1.0792  0.2991
19385SOL     OW61174   6.777   7.375   0.590 -0.3033 -0.5188  0.4937
19385SOL    HW161175   6.810   7.345   0.505 -0.9219 -0.3599  0.1985
19385SOL    HW261176   6.725   7.302   0.623 -1.5817  0.1249 -0.1000
19386SOL     OW61177   7.605   0.938   0.655  0.1508  0.1941 -0.1623
19386SOL    HW161178   7.573   0.974   0.737 -1.2232  0.9129 -0.9932
19386SOL    HW261179   7.687   0.894   0.678 -1.7182 -2.2743  2.1539
19387SOL     OW61180   3.954   1.201   7.673  0.0330 -0.4388  0.8235
19387SOL    HW161181   3.952   1.206   7.769 -1.2230  0.7268  0.7436
19387SOL    HW261182   4.034   1.151   7.654  2.0592  2.0639  2.3857
19388SOL     OW61183   0.247   9.012   7.105 -0.2482 -0.3861 -0.0151
19388SOL    HW161184   0.169   8.958   7.099 -1.3132  0.9430  1.4055
19388SOL    HW261185   0.268   9.034   7.015 -1.8507 -0.3248 -0.3920
19389SOL     OW61186   1.352   0.776   7.482  0.1660 -0.5706  0.3052
19389SOL    HW161187   1.335   0.777   7.576  1.1908  0.8969  0.4912
19389SOL    HW261188   1.310   0.856   7.449 -0.7497 -1.4096 -0.5920
19390SOL     OW61189   9.104   2.688   1.739 -0.1047 -0.1334  0.0871
19390SOL    HW161190   9.073   2.617   1.796  1.8783 -0.8471  0.3188
19390SOL    HW261191   9.051   2.680   1.660 -2.0004  0.0579  1.3035
19391SOL     OW61192   1.701   9.169   0.664  0.4686 -0.1080  0.3241
19391SOL    HW161193   1.663   9.257   0.663  1.6089  0.4017  0.6657
19391SOL    HW261194   1.793   9.183   0.684  0.6239 -1.4037  0.5787
19392SOL     OW61195   8.241   7.990   8.441 -0.5343  0.3993 -0.3929
19392SOL    HW161196   8.187   7.914   8.425 -0.6075  0.1820  0.8330
19392SOL    HW261197   8.308   7.988   8.372 -1.9155  0.5356 -1.7498
19393SOL     OW61198   0.958   3.016   7.545 -0.9249 -0.1164 -0.5038
19393SOL    HW161199   0.939   2.925   7.570 -2.9570  0.3464 -0.3442
19393SOL    HW261200   0.960   3.014   7.449 -2.4460 -0.0436 -0.5419
19394SOL     OW61201   5.551   4.010   4.134  0.6683 -0.1971 -0.0343
19394SOL    HW161202   5.644   4.022   4.152  0.4179 -0.4389  1.5816
19394SOL    HW261203   5.507   4.058   4.205 -0.4128 -1.2245  0.0138
19395SOL     OW61204   0.173   3.653   1.261 -0.2117  0.0601  0.3959
19395SOL    HW161205   0.192   3.688   1.349  2.3683  0.2707 -0.2051
19395SOL    HW261206   0.159   3.560   1.276  0.6724  0.0103  0.9991
19396SOL     OW61207   3.420   3.479   9.067 -0.1611 -0.0874 -0.2711
19396SOL    HW161208   3.482   3.409   9.048  0.4987  0.4596 -0.1571
19396SOL    HW261209   3.392   3.463   9.157  1.2851  0.7524  0.3578
19397SOL     OW61210   7.033   6.895   6.517  0.5667 -0.1215 -1.0278
19397SOL    HW161211   7.027   6.928   6.427  1.0098 -0.3724 -1.1484
19397SOL    HW261212   7.081   6.812   6.509  1.0193  0.0882 -0.4962
19398SOL     OW61213   7.409   2.349   9.223  0.1740 -0.3208 -0.1092
19398SOL    HW161214   7.354   2.301   9.161  0.2462  0.4333 -0.7567
19398SOL    HW261215   7.447   2.280   9.279 -0.0145 -0.9886 -0.7961
19399SOL     OW61216   9.167   8.879   7.639  1.0344 -0.6337 -0.2454
19399SOL    HW161217   9.150   8.826   7.561 -0.5567 -1.7337  0.8147
19399SOL    HW261218   9.261   8.866   7.657  0.4091 -4.3313  0.8201
19400SOL     OW61219   7.909   1.318   7.062  0.0319 -0.0056 -0.4946
19400SOL    HW161220   7.815   1.314   7.078  0.1318  0.2848  0.1308
19400SOL    HW261221   7.922   1.399   7.013 -0.3130 -1.0467 -2.4017
19401SOL     OW61222   2.688   2.759   7.317 -0.0778 -0.1560 -0.6033
19401SOL    HW161223   2.620   2.757   7.384 -1.3062  1.7041 -1.7739
19401SOL    HW261224   2.681   2.674   7.273 -2.2809  0.3737 -1.3249
19402SOL     OW61225   7.895   7.429   7.737  0.4240  0.8091  0.4886
19402SOL    HW161226   7.947   7.469   7.807  1.2027  1.7013 -0.5868
19402SOL    HW261227   7.922   7.475   7.658 -0.3077 -0.3273 -0.4374
19403SOL     OW61228   4.226   2.561   1.760  0.0349 -0.3345  0.0271
19403SOL    HW161229   4.138   2.528   1.741 -0.0053 -0.7866  0.9856
19403SOL    HW261230   4.282   2.515   1.698 -0.3628 -0.2878 -0.3699
19404SOL     OW61231   1.114   1.795   4.876  0.1629 -0.1076 -0.2744
19404SOL    HW161232   1.107   1.699   4.877  1.4026 -0.2241 -1.5569
19404SOL    HW261233   1.027   1.825   4.851 -0.2640 -0.8910  0.2380
19405SOL     OW61234   2.737   4.311   1.257  0.0591  0.2703 -0.8249
19405SOL    HW161235   2.794   4.387   1.241  0.9251 -0.3280 -0.5874
19405SOL    HW261236   2.683   4.306   1.179  0.3818  0.8048 -1.0893
19406SOL     OW61237   1.037   7.094   4.870 -0.1009  0.1270  0.4175
19406SOL    HW161238   1.060   7.019   4.925  0.3911 -0.1860 -0.2108
19406SOL    HW261239   0.992   7.154   4.930  1.0809  0.1108  1.3440
19407SOL     OW61240   1.243   5.362   9.185  0.4549  0.4261  0.0660
19407SOL    HW161241   1.231   5.366   9.280 -0.5374 -0.2329 -0.0305
19407SOL    HW261242   1.249   5.269   9.165 -0.0548  0.5360 -0.6060
19408SOL     OW61243   2.494   2.162   2.050  0.1184  0.1567  0.5786
19408SOL    HW161244   2.483   2.207   2.133  4.1806  0.5427  1.0223
19408SOL    HW261245   2.497   2.232   1.985  3.1955  0.3819  0.8957
19409SOL     OW61246   7.758   4.426   1.640 -0.2745 -0.8483  0.1398
19409SOL    HW161247   7.775   4.394   1.728 -0.6647 -0.9751  0.1719
19409SOL    HW261248   7.771   4.349   1.584  0.3774 -0.6679  0.0411
19410SOL     OW61249   7.778   5.051   3.325  0.3249  0.1475  0.1647
19410SOL    HW161250   7.801   5.129   3.376  0.8919  0.8494 -1.1486
19410SOL    HW261251   7.805   5.072   3.236 -2.1924 -0.3936 -0.7774
19411SOL     OW61252   2.513   5.389   6.022 -0.3533 -0.7527  0.5194
19411SOL    HW161253   2.524   5.320   5.956  0.1045 -1.2872  1.1482
19411SOL    HW261254   2.488   5.343   6.101  1.2717 -0.3337  1.2943
19412SOL     OW61255   4.930   3.084   5.585 -0.8168 -0.3873 -0.1752
19412SOL    HW161256   4.929   3.156   5.648 -0.0847  0.5024 -1.1617
19412SOL    HW261257   4.969   3.010   5.632 -1.7706 -0.2054  0.9115
19413SOL     OW61258   1.815   5.419   2.668  0.6802  0.2696 -0.2714
19413SOL    HW161259   1.882   5.351   2.676  3.2922  2.8581  0.9199
19413SOL    HW261260   1.862   5.495   2.632 -1.1025  2.8518  2.5709
19414SOL     OW61261   2.415   2.453   0.430  0.2511 -0.1830 -0.0168
19414SOL    HW161262   2.324   2.479   0.442  0.0167 -1.2561  0.5857
19414SOL    HW261263   2.416   2.360   0.450  1.5413 -0.1162  0.2618
19415SOL     OW61264   3.360   6.806   1.515  0.3746 -0.3704 -0.3120
19415SOL    HW161265   3.304   6.765   1.448 -1.1530  0.8941  0.1641
19415SOL    HW261266   3.304   6.813   1.592  1.4122  0.3201  0.3938
19416SOL     OW61267   4.407   7.227   4.497  0.0743  0.3903  0.5210
19416SOL    HW161268   4.379   7.162   4.434 -1.0487  0.4487  0.9456
19416SOL    HW261269   4.503   7.224   4.494  0.0307 -0.8667  0.1286
19417SOL     OW61270   6.033   1.588   8.778  0.2623  0.0084 -0.1304
19417SOL    HW161271   6.074   1.672   8.801 -1.5770  1.4275 -1.9531
19417SOL    HW261272   5.978   1.567   8.854  0.4769  0.5997  0.1955
19418SOL     OW61273   5.336   1.441   1.052 -0.1751  0.2423  0.3380
19418SOL    HW161274   5.427   1.415   1.062  0.2225  0.5486 -2.0595
19418SOL    HW261275   5.295   1.368   1.006 -0.9748  0.3847  0.8237
19419SOL     OW61276   4.312   8.115   0.794  0.2087 -0.4535  0.2597
19419SOL    HW161277   4.303   8.091   0.702  0.7585 -3.3679  0.9194
19419SOL    HW261278   4.402   8.092   0.817  0.3432  1.0370  1.3217
19420SOL     OW61279   9.304   0.101   9.115  0.5352  0.1397 -0.0062
19420SOL    HW161280   9.266   0.022   9.153 -0.2773  0.7379  0.4413
19420SOL    HW261281   9.301   0.166   9.185  0.3077  0.8481 -0.6568
19421SOL     OW61282   1.591   2.847   8.339  0.6340 -0.1872 -0.1465
19421SOL    HW161283   1.662   2.899   8.300  1.0396 -0.8770 -0.3288
19421SOL    HW261284   1.546   2.909   8.396  0.5728  0.6071 -1.0382
19422SOL     OW61285   4.485   5.145   3.499  0.5004 -0.0982  0.3700
19422SOL    HW161286   4.558   5.189   3.542  0.5553  0.3229 -0.1597
19422SOL    HW261287   4.499   5.052   3.516  0.2785  0.0949  1.6572
19423SOL     OW61288   3.559   1.566   7.542 -0.2656  0.1548  0.5730
19423SOL    HW161289   3.640   1.544   7.589 -1.7112 -1.5585  2.3417
19423SOL    HW261290   3.542   1.657   7.566  1.6812  0.8952 -0.6822
19424SOL     OW61291   4.239   8.004   2.198 -0.0168 -0.2713  0.3659
19424SOL    HW161292   4.310   7.983   2.258 -1.2256 -2.4761  1.1291
19424SOL    HW261293   4.243   7.935   2.131 -0.5534  0.3864 -0.3527
19425SOL     OW61294   1.829   1.729   3.032  0.0431 -0.4212  0.1016
19425SOL    HW161295   1.801   1.815   3.003  2.8699  0.5200 -0.0174
19425SOL    HW261296   1.859   1.742   3.122 -0.8662 -1.5887  0.5844
19426SOL     OW61297   7.662   0.511   3.057  0.2391 -0.6893 -0.4710
19426SOL    HW161298   7.567   0.504   3.045  0.0016 -0.2719  1.0839
19426SOL    HW261299   7.696   0.427   3.025 -0.5908 -0.6319 -1.5485
19427SOL     OW61300   5.234   1.170   1.686 -0.2604  0.3411 -0.4734
19427SOL    HW161301   5.307   1.173   1.624 -0.8120  1.3404 -1.0818
19427SOL    HW261302   5.179   1.097   1.655 -0.3878  0.6569 -1.0029
19428SOL     OW61303   5.953   8.768   2.606 -0.2816 -0.0678 -0.7209
19428SOL    HW161304   5.948   8.709   2.681 -1.4754  0.9770  0.0510
19428SOL    HW261305   5.898   8.726   2.539  1.9140 -1.7154 -1.5650
19429SOL     OW61306   0.423   7.011   6.677 -0.2283 -0.1943 -0.3462
19429SOL    HW161307   0.401   7.045   6.764  1.6471  0.9082 -0.2666
19429SOL    HW261308   0.357   7.048   6.619 -0.4149  0.5618  0.3398
19430SOL     OW61309   2.054   3.886   0.823  0.3502 -0.0860 -0.4847
19430SOL    HW161310   2.009   3.970   0.824  0.4654 -0.0308  0.6745
19430SOL    HW261311   2.018   3.841   0.746 -0.9573  0.3509 -0.1532
19431SOL     OW61312   0.402   8.591   0.683  0.2382 -0.3019  0.2738
19431SOL    HW161313   0.379   8.548   0.766  1.6992 -0.4681  0.5993
19431SOL    HW261314   0.483   8.549   0.656  1.5795  2.0797  0.4739
19432SOL     OW61315   8.787   8.389   8.689 -0.2540 -0.5523  0.0689
19432SOL    HW161316   8.860   8.351   8.738 -0.3672 -0.2299  0.4972
19432SOL    HW261317   8.829   8.440   8.620  0.1101  2.8315  2.6261
19433SOL     OW61318   8.541   4.467   2.787  0.0102 -0.0960  0.3143
19433SOL    HW161319   8.625   4.433   2.819  0.9423  1.4065 -0.4579
19433SOL    HW261320   8.510   4.523   2.858  0.8308  1.1958 -0.3077
19434SOL     OW61321   1.051   5.648   2.114 -0.3175  0.3921  0.4722
19434SOL    HW161322   1.116   5.687   2.056 -0.5560 -0.6375 -0.5058
19434SOL    HW261323   0.989   5.718   2.132 -0.0052  0.8394 -0.1628
19435SOL     OW61324   9.253   4.495   5.268  0.0904 -0.0541 -0.5739
19435SOL    HW161325   9.210   4.577   5.242  1.0606  0.2082 -1.4034
19435SOL    HW261326   9.334   4.523   5.309  0.8849 -0.6070 -1.7248
19436SOL     OW61327   5.873   8.694   0.823  0.2208 -0.2040  0.5307
19436SOL    HW161328   5.858   8.638   0.747 -1.3305  0.5819  0.2441
19436SOL    HW261329   5.879   8.782   0.787  5.0661 -0.3107  0.6791
19437SOL     OW61330   4.554   8.714   3.739  0.4230  0.5709 -0.2632
19437SOL    HW161331   4.632   8.668   3.767  1.3385  1.2039 -1.7210
19437SOL    HW261332   4.572   8.806   3.758  0.1934  0.7655 -0.9740
19438SOL     OW61333   8.694   5.353   0.655 -1.0128  0.2451 -0.5025
19438SOL    HW161334   8.618   5.365   0.711 -0.0594  0.0503  0.8659
19438SOL    HW261335   8.707   5.438   0.613  0.5369  1.6000  2.5307
19439SOL     OW61336   7.432   2.924   7.595 -0.1329  0.0930  0.4708
19439SOL    HW161337   7.416   3.009   7.555 -1.0995 -0.6729 -0.7928
19439SOL    HW261338   7.412   2.860   7.526  1.6797 -1.1282  1.0294
19440SOL     OW61339   7.616   5.631   5.950 -0.0974  0.1706  0.0822
19440SOL    HW161340   7.629   5.701   6.013  0.8222  0.0373  0.0434
19440SOL    HW261341   7.598   5.675   5.867 -0.7280  0.3497  0.3154
19441SOL     OW61342   4.852   3.643   4.751 -0.9115  0.1358  0.3901
19441SOL    HW161343   4.839   3.578   4.682  0.3504  0.4885 -0.1891
19441SOL    HW261344   4.830   3.597   4.832 -0.4890 -0.8702 -0.0655
19442SOL     OW61345   9.288   4.086   6.086  0.1722  0.7108 -0.0710
19442SOL    HW161346   9.351   4.095   6.158 -1.0066 -1.4798  1.2769
19442SOL    HW261347   9.223   4.154   6.103  0.8091  1.3235 -0.0456
19443SOL     OW61348   7.730   4.280   2.504 -0.0724  0.0130  0.3577
19443SOL    HW161349   7.704   4.258   2.593 -0.1080 -0.0484  0.3323
19443SOL    HW261350   7.677   4.356   2.481  1.2037  1.1316  1.0268
19444SOL     OW61351   9.392   8.196   9.016 -0.0629 -0.4101  0.4570
19444SOL    HW161352   9.437   8.154   9.090 -0.2533 -0.4876  0.5275
19444SOL    HW261353   9.300   8.175   9.029 -0.1859  0.2276  0.6196
19445SOL     OW61354   6.517   8.544   4.996  0.3819  0.1891  0.3514
19445SOL    HW161355   6.451   8.487   5.035  0.3777  0.1195  0.2450
19445SOL    HW261356   6.472   8.584   4.921  0.4351  0.2039  0.3280
19446SOL     OW61357   1.785   2.740   1.704  0.4124 -0.3337  0.3004
19446SOL    HW161358   1.693   2.766   1.714  0.7247  1.4048 -0.9225
19446SOL    HW261359   1.802   2.682   1.777 -1.4524 -0.0628  0.9867
19447SOL     OW61360   8.327   0.470   0.086  0.8940 -0.4348 -0.2383
19447SOL    HW161361   8.364   0.454  -0.001 -0.3035  1.7376 -1.1681
19447SOL    HW261362   8.402   0.497   0.139  1.6249 -1.7626 -0.5643
19448SOL     OW61363   0.990   5.981   2.381 -0.0109 -0.5347 -0.6875
19448SOL    HW161364   0.980   5.902   2.434  2.0625 -0.1039  0.3854
19448SOL    HW261365   0.956   6.052   2.436 -2.5122 -0.7221 -1.9115
19449SOL     OW61366   7.455   5.604   8.030 -0.6232  0.0097 -0.2293
19449SOL    HW161367   7.388   5.603   8.098 -2.3071 -1.5959 -1.8824
19449SOL    HW261368   7.516   5.535   8.055  0.6418  1.6771  1.4413
19450SOL     OW61369   8.413   2.863   3.898 -0.3202 -0.4199  0.1120
19450SOL    HW161370   8.432   2.776   3.862  1.6334  0.5309 -1.2323
19450SOL    HW261371   8.372   2.911   3.826 -1.0351 -0.0913  0.7252
19451SOL     OW61372   4.193   3.067   1.066 -0.5094  0.0857 -0.5001
19451SOL    HW161373   4.127   3.134   1.081  0.2139  0.7725 -0.3793
19451SOL    HW261374   4.185   3.007   1.140  0.5559  1.4307  0.7159
19452SOL     OW61375   5.791   6.542   3.107 -0.2208 -0.4396  0.1866
19452SOL    HW161376   5.817   6.599   3.035 -0.3164  0.0638  0.5485
19452SOL    HW261377   5.793   6.598   3.184  0.9389 -1.2243  0.7518
19453SOL     OW61378   4.055   1.545   1.975 -0.0742  0.2188  0.3548
19453SOL    HW161379   4.063   1.512   2.064  0.6198 -0.4924  0.0288
19453SOL    HW261380   4.145   1.552   1.943 -0.3685 -0.6011 -0.6786
19454SOL     OW61381   1.181   4.417   8.851  0.0693 -0.3965 -0.2394
19454SOL    HW161382   1.086   4.431   8.854  0.2127  0.9812 -1.4398
19454SOL    HW261383   1.217   4.496   8.892  0.7135 -0.6846 -0.2518
19455SOL     OW61384   6.164   6.773   0.046  0.4097  0.1156 -0.3726
19455SOL    HW161385   6.070   6.778   0.028  0.4192 -3.6179 -1.9025
19455SOL    HW261386   6.169   6.750   0.139 -0.1886  0.0042 -0.3655
19456SOL     OW61387   8.108   1.171   1.645  0.0190 -0.2591  0.5158
19456SOL    HW161388   8.116   1.257   1.685 -0.3208  0.0443 -0.0615
19456SOL    HW261389   8.118   1.187   1.551  1.9492 -1.1181  0.5503
19457SOL     OW61390   3.356   2.704   5.242 -0.0776 -0.7235  0.1548
19457SOL    HW161391   3.314   2.706   5.156 -0.8404  1.6616  0.5575
19457SOL    HW261392   3.285   2.684   5.303 -0.4904  2.3869  0.7344
19458SOL     OW61393   2.313   7.629   3.137 -0.3433 -0.3029 -0.3515
19458SOL    HW161394   2.226   7.621   3.176  0.4245 -1.5519  1.1608
19458SOL    HW261395   2.296   7.642   3.044 -2.2218  2.5223  0.3113
19459SOL     OW61396   7.517   9.302   2.114 -0.1338 -0.4831  0.0873
19459SOL    HW161397   7.553   9.383   2.078  0.4880 -1.0448 -0.5748
19459SOL    HW261398   7.592   9.242   2.118 -0.6792 -1.1642  0.1700
19460SOL     OW61399   8.364   3.424   6.791  0.3432 -0.0406 -0.2491
19460SOL    HW161400   8.315   3.424   6.709  0.2839 -1.1800 -0.2251
19460SOL    HW261401   8.449   3.462   6.769  0.6437 -1.1321 -1.0470
19461SOL     OW61402   1.719   2.063   6.045 -0.5662  0.1124 -0.1335
19461SOL    HW161403   1.794   2.117   6.021 -0.1408 -1.0419 -1.4555
19461SOL    HW261404   1.707   2.078   6.139  1.4696  0.1013  0.1387
19462SOL     OW61405   5.738   7.795   6.511  0.4596  0.9202  0.1485
19462SOL    HW161406   5.727   7.763   6.601  0.7758  0.2227 -0.0619
19462SOL    HW261407   5.695   7.730   6.456  0.8560  0.9976 -0.2609
19463SOL     OW61408   1.519   0.127   7.596 -0.1966 -0.0568  0.3772
19463SOL    HW161409   1.429   0.113   7.625 -0.4483  1.4580  0.3580
19463SOL    HW261410   1.510   0.163   7.508  0.4057  0.3965  0.4989
19464SOL     OW61411   4.248   4.049   1.347  0.4159 -0.6075 -0.5794
19464SOL    HW161412   4.215   3.972   1.394  0.9125 -0.8797 -0.6739
19464SOL    HW261413   4.217   4.038   1.258  2.3982 -1.8795 -1.1601
19465SOL     OW61414   8.101   8.431   6.031  0.8477  0.0435  0.1826
19465SOL    HW161415   8.095   8.526   6.038  0.8157  0.0465  0.1138
19465SOL    HW261416   8.057   8.410   5.948 -0.3471 -0.1647  0.8674
19466SOL     OW61417   9.420   6.997   2.654  0.2035 -0.1084 -0.6634
19466SOL    HW161418   9.475   7.064   2.696 -1.0439  0.2790  0.4015
19466SOL    HW261419   9.418   6.925   2.718  0.0795 -0.4186 -1.0181
19467SOL     OW61420   7.270   5.599   7.062 -0.0233  0.6594  0.0593
19467SOL    HW161421   7.251   5.692   7.050  0.6457  0.6820 -0.9114
19467SOL    HW261422   7.315   5.594   7.146 -1.3358  1.0210  0.8017
19468SOL     OW61423   3.098   3.037   0.018 -0.0078 -0.2792 -0.0158
19468SOL    HW161424   3.065   3.100  -0.045  1.6671 -0.5094 -1.1551
19468SOL    HW261425   3.019   3.001   0.060 -1.2175 -0.7618 -2.5951
19469SOL     OW61426   7.964   8.469   7.058  0.0618 -0.1728  0.2292
19469SOL    HW161427   8.056   8.496   7.057 -0.1875  0.7742  1.2730
19469SOL    HW261428   7.947   8.445   7.149 -0.2236 -2.1681 -0.3329
19470SOL     OW61429   2.729   0.479   7.395  0.6706  0.5456 -0.1054
19470SOL    HW161430   2.696   0.554   7.444  2.0646  0.4227  1.0649
19470SOL    HW261431   2.743   0.411   7.461  0.3752 -0.4170 -1.0064
19471SOL     OW61432   1.800   8.569   1.297  0.0432  0.2756 -0.0444
19471SOL    HW161433   1.742   8.542   1.368 -1.7388  1.4843 -1.0008
19471SOL    HW261434   1.838   8.651   1.326 -0.7284  0.7982 -0.5110
19472SOL     OW61435   7.738   2.050   3.022 -0.4671  0.3630  0.2879
19472SOL    HW161436   7.697   1.974   3.063  0.3095 -0.1563  0.0920
19472SOL    HW261437   7.798   2.084   3.089  0.7161 -0.4183 -0.3641
19473SOL     OW61438   6.466   9.098   8.947 -0.1403  0.2071 -0.5618
19473SOL    HW161439   6.535   9.078   8.884 -0.1544  0.0740 -0.5349
19473SOL    HW261440   6.422   9.176   8.911  2.1190  2.3065  1.0835
19474SOL     OW61441   4.756   8.458   3.224  0.5706 -0.7031  0.0959
19474SOL    HW161442   4.733   8.549   3.207  1.0198 -0.7847 -0.9831
19474SOL    HW261443   4.675   8.418   3.254  0.6165  0.3004  1.6249
19475SOL     OW61444   4.410   0.446   0.725  0.6273 -0.1765 -0.1059
19475SOL    HW161445   4.421   0.507   0.652  1.5569 -0.7872 -0.4785
19475SOL    HW261446   4.383   0.364   0.684 -0.6359 -0.0250  0.3962
19476SOL     OW61447   4.037   0.710   2.623 -0.2144 -0.8428 -0.8653
19476SOL    HW161448   4.043   0.762   2.703  0.8432 -2.4156  0.1125
19476SOL    HW261449   3.944   0.689   2.614 -0.9134  2.5290 -2.1709
19477SOL     OW61450   0.777   9.114   5.306 -0.2894 -0.2426 -0.3703
19477SOL    HW161451   0.793   9.033   5.256  0.4999  0.0031 -0.5215
19477SOL    HW261452   0.706   9.091   5.366  0.1120 -1.1361 -0.2232
19478SOL     OW61453   1.979   0.761   3.617  0.0858 -0.5242  0.4838
19478SOL    HW161454   2.025   0.691   3.663  0.1078 -0.9225 -0.1443
19478SOL    HW261455   2.038   0.836   3.621  0.1124 -0.5739  1.0515
19479SOL     OW61456   5.506   6.462   4.970  0.1289  0.2847  0.1988
19479SOL    HW161457   5.572   6.413   4.921  0.3052  0.9411 -0.2166
19479SOL    HW261458   5.423   6.434   4.931  0.1533 -0.4898  0.6798
19480SOL     OW61459   2.528   1.903   0.691 -0.1431  0.3771  0.6115
19480SOL    HW161460   2.558   1.812   0.688 -1.6737 -0.1045 -1.3064
19480SOL    HW261461   2.432   1.896   0.689 -0.2526  2.0426 -0.5918
19481SOL     OW61462   0.844   4.608   1.491 -0.2791  0.8706 -0.2478
19481SOL    HW161463   0.766   4.618   1.546 -0.6769 -2.0131 -0.1640
19481SOL    HW261464   0.918   4.613   1.552 -0.6087 -0.0426  0.2361
19482SOL     OW61465   6.937   9.440   0.736  0.1439 -0.3401  0.0991
19482SOL    HW161466   7.003   9.373   0.719  0.6529  0.5417 -1.4492
19482SOL    HW261467   6.854   9.393   0.730  0.5733 -1.2732  1.1956
19483SOL     OW61468   0.871   0.091   1.065  0.0266 -0.1542 -0.2683
19483SOL    HW161469   0.847   0.053   0.980 -0.6862 -0.1721 -0.0656
19483SOL    HW261470   0.943   0.037   1.097 -0.5130 -0.8990 -0.3088
19484SOL     OW61471   8.638   8.087   0.022 -0.1233 -0.3178  0.1242
19484SOL    HW161472   8.715   8.133   0.056  0.7119 -0.4359 -1.5021
19484SOL    HW261473   8.654   7.995   0.044  0.2235 -0.3422 -0.2029
19485SOL     OW61474   7.327   8.125   0.138 -0.3204 -0.4698 -0.1679
19485SOL    HW161475   7.302   8.066   0.209  0.0491  0.6578  0.8998
19485SOL    HW261476   7.245   8.142   0.091 -1.2270  1.5064  2.0307
19486SOL     OW61477   8.642   5.012   2.682 -0.5630 -0.2893  0.1626
19486SOL    HW161478   8.582   4.936   2.681  0.1819 -0.8809 -0.7645
19486SOL    HW261479   8.601   5.074   2.622 -0.9724 -0.1091  0.6205
19487SOL     OW61480   2.974   4.473   6.845 -0.9672  0.2131  0.4786
19487SOL    HW161481   2.914   4.461   6.919 -0.1472  1.0263  1.2795
19487SOL    HW261482   3.033   4.397   6.850 -1.3742 -0.1229  0.2134
19488SOL     OW61483   0.382   0.184   7.765  0.1293 -0.0306 -0.0510
19488SOL    HW161484   0.334   0.242   7.825 -0.5237  0.2972 -0.8776
19488SOL    HW261485   0.470   0.181   7.801 -0.4870 -0.5895  1.4615
19489SOL     OW61486   0.036   8.683   2.574  0.8506 -0.2983 -0.5236
19489SOL    HW161487  -0.003   8.625   2.639 -1.2195  1.6048 -0.0202
19489SOL    HW261488  -0.011   8.663   2.493  1.8408 -1.0342 -0.9306
19490SOL     OW61489   6.045   8.298   4.144 -0.4745  0.1986  0.6593
19490SOL    HW161490   6.096   8.376   4.127 -0.2675  0.0502  0.6078
19490SOL    HW261491   5.962   8.313   4.098  0.5194 -0.6921 -1.4404
19491SOL     OW61492   0.263   7.642   2.184  0.3606 -0.1200 -0.2968
19491SOL    HW161493   0.271   7.548   2.171  1.0567 -0.0896 -0.1078
19491SOL    HW261494   0.260   7.654   2.279  0.8536  0.0880 -0.3044
19492SOL     OW61495   0.343   4.779   5.885 -0.2364 -0.0259  1.0788
19492SOL    HW161496   0.353   4.705   5.826  0.2008  0.3164  0.7248
19492SOL    HW261497   0.266   4.826   5.853 -0.0220  0.1382  0.8043
19493SOL     OW61498   8.250   3.456   1.937 -0.1723 -0.1945  0.1888
19493SOL    HW161499   8.315   3.495   1.878  0.6266 -0.3654  0.9520
19493SOL    HW261500   8.218   3.379   1.890  0.7271 -0.5370  0.1292
19494SOL     OW61501   4.577   0.040   2.934  0.2249 -0.1479  0.1179
19494SOL    HW161502   4.532  -0.023   2.991  0.1711  0.8030  1.1472
19494SOL    HW261503   4.572   0.123   2.982  0.0938  0.6919 -1.3277
19495SOL     OW61504   9.250   2.037   7.090  0.1084  0.5572  0.0713
19495SOL    HW161505   9.155   2.053   7.093 -0.1149 -0.2097 -1.8676
19495SOL    HW261506   9.266   2.009   7.000  2.3825  1.7703  0.0760
19496SOL     OW61507   8.772   0.024   5.028  0.0742 -0.1478 -0.2925
19496SOL    HW161508   8.727   0.108   5.016 -1.5489 -0.8440  0.8256
19496SOL    HW261509   8.842   0.044   5.090  0.4331  0.6306 -0.9357
19497SOL     OW61510   3.698   6.186   5.600 -0.2988 -0.2982 -0.3634
19497SOL    HW161511   3.714   6.182   5.694  2.6008  0.5778 -0.7873
19497SOL    HW261512   3.602   6.183   5.592 -0.5467 -1.4776  2.5264
19498SOL     OW61513   9.402   1.618   2.856 -0.7109 -0.2411  0.0203
19498SOL    HW161514   9.381   1.528   2.833 -0.1067 -0.6331  1.0210
19498SOL    HW261515   9.497   1.624   2.844 -0.6075 -0.0194  0.9235
19499SOL     OW61516   4.314   4.127   3.676 -0.0064  0.1385 -0.1679
19499SOL    HW161517   4.404   4.140   3.648  0.0954 -0.3160 -0.0472
19499SOL    HW261518   4.299   4.196   3.741 -0.0660  0.8371 -0.9188
19500SOL     OW61519   2.518   2.033   4.408 -1.3687 -0.2606 -0.6927
19500SOL    HW161520   2.595   1.989   4.443 -0.6529  2.3713  1.2082
19500SOL    HW261521   2.445   1.976   4.433 -0.3396 -1.2459  0.1573
19501SOL     OW61522   3.153   3.680   4.674 -0.4128  0.4647  0.5006
19501SOL    HW161523   3.242   3.645   4.677 -0.9774 -1.2082 -1.4703
19501SOL    HW261524   3.148   3.726   4.591 -0.7714  2.3879  1.5505
19502SOL     OW61525   8.050   8.963   4.414 -0.0470 -0.3013  0.8438
19502SOL    HW161526   8.074   9.029   4.349 -1.4737  0.5187  1.1377
19502SOL    HW261527   8.012   8.892   4.363 -0.9635  0.2453  0.7641
19503SOL     OW61528   7.584   4.087   8.235  0.4983 -0.3827  0.1832
19503SOL    HW161529   7.661   4.059   8.283  1.2064  0.6810 -0.3029
19503SOL    HW261530   7.525   4.122   8.302  1.4086  0.9437  0.3105
19504SOL     OW61531   0.470   3.444   8.807 -0.0463 -0.3290 -0.4119
19504SOL    HW161532   0.403   3.474   8.868 -2.4812 -0.0480 -3.0915
19504SOL    HW261533   0.535   3.514   8.806 -1.1381  0.7022  0.1271
19505SOL     OW61534   8.904   5.045   6.018  0.1390 -0.4468 -0.2992
19505SOL    HW161535   8.872   5.013   5.933 -3.3155 -0.8273  1.0649
19505SOL    HW261536   8.886   4.974   6.079 -2.2524  1.7470  1.6962
19506SOL     OW61537   2.407   7.293   1.809 -0.1155 -0.4659 -0.7428
19506SOL    HW161538   2.378   7.247   1.730 -2.7351 -1.4760  0.7392
19506SOL    HW261539   2.333   7.287   1.869  1.0366  2.0994  1.0520
19507SOL     OW61540   8.805   0.731   5.116 -0.1360 -0.5070  0.4015
19507SOL    HW161541   8.758   0.695   5.191 -0.3281 -0.3866  0.3407
19507SOL    HW261542   8.765   0.687   5.040  0.6085 -1.2314  0.4220
19508SOL     OW61543   1.098   4.349   3.126 -0.5168  0.0956 -0.8792
19508SOL    HW161544   1.087   4.440   3.097  0.5552  0.4909 -0.0864
19508SOL    HW261545   1.187   4.326   3.098  0.1448  0.1255  1.0946
19509SOL     OW61546   8.905   0.281   2.963  0.3048 -0.0178  0.3167
19509SOL    HW161547   8.833   0.302   3.023 -0.4376 -2.2849  0.2613
19509SOL    HW261548   8.934   0.366   2.930 -1.8855  0.9819  0.8794
19510SOL     OW61549   8.593   0.430   6.944 -0.9306 -0.0646  0.6710
19510SOL    HW161550   8.599   0.460   7.035 -1.5035  1.0901  0.3390
19510SOL    HW261551   8.684   0.422   6.916 -0.7327 -1.3923  1.6439
19511SOL     OW61552   6.319   9.344   4.010  0.4680  0.5356  0.4431
19511SOL    HW161553   6.268   9.280   4.061  0.0345  1.1448  0.7839
19511SOL    HW261554   6.277   9.428   4.030  0.2564  0.7725 -0.9726
19512SOL     OW61555   1.673   6.978   2.422  0.5850  0.1576 -0.4024
19512SOL    HW161556   1.618   7.013   2.492  2.9409  0.7569  1.1908
19512SOL    HW261557   1.670   7.045   2.354  0.1607  0.6403  0.0815
19513SOL     OW61558   4.023   7.381   4.704  0.5864 -0.3352 -0.0577
19513SOL    HW161559   3.961   7.384   4.777  0.6201 -0.2483 -0.0330
19513SOL    HW261560   4.102   7.341   4.740  0.3560 -0.9384 -0.2255
19514SOL     OW61561   0.384   5.964   1.857  0.4713  0.3550 -0.0456
19514SOL    HW161562   0.341   6.040   1.818  2.5692  1.1209 -0.9559
19514SOL    HW261563   0.437   5.927   1.786  1.2566 -0.5876  1.0064
19515SOL     OW61564   7.702   7.370   2.830  0.0450  0.1005 -0.2999
19515SOL    HW161565   7.751   7.339   2.906 -1.3172  0.3236  0.6959
19515SOL    HW261566   7.704   7.296   2.769  3.3578  0.8351 -1.1847
19516SOL     OW61567   7.919   3.714   6.812 -0.1575  0.0420  0.1681
19516SOL    HW161568   7.946   3.636   6.764  0.6954  0.2335  0.3233
19516SOL    HW261569   7.997   3.739   6.862 -0.7994  0.2864  1.0621
19517SOL     OW61570   8.341   7.865   3.796 -0.7236  0.5058 -0.0824
19517SOL    HW161571   8.307   7.898   3.879 -1.0931 -0.8355  0.3089
19517SOL    HW261572   8.398   7.792   3.820  0.1079  0.8625 -0.9350
19518SOL     OW61573   9.040   4.925   4.976 -0.0443  0.2865  0.6151
19518SOL    HW161574   9.115   4.865   4.967 -1.4479 -1.5304  0.6328
19518SOL    HW261575   9.053   4.991   4.908  0.8542 -0.8170 -0.2959
19519SOL     OW61576   4.348   1.335   0.982  0.1264  0.2867 -0.3717
19519SOL    HW161577   4.385   1.422   0.969 -0.3077  0.1587 -2.5452
19519SOL    HW261578   4.254   1.347   0.966 -0.0981 -0.3601  0.4395
19520SOL     OW61579   5.214   1.096   7.041  0.2704  0.0319 -0.2676
19520SOL    HW161580   5.219   1.183   7.000 -0.9040  0.1033 -0.2854
19520SOL    HW261581   5.226   1.113   7.134  2.3666 -0.0652 -0.4890
19521SOL     OW61582   6.791   0.437   0.932  0.7959  0.4490  0.2981
19521SOL    HW161583   6.755   0.348   0.938 -0.1995  0.8086 -0.1258
19521SOL    HW261584   6.790   0.458   0.839  0.0900  1.2618  0.4710
19522SOL     OW61585   5.965   7.399   6.627 -0.4651 -0.2915 -0.0825
19522SOL    HW161586   5.984   7.318   6.675  1.1941 -0.8960 -1.6917
19522SOL    HW261587   5.940   7.462   6.695  0.0306 -1.6297  1.3797
19523SOL     OW61588   2.334   5.604   1.361 -0.2690  0.7796 -0.7599
19523SOL    HW161589   2.287   5.562   1.289 -0.5948  0.8632 -0.5955
19523SOL    HW261590   2.387   5.534   1.400 -1.3144  0.3583 -0.0685
19524SOL     OW61591   3.269   3.656   1.305 -0.2721  0.0033  0.3086
19524SOL    HW161592   3.298   3.571   1.340 -0.0260  0.0690  0.2620
19524SOL    HW261593   3.254   3.710   1.383 -1.0171 -0.2710  0.3667
19525SOL     OW61594   8.458   2.755   5.675 -0.2714  0.2394  0.1209
19525SOL    HW161595   8.480   2.717   5.590 -2.8706 -0.5232 -0.2703
19525SOL    HW261596   8.487   2.690   5.739  1.7291  0.8334 -0.1638
19526SOL     OW61597   0.361   8.189   6.436 -0.0960  0.5258  0.0047
19526SOL    HW161598   0.306   8.215   6.511  0.3628 -0.4459  0.6937
19526SOL    HW261599   0.317   8.111   6.401 -0.9012  1.5990 -1.4121
19527SOL     OW61600   9.110   0.116   4.890 -0.1970 -0.2270 -0.5339
19527SOL    HW161601   9.055   0.156   4.823  1.1924  1.4148 -0.7356
19527SOL    HW261602   9.135   0.189   4.947 -0.3186 -1.3868  1.0516
19528SOL     OW61603   1.126   1.642   5.963  0.1921  0.0106  0.4531
19528SOL    HW161604   1.211   1.606   5.988 -0.3572 -1.7684 -0.1131
19528SOL    HW261605   1.066   1.610   6.031 -0.0816  1.0308  0.7040
19529SOL     OW61606   1.577   4.091   6.829  0.0318 -0.2080  0.5205
19529SOL    HW161607   1.634   4.162   6.860 -0.4348 -0.1821  1.3441
19529SOL    HW261608   1.522   4.132   6.762  0.1708  0.0560  0.5684
19530SOL     OW61609   2.731   2.138   0.186  0.0419 -0.2614  0.4131
19530SOL    HW161610   2.687   2.211   0.230 -0.0199 -1.0427  1.6893
19530SOL    HW261611   2.787   2.179   0.120 -0.3437  0.9016  0.7956
19531SOL     OW61612   0.884   8.265   3.426 -0.1248 -0.0556  0.1361
19531SOL    HW161613   0.844   8.292   3.343 -0.5094 -1.0255 -0.0111
19531SOL    HW261614   0.883   8.343   3.480 -2.6917 -0.1454  0.3066
19532SOL     OW61615   2.935   2.742   6.368 -0.5352  0.3187  0.0802
19532SOL    HW161616   2.868   2.808   6.388 -2.0855 -0.8984 -1.0208
19532SOL    HW261617   2.939   2.739   6.272 -0.1063 -0.8357  0.1228
19533SOL     OW61618   8.639   8.530   1.881  0.1942  0.4061 -0.0622
19533SOL    HW161619   8.680   8.456   1.924 -2.6651 -0.2292  1.6760
19533SOL    HW261620   8.643   8.509   1.787  2.2234 -0.4139  0.1975
19534SOL     OW61621   0.189   2.020   2.430 -0.4102 -0.1466  0.0074
19534SOL    HW161622   0.268   2.073   2.443 -1.1225  0.7542  0.7312
19534SOL    HW261623   0.117   2.081   2.445 -1.2498 -0.8483 -1.1215
19535SOL     OW61624   1.702   5.395   5.835 -0.0829 -0.2859  0.8970
19535SOL    HW161625   1.689   5.370   5.927 -1.5445 -0.6050  0.6257
19535SOL    HW261626   1.661   5.324   5.785  0.1224  0.2130  0.0153
19536SOL     OW61627   0.346   9.105   0.936  0.0998 -0.1364 -0.2438
19536SOL    HW161628   0.268   9.099   0.992  0.3083  1.8441  0.3080
19536SOL    HW261629   0.311   9.097   0.847 -0.8405  1.4369 -0.0350
19537SOL     OW61630   0.993   1.328   5.837  0.1369  0.2897 -0.0551
19537SOL    HW161631   1.027   1.308   5.924  0.7186 -1.2415 -0.6211
19537SOL    HW261632   0.953   1.246   5.808 -2.2113  1.4737 -0.2511
19538SOL     OW61633   1.199   3.682   8.936 -0.6473 -0.0129 -0.1178
19538SOL    HW161634   1.276   3.699   8.990 -1.0984  1.9242 -0.0443
19538SOL    HW261635   1.225   3.608   8.881  0.7383 -0.3282  0.9134
19539SOL     OW61636   2.667   8.176   6.548 -0.1207  0.1296  0.2915
19539SOL    HW161637   2.727   8.102   6.549  0.0852  0.2873 -0.4261
19539SOL    HW261638   2.723   8.253   6.554 -0.3694  0.2161  1.6616
19540SOL     OW61639   6.084   3.149   1.126 -0.5120  0.6277  0.2707
19540SOL    HW161640   6.125   3.169   1.043 -0.0676  0.1482  0.3760
19540SOL    HW261641   6.053   3.059   1.117  2.9988 -0.8440  1.9906
19541SOL     OW61642   4.171   1.552   1.623  0.3950 -0.1478 -0.3175
19541SOL    HW161643   4.218   1.468   1.622  0.4767 -0.1191  0.4429
19541SOL    HW261644   4.148   1.568   1.532  0.7686 -0.7826 -0.5279
19542SOL     OW61645   7.565   1.177   1.840 -0.6902 -0.2875  0.6526
19542SOL    HW161646   7.533   1.138   1.758 -0.0969 -0.9249  0.7281
19542SOL    HW261647   7.566   1.271   1.822 -0.7474 -0.4089 -0.0085
19543SOL     OW61648   5.966   4.254   8.721 -0.2868  0.0521 -0.0670
19543SOL    HW161649   5.963   4.160   8.703  4.2095 -0.3434  0.4683
19543SOL    HW261650   5.937   4.262   8.811 -2.0464 -0.6429 -0.5632
19544SOL     OW61651   5.220   4.341   1.976 -0.3244 -0.2603  0.0241
19544SOL    HW161652   5.274   4.289   1.917 -1.0162 -0.9941  0.0360
19544SOL    HW261653   5.214   4.427   1.933  0.7769 -0.1901 -0.0142
19545SOL     OW61654   1.476   7.889   4.857 -0.2741 -0.0448 -0.2570
19545SOL    HW161655   1.409   7.956   4.870  0.1945  0.2884  0.4817
19545SOL    HW261656   1.555   7.926   4.896  0.7343  0.1929 -2.4160
19546SOL     OW61657   0.502   4.527   4.211 -0.0635  0.1812 -0.2454
19546SOL    HW161658   0.527   4.619   4.224  0.8930  0.1730 -1.9052
19546SOL    HW261659   0.486   4.494   4.300 -1.4168  2.2126  0.3019
19547SOL     OW61660   2.003   8.544   8.441  0.4142 -0.0790  0.2302
19547SOL    HW161661   1.927   8.601   8.436 -0.6426 -1.4725  0.2280
19547SOL    HW261662   2.072   8.599   8.478  0.3587  2.1850 -2.8391
19548SOL     OW61663   7.153   7.203   1.787  0.4325 -0.3978 -0.3595
19548SOL    HW161664   7.245   7.201   1.762  0.1926 -0.1767 -1.2697
19548SOL    HW261665   7.154   7.211   1.882  1.3596  1.9417 -0.5439
19549SOL     OW61666   8.610   6.146   7.877  0.4318 -0.0636  0.4279
19549SOL    HW161667   8.624   6.092   7.955 -0.2523 -1.4667 -0.4198
19549SOL    HW261668   8.519   6.176   7.884  0.0446 -1.0317 -0.3411
19550SOL     OW61669   0.169   6.044   7.795 -0.9779  0.1712  0.1158
19550SOL    HW161670   0.132   6.070   7.880 -1.3748 -2.0611  0.6607
19550SOL    HW261671   0.247   6.099   7.785 -1.1868  0.8019  1.6996
19551SOL     OW61672   2.802   8.102   3.104  0.5306  0.0637 -0.1887
19551SOL    HW161673   2.869   8.115   3.036 -0.1696  3.2836 -0.3831
19551SOL    HW261674   2.844   8.132   3.184 -0.3056  1.0749 -0.1216
19552SOL     OW61675   1.606   8.831   8.371 -0.0294 -0.0397 -0.2445
19552SOL    HW161676   1.569   8.894   8.309 -0.9951 -0.5659 -0.2049
19552SOL    HW261677   1.531   8.797   8.420  0.5652 -0.6829  0.2465
19553SOL     OW61678   7.656   6.535   4.731 -0.2624  0.2313 -0.0322
19553SOL    HW161679   7.666   6.624   4.762 -0.5406  0.1443  0.3120
19553SOL    HW261680   7.601   6.492   4.797 -0.9529  0.0762 -0.6882
19554SOL     OW61681   2.095   1.149   7.258 -0.3766 -0.2991  0.3313
19554SOL    HW161682   2.172   1.107   7.219 -0.8866 -1.1515  0.2096
19554SOL    HW261683   2.129   1.197   7.334  0.3616 -0.1325 -0.1003
19555SOL     OW61684   7.129   3.238   0.598  0.6608 -0.5129 -0.0816
19555SOL    HW161685   7.162   3.167   0.543 -0.4318 -0.3571 -0.9504
19555SOL    HW261686   7.198   3.304   0.594  0.8836 -0.7755 -0.7433
19556SOL     OW61687   0.706   0.153   9.404  0.6684 -0.2062  0.2791
19556SOL    HW161688   0.739   0.080   9.455 -1.3948 -1.6870 -0.4440
19556SOL    HW261689   0.622   0.174   9.444  0.3749  0.5272 -0.7075
19557SOL     OW61690   2.619   2.670   0.473  0.4334  0.2972 -0.6228
19557SOL    HW161691   2.563   2.736   0.515  1.5786  2.6912 -2.7531
19557SOL    HW261692   2.560   2.595   0.459 -1.7222  1.9906 -0.9466
19558SOL     OW61693   5.427   7.785   3.267 -0.7202 -0.0432 -0.1725
19558SOL    HW161694   5.346   7.737   3.281  0.1417 -0.8408  2.5068
19558SOL    HW261695   5.486   7.754   3.336  0.6436  3.1865  0.2433
19559SOL     OW61696   2.264   0.870   1.647  0.2840  0.5167  0.4974
19559SOL    HW161697   2.355   0.883   1.674 -0.3163  1.9380  1.9629
19559SOL    HW261698   2.263   0.785   1.604  1.8617 -0.5850  2.5396
19560SOL     OW61699   2.982   1.118   3.421  0.1519 -0.4871  0.7458
19560SOL    HW161700   2.991   1.200   3.372  1.8282 -1.4293 -0.5796
19560SOL    HW261701   2.887   1.104   3.426 -0.0743 -0.5343 -2.5627
19561SOL     OW61702   6.407   0.838   0.271 -0.2224 -0.1963 -0.0960
19561SOL    HW161703   6.435   0.904   0.207 -0.3833  0.5249  0.5726
19561SOL    HW261704   6.356   0.887   0.335 -1.8456 -1.2709 -0.5340
19562SOL     OW61705   6.597   4.606   1.217 -0.6709 -0.2876  0.2395
19562SOL    HW161706   6.543   4.616   1.139  0.8844  0.5343 -0.7763
19562SOL    HW261707   6.673   4.555   1.188  0.1548  0.4283  1.0742
19563SOL     OW61708   8.166   0.497   4.098  0.1971 -0.2494  0.1748
19563SOL    HW161709   8.101   0.448   4.049 -0.5920  0.0446  0.9055
19563SOL    HW261710   8.115   0.564   4.144  0.8656 -0.7446  1.6639
19564SOL     OW61711   6.564   7.547   1.108 -0.2690 -0.3101  0.0477
19564SOL    HW161712   6.602   7.554   1.020 -3.4501 -0.2634 -1.4085
19564SOL    HW261713   6.574   7.455   1.131  0.1308 -0.4281 -0.5744
19565SOL     OW61714   1.948   0.071   1.266  0.1081 -0.4436  0.2687
19565SOL    HW161715   1.927   0.071   1.360  0.7291  0.9128  0.4182
19565SOL    HW261716   1.873   0.114   1.225  0.8830  1.0593  0.4034
19566SOL     OW61717   3.328   8.235   1.183 -0.0305  0.1010  0.5979
19566SOL    HW161718   3.304   8.184   1.261  0.2165 -0.7762  0.1041
19566SOL    HW261719   3.357   8.169   1.120 -0.9994  0.7281 -0.5204
19567SOL     OW61720   0.459   6.040   2.704 -0.1308 -0.1227 -0.4142
19567SOL    HW161721   0.366   6.058   2.712 -0.5121 -1.9587 -0.4198
19567SOL    HW261722   0.466   5.982   2.628  0.6133 -2.5907  1.4716
19568SOL     OW61723   0.350   7.298   4.743 -0.3792 -0.5267 -0.0895
19568SOL    HW161724   0.404   7.342   4.809  0.6278 -0.9415 -0.6231
19568SOL    HW261725   0.284   7.363   4.719 -1.5459 -0.7858  2.2214
19569SOL     OW61726   7.809   1.937   3.816  0.5687 -0.1226  0.0539
19569SOL    HW161727   7.846   1.977   3.738 -0.6248  0.2277 -0.3418
19569SOL    HW261728   7.846   1.848   3.818 -1.1729 -0.9537 -2.1895
19570SOL     OW61729   8.869   1.765   3.111  0.3582  0.3627 -0.4708
19570SOL    HW161730   8.944   1.798   3.161  0.9216 -1.7134  0.0921
19570SOL    HW261731   8.909   1.714   3.040 -0.5096 -1.9395  0.6493
19571SOL     OW61732   4.103   5.909   7.134 -0.0429  0.0473 -0.6525
19571SOL    HW161733   4.170   5.846   7.161  0.9178  1.8803  1.4106
19571SOL    HW261734   4.037   5.904   7.204 -0.8750 -0.0063 -1.4386
19572SOL     OW61735   1.208   3.007   6.165 -0.2542  0.6331 -0.1524
19572SOL    HW161736   1.252   2.928   6.133  0.9713  2.5750 -3.5067
19572SOL    HW261737   1.276   3.055   6.213  0.1353  1.5621 -1.6098
19573SOL     OW61738   7.487   8.612   6.136 -0.5254 -0.1888  0.5895
19573SOL    HW161739   7.419   8.547   6.120  0.2963 -1.3037  1.4499
19573SOL    HW261740   7.489   8.621   6.232  1.1759 -0.9111  0.6457
19574SOL     OW61741   7.490   6.324   6.853 -0.4955 -0.0264  0.1634
19574SOL    HW161742   7.475   6.294   6.942 -2.2085  1.2469  0.3186
19574SOL    HW261743   7.585   6.335   6.847 -0.4148  0.3982  1.9953
19575SOL     OW61744   3.392   5.244   2.537  0.7726 -0.1198  0.0145
19575SOL    HW161745   3.487   5.253   2.540  0.7813  0.0294 -0.6542
19575SOL    HW261746   3.377   5.152   2.517  0.7602 -0.3690  1.1523
19576SOL     OW61747   7.087   3.690   6.168 -0.1498 -0.2037 -0.1639
19576SOL    HW161748   7.143   3.738   6.107  0.6164  0.0893  0.7639
19576SOL    HW261749   6.999   3.702   6.134  0.2815 -0.1100 -1.2639
19577SOL     OW61750   4.238   9.204   1.807 -0.1182  0.1925  0.0847
19577SOL    HW161751   4.256   9.162   1.723 -2.9465 -1.9028  0.4366
19577SOL    HW261752   4.292   9.156   1.869 -1.0013 -0.9195  0.0160
19578SOL     OW61753   0.752   2.430   0.521 -0.4700  0.0383 -0.4024
19578SOL    HW161754   0.728   2.353   0.470  1.0883  0.2713 -1.5228
19578SOL    HW261755   0.707   2.503   0.477 -0.2502  0.0520 -0.6032
19579SOL     OW61756   1.487   9.386   0.369 -0.1217  0.7894  0.0707
19579SOL    HW161757   1.487   9.344   0.282  4.7032  1.9642 -0.6524
19579SOL    HW261758   1.470   9.314   0.430  0.4426 -0.8123 -1.6054
19580SOL     OW61759   2.356   6.847   2.210 -0.4136  0.0594  0.2420
19580SOL    HW161760   2.331   6.934   2.179 -0.4849  0.6781  2.0153
19580SOL    HW261761   2.282   6.818   2.264  0.2018 -0.5153  0.7902
19581SOL     OW61762   1.651   8.902   0.147  0.4409 -0.0653 -0.1521
19581SOL    HW161763   1.598   8.832   0.110 -1.7780  1.2956  0.3955
19581SOL    HW261764   1.594   8.944   0.212  1.8264  2.0846 -0.2825
19582SOL     OW61765   2.731   0.846   7.181 -0.0804 -0.1242 -0.4315
19582SOL    HW161766   2.792   0.832   7.109  0.0622 -0.0432 -0.3294
19582SOL    HW261767   2.768   0.795   7.253 -0.3917 -0.4580 -0.5088
19583SOL     OW61768   3.898   3.969   1.744  0.6400  0.0235 -0.1857
19583SOL    HW161769   3.910   3.912   1.668  1.6213 -0.3113  0.2167
19583SOL    HW261770   3.986   3.983   1.778  0.4229  1.8872 -0.3561
19584SOL     OW61771   1.328   6.426   1.225  0.1577 -0.3174 -0.3116
19584SOL    HW161772   1.337   6.511   1.182 -0.4999 -0.0915 -0.0111
19584SOL    HW261773   1.418   6.393   1.233  0.4754  0.6552  0.1969
19585SOL     OW61774   1.174   8.621   2.216  0.3936  0.4811  0.6546
19585SOL    HW161775   1.220   8.537   2.223  0.0043  0.3428  1.7043
19585SOL    HW261776   1.193   8.652   2.128  3.0367  0.7685  1.2997
19586SOL     OW61777   0.258   9.015   8.382 -0.3744 -0.3872 -0.3595
19586SOL    HW161778   0.163   9.015   8.374 -0.5862 -0.3121  1.9120
19586SOL    HW261779   0.283   9.107   8.380 -0.5776 -0.2816  1.3019
19587SOL     OW61780   5.242   5.273   7.194 -0.0457 -0.5116 -0.0192
19587SOL    HW161781   5.288   5.259   7.111  0.6660 -0.3580  0.3421
19587SOL    HW261782   5.259   5.365   7.215 -2.4759  0.2092 -1.0456
19588SOL     OW61783   4.366   0.797   3.363 -0.4907  0.2301 -0.4262
19588SOL    HW161784   4.456   0.819   3.385 -0.6120  0.4145 -0.1015
19588SOL    HW261785   4.320   0.881   3.363 -0.7938  0.0665  0.0438
19589SOL     OW61786   6.700   5.247   2.567 -0.4456 -0.3114 -0.0613
19589SOL    HW161787   6.644   5.172   2.587 -3.3509  1.3970 -1.4272
19589SOL    HW261788   6.646   5.324   2.589  1.6467  1.3995 -0.7134
19590SOL     OW61789   5.866   8.510   1.671  0.2619 -0.0162  0.2232
19590SOL    HW161790   5.923   8.557   1.610  0.5615 -1.0357 -0.2867
19590SOL    HW261791   5.793   8.480   1.616  0.7001 -1.2250  0.2861
19591SOL     OW61792   0.825   8.624   0.450 -0.4153  0.2064  0.0927
19591SOL    HW161793   0.873   8.573   0.516 -0.1499  0.9315  0.4664
19591SOL    HW261794   0.754   8.566   0.421  1.0387 -1.1393 -0.9172
19592SOL     OW61795   3.902   8.535   9.011  0.0720 -0.0205  0.0337
19592SOL    HW161796   3.993   8.511   9.031 -0.1843 -1.6548 -0.6458
19592SOL    HW261797   3.893   8.516   8.917 -0.7149  0.9692 -0.0949
19593SOL     OW61798   4.524   0.469   3.370 -0.2655  0.2733  0.4598
19593SOL    HW161799   4.494   0.385   3.335  2.2504 -0.9132  1.0590
19593SOL    HW261800   4.526   0.456   3.465 -2.4918  1.9418  0.7911
19594SOL     OW61801   5.664   4.704   4.883  0.1001  0.2203 -0.3892
19594SOL    HW161802   5.641   4.796   4.897 -0.6992  0.4077 -2.7030
19594SOL    HW261803   5.580   4.659   4.877  0.4918 -0.9457  2.2195
19595SOL     OW61804   3.214   1.467   9.092  0.0428  0.0195 -0.5622
19595SOL    HW161805   3.298   1.505   9.117  0.8713 -1.2794 -1.3451
19595SOL    HW261806   3.235   1.400   9.027 -1.3727 -1.7221  0.6945
19596SOL     OW61807   2.152   2.084   7.574 -0.1012  0.0780 -0.4078
19596SOL    HW161808   2.065   2.100   7.538 -0.9882 -1.0689  1.1733
19596SOL    HW261809   2.141   2.009   7.632  1.4969  1.2426  1.4583
19597SOL     OW61810   1.123   8.056   5.082 -0.3842  1.0286 -0.4268
19597SOL    HW161811   1.135   8.000   5.159 -0.6657  0.8346 -0.5244
19597SOL    HW261812   1.103   8.143   5.119 -1.7650  0.6601 -0.2832
19598SOL     OW61813   6.795   3.045   1.552  0.0198 -0.2824  0.0267
19598SOL    HW161814   6.724   3.076   1.608  1.0410  0.6779  0.8026
19598SOL    HW261815   6.838   3.125   1.521  2.2627 -0.8471  1.5000
19599SOL     OW61816   1.672   2.288   3.740  0.2851  0.8257  0.0765
19599SOL    HW161817   1.579   2.310   3.739  0.4439  1.5387  0.6671
19599SOL    HW261818   1.703   2.321   3.824  0.9089 -0.0998  0.2169
19600SOL     OW61819   2.339   6.301   1.161  0.5325 -0.3321 -0.5522
19600SOL    HW161820   2.278   6.235   1.192  1.5272 -1.5322 -1.1229
19600SOL    HW261821   2.423   6.256   1.155  1.1135  0.8364 -1.4559
19601SOL     OW61822   7.970   2.567   5.626 -0.0829 -0.2950  0.3299
19601SOL    HW161823   8.054   2.522   5.624 -0.9539 -1.9447 -0.2548
19601SOL    HW261824   7.974   2.623   5.704  0.6236 -2.1607  1.6580
19602SOL     OW61825   7.065   3.947   4.379 -0.1874  0.5058 -0.0092
19602SOL    HW161826   7.052   4.042   4.378  0.7522  0.6259 -1.5531
19602SOL    HW261827   6.981   3.911   4.353 -0.1624  0.9585 -0.7147
19603SOL     OW61828   9.369   5.197   5.195 -0.2512 -0.8643 -0.5383
19603SOL    HW161829   9.405   5.125   5.143  0.0648  0.7584 -2.6689
19603SOL    HW261830   9.276   5.198   5.173  0.1802  0.9031 -2.5229
19604SOL     OW61831   6.592   8.708   5.182  0.0285  0.1959 -0.4076
19604SOL    HW161832   6.569   8.790   5.138 -0.7452  0.3264  0.2253
19604SOL    HW261833   6.558   8.639   5.125 -2.1095  0.3917  0.5799
19605SOL     OW61834   5.080   1.910   0.858  0.2024 -0.1403  0.3785
19605SOL    HW161835   5.162   1.939   0.896 -0.1823  0.0264  1.0959
19605SOL    HW261836   5.013   1.934   0.923 -0.4239 -0.1550 -0.2485
19606SOL     OW61837   4.776   5.366   2.087 -0.5530 -0.0023 -0.5874
19606SOL    HW161838   4.867   5.336   2.087 -0.3939  0.4777 -0.1308
19606SOL    HW261839   4.779   5.453   2.128 -1.7249 -1.4710  2.7670
19607SOL     OW61840   2.643   1.934   2.061 -0.5803  0.3159 -0.3387
19607SOL    HW161841   2.601   1.849   2.074 -0.2937  0.0073 -1.4124
19607SOL    HW261842   2.575   1.998   2.080 -1.1665 -0.1665 -0.8138
19608SOL     OW61843   7.650   8.567   1.356 -0.1405  0.1055 -0.3818
19608SOL    HW161844   7.714   8.624   1.313  1.3791  0.4665  2.2455
19608SOL    HW261845   7.646   8.489   1.300  1.8578  0.5038 -1.1361
19609SOL     OW61846   6.036   8.516   6.593 -0.3839  0.2547 -0.0648
19609SOL    HW161847   6.061   8.496   6.503 -0.7636 -0.9761  0.0907
19609SOL    HW261848   6.023   8.611   6.594 -1.3670  0.1530 -1.5520
19610SOL     OW61849   0.412   6.233   9.373  0.6431 -0.6045  0.2606
19610SOL    HW161850   0.404   6.138   9.383 -0.1135 -0.5480  0.2564
19610SOL    HW261851   0.431   6.265   9.461  3.0389 -0.9565 -0.1098
19611SOL     OW61852   3.321   2.716   2.461  0.0366  0.2974  0.1398
19611SOL    HW161853   3.294   2.629   2.491  1.3862  0.0052  0.5239
19611SOL    HW261854   3.380   2.699   2.388  1.3639  0.8459  1.0800
19612SOL     OW61855   2.052   9.157   8.750 -0.0172 -0.0713  0.5906
19612SOL    HW161856   2.087   9.242   8.775  1.3164  0.6001 -3.3691
19612SOL    HW261857   2.107   9.094   8.797  1.0936  1.1449  0.9411
19613SOL     OW61858   7.156   9.387   6.210 -0.0835 -0.0408 -0.3641
19613SOL    HW161859   7.204   9.355   6.286  1.0244 -0.4162 -1.2155
19613SOL    HW261860   7.097   9.454   6.246  1.2617  0.6340  0.6633
19614SOL     OW61861   5.460   2.781   1.996  0.3847 -0.0368  0.2563
19614SOL    HW161862   5.526   2.717   2.025  1.5537  1.8928  1.9748
19614SOL    HW261863   5.389   2.728   1.960  2.4809 -2.2081 -0.7897
19615SOL     OW61864   3.736   6.463   2.049  0.7153  0.4983 -0.0561
19615SOL    HW161865   3.733   6.409   1.970 -0.8003  1.9388 -1.0196
19615SOL    HW261866   3.717   6.552   2.017 -1.6523  0.8174  2.1751
19616SOL     OW61867   8.291   2.655   1.425  0.2228  0.5061  0.0871
19616SOL    HW161868   8.365   2.667   1.486 -0.6151  2.1883  0.8223
19616SOL    HW261869   8.216   2.636   1.481 -0.3909  1.2522 -0.4607
19617SOL     OW61870   6.431   2.661   3.980 -0.0028  0.1438  0.0839
19617SOL    HW161871   6.373   2.720   3.931 -1.6458 -3.4043 -2.4562
19617SOL    HW261872   6.515   2.667   3.934 -0.2175  0.3826 -0.2868
19618SOL     OW61873   2.124   3.760   0.174 -0.3365  0.0102 -0.0968
19618SOL    HW161874   2.104   3.805   0.256  0.9362 -1.1807  0.8760
19618SOL    HW261875   2.085   3.674   0.183  0.8410 -0.5485 -0.2502
19619SOL     OW61876   0.931   7.886   3.132 -0.3892  0.8283  0.2842
19619SOL    HW161877   0.902   7.905   3.221 -1.6247  0.6658 -0.0612
19619SOL    HW261878   0.965   7.969   3.099  1.2895  0.5801  1.3340
19620SOL     OW61879   8.425   4.149   2.624 -0.4284  0.0891 -0.2803
19620SOL    HW161880   8.450   4.225   2.676 -2.8352  2.3108 -2.1943
19620SOL    HW261881   8.329   4.152   2.621 -0.5670 -2.9210 -0.5961
19621SOL     OW61882   2.821   1.113   6.886 -0.0174  0.6447 -0.0706
19621SOL    HW161883   2.789   1.177   6.822 -1.5769  0.0932  0.1331
19621SOL    HW261884   2.741   1.073   6.921  0.9046 -0.4872  0.7490
19622SOL     OW61885   3.028   6.538   2.112  0.3105  0.1402  0.0670
19622SOL    HW161886   2.950   6.591   2.127  1.2644  2.2605 -2.2428
19622SOL    HW261887   2.994   6.455   2.078 -1.0056  0.3150  0.9110
19623SOL     OW61888   6.255   8.534   1.483  0.3709  0.1995  0.0043
19623SOL    HW161889   6.161   8.551   1.490  0.2348 -0.6639  0.3668
19623SOL    HW261890   6.263   8.473   1.410  0.2871 -2.3106  2.0003
19624SOL     OW61891   5.690   1.280   5.944 -0.0724  0.2371 -0.5322
19624SOL    HW161892   5.735   1.197   5.961 -0.9306 -0.6950 -2.6321
19624SOL    HW261893   5.756   1.333   5.900 -0.1314 -0.0819 -1.0139
19625SOL     OW61894   9.191   2.304   6.857  0.2918  0.4030  0.3312
19625SOL    HW161895   9.247   2.362   6.805 -0.1391  0.7464  0.2509
19625SOL    HW261896   9.218   2.216   6.832  0.0075  0.5637 -0.5671
19626SOL     OW61897   1.918   1.606   4.981 -0.2761  0.2596 -0.8436
19626SOL    HW161898   1.919   1.628   5.075  1.1734 -0.0308 -0.7825
19626SOL    HW261899   1.955   1.683   4.938 -0.0706  0.0225 -1.0940
19627SOL     OW61900   8.167   0.337   8.707 -0.2357 -0.3409  0.2272
19627SOL    HW161901   8.102   0.406   8.690 -0.4778 -0.3185  1.2144
19627SOL    HW261902   8.191   0.349   8.799  0.6127 -0.8278  0.0750
19628SOL     OW61903   2.868   2.349   5.792  0.1024  0.1265 -0.4802
19628SOL    HW161904   2.854   2.438   5.760  0.8923  0.5698  0.3826
19628SOL    HW261905   2.794   2.333   5.851 -1.3897 -0.7164 -2.5410
19629SOL     OW61906   9.041   7.076   2.646 -0.0303  0.0304  0.0888
19629SOL    HW161907   8.987   7.087   2.568 -1.0482 -0.4082  0.7243
19629SOL    HW261908   9.127   7.051   2.613 -0.3558  0.2155 -0.9021
19630SOL     OW61909   6.253   2.403   7.831 -0.7442  1.1414  0.6280
19630SOL    HW161910   6.174   2.408   7.884  0.0517 -0.2227  2.0148
19630SOL    HW261911   6.325   2.411   7.895  0.2343 -0.3555 -0.2402
19631SOL     OW61912   2.677   7.355   7.997 -0.3397  0.1660  0.0307
19631SOL    HW161913   2.607   7.414   8.024 -0.5788 -0.4850  0.8774
19631SOL    HW261914   2.644   7.267   8.016  0.2299 -0.2151 -0.6831
19632SOL     OW61915   2.625   1.920   1.342 -0.2592  0.2434  0.4199
19632SOL    HW161916   2.705   1.870   1.325  0.7784  1.1686  2.4127
19632SOL    HW261917   2.568   1.859   1.389  0.1149  0.2059  0.8379
19633SOL     OW61918   7.659   2.230   5.299  0.1562 -0.5740  0.6488
19633SOL    HW161919   7.708   2.174   5.359 -0.2268 -0.9603  0.6024
19633SOL    HW261920   7.701   2.315   5.306 -0.1060 -0.5271  1.7265
19634SOL     OW61921   7.588   5.967   0.803  0.6150  0.0008  0.5206
19634SOL    HW161922   7.632   6.030   0.860 -0.4161 -0.0587  1.4145
19634SOL    HW261923   7.541   6.021   0.740  1.1797  0.0835  0.1681
19635SOL     OW61924   9.407   2.558   1.180  0.0635  0.0894 -0.2739
19635SOL    HW161925   9.381   2.491   1.117 -0.6216 -0.0704  0.1773
19635SOL    HW261926   9.482   2.602   1.139 -3.2092  3.1030 -3.3073
19636SOL     OW61927   8.668   7.934   3.824  0.2653  0.0254 -0.4916
19636SOL    HW161928   8.723   7.954   3.899  1.7259 -0.5951 -1.3590
19636SOL    HW261929   8.591   7.890   3.861 -0.1672  1.8660  0.8356
19637SOL     OW61930   3.339   8.468   0.422 -0.1300 -0.4184 -0.0950
19637SOL    HW161931   3.330   8.380   0.385  0.8457 -0.7526  0.4307
19637SOL    HW261932   3.281   8.468   0.498  1.4088 -1.3283  1.1272
19638SOL     OW61933   3.004   7.971   0.056 -0.4095  0.3807 -0.0649
19638SOL    HW161934   3.032   7.965   0.147 -0.5101  0.7880 -0.0087
19638SOL    HW261935   2.913   7.943   0.056  0.1121 -1.4115 -0.3180
19639SOL     OW61936   4.788   2.313   0.596  0.2652 -0.0747  0.5594
19639SOL    HW161937   4.743   2.364   0.663  1.2621  0.7189  0.6422
19639SOL    HW261938   4.724   2.303   0.526  0.1168  1.4953  0.4481
19640SOL     OW61939   9.396   6.375   7.352  0.9757  0.3484 -0.4411
19640SOL    HW161940   9.386   6.363   7.447  0.6872  2.5994 -0.1570
19640SOL    HW261941   9.479   6.421   7.343  0.0970  1.8324 -1.1230
19641SOL     OW61942   2.227   8.628   0.668  0.1939  0.0093  0.0923
19641SOL    HW161943   2.295   8.678   0.623 -0.8365  1.1686 -0.2356
19641SOL    HW261944   2.159   8.693   0.686  0.5040 -0.4512  3.1958
19642SOL     OW61945   1.673   2.109   3.246 -1.0637  0.1556 -0.0592
19642SOL    HW161946   1.676   2.115   3.341 -1.5482  1.3560 -0.1086
19642SOL    HW261947   1.725   2.031   3.225  1.2472  1.3621  1.0168
19643SOL     OW61948   6.271   2.165   8.997 -0.3969  0.3342  0.1276
19643SOL    HW161949   6.267   2.259   9.017  1.6049 -0.2355  3.6904
19643SOL    HW261950   6.365   2.145   8.994 -0.8130 -1.7194  0.2666
19644SOL     OW61951   2.134   1.795   0.583  0.0501  0.0424 -0.2504
19644SOL    HW161952   2.177   1.841   0.655  0.1397 -0.9508  0.3430
19644SOL    HW261953   2.207   1.759   0.531 -0.0269 -0.0453 -0.2982
19645SOL     OW61954   8.473   3.016   0.427 -0.0604 -0.0326  0.4281
19645SOL    HW161955   8.453   2.942   0.369 -1.1209  0.0495  0.6743
19645SOL    HW261956   8.441   3.093   0.379 -2.1409 -0.0950  1.6700
19646SOL     OW61957   7.707   8.323   2.184 -0.3623  0.1971 -0.1139
19646SOL    HW161958   7.679   8.409   2.153 -0.6623  0.1518  0.0367
19646SOL    HW261959   7.640   8.296   2.247  0.4274  0.4324  0.8358
19647SOL     OW61960   8.646   5.198   1.779  0.1936 -0.3292 -0.0927
19647SOL    HW161961   8.706   5.228   1.710  0.5622  0.4849  0.5695
19647SOL    HW261962   8.578   5.151   1.732  1.9088 -2.2058 -0.7631
19648SOL     OW61963   5.201   8.423   4.134  0.1149  0.6494  0.1366
19648SOL    HW161964   5.267   8.446   4.199  2.2725 -1.0094 -1.4212
19648SOL    HW261965   5.198   8.498   4.074  0.4954  0.7691  0.2714
19649SOL     OW61966   4.135   9.329   8.519  0.5972  0.6444 -0.0955
19649SOL    HW161967   4.082   9.388   8.466 -0.3221  0.6116  0.7783
19649SOL    HW261968   4.180   9.386   8.581  1.3880  0.6442 -0.6667
19650SOL     OW61969   0.466   2.147   9.068  0.4284 -0.1680  0.3401
19650SOL    HW161970   0.560   2.133   9.053  0.3739 -0.3744  0.1865
19650SOL    HW261971   0.425   2.064   9.043  0.1658  0.0524  0.0283
19651SOL     OW61972   0.064   9.346   9.075 -0.1874  0.3086 -0.0762
19651SOL    HW161973   0.072   9.306   9.162 -1.8764 -1.4906 -0.7206
19651SOL    HW261974   0.036   9.436   9.093  0.4856  0.2766  1.2619
19652SOL     OW61975   0.011   3.363   3.396  0.8670  0.2394 -0.2651
19652SOL    HW161976   0.098   3.324   3.400  0.3924 -0.7548  0.4566
19652SOL    HW261977  -0.005   3.378   3.302  0.9842 -1.4481 -0.5614
19653SOL     OW61978   5.055   0.679   8.196  0.1593 -0.6403  0.4121
19653SOL    HW161979   5.140   0.708   8.163  0.4449 -0.8331  0.9701
19653SOL    HW261980   4.993   0.743   8.160  0.4541 -0.8588 -0.5132
19654SOL     OW61981   2.854   2.679   4.992  0.6144 -0.4788  0.4428
19654SOL    HW161982   2.788   2.634   4.939  0.4414 -1.7319  1.6879
19654SOL    HW261983   2.936   2.637   4.969  0.7889  0.1927 -0.1501
19655SOL     OW61984   8.573   2.902   6.088 -0.1406 -0.0002  0.0667
19655SOL    HW161985   8.589   2.888   6.181 -1.0190  1.6864  0.4993
19655SOL    HW261986   8.492   2.953   6.085 -0.1191 -0.0256 -1.6225
19656SOL     OW61987   5.121   2.775   2.135 -0.4666  0.1202  0.2649
19656SOL    HW161988   5.136   2.868   2.149 -0.6586  0.1405  0.3494
19656SOL    HW261989   5.151   2.733   2.216 -1.0749  0.1843  0.5304
19657SOL     OW61990   7.727   8.118   6.068 -0.3539 -0.0297  0.3280
19657SOL    HW161991   7.635   8.135   6.049  0.0378 -0.3615 -1.9851
19657SOL    HW261992   7.728   8.030   6.107 -0.9590 -0.2083 -0.0637
19658SOL     OW61993   9.382   1.058   8.078  0.0573 -0.2509 -0.4981
19658SOL    HW161994   9.439   1.075   8.154 -0.0049 -0.4065 -0.4170
19658SOL    HW261995   9.434   1.000   8.022 -0.6165 -1.6232  0.2952
19659SOL     OW61996   2.825   0.422   5.508 -0.1873 -0.2470 -0.1552
19659SOL    HW161997   2.830   0.396   5.416 -1.5904 -0.2689 -0.2358
19659SOL    HW261998   2.858   0.346   5.556  0.4552 -0.2725 -0.6332
19660SOL     OW61999   8.293   5.971   0.168 -0.2123 -0.1252  0.7829
19660SOL    HW162000   8.313   5.879   0.181  1.4840  0.0638 -0.4363
19660SOL    HW262001   8.377   6.015   0.173 -0.9401  1.3039  0.7580
19661SOL     OW62002   1.695   2.608   0.385  0.7421 -0.4205  0.2276
19661SOL    HW162003   1.715   2.677   0.449  2.7907  0.3434 -1.1664
19661SOL    HW262004   1.773   2.552   0.387  1.0396 -0.1004 -1.9459
19662SOL     OW62005   4.126   1.552   5.411 -0.5813  0.1286  0.0720
19662SOL    HW162006   4.105   1.578   5.321  0.2414  0.4409 -0.0308
19662SOL    HW262007   4.145   1.458   5.405 -1.8198 -0.1334  0.1461
19663SOL     OW62008   8.018   2.811   5.250  0.0041 -0.1096  0.6354
19663SOL    HW162009   8.102   2.854   5.239  0.6850 -1.3353  0.8862
19663SOL    HW262010   8.037   2.718   5.239 -1.4014 -0.3668  0.2234
19664SOL     OW62011   5.642   0.114   1.154  0.3178  0.4179  0.3462
19664SOL    HW162012   5.709   0.149   1.213 -0.5302  0.5212  1.2488
19664SOL    HW262013   5.598   0.191   1.119  0.5097  0.3434 -0.0543
19665SOL     OW62014   9.372   6.360   1.424  1.0391  0.0114  0.1397
19665SOL    HW162015   9.313   6.436   1.422  1.9003  0.6713 -1.3913
19665SOL    HW262016   9.315   6.285   1.437  0.0438  0.8106  0.4350
19666SOL     OW62017   7.362   1.716   8.619 -0.2523  0.0578 -0.4719
19666SOL    HW162018   7.400   1.802   8.638  1.5272 -1.0822  1.2375
19666SOL    HW262019   7.417   1.681   8.548 -0.3623 -0.1011 -0.4781
19667SOL     OW62020   3.703   6.408   5.916 -0.0437 -0.0449  0.3553
19667SOL    HW162021   3.635   6.348   5.949 -0.1195 -0.2012 -0.0924
19667SOL    HW262022   3.656   6.469   5.860  0.3199 -0.6698 -0.6325
19668SOL     OW62023   5.358   1.035   2.859 -0.2056  0.1775 -0.6722
19668SOL    HW162024   5.438   1.038   2.910  0.0658  2.1046 -1.1381
19668SOL    HW262025   5.292   1.079   2.913 -0.4588  0.2953 -1.0637
19669SOL     OW62026   5.537   1.357   2.363 -0.2428 -0.3431  0.1817
19669SOL    HW162027   5.462   1.413   2.343  0.1355  0.4190  0.8561
19669SOL    HW262028   5.506   1.268   2.346 -1.0000  0.0365 -0.4566
19670SOL     OW62029   4.851   9.092   7.264 -0.5513  0.2087  0.0994
19670SOL    HW162030   4.776   9.097   7.324 -1.5041 -0.2920 -1.0398
19670SOL    HW262031   4.813   9.098   7.177  0.6910 -0.5925 -0.5109
19671SOL     OW62032   1.741   4.380   8.636 -0.1755 -0.0195  0.3999
19671SOL    HW162033   1.678   4.451   8.629  0.4900  0.5390  0.0535
19671SOL    HW262034   1.775   4.369   8.547  1.3259  0.7013  0.8683
19672SOL     OW62035   7.253   1.469   8.084  0.6928  0.0143 -0.0225
19672SOL    HW162036   7.324   1.405   8.071  2.3686  1.8149  0.1379
19672SOL    HW262037   7.199   1.431   8.154  2.8872 -0.1999  1.5924
19673SOL     OW62038   6.067   8.451   5.126 -0.1804  0.4518  0.0774
19673SOL    HW162039   6.044   8.371   5.080 -2.0487  0.7482  0.4386
19673SOL    HW262040   5.990   8.507   5.116  0.1487  1.2654  1.8581
19674SOL     OW62041   6.522   8.548   7.880 -0.0842 -0.0831  0.0347
19674SOL    HW162042   6.472   8.626   7.856 -0.3761 -0.5563 -0.9202
19674SOL    HW262043   6.523   8.495   7.801 -0.4310 -1.3434  0.8614
19675SOL     OW62044   2.270   5.771   1.095  0.3454  0.1730 -0.1988
19675SOL    HW162045   2.307   5.705   1.036  0.4568 -0.1675  0.2412
19675SOL    HW262046   2.347   5.816   1.131  0.2063  1.9029 -2.0172
19676SOL     OW62047   5.965   7.967   6.015 -0.1640 -0.1770 -0.3363
19676SOL    HW162048   5.986   8.059   5.998 -1.7721  0.5809  1.5401
19676SOL    HW262049   5.935   7.933   5.931  0.7934  0.9033 -1.1362
19677SOL     OW62050   7.085   5.618   7.309 -0.2812 -1.0697 -0.4292
19677SOL    HW162051   7.069   5.680   7.381 -0.3288 -0.9807 -0.5161
19677SOL    HW262052   7.042   5.658   7.233  1.9244  0.1030 -1.1194
19678SOL     OW62053   5.198   5.849   2.235 -0.2927  0.2622 -0.4780
19678SOL    HW162054   5.228   5.926   2.187  2.3722 -1.0787 -1.0574
19678SOL    HW262055   5.256   5.844   2.311 -0.6443 -0.9693 -0.2803
19679SOL     OW62056   1.250   7.014   0.430  0.2079  0.1011 -0.4802
19679SOL    HW162057   1.163   7.031   0.465 -0.4319 -0.0219 -2.0070
19679SOL    HW262058   1.260   6.919   0.432  0.6839  0.1659  0.5762
19680SOL     OW62059   8.753   4.807   0.423 -0.0864  0.0846 -0.0775
19680SOL    HW162060   8.839   4.829   0.460  0.6275 -0.4371 -1.4010
19680SOL    HW262061   8.773   4.768   0.338 -1.4923 -2.3851  0.6619
19681SOL     OW62062   3.165   8.730   4.838  0.3718  0.0217 -0.1033
19681SOL    HW162063   3.183   8.660   4.775 -0.4213 -0.1001 -0.2027
19681SOL    HW262064   3.196   8.696   4.922  1.6480  0.2773 -0.4685
19682SOL     OW62065   5.057   0.848   4.397  0.2718 -0.2394 -0.2256
19682SOL    HW162066   5.042   0.856   4.491  0.5497 -1.0287 -0.1063
19682SOL    HW262067   5.123   0.915   4.377 -1.3241  1.3628 -0.2551
19683SOL     OW62068   2.904   9.140   5.393  0.2788 -0.3968 -0.1054
19683SOL    HW162069   2.862   9.225   5.407  0.3463 -0.4311  0.2889
19683SOL    HW262070   2.831   9.078   5.389  0.0301 -0.0151 -2.8159
19684SOL     OW62071   1.172   0.303   1.125  0.1238 -0.1361 -0.0763
19684SOL    HW162072   1.244   0.344   1.173  0.5001  0.5936 -1.2559
19684SOL    HW262073   1.116   0.265   1.194  1.3039 -0.1860  0.8749
19685SOL     OW62074   6.401   6.301   0.674 -0.2299 -0.0711  0.2749
19685SOL    HW162075   6.377   6.355   0.598 -2.9193 -0.7288  0.5992
19685SOL    HW262076   6.367   6.214   0.653  0.9532 -0.7850  1.3005
19686SOL     OW62077   2.898   7.769   3.492  0.6078 -0.1289  0.6033
19686SOL    HW162078   2.830   7.705   3.514  0.0074  0.0016 -0.7632
19686SOL    HW262079   2.946   7.729   3.419  1.7721 -0.0581  1.3167
19687SOL     OW62080   2.457   2.248   3.491  0.2535 -0.3338  0.3773
19687SOL    HW162081   2.448   2.199   3.573 -0.1096 -2.2634 -0.7719
19687SOL    HW262082   2.537   2.300   3.503 -0.8900  0.9812  2.6966
19688SOL     OW62083   0.106   1.133   3.617  0.1921 -0.2186  0.5619
19688SOL    HW162084   0.164   1.134   3.694  0.5034  1.5205  0.3168
19688SOL    HW262085   0.017   1.134   3.654  0.2663 -3.1198  0.9408
19689SOL     OW62086   3.611   4.011   6.511 -0.3319  0.1064 -0.5879
19689SOL    HW162087   3.667   3.967   6.447  1.1008  1.1799 -0.0869
19689SOL    HW262088   3.670   4.040   6.580 -1.6816  0.1678  0.5700
19690SOL     OW62089   9.010   2.622   5.844 -0.0407 -0.3690 -0.0287
19690SOL    HW162090   9.068   2.585   5.777  2.1026  1.0582  0.9887
19690SOL    HW262091   9.050   2.596   5.927 -0.6532  0.9333  0.6884
19691SOL     OW62092   9.159   0.551   8.018 -0.0583  0.1889 -0.0775
19691SOL    HW162093   9.077   0.530   8.063 -1.6123  1.5059 -2.1990
19691SOL    HW262094   9.182   0.638   8.050 -1.4649  1.3714 -2.1251
19692SOL     OW62095   0.232   8.608   5.966 -0.2689 -0.3230  0.2453
19692SOL    HW162096   0.190   8.658   6.036 -0.9086  0.1154 -0.4502
19692SOL    HW262097   0.324   8.605   5.990 -0.7043 -1.4219  1.8766
19693SOL     OW62098   2.699   1.361   7.647 -0.5829 -0.6841  0.2999
19693SOL    HW162099   2.607   1.347   7.623 -1.5275  2.7426  1.7387
19693SOL    HW262100   2.719   1.290   7.708 -2.2551 -1.4606 -0.0257
19694SOL     OW62101   7.939   5.461   8.489  0.5110 -0.5281 -0.2998
19694SOL    HW162102   8.024   5.465   8.533  0.5536 -0.9135 -0.3411
19694SOL    HW262103   7.891   5.393   8.536 -0.7078  1.4278  1.3399
19695SOL     OW62104   8.212   5.774   5.420  0.1008  0.5723  0.1249
19695SOL    HW162105   8.291   5.827   5.419  1.1013 -0.9106 -1.2432
19695SOL    HW262106   8.227   5.706   5.355 -2.1324  0.0156  0.1360
19696SOL     OW62107   4.775   4.544   6.643 -0.3271  0.3628 -0.4663
19696SOL    HW162108   4.723   4.583   6.713 -0.7192  0.1426 -0.6330
19696SOL    HW262109   4.740   4.456   6.632 -0.3221  0.4212 -0.9910
19697SOL     OW62110   6.140   3.923   1.498  0.3283 -0.3774 -0.1933
19697SOL    HW162111   6.220   3.890   1.540  1.6671  0.9499 -1.6085
19697SOL    HW262112   6.170   3.954   1.412 -1.1302  2.9685  0.4299
19698SOL     OW62113   4.508   3.450   1.387  0.2533  0.1873  0.6982
19698SOL    HW162114   4.522   3.398   1.308 -0.8561  0.3517  0.3713
19698SOL    HW262115   4.570   3.416   1.451  1.8480  0.7083 -0.5483
19699SOL     OW62116   2.391   2.100   4.187  0.7366  0.2085 -0.3940
19699SOL    HW162117   2.448   2.065   4.256  0.2361 -0.7284 -0.4527
19699SOL    HW262118   2.414   2.050   4.109 -0.6477 -0.6583 -0.2606
19700SOL     OW62119   9.045   4.799   7.656  0.3382  0.2066  0.3192
19700SOL    HW162120   9.033   4.811   7.561 -1.3761 -1.1738  0.3534
19700SOL    HW262121   9.031   4.886   7.693  0.9406  0.7379 -0.6729
19701SOL     OW62122   6.677   6.262   0.199 -0.2818 -0.0447  0.3041
19701SOL    HW162123   6.690   6.355   0.185 -1.0184  0.1849  1.1440
19701SOL    HW262124   6.667   6.253   0.294 -0.5174 -0.9377  0.1972
19702SOL     OW62125   1.056   9.358   0.585 -0.3312 -0.3187  0.0234
19702SOL    HW162126   1.127   9.379   0.645 -1.0971  2.0015  0.1747
19702SOL    HW262127   1.056   9.430   0.522 -1.4678 -1.1636 -0.9728
19703SOL     OW62128   9.155   1.339   3.770 -0.5137 -0.6255  0.5133
19703SOL    HW162129   9.141   1.379   3.855  1.6206  0.0423  0.5688
19703SOL    HW262130   9.163   1.413   3.709  2.0960 -0.9574  0.4076
19704SOL     OW62131   2.242   3.963   8.888 -0.1837  0.1311  0.1118
19704SOL    HW162132   2.327   4.000   8.913 -0.0340  1.3996 -2.1041
19704SOL    HW262133   2.195   4.037   8.850 -1.3628 -1.1100 -0.8626
19705SOL     OW62134   3.387   5.966   3.767 -0.1751 -0.0328  0.5644
19705SOL    HW162135   3.348   5.921   3.841 -0.2433 -0.4406  0.2816
19705SOL    HW262136   3.346   5.926   3.690  0.1008  0.1922  0.2975
19706SOL     OW62137   6.797   5.718   2.294  0.2110  0.2134  0.2329
19706SOL    HW162138   6.825   5.807   2.276  0.5176 -0.3590 -2.2947
19706SOL    HW262139   6.799   5.674   2.208 -2.1941 -1.5713  1.0406
19707SOL     OW62140   1.343   3.811   4.109 -0.4203  0.1772 -0.1071
19707SOL    HW162141   1.420   3.854   4.146 -1.5157  1.7717  0.3663
19707SOL    HW262142   1.334   3.848   4.021  0.0794 -0.9602 -0.6578
19708SOL     OW62143   8.860   4.725   2.732  0.1187  0.8055 -0.2557
19708SOL    HW162144   8.775   4.720   2.776  0.2382  1.3321  0.0336
19708SOL    HW262145   8.891   4.813   2.750  1.9962 -0.2718  1.9742
19709SOL     OW62146   4.103   7.479   2.656  0.2446 -0.0276  0.0776
19709SOL    HW162147   4.047   7.546   2.617  1.1210  2.0127  2.2209
19709SOL    HW262148   4.047   7.438   2.722  0.7310  0.8881  1.0744
19710SOL     OW62149   2.359   1.411   0.598  0.1946  0.0027 -0.1252
19710SOL    HW162150   2.320   1.324   0.589  1.6529 -0.6973 -0.0106
19710SOL    HW262151   2.309   1.453   0.667 -0.2178 -0.9449  0.1668
19711SOL     OW62152   2.545   7.121   8.150  0.4275  0.4545 -0.4084
19711SOL    HW162153   2.535   7.033   8.185  0.0293 -0.1471 -1.9934
19711SOL    HW262154   2.579   7.173   8.224 -0.9968 -0.6134  1.0266
19712SOL     OW62155   2.667   1.497   5.356 -0.1371 -0.5834  0.1506
19712SOL    HW162156   2.672   1.404   5.377  0.2157 -0.8517 -1.0666
19712SOL    HW262157   2.574   1.516   5.355 -0.3526 -1.5844 -2.2964
19713SOL     OW62158   5.706   2.988   9.407  0.1044  0.0435  0.9250
19713SOL    HW162159   5.684   3.034   9.325 -0.3802  1.6511  1.9353
19713SOL    HW262160   5.639   2.920   9.414 -0.6463  0.7423  0.6507
19714SOL     OW62161   7.220   9.060   6.485  0.4942 -0.2033 -0.4527
19714SOL    HW162162   7.191   8.975   6.450  0.6090 -0.1296 -0.7286
19714SOL    HW262163   7.315   9.055   6.485  0.4839 -0.5739  0.7729
19715SOL     OW62164   1.827   9.152   5.932 -0.9082  0.3922 -0.0576
19715SOL    HW162165   1.853   9.184   5.846  3.5190  0.9146  1.3330
19715SOL    HW262166   1.871   9.067   5.940 -1.2103  0.3777  1.7100
19716SOL     OW62167   0.125   1.897   8.317  0.0061 -0.5706 -0.0475
19716SOL    HW162168   0.215   1.902   8.286  0.2037  0.4098  0.6931
19716SOL    HW262169   0.105   1.984   8.351 -1.5303 -0.5122 -1.0491
19717SOL     OW62170   1.880   1.274   1.122  0.4998  0.2812  0.3207
19717SOL    HW162171   1.881   1.190   1.167 -0.9196  0.8156  1.3909
19717SOL    HW262172   1.831   1.258   1.042  0.9519 -0.1106  0.1253
19718SOL     OW62173   5.139   9.305   6.081  0.3293  0.4330  0.3164
19718SOL    HW162174   5.109   9.308   5.990  0.7590  1.0755  0.1943
19718SOL    HW262175   5.221   9.354   6.081  1.3798 -1.2959  0.6475
19719SOL     OW62176   0.932   3.951   3.623  0.2374 -0.0137  0.1202
19719SOL    HW162177   1.023   3.980   3.623  0.2605 -0.0813 -1.0192
19719SOL    HW262178   0.901   3.970   3.712  0.8058  1.7278 -0.0414
19720SOL     OW62179   8.853   2.598   8.402 -0.2954  0.0663  0.0541
19720SOL    HW162180   8.923   2.578   8.463 -0.2161  0.6747  0.1668
19720SOL    HW262181   8.810   2.675   8.439 -1.5024 -0.7554  0.3911
19721SOL     OW62182   4.034   5.931   2.269 -0.0723 -0.4807 -0.6098
19721SOL    HW162183   4.120   5.944   2.310 -0.2501 -1.7974  0.2108
19721SOL    HW262184   3.974   5.921   2.343 -0.7542 -0.6655 -1.1852
19722SOL     OW62185   7.293   0.667   8.330  0.6863  0.4762 -0.3887
19722SOL    HW162186   7.208   0.641   8.367  1.4258 -0.0334  0.9819
19722SOL    HW262187   7.271   0.703   8.244 -1.1151  1.9925  0.6594
19723SOL     OW62188   9.187   0.464   7.518  0.3979  0.2396 -0.5573
19723SOL    HW162189   9.270   0.483   7.473  0.7510 -1.0690 -0.4816
19723SOL    HW262190   9.186   0.524   7.592  2.1595 -0.9360  0.4817
19724SOL     OW62191   5.700   2.449   7.808  0.0492  0.3131 -0.0254
19724SOL    HW162192   5.718   2.419   7.718 -0.6134  1.7485 -0.6527
19724SOL    HW262193   5.651   2.377   7.847  0.0102 -0.1737 -0.9385
19725SOL     OW62194   2.077   8.909   4.761 -0.1714 -0.1079 -0.7850
19725SOL    HW162195   2.149   8.848   4.744 -0.1603  0.4072 -2.7134
19725SOL    HW262196   2.089   8.978   4.696 -0.1428  2.0033  1.4097
19726SOL     OW62197   7.941   9.163   0.633 -0.2819 -0.5282  0.4870
19726SOL    HW162198   7.856   9.206   0.644  0.4083  0.8541  0.4648
19726SOL    HW262199   7.919   9.072   0.614 -1.7472 -0.3315  1.1806
19727SOL     OW62200   1.999   7.262   7.145  0.2836 -0.6613 -0.2049
19727SOL    HW162201   1.906   7.271   7.164  0.7591  1.7370  1.2872
19727SOL    HW262202   2.035   7.215   7.220  0.4574 -0.5228 -0.1996
19728SOL     OW62203   6.616   6.923   5.202 -0.0279 -0.3011 -0.0263
19728SOL    HW162204   6.610   6.880   5.117 -0.0106  0.6299 -0.5106
19728SOL    HW262205   6.708   6.915   5.227  0.2376  0.5743 -0.7151
19729SOL     OW62206   4.963   3.102   8.346  0.1716  0.2055 -0.3073
19729SOL    HW162207   4.892   3.134   8.291  1.1020 -0.7051 -2.0739
19729SOL    HW262208   5.017   3.048   8.288  1.2371 -0.7017  1.4617
19730SOL     OW62209   7.610   1.258   0.105 -0.4863 -0.1194 -0.1655
19730SOL    HW162210   7.620   1.295   0.192 -1.5568 -1.5984  0.6118
19730SOL    HW262211   7.666   1.180   0.105 -1.2362 -0.6663 -0.4507
19731SOL     OW62212   1.377   0.358   1.972 -0.1731  0.3268  0.3173
19731SOL    HW162213   1.324   0.430   2.005  0.5480  1.1342 -0.2818
19731SOL    HW262214   1.429   0.396   1.901  1.1034 -0.4844  0.7992
19732SOL     OW62215   2.516   6.215   4.427  0.2505 -0.7817  0.0423
19732SOL    HW162216   2.569   6.293   4.440 -0.8505  0.0760 -0.5590
19732SOL    HW262217   2.436   6.232   4.477  0.1491 -1.6747  0.1935
19733SOL     OW62218   8.801   7.565   1.385 -0.6143  0.6075  0.6276
19733SOL    HW162219   8.835   7.478   1.404 -0.6045  1.1010  3.0003
19733SOL    HW262220   8.706   7.554   1.383 -0.5836  0.4083  0.1884
19734SOL     OW62221   3.706   3.271   8.036  0.0048 -0.2678 -0.1828
19734SOL    HW162222   3.774   3.252   8.100 -1.0297 -0.5027  0.8572
19734SOL    HW262223   3.696   3.190   7.986 -1.7072 -1.2617  1.7271
19735SOL     OW62224   8.627   9.012   0.115 -0.3695  0.4969  0.0681
19735SOL    HW162225   8.543   8.991   0.074 -1.3869 -0.1464  2.4193
19735SOL    HW262226   8.625   9.106   0.129 -1.4274  0.2494  1.6530
19736SOL     OW62227   9.398   6.390   3.588 -0.2531  0.5023  0.2125
19736SOL    HW162228   9.329   6.337   3.628 -0.1455 -0.3903 -0.7723
19736SOL    HW262229   9.363   6.412   3.501 -0.0702  1.6034  0.4033
19737SOL     OW62230   8.100   8.261   8.237  0.1730  0.1198  0.0600
19737SOL    HW162231   8.090   8.167   8.224  0.8665  0.1833 -0.9234
19737SOL    HW262232   8.133   8.295   8.154  0.3897  1.1677  0.5528
19738SOL     OW62233   5.267   6.691   8.109  0.4924  0.2336  0.3132
19738SOL    HW162234   5.269   6.637   8.030 -0.1275 -2.2625  1.9741
19738SOL    HW262235   5.175   6.719   8.117  0.4490  0.0503  0.4512
19739SOL     OW62236   8.356   3.300   4.004  0.0755 -0.1544 -0.0119
19739SOL    HW162237   8.423   3.238   3.973  0.3696 -0.0815  0.4655
19739SOL    HW262238   8.344   3.277   4.096  1.0317  1.2443  0.4758
19740SOL     OW62239   6.247   3.667   5.869  0.1299 -0.2307 -0.1367
19740SOL    HW162240   6.221   3.652   5.960  0.4569  0.3555  0.0522
19740SOL    HW262241   6.165   3.660   5.820 -0.2353  0.5616  0.3389
19741SOL     OW62242   4.135   8.910   1.163  0.0415 -0.1429 -0.1166
19741SOL    HW162243   4.158   8.831   1.213 -0.7163 -0.1321  0.2659
19741SOL    HW262244   4.076   8.879   1.095  0.5032 -0.0448 -0.5685
19742SOL     OW62245   2.662   8.176   4.821 -0.7991 -0.0141  0.1687
19742SOL    HW162246   2.720   8.100   4.819  0.4053  0.9017 -0.7309
19742SOL    HW262247   2.719   8.250   4.801 -2.0390  1.0728  0.5940
19743SOL     OW62248   8.042   2.948   7.982 -0.0721 -0.0128 -0.9455
19743SOL    HW162249   8.073   2.898   8.058  1.1810 -1.3022 -2.2766
19743SOL    HW262250   8.001   2.883   7.925  0.0229  0.7482 -1.9073
19744SOL     OW62251   3.622   2.285   3.949 -0.0381  0.3850  0.1785
19744SOL    HW162252   3.659   2.282   4.037  0.0032 -0.0392  0.1497
19744SOL    HW262253   3.556   2.215   3.949 -0.1047  0.4492 -0.0943
19745SOL     OW62254   5.822   6.505   1.256  0.0763  0.3033 -0.2424
19745SOL    HW162255   5.886   6.566   1.293 -0.2483  1.0146 -0.8443
19745SOL    HW262256   5.753   6.561   1.220 -0.4475 -0.4342 -0.4046
19746SOL     OW62257   2.842   7.512   4.191  0.2167  0.2427 -0.4251
19746SOL    HW162258   2.797   7.570   4.253 -0.4514 -0.1018 -0.5817
19746SOL    HW262259   2.908   7.467   4.245  0.2327  0.5974 -0.1471
19747SOL     OW62260   8.824   8.206   3.121 -0.3172 -0.2219 -0.3135
19747SOL    HW162261   8.767   8.234   3.049 -0.2921 -0.4825 -0.4366
19747SOL    HW262262   8.878   8.136   3.083  0.2616  0.1906 -0.2726
19748SOL     OW62263   0.453   6.339   6.626 -0.4004 -0.7820  0.4380
19748SOL    HW162264   0.380   6.377   6.577  0.9606  0.2475 -0.8321
19748SOL    HW262265   0.442   6.244   6.615 -1.0770 -0.6128 -0.4145
19749SOL     OW62266   1.840   3.978   2.505  0.3055 -0.5676 -0.1248
19749SOL    HW162267   1.808   3.961   2.593  0.3530  1.3748  0.2903
19749SOL    HW262268   1.842   4.073   2.498  0.0736 -0.7003 -2.3099
19750SOL     OW62269   2.257   6.747   2.872  0.0856 -0.6643  0.2435
19750SOL    HW162270   2.210   6.820   2.914  0.0217 -0.3733 -0.3258
19750SOL    HW262271   2.341   6.784   2.847  0.0222 -0.7660 -0.1204
19751SOL     OW62272   7.254   2.110   2.843  0.4319 -0.4445 -0.5159
19751SOL    HW162273   7.252   2.062   2.926  2.9787  0.4006  0.0822
19751SOL    HW262274   7.278   2.044   2.778  1.7210 -0.4681 -0.0400
19752SOL     OW62275   0.835   1.037   9.080  0.0751  0.5173  0.5309
19752SOL    HW162276   0.739   1.038   9.086  0.0384 -0.5990  0.3933
19752SOL    HW262277   0.861   0.968   9.141  0.8005  0.9326  0.6853
19753SOL     OW62278   2.981   2.387   7.379 -0.0090  0.3246 -0.7740
19753SOL    HW162279   3.060   2.333   7.384 -1.5459 -1.8137  1.7527
19753SOL    HW262280   3.011   2.476   7.396  1.7525 -0.6206  1.2771
19754SOL     OW62281   6.316   0.882   2.575  0.0208 -0.0284  0.0355
19754SOL    HW162282   6.241   0.835   2.612 -0.7658  0.2040 -1.2294
19754SOL    HW262283   6.390   0.859   2.632 -0.5298 -2.1485 -0.0669
19755SOL     OW62284   5.944   5.548   5.413 -0.3059  0.4323  0.0316
19755SOL    HW162285   5.883   5.603   5.365  0.6464  0.4807 -1.1431
19755SOL    HW262286   5.992   5.500   5.345  2.0062  1.5118  0.8565
19756SOL     OW62287   1.769   5.402   1.379  0.2127  0.2532  0.1558
19756SOL    HW162288   1.744   5.489   1.411 -1.1719 -0.1910  0.2953
19756SOL    HW262289   1.734   5.341   1.444 -1.2152 -0.5639 -1.3666
19757SOL     OW62290   8.712   5.613   4.793  0.3887 -0.4955 -0.1423
19757SOL    HW162291   8.798   5.583   4.823 -1.0285 -2.5944  1.9973
19757SOL    HW262292   8.700   5.570   4.709 -0.2771 -3.5409  1.4581
19758SOL     OW62293   2.318   0.438   8.584  0.2537  0.2817 -0.4652
19758SOL    HW162294   2.390   0.486   8.542  0.9517 -0.5578 -0.2339
19758SOL    HW262295   2.359   0.359   8.618 -0.2528  1.0342  1.9845
19759SOL     OW62296   6.324   4.826   7.616 -0.5035  0.6493  0.4778
19759SOL    HW162297   6.347   4.850   7.526  0.3311 -2.4430 -0.2132
19759SOL    HW262298   6.231   4.806   7.612 -0.2930 -0.2948  0.0777
19760SOL     OW62299   0.616   6.439   8.274  0.7073  0.0411  0.0269
19760SOL    HW162300   0.671   6.516   8.291 -0.1122  0.4174  1.0442
19760SOL    HW262301   0.527   6.473   8.273  0.3485 -0.8719  0.3472
19761SOL     OW62302   1.748   3.334   2.636 -0.1689  0.3563 -0.3304
19761SOL    HW162303   1.733   3.340   2.730 -0.6805 -0.2560 -0.3756
19761SOL    HW262304   1.708   3.414   2.600 -2.3223 -0.6837 -0.3204
19762SOL     OW62305   8.772   1.888   4.281 -0.0601  0.3670  0.4099
19762SOL    HW162306   8.803   1.798   4.276 -1.1384 -0.0886  1.6929
19762SOL    HW262307   8.846   1.941   4.250  0.6936 -0.9249 -0.0164
19763SOL     OW62308   4.256   4.080   5.867  0.7576  0.5176  0.1323
19763SOL    HW162309   4.308   4.160   5.880  2.4672 -0.6639  0.7622
19763SOL    HW262310   4.320   4.013   5.843 -0.6982 -0.5996 -0.6999
19764SOL     OW62311   6.405   3.373   3.555 -0.1647 -0.2812 -0.4548
19764SOL    HW162312   6.390   3.300   3.615 -0.1419 -0.1608 -0.2997
19764SOL    HW262313   6.466   3.431   3.602 -2.2639  1.1740  0.5839
19765SOL     OW62314   9.388   1.129   0.548  0.0249  0.0648 -0.3600
19765SOL    HW162315   9.334   1.051   0.557 -0.7527  0.6246 -0.1166
19765SOL    HW262316   9.397   1.163   0.637  0.1772  0.3737 -0.4919
19766SOL     OW62317   4.440   7.628   5.501 -0.3361 -0.1607  0.3229
19766SOL    HW162318   4.397   7.545   5.482  0.7460 -0.8460  0.7888
19766SOL    HW262319   4.411   7.686   5.431 -1.8914 -0.6310  0.5570
19767SOL     OW62320   3.617   3.285   7.120  0.2113  0.2591  0.3277
19767SOL    HW162321   3.712   3.296   7.128  0.3160 -0.2988 -0.1696
19767SOL    HW262322   3.605   3.199   7.080 -0.4937  0.4726  0.0627
19768SOL     OW62323   9.387   4.182   5.846  0.5263  0.1337  0.0175
19768SOL    HW162324   9.369   4.107   5.901 -1.6373  0.7907  0.2336
19768SOL    HW262325   9.352   4.257   5.894  1.0330  1.0486 -1.0083
19769SOL     OW62326   3.098   7.237   5.946 -0.5000  0.3116 -0.2124
19769SOL    HW162327   3.033   7.232   6.015  0.7777  0.8709  1.0544
19769SOL    HW262328   3.168   7.292   5.982 -0.4273  1.7667 -2.4478
19770SOL     OW62329   8.138   0.791   8.825 -0.0343  0.2958 -0.0495
19770SOL    HW162330   8.178   0.864   8.779 -2.2743  0.6408 -1.5482
19770SOL    HW262331   8.093   0.831   8.899  0.6460  0.1532  0.4447
19771SOL     OW62332   2.262   5.348   2.038  0.0687  0.1014 -0.0884
19771SOL    HW162333   2.289   5.267   1.994 -1.2737 -1.7855  2.3849
19771SOL    HW262334   2.328   5.362   2.106  1.2886  2.1450 -1.6305
19772SOL     OW62335   7.163   5.159   0.207 -0.0257  0.3471  0.2533
19772SOL    HW162336   7.190   5.067   0.207 -0.2344  0.2785 -0.4064
19772SOL    HW262337   7.128   5.174   0.294  0.3100 -0.1104  0.4705
19773SOL     OW62338   4.142   8.241   1.657 -0.0187 -0.3225  0.4326
19773SOL    HW162339   4.115   8.286   1.738 -1.3361 -2.5191  1.2652
19773SOL    HW262340   4.202   8.302   1.615  0.7472  0.8483  3.1117
19774SOL     OW62341   2.303   8.316   8.613 -0.3181 -0.2915  0.1182
19774SOL    HW162342   2.208   8.331   8.621  0.1347  3.0244  0.2905
19774SOL    HW262343   2.318   8.319   8.518 -0.2353  0.4147  0.1507
19775SOL     OW62344   8.929   9.154   7.249  0.8619  0.0969 -0.2980
19775SOL    HW162345   8.949   9.246   7.230  1.4004  0.0448 -0.0062
19775SOL    HW262346   8.837   9.144   7.225  0.1585  1.2959  1.7795
19776SOL     OW62347   2.739   7.474   7.043 -0.1141  0.1602  0.2590
19776SOL    HW162348   2.763   7.394   7.091 -0.1600  0.1757  0.3080
19776SOL    HW262349   2.743   7.543   7.109 -0.8800  0.0653  0.4069
19777SOL     OW62350   4.373   5.560   1.692  0.3437  0.2148  0.3803
19777SOL    HW162351   4.448   5.581   1.747  1.0423  2.8565 -1.4823
19777SOL    HW262352   4.408   5.501   1.625  0.4896  0.4879  0.2152
19778SOL     OW62353   2.537   8.717   0.838  0.0758 -0.2064 -0.5431
19778SOL    HW162354   2.463   8.705   0.898  0.6812 -0.8436  0.0907
19778SOL    HW262355   2.613   8.685   0.887  0.6670 -0.2104 -1.4468
19779SOL     OW62356   2.468   4.657   7.771  0.0117  0.0515  0.5320
19779SOL    HW162357   2.526   4.650   7.695  0.3732  0.8772  0.7263
19779SOL    HW262358   2.506   4.728   7.823  0.2863 -1.0935  1.9376
19780SOL     OW62359   1.258   0.218   7.074 -0.5078 -0.1857 -0.2992
19780SOL    HW162360   1.266   0.274   7.152  1.0965 -1.5556  0.5485
19780SOL    HW262361   1.167   0.187   7.077  0.2304 -2.2124  2.4381
19781SOL     OW62362   6.206   2.555   3.774  0.1140 -0.1655 -0.0494
19781SOL    HW162363   6.169   2.637   3.807 -1.4475 -0.4308 -1.1029
19781SOL    HW262364   6.157   2.487   3.821  0.3654 -0.5089 -0.2888
19782SOL     OW62365   4.702   0.595   2.815  0.0836 -0.1195 -0.4046
19782SOL    HW162366   4.677   0.503   2.804 -0.1909 -0.4864  2.8640
19782SOL    HW262367   4.670   0.638   2.736 -0.7590 -2.6302 -1.4921
19783SOL     OW62368   8.030   4.656   5.653 -0.6161 -0.0775 -0.5548
19783SOL    HW162369   8.024   4.576   5.600 -0.6383  0.2333 -1.0260
19783SOL    HW262370   8.051   4.725   5.589  2.2162 -0.1591  0.2325
19784SOL     OW62371   4.338   2.025   3.782 -0.1555 -0.1323  0.6567
19784SOL    HW162372   4.381   1.941   3.764  0.1812 -0.0532  1.1010
19784SOL    HW262373   4.247   2.011   3.754  0.5774  0.3387 -2.1630
19785SOL     OW62374   7.758   0.709   6.883  0.6000  0.2819 -0.0854
19785SOL    HW162375   7.784   0.796   6.914 -2.3755  1.8304 -1.7097
19785SOL    HW262376   7.708   0.726   6.803 -0.1415 -2.9347 -0.3703
19786SOL     OW62377   0.896   5.541   7.674 -0.5163 -0.1250  0.3008
19786SOL    HW162378   0.885   5.452   7.639 -1.4915  0.2672 -0.4076
19786SOL    HW262379   0.985   5.565   7.648 -0.2863 -0.8590  0.4037
19787SOL     OW62380   0.859   7.186   5.713  0.5221 -0.2849 -0.3191
19787SOL    HW162381   0.916   7.259   5.740  2.3362 -1.1063 -1.8315
19787SOL    HW262382   0.906   7.108   5.741 -1.7626 -0.9061  1.9351
19788SOL     OW62383   6.603   0.455   2.116 -0.3244 -0.1134  0.1714
19788SOL    HW162384   6.542   0.460   2.189 -0.4655 -0.2434  0.0642
19788SOL    HW262385   6.557   0.402   2.050  0.3952 -1.2274  0.5642
19789SOL     OW62386   6.478   4.961   4.378 -0.2628  0.3383 -0.0955
19789SOL    HW162387   6.396   5.006   4.358 -0.7760 -0.5502 -0.0110
19789SOL    HW262388   6.474   4.943   4.471  0.0892  0.3868 -0.0677
19790SOL     OW62389   8.083   6.024   8.321 -0.5043  0.6088 -0.0116
19790SOL    HW162390   8.103   5.946   8.373 -2.5346  0.6560  0.9190
19790SOL    HW262391   8.046   5.989   8.239  0.5788  0.5670 -0.4841
19791SOL     OW62392   6.885   2.033   2.892  0.5383 -0.5020  0.7855
19791SOL    HW162393   6.813   2.024   2.954 -0.0115 -0.8682  0.1053
19791SOL    HW262394   6.906   2.126   2.893  1.1790 -0.6553  2.2312
19792SOL     OW62395   6.551   9.354   4.724 -0.3239  0.2290 -0.5564
19792SOL    HW162396   6.527   9.447   4.720 -0.0271  0.2744 -1.2981
19792SOL    HW262397   6.599   9.345   4.806  2.7882  1.4859 -2.1561
19793SOL     OW62398   8.789   4.222   3.165 -0.4280  0.1664 -0.3860
19793SOL    HW162399   8.786   4.127   3.168 -1.2731  0.1708 -1.0048
19793SOL    HW262400   8.701   4.250   3.192  0.2108  0.8075  1.1335
19794SOL     OW62401   9.254   2.118   7.663 -0.2056  0.3086  0.0108
19794SOL    HW162402   9.229   2.203   7.699 -2.4152 -0.8139  1.2037
19794SOL    HW262403   9.178   2.091   7.611  0.4165 -1.0056 -0.2299
19795SOL     OW62404   8.616   1.459   6.977 -0.4337 -0.1499 -0.2849
19795SOL    HW162405   8.649   1.479   7.065  0.5308  2.2967 -1.1503
19795SOL    HW262406   8.563   1.535   6.954 -2.3210 -1.6700 -1.0463
19796SOL     OW62407   2.212   0.888   7.153 -0.2107 -0.4134 -0.1660
19796SOL    HW162408   2.231   0.826   7.224 -1.2629 -2.4892 -1.6074
19796SOL    HW262409   2.155   0.838   7.094 -0.9936  1.9343 -1.4431
19797SOL     OW62410   6.132   8.410   3.787 -0.0028 -0.3971 -0.2433
19797SOL    HW162411   6.159   8.433   3.876  1.3538  1.1335 -1.0151
19797SOL    HW262412   6.201   8.446   3.731 -2.2429  1.2297 -2.0985
19798SOL     OW62413   7.992   5.627   3.134 -0.2154  0.3900 -0.4885
19798SOL    HW162414   8.032   5.568   3.197 -0.0434  1.4639  0.4189
19798SOL    HW262415   8.065   5.661   3.082 -0.3562 -0.4868 -1.2847
19799SOL     OW62416   9.410   2.387   4.941 -0.2167  0.0677 -0.0207
19799SOL    HW162417   9.470   2.461   4.947  1.3586 -1.1213 -0.5346
19799SOL    HW262418   9.466   2.311   4.958 -1.7645 -1.0073  0.3174
19800SOL     OW62419   7.766   7.704   3.990 -0.4385  0.1740  0.1586
19800SOL    HW162420   7.699   7.692   3.922 -0.1043 -0.4641 -0.0618
19800SOL    HW262421   7.782   7.799   3.991 -0.5629  0.2079 -0.5369
19801SOL     OW62422   0.440   4.041   1.649  0.4693  0.0415 -0.3433
19801SOL    HW162423   0.500   4.060   1.577  0.7109  0.2209 -0.0915
19801SOL    HW262424   0.485   4.071   1.728  0.5670 -0.9431 -0.0201
19802SOL     OW62425   8.940   3.780   0.613 -0.0041 -0.2442  0.3000
19802SOL    HW162426   8.982   3.732   0.684  0.0481 -2.8241 -1.4091
19802SOL    HW262427   9.011   3.801   0.553 -0.0985  1.6265  0.8125
19803SOL     OW62428   7.280   3.317   5.932  0.3382 -0.3025 -0.3027
19803SOL    HW162429   7.220   3.335   6.004  1.0657 -0.9188  0.4761
19803SOL    HW262430   7.237   3.352   5.855 -0.5306  0.2169  0.4119
19804SOL     OW62431   9.371   0.940   1.773 -0.3335 -0.0807  0.0168
19804SOL    HW162432   9.308   0.869   1.791 -1.1873  0.2499 -1.5577
19804SOL    HW262433   9.342   1.012   1.829 -1.8014  0.3039 -1.2064
19805SOL     OW62434   2.273   5.040   2.207  0.3455 -0.0225  0.9525
19805SOL    HW162435   2.334   5.095   2.256  0.0270  0.9794  0.2334
19805SOL    HW262436   2.265   5.083   2.121 -1.0419 -0.3712  0.8924
19806SOL     OW62437   1.780   1.283   1.512  0.2057  0.2650 -0.3997
19806SOL    HW162438   1.836   1.353   1.546 -0.6763  0.5886  0.3962
19806SOL    HW262439   1.775   1.219   1.583 -0.3182  0.1704 -0.5204
19807SOL     OW62440   2.465   6.586   7.312  0.0755  0.2669  0.5557
19807SOL    HW162441   2.464   6.614   7.403  1.8324  1.9455  0.1059
19807SOL    HW262442   2.440   6.665   7.263 -1.3536 -0.7553 -0.3834
19808SOL     OW62443   8.407   4.519   7.534 -0.5284 -0.0015 -0.5414
19808SOL    HW162444   8.461   4.455   7.487 -1.6673 -1.2381 -0.2177
19808SOL    HW262445   8.318   4.501   7.504 -0.8929  1.3031 -0.2788
19809SOL     OW62446   9.148   4.117   7.220  0.1928 -0.3948 -0.2995
19809SOL    HW162447   9.118   4.170   7.146 -0.6185 -1.1563 -0.5196
19809SOL    HW262448   9.115   4.029   7.202  1.0111 -0.8493  0.3736
19810SOL     OW62449   4.884   3.392   4.137  0.2143 -0.3509 -0.3703
19810SOL    HW162450   4.923   3.352   4.215  0.3656  0.0077 -0.2622
19810SOL    HW262451   4.946   3.460   4.111  0.3320 -0.6931 -1.0062
19811SOL     OW62452   7.847   7.886   8.603 -0.1835 -0.1871  0.7011
19811SOL    HW162453   7.906   7.861   8.674  1.9725  0.2236 -0.8694
19811SOL    HW262454   7.892   7.856   8.523 -3.0228 -1.5801 -0.4422
19812SOL     OW62455   4.437   1.534   1.846  0.3942  0.1907  0.0610
19812SOL    HW162456   4.503   1.479   1.888 -0.1500 -1.4081 -1.1178
19812SOL    HW262457   4.403   1.480   1.775 -0.3458  1.9684 -0.9688
19813SOL     OW62458   1.005   5.408   3.935  0.0597 -0.4304  0.1019
19813SOL    HW162459   0.955   5.335   3.973  1.7086 -0.8494  1.5146
19813SOL    HW262460   1.080   5.418   3.993  1.7507  0.0535 -2.1156
19814SOL     OW62461   1.313   3.313   0.482  0.1308  0.5311  0.3726
19814SOL    HW162462   1.360   3.310   0.565 -0.6503 -0.0985  0.7927
19814SOL    HW262463   1.302   3.407   0.465  1.0065  0.6792  0.5583
19815SOL     OW62464   0.146   0.325   4.266  0.3984 -0.1667 -0.5628
19815SOL    HW162465   0.066   0.273   4.253 -0.5997  1.2985 -0.4980
19815SOL    HW262466   0.157   0.329   4.361 -0.6223  1.2904 -0.4754
19816SOL     OW62467   8.695   3.884   8.504 -0.0926  0.0024  0.0502
19816SOL    HW162468   8.746   3.951   8.458 -0.7691  0.2035 -0.4195
19816SOL    HW262469   8.606   3.920   8.509  0.1317  0.3193  2.2169
19817SOL     OW62470   8.806   4.846   5.048  0.1685  0.0272 -0.1770
19817SOL    HW162471   8.897   4.872   5.032  0.1920 -0.0477 -0.1641
19817SOL    HW262472   8.791   4.868   5.140  0.1890 -0.0082 -0.1651
19818SOL     OW62473   0.653   4.943   8.989 -0.7149 -0.2512 -0.2785
19818SOL    HW162474   0.562   4.966   9.009 -0.2740  2.4721 -1.2561
19818SOL    HW262475   0.653   4.927   8.895 -0.3058 -0.9542 -0.1620
19819SOL     OW62476   0.299   0.883   6.829  0.4332 -0.1880  0.1258
19819SOL    HW162477   0.354   0.904   6.753  0.6736  0.2996  0.4348
19819SOL    HW262478   0.212   0.914   6.804  0.8158  1.3192  0.6389
19820SOL     OW62479   7.104   2.463   3.837  0.1636 -0.5155  0.1083
19820SOL    HW162480   7.170   2.425   3.778 -0.7507  0.6750 -1.7146
19820SOL    HW262481   7.137   2.552   3.854 -1.0835  0.1725 -1.0178
19821SOL     OW62482   5.494   5.602   5.781  0.0162 -0.0047 -0.4089
19821SOL    HW162483   5.401   5.598   5.805  0.2692 -1.2543  0.4343
19821SOL    HW262484   5.539   5.556   5.853  1.1864 -0.2740 -1.2973
19822SOL     OW62485   5.453   4.848   0.162  0.5418 -0.1342 -0.1657
19822SOL    HW162486   5.528   4.861   0.104  1.5316 -1.2659  0.8528
19822SOL    HW262487   5.420   4.761   0.140  1.8207 -1.1895  1.9546
19823SOL     OW62488   9.140   3.436   2.134  0.5453  0.5953 -0.2044
19823SOL    HW162489   9.086   3.443   2.213  0.5083  0.7589 -0.2442
19823SOL    HW262490   9.085   3.471   2.064  0.6135  0.5359 -0.2869
19824SOL     OW62491   5.644   7.421   6.230 -0.2751  0.1842  0.8431
19824SOL    HW162492   5.675   7.490   6.172  1.3112  0.7963  2.3594
19824SOL    HW262493   5.550   7.436   6.238 -0.4205  0.4203 -1.0935
19825SOL     OW62494   1.270   9.372   7.409  0.1890 -0.5097  0.4955
19825SOL    HW162495   1.267   9.277   7.420  1.7380 -0.4590  1.4661
19825SOL    HW262496   1.315   9.384   7.325 -0.3620 -0.6279  0.1777
19826SOL     OW62497   2.670   8.730   4.802  0.2636 -0.2786  0.0571
19826SOL    HW162498   2.625   8.653   4.766  1.2950 -1.3136  0.9196
19826SOL    HW262499   2.757   8.727   4.762  0.3659  0.3365  0.2353
19827SOL     OW62500   9.248   5.542   9.318  0.9527 -0.1425  0.3281
19827SOL    HW162501   9.278   5.451   9.306 -0.5141 -0.5763 -0.1758
19827SOL    HW262502   9.162   5.533   9.360  1.5156  1.0730  1.7791
19828SOL     OW62503   6.443   4.129   4.564 -0.1411  0.0677 -0.4056
19828SOL    HW162504   6.520   4.105   4.513 -1.3632 -1.5032 -1.5735
19828SOL    HW262505   6.383   4.055   4.552 -1.3531  0.7238  1.4596
19829SOL     OW62506   5.512   6.896   5.864  0.5335  0.0682  0.1828
19829SOL    HW162507   5.572   6.890   5.938  0.7473 -1.0506 -0.0590
19829SOL    HW262508   5.533   6.819   5.810 -0.7958 -0.0917 -0.1376
19830SOL     OW62509   8.146   2.317   7.086 -0.2607  0.2807 -0.5735
19830SOL    HW162510   8.058   2.292   7.057  0.2262 -0.0016 -1.8194
19830SOL    HW262511   8.162   2.262   7.163 -0.9465 -0.0887 -0.6887
19831SOL     OW62512   4.298   9.091   8.642 -0.0502  0.4175  0.4009
19831SOL    HW162513   4.285   9.028   8.572  1.3806  0.8723 -0.2935
19831SOL    HW262514   4.261   9.172   8.609 -0.7492  0.2652  0.7918
19832SOL     OW62515   7.191   1.094   0.541 -0.4980  0.2375  0.3752
19832SOL    HW162516   7.252   1.023   0.523  1.1001  1.0144  2.5227
19832SOL    HW262517   7.195   1.149   0.462 -0.0473 -0.8581 -0.3736
19833SOL     OW62518   5.452   2.434   0.825  0.1695 -0.3128  0.0900
19833SOL    HW162519   5.423   2.500   0.888 -0.4981  1.2601 -1.7980
19833SOL    HW262520   5.482   2.485   0.750 -2.5437 -2.1820 -2.3672
19834SOL     OW62521   3.401   2.629   0.861 -0.3237 -0.3294 -0.1856
19834SOL    HW162522   3.427   2.615   0.770  0.0568  0.6980 -0.2421
19834SOL    HW262523   3.404   2.724   0.872  0.4494 -0.4945  1.1392
19835SOL     OW62524   8.689   1.078   1.522  0.1227  0.6427  0.0619
19835SOL    HW162525   8.738   1.012   1.570 -0.7091 -0.2486 -0.2859
19835SOL    HW262526   8.741   1.158   1.530  1.4262 -0.1902  0.0102
19836SOL     OW62527   8.787   1.286   3.024  0.0479  0.4821  0.5811
19836SOL    HW162528   8.792   1.358   2.960  1.4359 -2.2022 -2.4909
19836SOL    HW262529   8.815   1.325   3.106 -1.9240  4.1206 -0.3588
19837SOL     OW62530   5.689   1.949   8.345  0.0838  0.3398  0.1233
19837SOL    HW162531   5.663   1.858   8.363 -0.9260  0.4423 -0.7450
19837SOL    HW262532   5.610   2.000   8.361  0.9241  1.2083  1.5854
19838SOL     OW62533   8.200   0.231   2.701 -0.3378 -0.0779  0.0033
19838SOL    HW162534   8.201   0.324   2.724  1.0902 -0.5402  1.9008
19838SOL    HW262535   8.265   0.223   2.632 -0.4758  0.3333 -0.1766
19839SOL     OW62536   0.172   5.583   8.060  0.2945 -0.3586  0.0419
19839SOL    HW162537   0.201   5.668   8.028  0.3552  0.2571  1.6664
19839SOL    HW262538   0.107   5.554   7.996  0.1159  1.0111 -0.4145
19840SOL     OW62539   5.641   3.712   9.393  0.6400 -0.2074  0.4977
19840SOL    HW162540   5.548   3.697   9.373  0.4995 -0.0410  1.0031
19840SOL    HW262541   5.688   3.666   9.324  0.1671  0.7673 -0.4976
19841SOL     OW62542   0.430   2.807   1.252  0.3575 -0.1017  0.3830
19841SOL    HW162543   0.483   2.865   1.198 -1.7489  1.0066 -0.5689
19841SOL    HW262544   0.466   2.720   1.239  2.1569  0.6815  0.0675
19842SOL     OW62545   8.482   2.486   1.799 -0.3101  0.0344  0.0005
19842SOL    HW162546   8.416   2.427   1.761 -0.4186 -0.3954  0.8312
19842SOL    HW262547   8.451   2.501   1.888  0.4320  0.2748  0.2150
19843SOL     OW62548   8.332   4.955   1.309  0.3040 -0.0683 -0.6773
19843SOL    HW162549   8.286   4.937   1.392  0.4464  0.5796 -0.4562
19843SOL    HW262550   8.262   4.978   1.248  0.4399  2.2250  0.0099
19844SOL     OW62551   8.135   3.198   3.726 -0.1486 -0.3103  0.0517
19844SOL    HW162552   8.155   3.290   3.744  3.4045 -0.7821 -1.1953
19844SOL    HW262553   8.101   3.164   3.809  0.2415  1.6636  1.0428
19845SOL     OW62554   2.570   6.814   4.646  0.3578  0.4961  0.1389
19845SOL    HW162555   2.549   6.762   4.568 -0.3873 -0.4476  0.9537
19845SOL    HW262556   2.654   6.779   4.676  0.1903  0.2167  0.2887
19846SOL     OW62557   8.986   0.833   4.271  0.0338 -0.2909 -0.0401
19846SOL    HW162558   9.041   0.794   4.203  0.7639 -0.1719  0.4763
19846SOL    HW262559   9.046   0.850   4.343 -0.7277 -0.3765  0.6201
19847SOL     OW62560   4.143   4.318   1.902 -0.2600  0.5701  0.7538
19847SOL    HW162561   4.165   4.402   1.943  1.4822 -0.0421  1.0992
19847SOL    HW262562   4.073   4.282   1.957  0.3032  0.9248  1.7090
19848SOL     OW62563   6.253   7.834   4.392  0.0969 -0.5428  0.4011
19848SOL    HW162564   6.261   7.903   4.326  2.4985  0.1137  1.3071
19848SOL    HW262565   6.165   7.846   4.428 -1.6514 -1.5383 -3.2866
19849SOL     OW62566   0.370   1.413   3.634  0.8150  0.2617  0.3530
19849SOL    HW162567   0.391   1.351   3.703  0.4920 -0.5288 -0.2635
19849SOL    HW262568   0.415   1.379   3.557 -2.6196 -1.4125 -0.9882
19850SOL     OW62569   2.111   8.152   6.733 -0.4554  0.3648 -0.5191
19850SOL    HW162570   2.039   8.166   6.795 -1.0188 -1.4137 -0.7150
19850SOL    HW262571   2.072   8.169   6.647 -0.9688 -1.5803 -0.7074
19851SOL     OW62572   4.489   8.627   2.756 -0.7039 -0.0683  0.1256
19851SOL    HW162573   4.484   8.618   2.661 -1.8794 -0.4545  0.2094
19851SOL    HW262574   4.554   8.696   2.771  0.3707 -0.8609 -0.9107
19852SOL     OW62575   6.137   7.750   3.532  0.4312  0.5833  0.8606
19852SOL    HW162576   6.178   7.814   3.591  2.0830  0.2867  0.0718
19852SOL    HW262577   6.112   7.801   3.455  1.2557  0.3831  0.4572
19853SOL     OW62578   0.751   5.629   3.951 -0.4446  0.2529  0.1080
19853SOL    HW162579   0.781   5.682   4.025 -1.0780 -1.3117  1.5219
19853SOL    HW262580   0.755   5.539   3.983 -5.7066 -0.1440  0.1275
19854SOL     OW62581   8.745   6.548   7.263 -0.3010  0.4356 -0.2873
19854SOL    HW162582   8.790   6.502   7.191 -0.1315  0.4862 -0.2145
19854SOL    HW262583   8.709   6.627   7.223  0.0532  0.6162 -0.2547
19855SOL     OW62584   4.458   4.609   6.067 -0.3775 -0.2238 -0.2408
19855SOL    HW162585   4.429   4.622   5.977  0.3911 -0.0778 -0.4691
19855SOL    HW262586   4.478   4.696   6.099  0.5002 -0.3990 -0.3185
19856SOL     OW62587   1.862   9.243   7.008 -0.0360 -0.3754 -0.8285
19856SOL    HW162588   1.910   9.205   6.934 -1.3357 -2.0763 -0.8295
19856SOL    HW262589   1.913   9.217   7.085  0.1348 -0.4708 -0.9727
19857SOL     OW62590   2.972   2.169   2.564  0.5063  0.2861 -0.4170
19857SOL    HW162591   2.985   2.078   2.588  0.8399  0.4155 -0.0936
19857SOL    HW262592   3.050   2.214   2.596 -0.3219  0.9300  0.7609
19858SOL     OW62593   8.527   0.067   1.523  0.3157 -0.1558 -0.0023
19858SOL    HW162594   8.562   0.120   1.594 -2.5429  1.4638  0.2722
19858SOL    HW262595   8.537  -0.023   1.553  0.4975  0.4435  1.8081
19859SOL     OW62596   7.226   5.436   1.742 -0.2393  0.2276  0.9544
19859SOL    HW162597   7.135   5.456   1.720  0.3356  2.2921  0.2672
19859SOL    HW262598   7.273   5.441   1.659  0.6319 -0.0410  1.4177
19860SOL     OW62599   2.802   8.806   7.954  0.7608 -0.4279  0.2112
19860SOL    HW162600   2.872   8.755   7.996 -0.7917 -2.1636  0.7981
19860SOL    HW262601   2.722   8.757   7.975 -0.7842  2.2369  0.6940
19861SOL     OW62602   7.949   2.042   0.311 -0.6365 -0.4963 -0.1245
19861SOL    HW162603   7.930   2.083   0.396  0.4586 -0.2225  0.0004
19861SOL    HW262604   7.863   2.025   0.272 -1.1707 -1.1870  1.3113
19862SOL     OW62605   4.799   6.129   4.932  0.3833 -0.6900 -0.0477
19862SOL    HW162606   4.743   6.129   5.009  0.2406 -0.0831 -0.1549
19862SOL    HW262607   4.819   6.221   4.916 -2.2053 -0.4938 -2.6223
19863SOL     OW62608   0.214   2.241   2.177 -0.6190 -0.0297  0.3731
19863SOL    HW162609   0.153   2.290   2.232  0.0479  2.9033 -1.4214
19863SOL    HW262610   0.301   2.264   2.210 -0.2733  0.6050 -0.9437
19864SOL     OW62611   5.125   2.647   5.585 -0.2338 -0.1807 -0.2472
19864SOL    HW162612   5.179   2.568   5.580  0.3888  0.1838  0.5215
19864SOL    HW262613   5.041   2.621   5.549  0.0016 -1.1676 -0.1071
19865SOL     OW62614   7.321   9.380   8.100  0.1920  0.4351  0.2820
19865SOL    HW162615   7.395   9.338   8.055  0.9505  2.3657 -0.2983
19865SOL    HW262616   7.343   9.473   8.102 -1.1693  0.7585  2.1271
19866SOL     OW62617   4.371   3.836   0.742  0.0554  0.1065  0.2656
19866SOL    HW162618   4.438   3.778   0.706 -0.9134 -1.4921  0.9810
19866SOL    HW262619   4.417   3.890   0.805  1.2469  1.0960 -1.4034
19867SOL     OW62620   0.583   2.677   9.392 -0.2600  0.6096  1.0644
19867SOL    HW162621   0.675   2.704   9.390 -0.3510  0.9148  0.9833
19867SOL    HW262622   0.577   2.619   9.468  0.3835 -0.8027  0.0320
19868SOL     OW62623   8.928   1.136   9.148 -0.3551 -0.1504 -0.2922
19868SOL    HW162624   8.924   1.082   9.227 -0.4510  0.6847  0.2858
19868SOL    HW262625   8.849   1.191   9.153 -0.9508 -0.8925 -1.5589
19869SOL     OW62626   7.089   7.237   8.641 -0.0562  0.3426 -0.1157
19869SOL    HW162627   7.048   7.260   8.558 -0.9699 -0.7048  0.0462
19869SOL    HW262628   7.017   7.212   8.699  0.6979 -0.4636  0.5043
19870SOL     OW62629   4.392   7.990   8.432 -0.2017  0.3798 -0.0155
19870SOL    HW162630   4.387   8.059   8.498  0.7571 -1.1808  1.7323
19870SOL    HW262631   4.314   7.937   8.447 -0.1062  0.1524 -0.3077
19871SOL     OW62632   3.578   2.451   4.960 -0.0604  0.1349  0.1779
19871SOL    HW162633   3.573   2.491   5.047 -1.1912 -0.2709  0.3083
19871SOL    HW262634   3.510   2.384   4.960  0.2395 -0.1881 -0.8634
19872SOL     OW62635   1.316   8.431   4.802 -0.0513 -0.4625 -0.2038
19872SOL    HW162636   1.262   8.505   4.774  1.0179 -0.2280 -1.7062
19872SOL    HW262637   1.256   8.357   4.804 -1.0435  0.3473  0.9054
19873SOL     OW62638   2.692   8.776   2.004  1.0503  0.2215 -0.1700
19873SOL    HW162639   2.620   8.805   2.059  1.5621  0.2687  0.4858
19873SOL    HW262640   2.666   8.689   1.973 -1.0243  1.7903 -3.1012
19874SOL     OW62641   5.683   3.264   8.117  0.4386 -0.5731 -0.0491
19874SOL    HW162642   5.661   3.173   8.136 -1.5693 -0.2460 -0.6982
19874SOL    HW262643   5.727   3.295   8.196 -2.6486 -0.9010  1.9148
19875SOL     OW62644   2.984   7.250   8.582 -0.0616 -0.1278  0.2506
19875SOL    HW162645   2.908   7.266   8.526  1.1697 -1.2373 -1.7916
19875SOL    HW262646   3.007   7.336   8.616 -0.6482  0.6109 -1.1985
19876SOL     OW62647   6.837   1.498   4.700 -0.2668 -0.1272  0.1548
19876SOL    HW162648   6.884   1.544   4.769 -1.2385 -0.4165  1.0295
19876SOL    HW262649   6.794   1.567   4.650  0.7464  0.1064 -0.3828
19877SOL     OW62650   2.477   0.322   8.900  0.1094 -0.0392 -0.7304
19877SOL    HW162651   2.513   0.359   8.820  0.6231 -1.2876 -1.0825
19877SOL    HW262652   2.491   0.228   8.892 -2.0823 -0.4360 -0.3049
19878SOL     OW62653   1.998   7.605   0.668  0.1735  0.3475  0.9128
19878SOL    HW162654   2.011   7.698   0.652  1.2397 -0.1125 -1.0779
19878SOL    HW262655   1.939   7.577   0.598 -1.2242 -0.2303  2.2784
19879SOL     OW62656   5.108   5.519   2.543  0.0771  0.5150  0.0443
19879SOL    HW162657   5.197   5.483   2.544  0.5426  1.6384  0.4198
19879SOL    HW262658   5.116   5.601   2.494  0.0543  2.5283  3.1968
19880SOL     OW62659   8.029   4.124   2.723 -0.6424 -0.1685 -0.5990
19880SOL    HW162660   7.943   4.164   2.738  0.0571  1.0481  0.2162
19880SOL    HW262661   8.083   4.195   2.689 -0.1055 -1.0674 -1.6242
19881SOL     OW62662   5.414   1.793   1.297  0.2101 -0.5436  0.6388
19881SOL    HW162663   5.432   1.738   1.221  2.3887  0.6159  0.2657
19881SOL    HW262664   5.475   1.867   1.288  0.4454 -0.3390  3.4548
19882SOL     OW62665   5.120   8.775   1.741  0.2176  0.4609 -0.6136
19882SOL    HW162666   5.133   8.684   1.767  1.1457  0.1811 -2.0008
19882SOL    HW262667   5.124   8.824   1.823 -0.4098 -0.7531  0.1615
19883SOL     OW62668   1.026   0.489   5.015 -0.4178  0.3171  0.2635
19883SOL    HW162669   1.015   0.575   4.975  0.3710  0.6684  0.7723
19883SOL    HW262670   1.087   0.504   5.088  1.2209 -1.0034 -0.7904
19884SOL     OW62671   3.702   9.119   6.221 -0.3321 -0.1546  0.4202
19884SOL    HW162672   3.764   9.191   6.238 -1.6249  0.7133  1.6308
19884SOL    HW262673   3.626   9.140   6.276 -1.6840 -1.2215 -1.0066
19885SOL     OW62674   2.468   7.854   7.467  0.2602 -0.1150  0.0836
19885SOL    HW162675   2.516   7.871   7.387 -0.4051 -0.6378 -0.4317
19885SOL    HW262676   2.456   7.759   7.469 -0.2631 -0.0479  0.4834
19886SOL     OW62677   3.966   7.637   2.501 -0.0224 -0.2006  0.6331
19886SOL    HW162678   3.896   7.698   2.476  0.8519  1.0120  1.0574
19886SOL    HW262679   3.976   7.579   2.426  1.4979  2.4044 -1.2845
19887SOL     OW62680   8.359   9.134   7.537  0.4388 -0.6948 -0.0306
19887SOL    HW162681   8.436   9.182   7.504 -0.9470  1.1554 -0.6700
19887SOL    HW262682   8.307   9.116   7.459 -0.2884 -1.0049  0.5294
19888SOL     OW62683   3.920   1.199   0.787  0.3961  0.2574  0.3215
19888SOL    HW162684   3.864   1.247   0.727 -0.1189 -2.1443 -1.1866
19888SOL    HW262685   3.970   1.139   0.731  1.4572 -0.5273  2.0578
19889SOL     OW62686   3.789   4.808   6.237 -0.8219 -0.3825  0.4509
19889SOL    HW162687   3.768   4.715   6.228 -0.1476 -0.7626  2.5086
19889SOL    HW262688   3.714   4.854   6.199 -2.2790 -1.7467  1.6269
19890SOL     OW62689   3.206   4.174   0.873  0.5465 -0.0831  0.0241
19890SOL    HW162690   3.176   4.087   0.849  1.1864  0.0931 -1.4824
19890SOL    HW262691   3.149   4.201   0.945  1.1304 -2.2270  1.3452
19891SOL     OW62692   7.111   8.494   5.102  0.1639 -0.4834 -0.0931
19891SOL    HW162693   7.061   8.484   5.184 -0.4848 -1.4442 -0.6009
19891SOL    HW262694   7.054   8.458   5.035 -0.1701  2.1423 -1.3007
19892SOL     OW62695   0.790   3.832   4.423  0.3562  0.1316 -0.6851
19892SOL    HW162696   0.883   3.843   4.442 -0.2018  1.8996  1.2491
19892SOL    HW262697   0.770   3.899   4.357  0.4854 -0.3402 -1.2027
19893SOL     OW62698   2.136   2.093   6.980 -0.2425 -0.3649  0.4683
19893SOL    HW162699   2.115   2.185   6.963 -0.0664 -0.2243  1.0141
19893SOL    HW262700   2.223   2.080   6.941 -1.2028 -0.8790 -1.5666
19894SOL     OW62701   2.394   6.456   9.316  0.3891 -0.1726  0.1891
19894SOL    HW162702   2.371   6.433   9.407 -0.0733 -0.6632 -0.0473
19894SOL    HW262703   2.428   6.374   9.280 -1.1596 -0.4677 -0.6313
19895SOL     OW62704   5.812   7.331   5.144  0.1327 -0.6754  0.4629
19895SOL    HW162705   5.723   7.355   5.119 -1.0189 -1.5570  3.5074
19895SOL    HW262706   5.842   7.404   5.198  1.7478  0.1742 -1.5003
19896SOL     OW62707   3.762   8.797   4.497 -0.3329  0.4859  0.3336
19896SOL    HW162708   3.768   8.775   4.590  1.5494 -0.4219  0.0231
19896SOL    HW262709   3.694   8.739   4.463  0.0395 -0.2599  0.8420
19897SOL     OW62710   0.253   4.977   8.062 -0.6874  0.5313  0.2865
19897SOL    HW162711   0.184   5.039   8.038 -0.6791  0.9673  1.3712
19897SOL    HW262712   0.246   4.968   8.157  1.8519  1.9646  0.6684
19898SOL     OW62713   1.195   6.235   0.431 -0.4673  0.0216  0.6902
19898SOL    HW162714   1.157   6.207   0.513 -0.4355  0.2294  0.7770
19898SOL    HW262715   1.120   6.262   0.377 -0.3709  1.5072  1.2717
19899SOL     OW62716   8.437   1.621   8.747 -0.0707  0.3320 -0.0576
19899SOL    HW162717   8.431   1.578   8.662  0.3635 -2.2903  1.1983
19899SOL    HW262718   8.531   1.626   8.765 -0.2029 -0.2949  0.8445
19900SOL     OW62719   9.031   4.571   8.700  0.4790 -0.4066 -0.3214
19900SOL    HW162720   8.968   4.623   8.650  1.6761  1.3489 -0.0409
19900SOL    HW262721   9.063   4.506   8.638 -1.6448 -1.3890 -0.4508
19901SOL     OW62722   6.802   5.205   6.395 -0.1100 -0.5762 -0.2196
19901SOL    HW162723   6.800   5.223   6.301 -0.7633 -0.2493 -0.1452
19901SOL    HW262724   6.855   5.126   6.404  0.4100 -0.2911 -0.8129
19902SOL     OW62725   5.718   4.666   1.296  0.2318 -0.2806  0.2191
19902SOL    HW162726   5.709   4.632   1.385  3.7718  1.4240  1.3440
19902SOL    HW262727   5.784   4.610   1.256  1.0132  0.9382 -0.2220
19903SOL     OW62728   0.043   3.907   8.910  0.1712 -0.6400  0.3707
19903SOL    HW162729  -0.042   3.893   8.951 -0.1736  0.1267 -0.0613
19903SOL    HW262730   0.099   3.839   8.946 -0.8616 -1.7113 -0.0141
19904SOL     OW62731   0.094   9.118   9.324 -0.2427 -0.1488 -0.0295
19904SOL    HW162732   0.178   9.092   9.361  0.5744 -0.2958 -1.9464
19904SOL    HW262733   0.081   9.059   9.250 -0.9542  1.3955 -1.1470
19905SOL     OW62734   7.710   2.882   1.527 -0.7281  0.0885  0.1374
19905SOL    HW162735   7.747   2.852   1.444 -0.3529  1.6064 -0.2550
19905SOL    HW262736   7.620   2.907   1.506 -0.9225 -0.3845  0.3868
19906SOL     OW62737   8.311   2.091   3.092 -0.8235  0.3307  0.2560
19906SOL    HW162738   8.332   1.998   3.089  1.1925  0.7565  0.3413
19906SOL    HW262739   8.219   2.096   3.067 -1.8067 -1.9440  3.2688
19907SOL     OW62740   3.958   3.185   3.403 -0.7025  0.0055  0.5254
19907SOL    HW162741   3.887   3.236   3.364 -2.0355 -0.7662  1.8698
19907SOL    HW262742   3.951   3.203   3.497  1.5120  0.6725  0.5866
19908SOL     OW62743   1.164   7.991   8.437 -0.4200  0.4914  0.0828
19908SOL    HW162744   1.212   7.952   8.509 -1.4576  0.3381  0.6985
19908SOL    HW262745   1.196   8.081   8.432 -0.9785  0.7630  1.3046
19909SOL     OW62746   6.907   1.622   9.140 -0.1010  0.1045 -0.0785
19909SOL    HW162747   6.945   1.705   9.113 -0.9702  0.5440  0.0100
19909SOL    HW262748   6.835   1.608   9.078 -1.7562  0.8340  1.6361
19910SOL     OW62749   3.290   5.202   4.623 -0.3231  0.1944  0.1820
19910SOL    HW162750   3.216   5.147   4.596 -0.4330  0.0731  0.7237
19910SOL    HW262751   3.286   5.202   4.719  1.8968 -1.9035  0.3207
19911SOL     OW62752   6.560   1.163   9.331  0.3087 -0.6541 -0.1243
19911SOL    HW162753   6.500   1.233   9.305  1.0348 -0.5085 -1.4296
19911SOL    HW262754   6.624   1.159   9.260  0.8633 -1.9539  0.4458
19912SOL     OW62755   4.058   7.259   5.034  0.0369  0.6969  0.0340
19912SOL    HW162756   4.109   7.179   5.035 -1.0946 -0.0596 -1.3148
19912SOL    HW262757   4.123   7.329   5.029  0.9899 -0.1668  0.1524
19913SOL     OW62758   3.874   7.781   7.987  0.0457  0.4316 -0.7315
19913SOL    HW162759   3.808   7.816   8.047 -1.2310  1.6974 -2.7597
19913SOL    HW262760   3.831   7.706   7.945  1.1391 -0.8101  0.3582
19914SOL     OW62761   8.185   4.514   9.368  0.4189 -0.2085 -0.0516
19914SOL    HW162762   8.196   4.564   9.449 -0.8334 -2.6497  1.6773
19914SOL    HW262763   8.268   4.468   9.357 -0.5281 -2.4948  1.7563
19915SOL     OW62764   3.359   4.399   4.043  0.4551  0.1707 -0.2349
19915SOL    HW162765   3.426   4.441   3.988  1.3397  0.7743  1.2704
19915SOL    HW262766   3.375   4.434   4.130 -1.9508  0.4552  0.1249
19916SOL     OW62767   7.942   5.783   8.163 -0.2247  0.1293  0.6023
19916SOL    HW162768   7.943   5.865   8.114 -0.2971 -0.1854  0.0628
19916SOL    HW262769   7.921   5.716   8.097 -0.1456 -0.3229  1.0300
19917SOL     OW62770   7.385   2.241   2.187 -0.0141  0.2195 -0.0521
19917SOL    HW162771   7.435   2.274   2.113 -2.1242 -0.9435 -2.0587
19917SOL    HW262772   7.342   2.318   2.224 -1.2281  0.4137 -1.8300
19918SOL     OW62773   8.450   2.491   5.220  0.4326  0.5523  0.2046
19918SOL    HW162774   8.412   2.567   5.175  0.3137 -0.1154 -0.8152
19918SOL    HW262775   8.544   2.503   5.210  0.4305  0.8579  0.5330
19919SOL     OW62776   5.792   2.983   5.955 -0.2926 -0.0919  0.4422
19919SOL    HW162777   5.708   2.937   5.956  0.3389 -1.2577  0.9979
19919SOL    HW262778   5.857   2.913   5.949  0.6038  0.8693 -1.7886
19920SOL     OW62779   3.644   8.185   7.555 -0.2726 -0.0764  0.2026
19920SOL    HW162780   3.548   8.190   7.554 -0.4090 -1.6862  2.0159
19920SOL    HW262781   3.664   8.097   7.525  0.5203 -0.5378  2.0191
19921SOL     OW62782   7.191   5.458   8.347  0.3527  0.3380 -0.3387
19921SOL    HW162783   7.103   5.420   8.343  0.5470 -0.4874  2.2018
19921SOL    HW262784   7.192   5.507   8.430  2.7454 -0.8919  0.4157
19922SOL     OW62785   3.535   0.549   3.821 -0.0184 -0.3721  0.3843
19922SOL    HW162786   3.458   0.606   3.822  0.0779 -0.2508  0.9905
19922SOL    HW262787   3.499   0.462   3.804 -0.5243 -0.6483  2.6809
19923SOL     OW62788   3.344   0.884   7.449 -0.0207 -0.1227 -0.1671
19923SOL    HW162789   3.366   0.791   7.439  0.1736 -0.0236 -0.6375
19923SOL    HW262790   3.427   0.927   7.469 -0.0367  0.0231 -0.4176
19924SOL     OW62791   1.736   4.759   5.095 -0.0252 -0.2708  0.0425
19924SOL    HW162792   1.669   4.694   5.076 -0.5800  0.2143  0.2991
19924SOL    HW262793   1.819   4.714   5.081 -0.3640 -1.6701  2.2742
19925SOL     OW62794   0.196   2.135   5.448 -0.0277  0.1126  0.6058
19925SOL    HW162795   0.216   2.118   5.540 -1.2234  0.0249  0.8451
19925SOL    HW262796   0.104   2.161   5.447  0.2117  0.9587 -0.4589
19926SOL     OW62797   4.547   8.933   8.532  0.3284 -0.0839 -0.1477
19926SOL    HW162798   4.574   9.023   8.513  2.2954 -0.2015  1.8064
19926SOL    HW262799   4.507   8.938   8.619 -0.0220 -1.0085 -0.2542
19927SOL     OW62800   0.996   3.355   0.697 -0.7146 -0.1416  0.0999
19927SOL    HW162801   0.934   3.387   0.763  0.2274 -1.3509  1.6181
19927SOL    HW262802   1.079   3.348   0.745 -0.0531 -1.2221 -1.1810
19928SOL     OW62803   7.340   1.665   8.902  0.1492  0.4108  0.1788
19928SOL    HW162804   7.373   1.645   8.814 -0.0640 -0.8532  0.3764
19928SOL    HW262805   7.408   1.719   8.941  1.6567 -1.4997  0.2913
19929SOL     OW62806   8.193   4.147   7.736  0.4043  0.2986  0.1769
19929SOL    HW162807   8.178   4.053   7.727 -0.0981  0.6025 -2.5958
19929SOL    HW262808   8.276   4.163   7.692  0.4993  1.1722  0.6457
19930SOL     OW62809   7.453   4.058   2.579 -0.0858  0.0836 -0.2267
19930SOL    HW162810   7.401   4.002   2.637  1.4932 -1.6199 -0.4162
19930SOL    HW262811   7.456   4.143   2.625 -0.8438 -0.5476  1.0300
19931SOL     OW62812   8.029   6.844   1.801 -0.9704 -0.5714  0.0147
19931SOL    HW162813   8.043   6.752   1.821  1.0061 -0.9826 -3.0066
19931SOL    HW262814   7.950   6.846   1.748 -1.3594 -0.4339  0.5898
19932SOL     OW62815   5.962   1.322   1.341 -0.0352  0.4956  0.0699
19932SOL    HW162816   6.010   1.275   1.272  0.7446 -0.3096  1.1199
19932SOL    HW262817   5.885   1.268   1.357  0.8306 -0.4449  1.2354
19933SOL     OW62818   6.798   6.955   3.266  0.0504  0.3065  0.1963
19933SOL    HW162819   6.753   7.007   3.199  1.8488  0.4141 -0.9707
19933SOL    HW262820   6.765   6.866   3.254 -0.5552  0.5572 -0.0094
19934SOL     OW62821   8.697   2.872   5.024  0.2195  0.2405  1.0011
19934SOL    HW162822   8.688   2.967   5.026 -0.3710  0.1633  2.3592
19934SOL    HW262823   8.663   2.842   5.109  0.0683 -1.2070  0.4508
19935SOL     OW62824   7.851   0.317   4.880 -0.1721  0.2247  0.2454
19935SOL    HW162825   7.835   0.403   4.919  0.8519  0.2867  0.5545
19935SOL    HW262826   7.939   0.294   4.909  1.2481  0.9426 -3.2252
19936SOL     OW62827   4.076   3.105   4.275 -0.4903 -0.2194 -0.0618
19936SOL    HW162828   4.049   3.121   4.366 -1.3738  0.0818 -0.3767
19936SOL    HW262829   3.995   3.091   4.228 -0.0784  0.3765 -0.9562
19937SOL     OW62830   6.221   9.276   8.539  0.0948 -0.2054 -0.0798
19937SOL    HW162831   6.172   9.321   8.608 -0.4183  0.0684 -0.6222
19937SOL    HW262832   6.200   9.183   8.552 -1.1399 -0.0399 -0.7354
19938SOL     OW62833   1.995   3.230   2.520 -0.0074  0.4967 -0.4604
19938SOL    HW162834   2.031   3.287   2.452 -0.1370 -0.4431 -1.3360
19938SOL    HW262835   1.900   3.234   2.506 -0.0676  0.7567  0.0331
19939SOL     OW62836   1.592   0.018   0.683  0.0739  0.0818 -0.1052
19939SOL    HW162837   1.574   0.109   0.658 -1.5288 -0.3604 -0.6322
19939SOL    HW262838   1.626   0.023   0.772 -0.4526  1.1676  0.0426
19940SOL     OW62839   8.508   4.765   1.949  0.1635 -0.1710  0.1062
19940SOL    HW162840   8.576   4.830   1.933  1.0822 -1.5410 -1.7271
19940SOL    HW262841   8.444   4.810   2.004  0.9130  2.1785 -0.8953
19941SOL     OW62842   4.484   3.796   0.416 -0.0397 -0.8566  0.0238
19941SOL    HW162843   4.438   3.764   0.493 -0.5167  0.1554  0.1642
19941SOL    HW262844   4.416   3.838   0.363  0.8056  1.1894  0.5155
19942SOL     OW62845   8.090   4.933   7.135  0.0800  0.4315  0.6878
19942SOL    HW162846   8.102   4.841   7.110  0.1197  0.1949  1.5755
19942SOL    HW262847   7.996   4.948   7.125  0.5506  1.4013 -3.2089
19943SOL     OW62848   0.953   7.352   7.383 -0.1428  0.3618 -0.1854
19943SOL    HW162849   0.912   7.403   7.314 -0.1902 -1.2408 -1.3580
19943SOL    HW262850   1.047   7.362   7.369 -0.1366  1.6571  0.7338
19944SOL     OW62851   2.532   9.236   0.883 -0.0415 -0.1042  0.0804
19944SOL    HW162852   2.509   9.162   0.940 -0.5138 -0.2061 -0.2381
19944SOL    HW262853   2.454   9.291   0.884  0.6628  0.9022  1.1144
19945SOL     OW62854   3.331   0.376   4.586  0.8712 -0.1496  0.2275
19945SOL    HW162855   3.250   0.406   4.628  1.2439 -0.0537  0.8830
19945SOL    HW262856   3.341   0.433   4.510  0.0201 -0.5336 -0.1791
19946SOL     OW62857   9.280   1.230   9.213 -0.0554 -0.0736  0.0328
19946SOL    HW162858   9.294   1.136   9.201  3.9675  0.4905 -0.3325
19946SOL    HW262859   9.243   1.260   9.130  0.2664 -1.0563 -0.4685
19947SOL     OW62860   9.435   4.362   0.453  0.4558  0.2047  0.3107
19947SOL    HW162861   9.392   4.284   0.490  2.3499 -0.1828  1.7808
19947SOL    HW262862   9.363   4.423   0.435 -0.7345 -0.5331  2.4431
19948SOL     OW62863   7.130   8.190   8.215  0.4382  0.0032 -0.2825
19948SOL    HW162864   7.197   8.257   8.228  1.7350 -1.6218  1.8787
19948SOL    HW262865   7.094   8.176   8.302 -0.1755 -1.7061 -0.7988
19949SOL     OW62866   9.412   7.313   3.240  0.7836 -0.7213  0.1662
19949SOL    HW162867   9.444   7.400   3.263  1.1871 -0.4055 -1.5553
19949SOL    HW262868   9.417   7.309   3.145 -1.0208 -1.9476  0.0848
19950SOL     OW62869   6.513   5.833   2.016 -0.1901 -0.1527  0.2779
19950SOL    HW162870   6.514   5.828   2.111  1.1315  0.0506  0.2874
19950SOL    HW262871   6.605   5.837   1.991 -0.5401  2.5008 -0.8537
19951SOL     OW62872   4.580   3.487   3.351  0.1981  0.3098  0.7399
19951SOL    HW162873   4.636   3.410   3.353  0.3768  0.4306  0.5201
19951SOL    HW262874   4.493   3.453   3.331  0.0378  0.0378  1.8459
19952SOL     OW62875   4.432   9.137   6.700 -0.6507 -0.1246 -0.1792
19952SOL    HW162876   4.500   9.112   6.763  0.8209  0.5821 -1.4594
19952SOL    HW262877   4.419   9.059   6.646 -2.1947 -0.8608  1.2149
19953SOL     OW62878   0.311   8.068   1.128 -0.7695  0.2621  0.2729
19953SOL    HW162879   0.217   8.062   1.145 -1.0281 -0.5733 -1.2845
19953SOL    HW262880   0.320   8.047   1.035  0.9878  0.0523  0.4603
19954SOL     OW62881   3.655   8.488   7.562  0.0068  0.0752 -0.2432
19954SOL    HW162882   3.635   8.396   7.581  1.9757 -0.3129 -0.0122
19954SOL    HW262883   3.685   8.488   7.472 -0.3582  0.5526 -0.3644
19955SOL     OW62884   6.497   2.047   7.043  0.8522 -0.0127  0.3603
19955SOL    HW162885   6.559   2.114   7.072 -0.0499  1.1874 -0.4497
19955SOL    HW262886   6.516   2.035   6.950 -0.5191  0.7916 -0.0277
19956SOL     OW62887   0.152   3.162   7.387 -0.4460 -0.1560  0.0970
19956SOL    HW162888   0.173   3.069   7.397  1.5148  0.3776  1.1221
19956SOL    HW262889   0.159   3.178   7.293 -1.4396 -1.1750 -0.1672
19957SOL     OW62890   8.441   1.182   2.816 -0.3332 -0.0875  0.0088
19957SOL    HW162891   8.496   1.201   2.740 -1.5833  1.7331 -0.4949
19957SOL    HW262892   8.487   1.113   2.863  1.9661  0.8351 -0.8119
19958SOL     OW62893   9.198   2.114   4.673 -0.4296 -0.4307  0.3517
19958SOL    HW162894   9.176   2.024   4.696  1.1771 -0.8539  0.2898
19958SOL    HW262895   9.121   2.165   4.699 -1.2931 -1.7921  0.5165
19959SOL     OW62896   9.342   0.177   1.751 -0.3341 -0.0230  0.0101
19959SOL    HW162897   9.265   0.147   1.703 -1.0956 -1.0800  1.8478
19959SOL    HW262898   9.339   0.130   1.834  0.9717  1.7453  1.1036
19960SOL     OW62899   4.599   4.750   4.367  0.2768  0.3537  0.4338
19960SOL    HW162900   4.521   4.804   4.374 -0.9539 -1.3629  0.0808
19960SOL    HW262901   4.577   4.683   4.302  2.7188  1.0051 -1.1653
19961SOL     OW62902   6.260   7.458   2.628  0.6024 -0.2875 -0.2851
19961SOL    HW162903   6.242   7.364   2.635  1.4181 -0.4196  0.0752
19961SOL    HW262904   6.350   7.468   2.658  0.1711  0.7676  0.6904
19962SOL     OW62905   6.756   1.404   0.428 -0.1228 -0.6606 -0.3701
19962SOL    HW162906   6.695   1.333   0.407  1.0656 -1.4989 -1.0916
19962SOL    HW262907   6.810   1.412   0.349  1.1167 -0.3838  0.4871
19963SOL     OW62908   1.887   6.244   7.386  0.0323  0.2026 -0.4053
19963SOL    HW162909   1.955   6.310   7.395  0.8278 -0.6927  0.2042
19963SOL    HW262910   1.815   6.290   7.342  0.0870  1.8052  1.1212
19964SOL     OW62911   7.707   4.291   4.717 -0.4129  0.3284  0.0617
19964SOL    HW162912   7.731   4.360   4.779 -0.9232  0.9049 -0.3666
19964SOL    HW262913   7.790   4.256   4.687 -0.1515  0.5831  0.4806
19965SOL     OW62914   0.939   4.782   7.684 -0.1876  0.1092  0.0844
19965SOL    HW162915   0.954   4.738   7.768  2.0129  1.9088  0.6861
19965SOL    HW262916   0.861   4.835   7.699 -0.2182 -0.1235  0.7850
19966SOL     OW62917   3.283   0.116   6.475  0.3362 -0.1488 -0.3234
19966SOL    HW162918   3.231   0.195   6.490  1.4433  0.5357 -0.0017
19966SOL    HW262919   3.225   0.058   6.426 -1.0948  0.1801  0.9337
19967SOL     OW62920   7.081   0.247   7.849  0.6603 -0.7179 -0.2137
19967SOL    HW162921   7.173   0.263   7.868  1.1547 -0.5405 -2.6050
19967SOL    HW262922   7.081   0.204   7.764 -1.3603 -2.7988  0.7780
19968SOL     OW62923   1.174   2.397   2.245  0.5244 -0.7980  0.0209
19968SOL    HW162924   1.139   2.378   2.158  1.1093  0.6031 -0.5419
19968SOL    HW262925   1.260   2.356   2.246  1.2195  0.6135 -0.6918
19969SOL     OW62926   2.057   4.215   3.487 -0.9246  0.4651  0.0978
19969SOL    HW162927   2.096   4.168   3.560 -1.2905 -0.0169 -0.0166
19969SOL    HW262928   2.064   4.154   3.413 -0.4195  1.0038 -0.3074
19970SOL     OW62929   6.290   8.507   0.960  0.6286  0.1253 -0.1457
19970SOL    HW162930   6.210   8.557   0.975  0.8790  0.2355  0.8834
19970SOL    HW262931   6.337   8.557   0.893 -1.2722 -1.2436 -2.5973
19971SOL     OW62932   6.049   3.313   2.589  0.0178 -0.0164  0.4589
19971SOL    HW162933   6.029   3.369   2.664  1.1132  0.0404  0.7158
19971SOL    HW262934   5.966   3.272   2.566 -0.4218  0.3652  1.3807
19972SOL     OW62935   2.126   0.929   8.861  0.5769 -0.0916 -0.5135
19972SOL    HW162936   2.049   0.928   8.919  0.5279 -1.2905 -0.5974
19972SOL    HW262937   2.161   0.841   8.867  0.9746 -0.0183 -1.7992
19973SOL     OW62938   2.671   8.529   1.911 -0.3093  0.0419  0.4511
19973SOL    HW162939   2.585   8.507   1.877  0.8323  0.0450 -2.5500
19973SOL    HW262940   2.728   8.458   1.882  1.2035  1.3355  0.1720
19974SOL     OW62941   4.754   1.531   5.405 -0.7263 -0.0482  0.2568
19974SOL    HW162942   4.758   1.437   5.389 -1.1512  0.1705 -1.2098
19974SOL    HW262943   4.785   1.542   5.495  0.1814 -1.5017  0.1277
19975SOL     OW62944   8.627   7.394   0.138  0.1364  0.3204  0.0856
19975SOL    HW162945   8.581   7.467   0.097 -0.9553 -2.0719 -3.1405
19975SOL    HW262946   8.599   7.397   0.230 -1.4096  2.7386 -0.4085
19976SOL     OW62947   8.234   7.332   1.861  0.0990  0.4471  0.1467
19976SOL    HW162948   8.262   7.396   1.927  0.4020 -0.8340  1.2996
19976SOL    HW262949   8.165   7.376   1.812  0.3464  1.6785  0.8919
19977SOL     OW62950   7.730   8.502   8.573 -0.0690 -1.1084 -0.2678
19977SOL    HW162951   7.771   8.428   8.617  0.0565 -1.1284 -0.4209
19977SOL    HW262952   7.786   8.521   8.498  0.9564  0.3677  0.8559
19978SOL     OW62953   2.908   3.212   2.370 -0.2460  0.1995  0.0997
19978SOL    HW162954   2.994   3.252   2.360  0.3446 -0.7880  1.2071
19978SOL    HW262955   2.846   3.283   2.351  0.7687  0.3418 -3.0583
19979SOL     OW62956   7.386   4.475   1.484  0.0224 -0.7542  0.3042
19979SOL    HW162957   7.424   4.501   1.568  0.1815  1.2126 -0.3408
19979SOL    HW262958   7.292   4.481   1.497  0.0552  0.1615  0.1837
19980SOL     OW62959   8.554   0.116   2.822 -0.3083  0.7100  0.1702
19980SOL    HW162960   8.482   0.094   2.763 -1.1297 -1.0961  1.7669
19980SOL    HW262961   8.519   0.184   2.879  0.2598  1.9543 -0.9192
19981SOL     OW62962   2.449   4.684   6.370  0.2490  0.3021 -0.1265
19981SOL    HW162963   2.455   4.769   6.414  1.3403  0.0024  0.3340
19981SOL    HW262964   2.522   4.634   6.406  0.7414 -0.1979 -1.7895
19982SOL     OW62965   3.352   6.836   5.154 -0.0306  0.0555  0.0540
19982SOL    HW162966   3.359   6.791   5.238 -2.0781 -0.6362 -0.1098
19982SOL    HW262967   3.350   6.929   5.176  0.4098 -0.0821  0.6883
19983SOL     OW62968   7.659   2.989   7.167 -0.3381 -0.2537  0.0975
19983SOL    HW162969   7.704   2.968   7.085 -0.9813  0.0962 -0.3474
19983SOL    HW262970   7.725   2.974   7.235  0.3581 -0.0327 -0.5212
19984SOL     OW62971   0.426   5.431   6.609  0.1506  0.6209  0.0659
19984SOL    HW162972   0.372   5.511   6.609  0.5785  0.9263 -0.9495
19984SOL    HW262973   0.385   5.376   6.542  0.4893  0.4367  0.0120
19985SOL     OW62974   4.706   5.369   9.111 -0.1741 -0.2085 -0.2235
19985SOL    HW162975   4.612   5.380   9.122  0.0816  0.5569  1.2572
19985SOL    HW262976   4.732   5.440   9.052 -0.3048  0.4289  0.4846
19986SOL     OW62977   0.670   1.896   0.907 -0.4000 -0.1117  0.4705
19986SOL    HW162978   0.669   1.966   0.842 -0.9667 -1.0885 -0.5783
19986SOL    HW262979   0.583   1.855   0.899 -0.1693 -0.7646  1.2601
19987SOL     OW62980   8.773   1.846   7.458  0.1176  0.3628 -1.0231
19987SOL    HW162981   8.722   1.780   7.504  1.3083 -2.3326 -3.3766
19987SOL    HW262982   8.747   1.929   7.497 -2.2315 -1.3944  1.2946
19988SOL     OW62983   7.211   4.855   7.913 -0.0997 -0.2351  0.1694
19988SOL    HW162984   7.227   4.909   7.836  0.2496 -0.3819  0.1414
19988SOL    HW262985   7.222   4.765   7.882 -0.9226 -0.3392  0.1552
19989SOL     OW62986   2.015   5.766   8.633 -0.1663 -0.2748  0.3333
19989SOL    HW162987   1.924   5.738   8.633  0.2692 -1.7376 -2.0293
19989SOL    HW262988   2.066   5.686   8.624  1.3538  0.6026  0.7794
19990SOL     OW62989   4.122   6.773   4.482  0.0638 -0.5545  0.3863
19990SOL    HW162990   4.124   6.858   4.525 -1.5430  0.4552 -1.4963
19990SOL    HW262991   4.052   6.725   4.526  1.2983 -1.1206  1.7838
19991SOL     OW62992   5.975   1.847   7.819  0.3149 -0.4186  0.3634
19991SOL    HW162993   5.995   1.757   7.794 -1.3232 -0.3596 -1.3272
19991SOL    HW262994   5.904   1.839   7.882  0.4655 -0.3377  0.5410
19992SOL     OW62995   1.815   6.144   7.636  0.0775  0.7049  0.3602
19992SOL    HW162996   1.849   6.183   7.556 -1.4455 -2.5725 -2.0204
19992SOL    HW262997   1.872   6.070   7.653 -1.2417 -0.2594  0.7164
19993SOL     OW62998   9.055   6.633   4.335 -0.5438 -0.5461 -0.2856
19993SOL    HW162999   8.968   6.654   4.300 -0.8919 -0.3643  0.6838
19993SOL    HW263000   9.039   6.568   4.403 -0.0270  0.2265  0.5924
19994SOL     OW63001   0.819   2.885   8.790 -0.7394  0.0447 -0.8023
19994SOL    HW163002   0.901   2.889   8.741 -0.5577  0.8665 -0.4222
19994SOL    HW263003   0.831   2.813   8.852 -0.4416 -0.0687 -0.9930
19995SOL     OW63004   1.728   8.471   1.594 -0.3436 -0.5665  0.1558
19995SOL    HW163005   1.740   8.378   1.616  0.9347 -0.2914  0.6471
19995SOL    HW263006   1.746   8.518   1.675 -0.3610  0.1506 -0.2501
19996SOL     OW63007   6.021   9.115   5.293  0.0342  0.3192  0.0660
19996SOL    HW163008   6.104   9.119   5.246 -0.3680 -0.1255 -0.6941
19996SOL    HW263009   5.988   9.027   5.277 -0.9102  0.7154 -0.2062
19997SOL     OW63010   8.660   4.157   6.800 -0.2887  0.2707 -1.0864
19997SOL    HW163011   8.727   4.220   6.829 -2.1170  3.5125 -3.5178
19997SOL    HW263012   8.587   4.172   6.860  0.5902 -2.2260  0.6500
19998SOL     OW63013   6.133   5.879   1.355 -0.2035 -0.0080 -0.2947
19998SOL    HW163014   6.051   5.832   1.367 -1.9240  2.4995 -1.6038
19998SOL    HW263015   6.149   5.922   1.439 -0.6623  0.1160 -0.2699
19999SOL     OW63016   6.002   2.494   3.327  0.2078 -0.6547  0.3557
19999SOL    HW163017   6.085   2.499   3.280  0.7886  0.2340  1.4612
19999SOL    HW263018   6.024   2.515   3.417 -1.5074  1.4536  0.3369
20000SOL     OW63019   8.406   0.850   7.947 -0.8701 -0.1695  0.3298
20000SOL    HW163020   8.466   0.843   7.873 -1.1492 -0.6948  0.1484
20000SOL    HW263021   8.425   0.772   7.999 -0.4952  0.3299  0.9493
20001SOL     OW63022   7.890   2.916   3.706  0.2369 -0.0351  0.3714
20001SOL    HW163023   7.971   2.870   3.685  0.3770 -0.1353  1.1066
20001SOL    HW263024   7.909   2.960   3.789 -0.3633  0.1933  0.3866
20002SOL     OW63025   0.469   7.126   1.564  0.0545 -0.2079  0.2308
20002SOL    HW163026   0.406   7.119   1.636 -1.0930  0.6120 -0.6618
20002SOL    HW263027   0.421   7.172   1.496  0.0205 -3.7638 -2.2990
20003SOL     OW63028   7.064   4.443   7.823  0.0490  0.0276  0.5358
20003SOL    HW163029   7.051   4.461   7.916 -0.6810  0.7340  0.3022
20003SOL    HW263030   6.977   4.451   7.785 -0.3450 -3.9809  0.4012
20004SOL     OW63031   5.857   4.657   2.513 -0.1903 -0.4803  0.0471
20004SOL    HW163032   5.832   4.743   2.549 -0.4650 -0.8994  0.8869
20004SOL    HW263033   5.902   4.677   2.431 -0.1207  0.4769  0.3107
20005SOL     OW63034   7.427   1.022   8.965 -0.2076 -0.3185  0.4734
20005SOL    HW163035   7.368   1.035   8.892 -0.2055 -0.7866  0.3853
20005SOL    HW263036   7.470   0.938   8.947  0.6418  0.1221  0.4225
20006SOL     OW63037   2.558   6.675   0.163  0.0299 -0.4992  0.2755
20006SOL    HW163038   2.609   6.672   0.244  0.2608  1.0803  0.2036
20006SOL    HW263039   2.621   6.701   0.096 -0.5350 -0.1106 -0.1049
20007SOL     OW63040   3.805   2.384   7.684  0.3902 -0.2859 -0.1598
20007SOL    HW163041   3.838   2.472   7.702 -1.0274  0.2778 -0.3027
20007SOL    HW263042   3.773   2.353   7.768  1.8986 -1.1217  0.1364
20008SOL     OW63043   5.882   1.131   7.673 -0.3357  0.0050  0.3144
20008SOL    HW163044   5.885   1.224   7.653  1.0204 -0.5346 -2.1022
20008SOL    HW263045   5.929   1.089   7.602 -2.3857 -2.6935  0.4551
20009SOL     OW63046   0.671   3.525   3.824 -0.0939 -0.0748 -0.3508
20009SOL    HW163047   0.591   3.571   3.797 -0.8618 -1.3364 -0.2933
20009SOL    HW263048   0.665   3.523   3.920  1.6988  2.7655 -0.1356
20010SOL     OW63049   2.871   1.094   6.364 -0.0632 -0.0100  0.0208
20010SOL    HW163050   2.887   1.030   6.295 -1.1122  0.6423 -0.8351
20010SOL    HW263051   2.908   1.054   6.443 -0.3319 -1.4809 -0.5897
20011SOL     OW63052   1.353   1.246   6.031  0.0568 -0.4631  0.3438
20011SOL    HW163053   1.376   1.337   6.050 -0.3612 -0.3832  0.4899
20011SOL    HW263054   1.257   1.245   6.034  0.0929 -1.2052  1.7544
20012SOL     OW63055   0.789   3.338   8.153 -0.0564 -0.3436  0.0684
20012SOL    HW163056   0.844   3.279   8.206 -1.0308 -1.1410  0.2099
20012SOL    HW263057   0.810   3.314   8.062 -0.3841 -0.8470  0.1234
20013SOL     OW63058   8.828   0.090   6.735  0.5893  0.1386 -0.2425
20013SOL    HW163059   8.843   0.073   6.642  0.1236  1.7090 -0.6124
20013SOL    HW263060   8.876   0.020   6.780  1.4312 -0.2006 -1.6398
20014SOL     OW63061   4.906   7.945   8.572  0.1458  0.1303 -0.2181
20014SOL    HW163062   4.937   7.874   8.628 -0.4567  0.7242  0.8993
20014SOL    HW263063   4.814   7.924   8.555  0.5035 -0.3884 -1.5391
20015SOL     OW63064   4.296   2.731   6.317 -0.1390 -0.1642 -0.5754
20015SOL    HW163065   4.243   2.686   6.384  0.7884 -0.5054 -0.0518
20015SOL    HW263066   4.361   2.666   6.291  1.4517  0.9772  0.4501
20016SOL     OW63067   6.515   4.078   5.615  0.0251 -0.2676  0.1020
20016SOL    HW163068   6.482   4.099   5.527  0.6323 -1.0123 -0.3121
20016SOL    HW263069   6.609   4.066   5.603 -0.0482 -1.4830  0.6412
20017SOL     OW63070   2.881   7.120   1.571  0.2490 -0.3628  0.1789
20017SOL    HW163071   2.868   7.143   1.663 -1.2396  0.9873 -0.3518
20017SOL    HW263072   2.944   7.185   1.538  1.5924 -1.4756  0.4779
20018SOL     OW63073   7.076   2.961   8.645  0.1158 -0.1693 -0.3014
20018SOL    HW163074   7.008   3.007   8.695 -0.9044 -1.0304 -0.8998
20018SOL    HW263075   7.083   3.010   8.563  0.6865  0.3080  0.0282
20019SOL     OW63076   3.388   2.478   5.502  0.0153  0.3593  0.1293
20019SOL    HW163077   3.429   2.563   5.520  2.3718 -1.1172  2.1291
20019SOL    HW263078   3.310   2.477   5.557 -0.3337  1.4598 -0.3378
20020SOL     OW63079   8.307   3.892   5.711  0.3084 -0.7008 -0.6134
20020SOL    HW163080   8.219   3.888   5.675  0.4623  0.4292 -1.1205
20020SOL    HW263081   8.361   3.926   5.639  0.9584 -0.3143  0.0536
20021SOL     OW63082   2.058   3.015   0.611 -0.3442  0.9261 -0.4206
20021SOL    HW163083   1.984   2.963   0.640  0.1244  1.2969  1.4962
20021SOL    HW263084   2.031   3.106   0.624  0.2950  1.0689 -0.0395
20022SOL     OW63085   4.867   2.422   3.514 -0.1466  0.2819 -0.1907
20022SOL    HW163086   4.949   2.415   3.564 -1.1254 -0.7031  1.3315
20022SOL    HW263087   4.800   2.435   3.581 -1.8965 -4.1292 -0.9620
20023SOL     OW63088   3.687   3.129   3.739 -0.0166  0.6357  0.5191
20023SOL    HW163089   3.615   3.138   3.801 -1.1185  1.6114 -0.8755
20023SOL    HW263090   3.664   3.052   3.687 -0.0566  0.9454  0.0758
20024SOL     OW63091   1.576   8.311   3.035  0.8743 -0.3802 -0.6579
20024SOL    HW163092   1.567   8.395   3.078 -1.0906 -1.4959  1.2159
20024SOL    HW263093   1.669   8.291   3.040  1.0495  0.7153  0.7889
20025SOL     OW63094   7.762   1.470   3.384  0.2649  0.6232 -0.4830
20025SOL    HW163095   7.854   1.445   3.390  0.5498  1.5521 -0.9792
20025SOL    HW263096   7.715   1.400   3.431  1.2148  0.1516 -0.2307
20026SOL     OW63097   9.361   6.568   2.661 -0.2015  0.6306  0.2384
20026SOL    HW163098   9.296   6.627   2.622 -1.7959 -0.8028  0.6398
20026SOL    HW263099   9.348   6.577   2.755  0.7209  0.8830  0.3510
20027SOL     OW63100   1.763   0.306   8.904  0.2205  0.3552  0.1215
20027SOL    HW163101   1.851   0.336   8.922  0.4499  0.1404 -0.6029
20027SOL    HW263102   1.715   0.385   8.878  0.3208  0.3962  0.0631
20028SOL     OW63103   8.383   5.506   6.283 -0.3044 -0.3994 -0.4431
20028SOL    HW163104   8.471   5.479   6.255 -0.0294 -1.1898  1.1272
20028SOL    HW263105   8.375   5.595   6.249  1.0282 -0.3893 -0.7960
20029SOL     OW63106   7.838   4.135   1.533 -0.1409  0.3137 -0.3683
20029SOL    HW163107   7.751   4.109   1.502 -0.1188  0.0363 -0.2037
20029SOL    HW263108   7.864   4.206   1.474 -1.1093  1.4388  0.5425
20030SOL     OW63109   4.171   3.465   0.933  0.1308  0.3685 -0.5443
20030SOL    HW163110   4.091   3.475   0.881 -0.1015  0.9286 -0.0831
20030SOL    HW263111   4.235   3.428   0.872 -1.0245 -1.8810 -0.4175
20031SOL     OW63112   5.214   7.138   5.300  0.0455 -0.1900  0.0532
20031SOL    HW163113   5.270   7.068   5.333 -0.8638 -0.6138  0.7053
20031SOL    HW263114   5.196   7.193   5.376 -0.5851 -0.1661 -0.1097
20032SOL     OW63115   5.915   9.051   7.408  0.2633 -0.7252 -0.0504
20032SOL    HW163116   6.003   9.039   7.374  0.6578 -0.0877  0.7386
20032SOL    HW263117   5.860   9.063   7.330  1.0060 -0.2343 -0.5006
20033SOL     OW63118   4.963   9.007   4.584 -0.1444 -0.1161 -0.1172
20033SOL    HW163119   4.915   8.929   4.557 -0.9619  0.1215  0.6041
20033SOL    HW263120   4.941   9.017   4.677  2.0051 -0.5064  0.4497
20034SOL     OW63121   4.032   3.439   5.253  0.3732  0.7502  0.8833
20034SOL    HW163122   4.046   3.533   5.263 -0.6680  1.3210 -2.5189
20034SOL    HW263123   4.108   3.408   5.204 -0.8413  0.4162 -0.8156
20035SOL     OW63124   5.288   7.319   2.383  0.0741  0.0970  0.3652
20035SOL    HW163125   5.203   7.275   2.372 -0.3924  0.7854  1.1443
20035SOL    HW263126   5.282   7.361   2.469 -0.2995  3.4128 -1.1792
20036SOL     OW63127   8.390   1.902   0.618  1.2192  0.0944 -0.1476
20036SOL    HW163128   8.341   1.979   0.589 -1.2305 -0.8791  1.1998
20036SOL    HW263129   8.397   1.847   0.540 -0.0386  0.1853 -0.3437
20037SOL     OW63130   3.965   0.241   4.496  0.6930  0.2956  0.1816
20037SOL    HW163131   4.013   0.184   4.556 -0.1364  0.8802  1.4179
20037SOL    HW263132   3.909   0.182   4.446 -0.9271  0.0936  2.1748
20038SOL     OW63133   4.633   5.398   2.996 -0.2892 -0.5453 -0.2916
20038SOL    HW163134   4.585   5.331   3.044 -0.2948 -0.7811 -0.6217
20038SOL    HW263135   4.671   5.352   2.921 -1.0123 -0.0129 -0.9948
20039SOL     OW63136   4.898   6.982   0.958  0.3756 -0.3625  0.4616
20039SOL    HW163137   4.994   6.986   0.966  0.5274 -0.9849 -0.8854
20039SOL    HW263138   4.878   7.033   0.880 -0.3678 -0.5308  0.5363
20040SOL     OW63139   4.673   7.492   6.400  0.9670 -0.1255 -0.6696
20040SOL    HW163140   4.668   7.576   6.445 -1.2822 -0.7073  0.2198
20040SOL    HW263141   4.756   7.455   6.428 -0.1622 -0.2506  2.6743
20041SOL     OW63142   8.048   1.366   4.754 -0.6545  0.0173  0.4721
20041SOL    HW163143   8.113   1.427   4.720  1.1581 -1.1538  1.7112
20041SOL    HW263144   8.059   1.287   4.700 -1.2864 -0.0528  0.4478
20042SOL     OW63145   6.183   0.665   9.137 -0.2411 -0.5531 -0.3634
20042SOL    HW163146   6.207   0.742   9.086 -0.7844  0.4254  0.8110
20042SOL    HW263147   6.104   0.632   9.095  0.4117 -0.9069 -1.3146
20043SOL     OW63148   5.829   4.498   4.725 -0.2734 -0.1974 -0.1217
20043SOL    HW163149   5.905   4.467   4.775 -0.0744 -0.8776 -0.8351
20043SOL    HW263150   5.788   4.564   4.782  2.9073  2.8556 -1.1534
20044SOL     OW63151   0.685   1.074   0.843  0.2030  0.2419 -0.0507
20044SOL    HW163152   0.747   1.077   0.770 -2.0352  2.5490 -1.9786
20044SOL    HW263153   0.602   1.050   0.802 -0.5801 -0.9358  2.1676
20045SOL     OW63154   0.288   9.132   2.451 -0.2378  0.6836  0.1685
20045SOL    HW163155   0.363   9.075   2.436  0.4759  1.7526 -0.3344
20045SOL    HW263156   0.215   9.071   2.464  0.3262 -0.3487 -1.2972
20046SOL     OW63157   5.582   7.261   5.432 -0.6975 -0.0706  0.1524
20046SOL    HW163158   5.676   7.268   5.416 -0.6740  0.8686  0.7000
20046SOL    HW263159   5.570   7.173   5.467  0.1985  0.3510  1.5711
20047SOL     OW63160   5.190   6.476   9.388  0.2468  0.0416 -0.0043
20047SOL    HW163161   5.286   6.476   9.388  0.2466 -0.0007  0.0534
20047SOL    HW263162   5.166   6.505   9.300  0.3120  0.0293 -0.0259
20048SOL     OW63163   5.187   1.667   2.496 -0.3543 -0.2848 -0.4717
20048SOL    HW163164   5.094   1.671   2.518 -0.1607  0.9232  0.1818
20048SOL    HW263165   5.227   1.622   2.570  0.0198  2.0554  0.8016
20049SOL     OW63166   8.266   1.161   4.316  0.0166 -0.5356  0.4303
20049SOL    HW163167   8.252   1.068   4.331  0.5465 -0.5067  1.1694
20049SOL    HW263168   8.358   1.175   4.339 -0.3863  0.3934  1.5310
20050SOL     OW63169   3.971   5.253   0.152  0.0629  0.5484  0.0931
20050SOL    HW163170   3.992   5.277   0.062 -0.7814 -0.6036 -0.4143
20050SOL    HW263171   4.046   5.203   0.182 -0.7840 -1.3261 -0.8540
20051SOL     OW63172   7.133   8.436   4.809  0.2768 -0.7342 -0.0031
20051SOL    HW163173   7.172   8.380   4.741  0.5393 -0.8986  0.2791
20051SOL    HW263174   7.207   8.460   4.865  0.3392  0.7004 -0.6748
20052SOL     OW63175   7.722   3.100   3.637  0.2900 -0.2643 -0.1859
20052SOL    HW163176   7.790   3.143   3.587 -0.0861 -0.5743 -0.9682
20052SOL    HW263177   7.764   3.023   3.676  0.5346 -0.1243 -0.1792
20053SOL     OW63178   1.031   7.521   2.636 -0.5077 -0.1945  0.4157
20053SOL    HW163179   1.004   7.507   2.726  0.6561  1.1188  0.9863
20053SOL    HW263180   1.060   7.612   2.633 -0.2858 -0.2972 -1.2164
20054SOL     OW63181   8.593   2.008   2.397  0.6797  0.0686 -0.4278
20054SOL    HW163182   8.672   2.033   2.444  1.0495 -1.0468 -0.4525
20054SOL    HW263183   8.594   1.912   2.396 -1.3127 -0.0060  0.6904
20055SOL     OW63184   3.117   8.554   3.146 -0.1294  0.0969 -0.2095
20055SOL    HW163185   3.205   8.588   3.128 -0.3112  1.9949  2.1472
20055SOL    HW263186   3.095   8.501   3.069  2.5413  0.6506 -1.4101
20056SOL     OW63187   8.562   2.848   3.175  0.2332  0.0699  0.4834
20056SOL    HW163188   8.472   2.878   3.192 -0.5660 -2.3238  0.6495
20056SOL    HW263189   8.555   2.796   3.095  0.8481 -2.8172  2.2407
20057SOL     OW63190   7.451   1.247   4.484  0.1956  0.0654  0.0119
20057SOL    HW163191   7.383   1.309   4.508  0.9563  0.3742  1.3948
20057SOL    HW263192   7.527   1.301   4.464  0.0730 -0.2828 -1.4776
20058SOL     OW63193   1.033   1.638   8.868 -0.5049  0.4429 -0.0834
20058SOL    HW163194   0.969   1.673   8.806 -2.4179 -0.2805  1.4048
20058SOL    HW263195   0.980   1.587   8.929  1.6911 -1.3216  0.3862
20059SOL     OW63196   4.987   2.711   0.640 -0.2604  0.2666 -0.7403
20059SOL    HW163197   4.921   2.761   0.593 -0.6453  0.1911 -0.2771
20059SOL    HW263198   5.070   2.753   0.617 -0.5487  0.9025 -0.6182
20060SOL     OW63199   8.232   7.088   7.824 -0.4391  0.3539 -0.0106
20060SOL    HW163200   8.199   7.030   7.755 -0.1786  0.2780 -0.0730
20060SOL    HW263201   8.304   7.040   7.863 -1.0645  0.0725  0.8214
20061SOL     OW63202   7.409   6.309   3.575 -0.3727 -0.0248 -0.3412
20061SOL    HW163203   7.390   6.324   3.667  0.7243  1.7526 -0.3796
20061SOL    HW263204   7.503   6.290   3.572 -0.4951 -0.5600 -1.0385
20062SOL     OW63205   8.363   8.460   1.775 -0.3846 -0.1419  0.6843
20062SOL    HW163206   8.412   8.510   1.841 -1.9174 -1.1676  2.6561
20062SOL    HW263207   8.426   8.394   1.744  1.1539  1.9580 -0.7956
20063SOL     OW63208   3.741   4.354   3.112  0.5035  0.0063  0.2261
20063SOL    HW163209   3.745   4.367   3.017  1.7231 -0.7532  0.1672
20063SOL    HW263210   3.738   4.442   3.149  2.3033  0.3541 -0.4187
20064SOL     OW63211   7.309   7.915   4.695  0.0352 -0.1029 -0.5926
20064SOL    HW163212   7.245   7.874   4.638 -1.7387  0.3591  0.9935
20064SOL    HW263213   7.260   7.935   4.775  1.5281  2.4953 -0.2628
20065SOL     OW63214   0.207   4.682   4.556  0.1377 -0.2711  0.1021
20065SOL    HW163215   0.296   4.717   4.557  0.1819 -0.3268  3.1534
20065SOL    HW263216   0.152   4.757   4.530  0.7342  0.7370  1.6793
20066SOL     OW63217   7.322   3.854   3.144  0.3172  0.3934 -0.1112
20066SOL    HW163218   7.227   3.857   3.135  0.1308 -2.3834  0.2459
20066SOL    HW263219   7.355   3.888   3.062 -0.9506  3.1817  0.4924
20067SOL     OW63220   1.952   3.998   3.364 -0.9204  0.4722  0.5872
20067SOL    HW163221   1.995   3.912   3.364 -2.4196 -0.3220 -1.3464
20067SOL    HW263222   1.976   4.036   3.280 -2.7435  0.6497  0.1318
20068SOL     OW63223   8.474   5.084   1.623  0.2850  0.4272  0.0069
20068SOL    HW163224   8.382   5.090   1.650  0.9111  0.8707  2.1897
20068SOL    HW263225   8.484   4.994   1.592 -0.1972 -0.5977  2.6477
20069SOL     OW63226   5.245   3.023   1.087 -0.4711  0.3463 -0.2105
20069SOL    HW163227   5.219   2.947   1.139 -0.1632  0.2034 -0.2659
20069SOL    HW263228   5.164   3.072   1.074 -0.3695  0.9403  1.3187
20070SOL     OW63229   2.681   3.153   1.679 -0.0240  0.7345 -0.1696
20070SOL    HW163230   2.593   3.189   1.666 -0.5526  0.1646  1.6545
20070SOL    HW263231   2.679   3.068   1.635 -0.8153  0.1416  0.9968
20071SOL     OW63232   6.820   5.261   1.962  0.4265  0.1110  0.0534
20071SOL    HW163233   6.761   5.320   1.914  1.3235  0.0242 -1.1725
20071SOL    HW263234   6.908   5.289   1.937  0.8672 -1.5945 -0.3424
20072SOL     OW63235   4.224   8.092   0.545 -0.0848 -0.0818 -0.2639
20072SOL    HW163236   4.144   8.137   0.572  1.0231  1.2334  0.9056
20072SOL    HW263237   4.246   8.132   0.461 -0.5334 -0.2830 -0.4772
20073SOL     OW63238   8.497   4.641   6.380  0.7849  0.3305  0.6071
20073SOL    HW163239   8.533   4.729   6.370 -0.6578  0.8184 -0.5203
20073SOL    HW263240   8.420   4.640   6.324  2.2115 -2.4843 -1.4703
20074SOL     OW63241   8.232   1.751   8.394 -0.2235 -0.1220 -0.1295
20074SOL    HW163242   8.182   1.833   8.388 -0.4347 -0.2527 -0.1464
20074SOL    HW263243   8.235   1.732   8.487  0.8320  0.5255 -0.0220
20075SOL     OW63244   3.143   6.907   6.018  0.4553 -0.5419 -0.5458
20075SOL    HW163245   3.118   6.916   5.926  1.5942  1.9115 -0.6585
20075SOL    HW263246   3.059   6.902   6.064 -0.1514 -0.0998 -1.5746
20076SOL     OW63247   2.230   8.929   8.638  0.3973 -0.0705  0.0268
20076SOL    HW163248   2.138   8.915   8.663  0.1066  0.2401 -0.8420
20076SOL    HW263249   2.268   8.976   8.712 -1.3009  3.7780 -1.4122
20077SOL     OW63250   0.360   5.723   6.784  0.2958  0.6434  0.2011
20077SOL    HW163251   0.429   5.751   6.725  1.6803 -0.2702  1.3557
20077SOL    HW263252   0.404   5.705   6.867 -0.6533 -3.6982 -0.0969
20078SOL     OW63253   5.237   6.429   3.241 -0.4366 -0.0127  0.3031
20078SOL    HW163254   5.172   6.374   3.286 -0.6189  1.4734  1.8568
20078SOL    HW263255   5.186   6.503   3.208 -0.0453 -0.3688 -1.1254
20079SOL     OW63256   5.339   4.654   5.581 -0.0192  0.4153  0.1976
20079SOL    HW163257   5.278   4.581   5.573 -1.5036  1.6529  0.1642
20079SOL    HW263258   5.350   4.666   5.675 -3.0948  2.8469  0.3260
20080SOL     OW63259   3.056   4.273   5.851  0.1526 -0.0815 -0.4745
20080SOL    HW163260   3.146   4.296   5.875  0.1272  0.2179 -0.6610
20080SOL    HW263261   3.038   4.192   5.899  0.6132 -0.2819 -0.6333
20081SOL     OW63262   4.775   8.384   5.332 -0.5107  0.6550  0.4862
20081SOL    HW163263   4.846   8.430   5.376  0.9034 -2.2036  1.3063
20081SOL    HW263264   4.744   8.320   5.396 -2.2233  0.2454 -0.7003
20082SOL     OW63265   1.247   5.208   0.233 -0.1392  0.2261  0.1191
20082SOL    HW163266   1.271   5.296   0.264  0.1732  0.5208 -0.9264
20082SOL    HW263267   1.314   5.187   0.168 -0.1881 -0.8105  0.4075
20083SOL     OW63268   5.264   6.565   6.170 -0.2426  0.2304 -0.1675
20083SOL    HW163269   5.357   6.586   6.163 -0.4292  1.6097  1.1844
20083SOL    HW263270   5.220   6.650   6.171 -1.3995 -0.3621  0.7235
20084SOL     OW63271   8.927   5.826   7.332  0.0031  0.1287 -0.2120
20084SOL    HW163272   8.947   5.902   7.387 -0.5817 -0.8360  1.3519
20084SOL    HW263273   8.981   5.756   7.368 -1.6563 -0.9515  0.2436
20085SOL     OW63274   0.946   0.530   9.041 -0.4820  0.1969 -0.3563
20085SOL    HW163275   0.894   0.458   9.078  0.8223  0.1463  1.4569
20085SOL    HW263276   1.035   0.495   9.036  0.2245  1.7423  0.8218
20086SOL     OW63277   7.173   8.598   0.587 -0.7086  0.2387 -0.5194
20086SOL    HW163278   7.085   8.602   0.626 -1.2831  1.9995 -1.9395
20086SOL    HW263279   7.178   8.509   0.551 -1.2974 -0.3991  0.8994
20087SOL     OW63280   6.692   2.042   8.442 -0.0944 -0.2250 -0.8069
20087SOL    HW163281   6.747   2.036   8.364  1.1352 -0.9127  0.1025
20087SOL    HW263282   6.750   2.018   8.514 -1.7237 -1.4983  0.1075
20088SOL     OW63283   5.548   5.021   4.202 -0.0419  0.4598  0.5170
20088SOL    HW163284   5.635   5.015   4.242 -0.2071 -0.7601  0.7179
20088SOL    HW263285   5.535   5.115   4.186  0.8574  0.7593  1.4866
20089SOL     OW63286   2.931   3.798   4.820  0.2603  0.1561  0.2836
20089SOL    HW163287   3.001   3.799   4.884 -0.4459 -0.4419  1.0677
20089SOL    HW263288   2.974   3.774   4.738  1.2231  1.2681  0.4469
20090SOL     OW63289   6.141   3.922   5.050 -0.0401 -0.0704 -0.5183
20090SOL    HW163290   6.100   3.835   5.048  1.2303 -0.6864 -0.3380
20090SOL    HW263291   6.138   3.948   5.142  0.4773 -0.3635 -0.4173
20091SOL     OW63292   4.542   0.137   8.499  0.4991  0.1949 -0.2986
20091SOL    HW163293   4.553   0.232   8.506 -1.7281  0.5619 -1.2714
20091SOL    HW263294   4.488   0.114   8.575 -0.1000 -0.0770 -0.8051
20092SOL     OW63295   6.895   5.927   1.415  0.5060 -0.3197  0.1214
20092SOL    HW163296   6.848   5.871   1.476  0.8561  0.1845  0.8567
20092SOL    HW263297   6.987   5.903   1.427  0.9948  2.4962  2.6486
20093SOL     OW63298   4.683   3.278   0.463  0.4482 -0.2087 -0.2526
20093SOL    HW163299   4.771   3.242   0.455  0.5318 -0.2460  0.7862
20093SOL    HW263300   4.656   3.258   0.553  0.1497  1.5250  0.0693
20094SOL     OW63301   6.679   9.072   2.318 -0.3630 -0.0883  0.0298
20094SOL    HW163302   6.724   8.996   2.282 -0.8848 -0.1243 -0.5620
20094SOL    HW263303   6.684   9.138   2.249 -0.1350  0.3294  0.4421
20095SOL     OW63304   0.825   3.876   1.276  0.1133 -0.5860 -0.1971
20095SOL    HW163305   0.784   3.840   1.355  0.6943  0.0440  0.3900
20095SOL    HW263306   0.755   3.875   1.210 -0.9249  0.6729  0.8590
20096SOL     OW63307   5.691   1.914   0.266 -0.3689 -0.1649  0.2933
20096SOL    HW163308   5.724   2.003   0.278 -2.1096  0.5170  0.1060
20096SOL    HW263309   5.743   1.879   0.193  1.5728  0.0392  1.5500
20097SOL     OW63310   4.489   1.156   0.752 -0.2812  0.0345  0.2237
20097SOL    HW163311   4.456   1.225   0.810 -2.3240  0.4032 -1.2996
20097SOL    HW263312   4.569   1.193   0.714  0.4101  0.2607  1.8674
20098SOL     OW63313   5.659   5.976   2.869 -0.5179  0.0010 -0.0582
20098SOL    HW163314   5.674   5.901   2.812 -1.3525  0.5397 -1.0121
20098SOL    HW263315   5.743   5.993   2.910 -0.3391 -1.4926  0.2098
20099SOL     OW63316   8.990   1.860   5.751  0.1329  0.1102  0.7705
20099SOL    HW163317   8.939   1.788   5.713  1.4134  0.6917 -2.2419
20099SOL    HW263318   9.076   1.824   5.767  0.3150  0.5410  0.7760
20100SOL     OW63319   2.120   4.740   6.693 -0.3983  0.5928  0.1219
20100SOL    HW163320   2.209   4.717   6.718 -0.7338 -0.4658  0.3607
20100SOL    HW263321   2.064   4.680   6.743 -1.2121  0.6208 -0.7347
20101SOL     OW63322   7.260   6.387   9.234 -0.0272 -0.3939 -0.3527
20101SOL    HW163323   7.214   6.309   9.200  0.0523 -1.0366  0.9811
20101SOL    HW263324   7.291   6.432   9.156 -1.2667 -0.9802 -1.1994
20102SOL     OW63325   2.411   0.061   6.295 -0.2500  0.0340  0.4946
20102SOL    HW163326   2.365   0.141   6.322 -0.9421 -0.4743  0.8350
20102SOL    HW263327   2.369   0.036   6.212  1.1114  0.9612 -0.5080
20103SOL     OW63328   1.199   4.288   5.720 -0.2765  0.0358 -0.0657
20103SOL    HW163329   1.156   4.222   5.774  0.8571 -0.7840 -0.1466
20103SOL    HW263330   1.193   4.369   5.771 -0.5191 -0.4080  0.6116
20104SOL     OW63331   5.437   5.458   1.717  0.2305  0.0131 -0.0848
20104SOL    HW163332   5.398   5.383   1.762  0.0243  1.4618  2.2378
20104SOL    HW263333   5.362   5.516   1.698  0.1777 -1.0461 -3.2688
20105SOL     OW63334   7.147   2.873   3.456 -0.0033 -0.4783 -0.4810
20105SOL    HW163335   7.145   2.968   3.445 -1.8186 -0.4568 -0.0328
20105SOL    HW263336   7.062   2.844   3.425  0.9847 -2.1014 -1.7525
20106SOL     OW63337   6.920   9.427   2.090 -0.4714  0.1149 -0.6093
20106SOL    HW163338   6.949   9.387   2.007  0.3865  0.1517 -0.3318
20106SOL    HW263339   6.862   9.498   2.063  0.3068  0.5330 -1.2064
20107SOL     OW63340   6.509   3.490   7.130  0.5010  0.0569  1.1091
20107SOL    HW163341   6.465   3.546   7.066  1.5377  0.2428  0.5481
20107SOL    HW263342   6.484   3.527   7.215  0.2727  0.6856  0.7763
20108SOL     OW63343   5.532   2.953   6.899 -0.2964 -0.3555  0.0615
20108SOL    HW163344   5.550   2.996   6.983  0.3008 -0.8117  0.1770
20108SOL    HW263345   5.538   3.023   6.834 -1.4744  0.1304  0.4763
20109SOL     OW63346   5.130   4.933   5.912  0.4065  0.2175 -0.1936
20109SOL    HW163347   5.143   4.843   5.881  0.2959  0.3695 -0.6885
20109SOL    HW263348   5.037   4.937   5.934  0.4188  0.2000 -0.1401
20110SOL     OW63349   0.771   0.343   1.259  0.9331  0.3673  0.4782
20110SOL    HW163350   0.770   0.436   1.236 -1.6440  0.5422  1.1557
20110SOL    HW263351   0.808   0.300   1.182 -0.2919  1.7094 -0.8945
20111SOL     OW63352   5.133   8.386   4.930 -0.9002  0.4250 -0.1491
20111SOL    HW163353   5.167   8.465   4.888 -0.0988  0.4926  0.6138
20111SOL    HW263354   5.105   8.415   5.017  2.2852 -0.6872  1.3276
20112SOL     OW63355   2.565   6.565   2.100  0.3998  0.4168  0.1227
20112SOL    HW163356   2.470   6.558   2.091  0.3262  2.1976 -0.7754
20112SOL    HW263357   2.590   6.488   2.151 -1.5340 -0.0112  0.4782
20113SOL     OW63358   3.383   8.650   3.109 -0.6575 -0.0979 -0.0806
20113SOL    HW163359   3.399   8.685   3.021  0.4105  0.2526  0.2381
20113SOL    HW263360   3.456   8.589   3.123  1.4700  2.8036  2.1085
20114SOL     OW63361   7.003   7.402   5.105  0.2256  0.0028  0.0079
20114SOL    HW163362   7.029   7.430   5.017  0.3056 -0.9322 -0.2666
20114SOL    HW263363   6.910   7.426   5.111 -0.3000 -1.6994 -1.0573
20115SOL     OW63364   3.643   0.943   3.121 -0.1824 -0.6292  0.1665
20115SOL    HW163365   3.637   0.885   3.197 -1.1414 -0.6491  0.0835
20115SOL    HW263366   3.580   1.012   3.138 -0.1422 -0.4364 -0.4454
20116SOL     OW63367   7.604   8.043   5.483  0.2291 -0.6718 -0.1678
20116SOL    HW163368   7.686   8.001   5.509  0.4799 -0.2378 -0.2562
20116SOL    HW263369   7.536   7.979   5.506  0.7516 -1.9989 -2.1900
20117SOL     OW63370   8.453   8.772   8.526  0.0549 -0.5416  0.2018
20117SOL    HW163371   8.369   8.783   8.570 -0.1328  0.3548 -0.3682
20117SOL    HW263372   8.434   8.786   8.434  0.8308 -0.3234  0.0712
20118SOL     OW63373   0.251   3.474   5.522 -0.0988 -0.0641  0.0159
20118SOL    HW163374   0.263   3.540   5.590  1.6117 -0.8677  0.5233
20118SOL    HW263375   0.169   3.430   5.544 -0.2425  0.5877  0.7846
20119SOL     OW63376   1.039   3.206   9.424 -0.2902 -0.4120  0.1846
20119SOL    HW163377   1.067   3.249   9.504 -0.6692  0.2567 -0.0399
20119SOL    HW263378   0.944   3.202   9.430 -0.1690 -2.9508  1.0829
20120SOL     OW63379   2.007   5.888   0.946 -0.7682 -0.3473 -0.0373
20120SOL    HW163380   2.007   5.981   0.921 -0.9629 -0.5580 -0.8191
20120SOL    HW263381   2.091   5.876   0.991 -0.1704 -0.0850 -1.0614
20121SOL     OW63382   2.514   5.846   3.281  0.4281  0.1944 -0.1014
20121SOL    HW163383   2.494   5.753   3.289  0.9963  0.1346  0.7214
20121SOL    HW263384   2.475   5.873   3.198 -0.1284 -0.6750 -0.1173
20122SOL     OW63385   6.948   0.451   1.679  1.0051  0.2798 -1.0781
20122SOL    HW163386   6.991   0.380   1.727 -0.8006 -0.3330 -0.3192
20122SOL    HW263387   6.905   0.503   1.746  0.0573  0.5207 -1.8540
20123SOL     OW63388   7.442   3.241   4.003  0.0068 -0.2247  0.0822
20123SOL    HW163389   7.422   3.223   3.911 -2.4820  0.6804  0.3974
20123SOL    HW263390   7.513   3.305   4.000  1.4640 -1.8493 -1.1557
20124SOL     OW63391   0.770   0.591   3.262 -0.3491 -0.3037  1.0680
20124SOL    HW163392   0.749   0.524   3.327 -1.7144  0.4616  1.4399
20124SOL    HW263393   0.770   0.673   3.312  0.8304  0.0324  0.5254
20125SOL     OW63394   5.848   7.958   5.382  0.0020 -0.1183 -0.3573
20125SOL    HW163395   5.805   8.007   5.452  0.7426  1.0949 -0.7286
20125SOL    HW263396   5.930   7.928   5.420  0.3345  0.4117 -0.6504
20126SOL     OW63397   1.731   9.045   8.954 -0.2345 -0.3806  0.3255
20126SOL    HW163398   1.778   9.097   9.020  0.5180 -0.6470  0.0070
20126SOL    HW263399   1.728   8.957   8.991 -0.0564 -0.4693  0.1284
20127SOL     OW63400   5.820   5.342   4.387  0.3475 -0.2968  0.1389
20127SOL    HW163401   5.761   5.375   4.455  0.3014  0.2606 -0.1681
20127SOL    HW263402   5.792   5.387   4.307  1.3244  0.1480  0.0332
20128SOL     OW63403   6.669   4.242   7.893  0.7238  0.0865 -0.9314
20128SOL    HW163404   6.666   4.196   7.977 -1.3281  0.3088 -0.8379
20128SOL    HW263405   6.696   4.175   7.830  1.6392 -0.2464 -0.1918
20129SOL     OW63406   7.584   1.484   2.005  0.2752  0.1948  0.2702
20129SOL    HW163407   7.541   1.463   2.088  0.6036  0.5527  0.5306
20129SOL    HW263408   7.671   1.445   2.012  0.2843  0.1789  0.0741
20130SOL     OW63409   0.333   5.993   8.617  0.7724 -0.5324  0.5260
20130SOL    HW163410   0.283   6.024   8.692 -1.7343 -1.7239 -0.6189
20130SOL    HW263411   0.296   5.907   8.597  2.2725 -0.7886 -1.3024
20131SOL     OW63412   9.355   6.693   4.775 -0.5509 -0.2847  0.0908
20131SOL    HW163413   9.268   6.696   4.733  0.4003  1.8384 -1.8496
20131SOL    HW263414   9.411   6.653   4.709  0.7471  2.0894 -0.2969
20132SOL     OW63415   4.676   1.110   3.137 -0.0621  0.3751 -0.1572
20132SOL    HW163416   4.690   1.016   3.130 -0.1619  0.2570  1.0737
20132SOL    HW263417   4.631   1.134   3.056 -2.0508 -1.0304  0.5095
20133SOL     OW63418   3.857   2.036   2.562 -0.0184  0.4158  0.0208
20133SOL    HW163419   3.880   1.946   2.540  1.6996  0.6707  0.7251
20133SOL    HW263420   3.765   2.044   2.535 -0.3611 -1.7018  0.4285
20134SOL     OW63421   6.906   8.019   5.877 -0.3868 -0.1055  0.0297
20134SOL    HW163422   6.902   7.987   5.787  1.0568 -0.9812  0.2463
20134SOL    HW263423   6.944   7.945   5.926 -0.1950  0.7311  1.1592
20135SOL     OW63424   0.792   9.121   9.084  0.2504  0.1231 -0.3418
20135SOL    HW163425   0.746   9.037   9.096 -0.5508  0.5677 -0.2830
20135SOL    HW263426   0.850   9.106   9.010  0.8774 -0.8169  0.3369
20136SOL     OW63427   3.349   5.872   2.067  0.0057 -0.3454  0.3220
20136SOL    HW163428   3.429   5.915   2.037 -1.2297  0.5576 -1.8200
20136SOL    HW263429   3.376   5.819   2.142  2.2429  1.3513  0.7450
20137SOL     OW63430   1.975   0.532   5.818 -0.3714 -0.2790  0.2901
20137SOL    HW163431   1.997   0.624   5.802 -0.9426 -0.3819 -1.0954
20137SOL    HW263432   1.952   0.530   5.911  1.5213  0.5993  0.8087
20138SOL     OW63433   8.134   0.703   4.583  0.3766  0.2104  0.0629
20138SOL    HW163434   8.049   0.665   4.557 -0.0705  2.3973 -1.8068
20138SOL    HW263435   8.181   0.630   4.623 -2.8828 -0.7340  2.3656
20139SOL     OW63436   3.582   1.350   8.465 -0.1943 -0.2878  0.3025
20139SOL    HW163437   3.568   1.416   8.396 -0.1028  0.3058  0.8486
20139SOL    HW263438   3.630   1.397   8.533 -0.8741 -0.6917  1.0669
20140SOL     OW63439   9.341   3.258   0.595 -0.0981 -0.4789 -0.1188
20140SOL    HW163440   9.302   3.344   0.577 -1.9414 -0.9147  1.6511
20140SOL    HW263441   9.399   3.274   0.669 -0.7123 -0.8354  0.4374
20141SOL     OW63442   6.080   6.611   4.611  0.0844 -0.0287  0.2512
20141SOL    HW163443   6.025   6.619   4.689  0.3601 -0.1705  0.4617
20141SOL    HW263444   6.031   6.552   4.553  0.8415 -1.6025  1.1793
20142SOL     OW63445   8.994   3.970   2.989 -0.5565  0.3594 -0.2511
20142SOL    HW163446   8.927   3.906   3.012  0.5143 -0.5387  0.3789
20142SOL    HW263447   8.996   4.031   3.063  0.1594 -0.3022  0.2787
20143SOL     OW63448   2.566   7.836   6.340  0.2869 -0.4285 -0.4977
20143SOL    HW163449   2.506   7.875   6.404  1.7230  1.2172 -0.1060
20143SOL    HW263450   2.544   7.743   6.340 -0.3473 -0.3112  1.7257
20144SOL     OW63451   3.962   7.158   6.729 -0.1191  0.1361 -0.0244
20144SOL    HW163452   3.913   7.097   6.785  0.0834  1.7303  1.9549
20144SOL    HW263453   4.022   7.202   6.789 -1.0733  3.1216 -1.1729
20145SOL     OW63454   8.704   5.310   6.951  0.1559  0.2665 -0.6478
20145SOL    HW163455   8.781   5.257   6.972  0.2662  1.1204  1.1339
20145SOL    HW263456   8.688   5.363   7.029 -2.2594  0.0856 -0.9746
20146SOL     OW63457   4.164   8.022   4.492  0.9778 -0.1475  0.0266
20146SOL    HW163458   4.224   8.062   4.556  1.5725 -0.8683 -0.0667
20146SOL    HW263459   4.167   8.080   4.417 -0.1448  0.9952  0.8647
20147SOL     OW63460   3.888   4.643   8.095  0.2713  0.1974  0.2123
20147SOL    HW163461   3.841   4.684   8.168  0.7135 -0.1517  0.6923
20147SOL    HW263462   3.932   4.568   8.134  0.2368 -0.1834 -0.4834
20148SOL     OW63463   7.969   9.021   2.355  0.5781 -0.4933  0.2518
20148SOL    HW163464   7.969   9.101   2.408 -0.8058 -1.3665  1.6383
20148SOL    HW263465   8.050   8.976   2.379  1.5498  0.6742 -0.8236
20149SOL     OW63466   4.182   2.591   7.388  0.1539  0.5288  0.2587
20149SOL    HW163467   4.236   2.575   7.465  0.1601 -1.1695 -0.0877
20149SOL    HW263468   4.097   2.554   7.411  0.1241  0.1282 -0.5180
20150SOL     OW63469   8.401   6.664   8.356  0.6287  0.1190 -0.0096
20150SOL    HW163470   8.332   6.599   8.346  1.0914 -0.6186  1.4612
20150SOL    HW263471   8.354   6.748   8.355  0.0997 -0.1652 -2.5050
20151SOL     OW63472   6.648   2.942   6.727  0.0255 -0.0371  0.0281
20151SOL    HW163473   6.555   2.950   6.705  0.1167  0.2791 -0.2601
20151SOL    HW263474   6.691   3.004   6.667  0.3460  0.3473  0.6512
20152SOL     OW63475   1.280   0.813   4.756  0.1684 -0.5631  0.4976
20152SOL    HW163476   1.346   0.801   4.688 -0.8810 -0.6141 -0.5400
20152SOL    HW263477   1.250   0.724   4.775 -1.2058 -0.3764 -0.6861
20153SOL     OW63478   0.790   4.317   6.101 -0.1814  0.9650 -0.0697
20153SOL    HW163479   0.819   4.376   6.171 -2.0331  3.0374 -0.9763
20153SOL    HW263480   0.840   4.347   6.024 -1.0343  1.2951 -0.5032
20154SOL     OW63481   4.762   6.407   7.529  0.0502  0.4164 -0.4011
20154SOL    HW163482   4.780   6.479   7.590 -0.8097  1.3252 -1.2151
20154SOL    HW263483   4.848   6.381   7.497  0.7594 -1.6146  2.9086
20155SOL     OW63484   3.160   1.915   8.966  0.1192  0.2183  0.4944
20155SOL    HW163485   3.213   1.875   9.035  1.9522  1.3966 -0.1931
20155SOL    HW263486   3.078   1.866   8.968  1.4141 -2.0224  1.2257
20156SOL     OW63487   5.533   6.799   1.631 -0.1933  0.0260 -0.5582
20156SOL    HW163488   5.594   6.838   1.568  0.5640  0.8610  0.6689
20156SOL    HW263489   5.478   6.741   1.579  3.3089 -2.7459 -1.3534
20157SOL     OW63490   0.583   2.609   2.771 -0.5228 -0.4444  0.2346
20157SOL    HW163491   0.516   2.575   2.831  0.5340 -0.3207  1.4947
20157SOL    HW263492   0.642   2.536   2.756 -0.8315 -0.5004 -0.7379
20158SOL     OW63493   4.075   1.479   7.156  0.2493 -0.0847 -0.8942
20158SOL    HW163494   3.983   1.467   7.134  0.3913 -2.2597 -0.4604
20158SOL    HW263495   4.104   1.552   7.101 -2.1543  1.8485  0.2910
20159SOL     OW63496   4.354   5.481   2.259 -0.3122  0.4625 -0.1099
20159SOL    HW163497   4.330   5.442   2.175 -0.0870  1.6340 -0.7345
20159SOL    HW263498   4.434   5.436   2.285  0.9116  1.6871 -1.6634
20160SOL     OW63499   8.219   0.807   2.723  0.1783 -0.9608  0.5004
20160SOL    HW163500   8.168   0.814   2.642  0.5795  0.8421  0.3714
20160SOL    HW263501   8.196   0.886   2.773  2.3258 -0.4270  0.7206
20161SOL     OW63502   4.145   1.031   5.784 -0.5432 -0.2704  0.1784
20161SOL    HW163503   4.058   0.997   5.767 -0.7006  0.1224  0.1841
20161SOL    HW263504   4.164   1.005   5.874 -0.1915 -1.3265 -0.1861
20162SOL     OW63505   2.243   4.249   3.900 -0.4981 -0.3899 -0.1153
20162SOL    HW163506   2.287   4.316   3.953 -1.4261  0.2785 -0.1847
20162SOL    HW263507   2.186   4.204   3.962 -0.5072 -0.5594 -0.2474
20163SOL     OW63508   3.800   2.073   8.693  0.3797  0.4468  0.1663
20163SOL    HW163509   3.834   2.148   8.742  1.4916  0.0407  0.0267
20163SOL    HW263510   3.858   2.000   8.717 -0.0514 -0.1206 -0.5081
20164SOL     OW63511   3.845   2.739   5.794 -0.4544 -0.6663 -0.2421
20164SOL    HW163512   3.870   2.678   5.863 -0.0827 -0.3822 -0.1227
20164SOL    HW263513   3.757   2.769   5.818 -1.1018 -1.9990 -0.8889
20165SOL     OW63514   7.574   5.772   8.955 -0.1263 -0.2510 -0.3830
20165SOL    HW163515   7.640   5.760   8.887 -0.6628 -0.5515 -0.8498
20165SOL    HW263516   7.603   5.850   9.003 -0.7759  1.1185 -2.1650
20166SOL     OW63517   2.913   8.889   3.187  0.4862 -0.2941  0.1656
20166SOL    HW163518   2.952   8.830   3.252 -3.3950 -1.2874  1.7594
20166SOL    HW263519   2.879   8.831   3.119 -1.7816  0.1978  0.8524
20167SOL     OW63520   8.149   5.521   2.581 -0.2009  0.2081 -0.0507
20167SOL    HW163521   8.232   5.473   2.589 -1.6380 -1.9507  2.5038
20167SOL    HW263522   8.170   5.609   2.610  1.0046 -0.5779  1.5837
20168SOL     OW63523   1.148   7.064   6.122  0.2339 -0.4645  0.6435
20168SOL    HW163524   1.168   7.152   6.153 -0.3914 -0.1272  0.0906
20168SOL    HW263525   1.220   7.043   6.062 -0.0496 -0.0056  0.1381
20169SOL     OW63526   2.146   1.457   5.807 -0.4929 -0.3503  0.8130
20169SOL    HW163527   2.148   1.362   5.800 -0.0683 -0.3117  0.3778
20169SOL    HW263528   2.084   1.485   5.740 -1.3873 -0.3767  1.6133
20170SOL     OW63529   9.285   0.334   3.099  0.7893  0.0868  0.8572
20170SOL    HW163530   9.340   0.404   3.063  0.2338 -0.6031 -1.4250
20170SOL    HW263531   9.203   0.377   3.122  0.6371  0.3148 -0.0630
20171SOL     OW63532   6.008   4.535   6.325 -0.3010  0.3328 -0.6650
20171SOL    HW163533   6.039   4.527   6.235 -1.6784  0.7657 -1.1763
20171SOL    HW263534   5.990   4.628   6.337 -1.1384  0.1306 -0.2863
20172SOL     OW63535   6.818   1.858   1.977  0.6161 -0.1461 -0.1126
20172SOL    HW163536   6.781   1.924   2.035  0.5926  1.1613 -1.5895
20172SOL    HW263537   6.793   1.886   1.889  0.5215 -2.1786 -0.7661
20173SOL     OW63538   5.238   8.604   3.661 -0.4147  0.3855  0.0922
20173SOL    HW163539   5.172   8.537   3.677 -1.1289  1.0763  0.0309
20173SOL    HW263540   5.203   8.657   3.590  1.6143 -1.1423 -2.1388
20174SOL     OW63541   0.191   3.963   6.422 -0.0278 -0.0731 -0.3821
20174SOL    HW163542   0.212   4.002   6.506 -1.3198 -1.2820  0.5198
20174SOL    HW263543   0.274   3.959   6.375  0.5938  1.1222  0.6013
20175SOL     OW63544   0.976   4.091   3.088  0.6305  0.1840 -0.3792
20175SOL    HW163545   0.995   4.183   3.103 -0.6899  0.7959 -2.3370
20175SOL    HW263546   1.041   4.044   3.141  0.7475  2.2129  1.3450
20176SOL     OW63547   5.836   0.590   3.891 -0.0302  0.1023 -0.2195
20176SOL    HW163548   5.751   0.550   3.868 -0.4556  0.5653  0.5225
20176SOL    HW263549   5.875   0.613   3.807 -1.4364  1.5034 -0.5215
20177SOL     OW63550   2.648   5.292   7.495 -0.3476 -0.2438  0.4649
20177SOL    HW163551   2.616   5.364   7.550 -2.6921 -1.0237  0.1689
20177SOL    HW263552   2.653   5.329   7.407 -0.9035 -0.2595  0.4282
20178SOL     OW63553   6.997   7.250   2.134  0.4968  0.1158  1.0899
20178SOL    HW163554   7.093   7.245   2.133  0.5159  0.5165  0.0840
20178SOL    HW263555   6.978   7.341   2.112 -0.1288 -0.2014  0.2868
20179SOL     OW63556   6.787   9.127   9.239 -0.3225  0.2024 -0.4602
20179SOL    HW163557   6.732   9.089   9.307  0.4336 -1.3088 -0.6659
20179SOL    HW263558   6.816   9.211   9.275 -2.7951  1.0552 -0.3882
20180SOL     OW63559   6.787   9.331   8.666 -0.4450  0.7690  0.4525
20180SOL    HW163560   6.859   9.372   8.618 -0.5654  1.0884  0.5452
20180SOL    HW263561   6.830   9.273   8.728 -0.2537  1.1825  0.7123
20181SOL     OW63562   2.866   9.365   2.944 -0.3121 -0.3022 -0.3409
20181SOL    HW163563   2.897   9.381   2.855 -0.0684 -0.0719 -0.2168
20181SOL    HW263564   2.805   9.292   2.936 -0.6618  0.0351 -0.7687
20182SOL     OW63565   8.350   8.351   6.779 -0.5489  0.6960  0.5103
20182SOL    HW163566   8.329   8.259   6.759 -1.3536  0.9911 -0.0016
20182SOL    HW263567   8.446   8.354   6.777 -0.4701 -0.4216  1.8110
20183SOL     OW63568   0.421   1.826   5.769  0.4805 -0.0294  0.1336
20183SOL    HW163569   0.516   1.823   5.755  0.5048  0.4302  0.1925
20183SOL    HW263570   0.392   1.735   5.761  0.9693 -0.2092  0.3953
20184SOL     OW63571   6.127   0.621   5.689 -0.1740  0.2522 -0.1189
20184SOL    HW163572   6.152   0.657   5.604  1.2478  0.8617  0.5404
20184SOL    HW263573   6.037   0.648   5.701 -0.2432  0.5481 -1.2333
20185SOL     OW63574   2.540   1.849   8.404  0.2085  0.3338  0.1832
20185SOL    HW163575   2.556   1.936   8.441  1.2736 -0.0464  0.6035
20185SOL    HW263576   2.446   1.849   8.384  0.2850  1.7480 -0.2449
20186SOL     OW63577   3.121   2.604   5.975 -0.2741  0.4171  0.3915
20186SOL    HW163578   3.141   2.538   6.041 -3.8769  0.0775  1.2810
20186SOL    HW263579   3.174   2.580   5.899 -1.4022 -3.4785  0.7301
20187SOL     OW63580   4.490   5.168   7.341 -0.5886 -0.4010  0.1892
20187SOL    HW163581   4.542   5.239   7.378 -0.2916  0.0320 -1.0248
20187SOL    HW263582   4.486   5.102   7.410  1.3311 -0.3068  0.4165
20188SOL     OW63583   4.978   7.088   4.435 -0.3362 -0.4611  0.1285
20188SOL    HW163584   5.050   7.090   4.372 -0.4231  1.3377  0.0740
20188SOL    HW263585   4.955   7.180   4.448 -1.6012 -0.9377  1.3200
20189SOL     OW63586   9.329   1.543   6.756 -0.0567 -0.6621  0.9626
20189SOL    HW163587   9.384   1.501   6.690 -0.7091  0.6600 -0.4164
20189SOL    HW263588   9.308   1.472   6.817  0.1565 -1.9909 -0.4835
20190SOL     OW63589   8.098   0.038   1.772 -0.0116  0.0794 -0.8439
20190SOL    HW163590   8.095  -0.057   1.761  1.8415  0.0936 -1.5373
20190SOL    HW263591   8.177   0.054   1.824 -0.9211  1.1718  0.2605
20191SOL     OW63592   0.111   1.865   3.815 -0.2442  0.2237 -0.2069
20191SOL    HW163593   0.059   1.898   3.888 -0.6460  0.3882 -0.5600
20191SOL    HW263594   0.197   1.847   3.852 -0.6839 -0.5004  0.4956
20192SOL     OW63595   4.044   7.333   6.357  0.4208  0.2828 -0.3880
20192SOL    HW163596   3.998   7.251   6.343  1.5485 -0.8944  2.4747
20192SOL    HW263597   4.131   7.319   6.318  0.7643 -0.0436  0.4947
20193SOL     OW63598   1.168   6.471   5.383 -0.1662  0.8897 -0.6413
20193SOL    HW163599   1.262   6.466   5.366 -0.0849 -0.3915  0.0625
20193SOL    HW263600   1.160   6.520   5.465  0.1051 -1.3689  0.7962
20194SOL     OW63601   3.740   6.670   0.900  0.1545  0.1103  0.3315
20194SOL    HW163602   3.773   6.746   0.948  0.8055 -0.6584  1.1166
20194SOL    HW263603   3.797   6.597   0.927 -1.5468 -1.0282  0.9560
20195SOL     OW63604   1.157   2.951   3.404  0.0953  0.5256 -0.6309
20195SOL    HW163605   1.101   2.967   3.481  0.3104 -1.1528 -0.1052
20195SOL    HW263606   1.106   2.891   3.349  0.0454  1.5277 -1.6875
20196SOL     OW63607   2.370   4.934   1.693  0.8721  0.4329  0.1825
20196SOL    HW163608   2.369   4.846   1.731 -0.9161  0.7831  1.0286
20196SOL    HW263609   2.442   4.933   1.630  0.5238 -1.8124 -0.2204
20197SOL     OW63610   9.151   9.018   8.434 -0.1718 -0.2433 -0.3639
20197SOL    HW163611   9.159   9.081   8.363 -1.1085  1.5797  1.0983
20197SOL    HW263612   9.166   8.933   8.393  1.9842  0.9955 -2.2109
20198SOL     OW63613   8.843   2.139   1.250 -0.5880 -0.1568 -0.4671
20198SOL    HW163614   8.800   2.199   1.310 -0.8311  1.3014 -2.0726
20198SOL    HW263615   8.928   2.121   1.291 -0.1226  2.0114 -0.4218
20199SOL     OW63616   9.195   6.008   0.339  0.4270 -0.1353 -0.3986
20199SOL    HW163617   9.240   5.937   0.384  0.6783  0.0983 -0.2777
20199SOL    HW263618   9.228   6.005   0.249  1.1078  0.3871 -0.1706
20200SOL     OW63619   9.307   8.806   6.874 -0.2744 -0.3820  0.3498
20200SOL    HW163620   9.226   8.815   6.924  0.2697  0.9366  1.0370
20200SOL    HW263621   9.279   8.777   6.788 -1.8232  3.1141 -0.4146
20201SOL     OW63622   1.858   5.367   0.655  0.1019 -0.3347  0.2549
20201SOL    HW163623   1.869   5.415   0.737 -1.5776  2.2300 -0.9784
20201SOL    HW263624   1.937   5.387   0.604  1.0986 -1.8489  1.1658
20202SOL     OW63625   1.640   4.160   3.765  0.1841 -0.5473  0.0252
20202SOL    HW163626   1.674   4.110   3.691 -0.0289 -1.3067  0.4301
20202SOL    HW263627   1.630   4.095   3.834  0.1813  0.1211  0.6523
20203SOL     OW63628   2.834   6.208   8.769 -0.2148 -0.0055  0.2407
20203SOL    HW163629   2.794   6.212   8.682 -0.8330 -0.9918  0.4755
20203SOL    HW263630   2.873   6.294   8.781 -0.5050  0.2858 -0.8365
20204SOL     OW63631   3.593   6.277   2.345 -0.6181  0.2894 -0.3544
20204SOL    HW163632   3.507   6.235   2.348 -0.3761 -0.2936 -1.4371
20204SOL    HW263633   3.648   6.220   2.399 -0.7402  0.2783 -0.2399
20205SOL     OW63634   4.039   6.506   2.756  0.5322  0.0528  0.1458
20205SOL    HW163635   4.079   6.449   2.690 -1.3232 -0.6196 -0.4115
20205SOL    HW263636   4.099   6.581   2.761  0.8633 -0.0272 -2.0695
20206SOL     OW63637   5.245   2.190   8.750  0.4167 -0.6005 -0.0994
20206SOL    HW163638   5.229   2.134   8.674  1.0199 -1.2483  0.2418
20206SOL    HW263639   5.264   2.276   8.713  1.6168 -1.1158 -0.7353
20207SOL     OW63640   7.822   4.976   8.882 -0.5092  0.1274 -0.1678
20207SOL    HW163641   7.903   5.027   8.873 -0.0646 -0.5316  0.0173
20207SOL    HW263642   7.850   4.894   8.924 -1.2461 -0.1771 -0.2595
20208SOL     OW63643   2.621   8.340   5.918  1.0902  0.0579  0.4069
20208SOL    HW163644   2.620   8.261   5.864  1.3725 -0.7379  1.5436
20208SOL    HW263645   2.668   8.404   5.866  0.4552 -0.3733 -0.7280
20209SOL     OW63646   5.249   8.078   2.784  0.3136  0.0423 -0.2117
20209SOL    HW163647   5.157   8.071   2.757 -0.1852  0.8130  1.2518
20209SOL    HW263648   5.245   8.103   2.876  1.9968  1.3601 -0.4708
20210SOL     OW63649   3.602   0.882   5.958  0.1487 -0.0426 -0.1209
20210SOL    HW163650   3.620   0.975   5.973 -0.0550  0.1357 -0.9287
20210SOL    HW263651   3.589   0.845   6.045  3.1524  0.0675  0.4381
20211SOL     OW63652   8.749   8.882   0.943 -0.2087  0.4597  0.0267
20211SOL    HW163653   8.661   8.883   0.906  0.2308  1.0841 -1.0382
20211SOL    HW263654   8.773   8.974   0.951 -0.1251  0.3255  1.5020
20212SOL     OW63655   1.810   7.139   7.912 -0.2952 -0.3155 -0.3852
20212SOL    HW163656   1.866   7.068   7.944 -0.9572  0.1269  1.8374
20212SOL    HW263657   1.731   7.096   7.880 -0.8125 -0.5579  1.2204
20213SOL     OW63658   6.435   6.522   1.731  0.1274 -0.2228 -0.0152
20213SOL    HW163659   6.348   6.543   1.766  0.3057  0.3792  0.0769
20213SOL    HW263660   6.419   6.498   1.640 -0.0690  0.4626 -0.1655
20214SOL     OW63661   1.901   2.624   1.183  0.1654  0.2894 -0.2996
20214SOL    HW163662   1.995   2.619   1.201  0.1779 -0.2308 -0.4993
20214SOL    HW263663   1.874   2.533   1.174 -0.5260  0.3977  0.6049
20215SOL     OW63664   1.819   1.912   9.374 -0.9158  0.4901  0.0039
20215SOL    HW163665   1.795   1.918   9.281  1.4718  1.7930 -0.5875
20215SOL    HW263666   1.886   1.979   9.385  0.3897 -1.1039  2.1712
20216SOL     OW63667   1.627   0.798   0.588 -0.8136  0.5294  0.1910
20216SOL    HW163668   1.636   0.866   0.654 -1.3711  0.7475  0.0459
20216SOL    HW263669   1.535   0.772   0.592 -0.5910 -0.2681  0.2934
20217SOL     OW63670   1.701   2.878   2.304 -0.2491  0.1853 -0.0584
20217SOL    HW163671   1.688   2.953   2.363 -0.4571  0.2950 -0.2397
20217SOL    HW263672   1.696   2.916   2.216  1.6837  0.2972 -0.1532
20218SOL     OW63673   2.912   7.762   2.723  0.1645  0.2713 -0.4097
20218SOL    HW163674   2.919   7.673   2.689  1.2493  0.1920  0.0234
20218SOL    HW263675   2.916   7.818   2.645 -0.3078 -0.0488 -0.6609
20219SOL     OW63676   5.961   0.319   7.729  0.1086 -0.3782 -0.1031
20219SOL    HW163677   6.004   0.387   7.676 -1.2513  0.7490  0.2130
20219SOL    HW263678   6.015   0.313   7.808  0.3039  0.2595 -0.1843
20220SOL     OW63679   6.533   7.555   1.401 -0.4682  0.2710 -0.3237
20220SOL    HW163680   6.550   7.509   1.318 -1.1797 -0.4955 -0.0493
20220SOL    HW263681   6.438   7.558   1.408 -0.4713 -3.2110  2.3956
20221SOL     OW63682   3.236   5.123   3.927 -0.1124 -0.0036 -0.3594
20221SOL    HW163683   3.141   5.112   3.924 -0.0480 -0.6542 -0.1254
20221SOL    HW263684   3.251   5.188   3.996 -0.4279  0.6246 -0.8797
20222SOL     OW63685   9.259   5.464   6.258  0.0429  0.1878  0.4068
20222SOL    HW163686   9.206   5.452   6.337 -0.5378 -1.0762 -0.1641
20222SOL    HW263687   9.216   5.535   6.210 -0.2703  0.1605  0.6512
20223SOL     OW63688   1.535   1.772   5.078  0.1816 -0.3489 -0.4478
20223SOL    HW163689   1.588   1.720   5.139  0.3120 -0.2721 -0.4957
20223SOL    HW263690   1.495   1.840   5.133 -0.9922 -1.2507 -0.1512
20224SOL     OW63691   1.319   7.088   0.104 -0.4241  0.2666 -0.4140
20224SOL    HW163692   1.224   7.073   0.103 -0.4404  0.4234 -1.0717
20224SOL    HW263693   1.357   7.000   0.097 -0.5070  0.0189  1.8391
20225SOL     OW63694   2.807   3.690   8.842  0.1333 -0.2850 -0.1520
20225SOL    HW163695   2.791   3.599   8.868  2.6068 -0.5253  0.6360
20225SOL    HW263696   2.864   3.725   8.910 -1.4449  2.1176 -0.0253
20226SOL     OW63697   3.762   1.562   9.040 -0.7554  0.0355 -0.4271
20226SOL    HW163698   3.785   1.556   9.132  0.3538 -1.1086 -0.7670
20226SOL    HW263699   3.673   1.526   9.034 -1.2142  1.0106  0.3173
20227SOL     OW63700   7.638   7.641   7.380  0.1963  0.2131  0.3995
20227SOL    HW163701   7.714   7.584   7.392  0.2973  0.3949  0.6252
20227SOL    HW263702   7.658   7.690   7.300 -0.5117 -1.0471 -0.5676
20228SOL     OW63703   8.989   0.410   8.413 -0.9751  0.2057 -0.0575
20228SOL    HW163704   9.077   0.438   8.441 -0.5932 -1.2982  0.2956
20228SOL    HW263705   8.946   0.382   8.493 -1.2327 -0.5035 -0.4373
20229SOL     OW63706   5.206   1.249   8.653  0.2817  1.1195 -0.1130
20229SOL    HW163707   5.135   1.185   8.660  0.4026  1.1653  2.0564
20229SOL    HW263708   5.272   1.205   8.599 -0.2732 -0.0036  0.0964
20230SOL     OW63709   7.763   9.420   4.277 -0.0177  0.2622  0.4371
20230SOL    HW163710   7.763   9.515   4.289 -1.2678  0.7023 -2.6245
20230SOL    HW263711   7.855   9.400   4.256 -0.4709  1.4739 -3.1353
20231SOL     OW63712   9.349   3.857   5.949 -0.3234  0.3933 -0.6578
20231SOL    HW163713   9.359   3.794   6.020  0.5484 -0.6128 -1.6481
20231SOL    HW263714   9.312   3.935   5.990 -0.5849 -0.4662  0.7383
20232SOL     OW63715   2.612   3.347   0.684 -0.3137 -0.4700  0.4852
20232SOL    HW163716   2.675   3.280   0.711  0.5498  0.6402  1.2468
20232SOL    HW263717   2.665   3.413   0.639 -1.1673 -0.3137 -0.2944
20233SOL     OW63718   7.440   2.322   1.261  0.3533  0.5427  0.5030
20233SOL    HW163719   7.477   2.241   1.228 -1.2586  0.4468 -1.1449
20233SOL    HW263720   7.448   2.384   1.188 -0.0131  1.3550  1.1402
20234SOL     OW63721   3.564   9.246   5.224 -0.2182 -0.2271  0.3322
20234SOL    HW163722   3.614   9.249   5.143 -1.3720 -1.4348 -0.4349
20234SOL    HW263723   3.520   9.331   5.229 -1.1373 -0.6248 -0.9440
20235SOL     OW63724   6.658   2.416   3.726 -0.2101  0.1879  0.0201
20235SOL    HW163725   6.645   2.342   3.786 -0.6732  0.6828  0.5416
20235SOL    HW263726   6.739   2.457   3.756 -0.0519  0.0038 -0.1538
20236SOL     OW63727   3.656   0.261   3.718  0.0556  0.0302  0.0499
20236SOL    HW163728   3.682   0.214   3.639 -0.3569 -0.8058  0.4035
20236SOL    HW263729   3.561   0.271   3.710 -0.0285 -0.3381  0.5968
20237SOL     OW63730   5.844   6.685   5.628 -0.7597  0.2716 -0.0954
20237SOL    HW163731   5.865   6.599   5.590  2.2592  0.9339 -0.0143
20237SOL    HW263732   5.874   6.679   5.719 -1.6220  1.0386  0.2466
20238SOL     OW63733   6.480   4.114   5.355  0.1266 -0.4783  0.0743
20238SOL    HW163734   6.412   4.176   5.329 -0.7828 -1.2943  0.4977
20238SOL    HW263735   6.551   4.129   5.293  0.2342  1.5397  0.6628
20239SOL     OW63736   2.103   8.814   1.839 -0.0546 -0.0717 -0.1321
20239SOL    HW163737   2.084   8.851   1.753  0.5281  0.6506  0.0450
20239SOL    HW263738   2.137   8.888   1.890 -0.9938 -0.3427  0.9115
20240SOL     OW63739   4.299   8.377   2.405 -0.5155 -0.3494  0.3355
20240SOL    HW163740   4.231   8.439   2.378 -1.0850 -0.4453  1.5439
20240SOL    HW263741   4.255   8.317   2.464  0.1469 -1.6780 -0.5151
20241SOL     OW63742   0.279   0.975   7.371  0.6905 -0.2772  0.0759
20241SOL    HW163743   0.341   0.978   7.298  0.1719  1.7198 -0.3130
20241SOL    HW263744   0.209   0.916   7.341  0.4510  0.5752 -1.0858
20242SOL     OW63745   8.607   0.807   6.708 -0.2555  0.3508 -0.4392
20242SOL    HW163746   8.555   0.728   6.689  0.6480  0.1064 -1.8961
20242SOL    HW263747   8.547   0.879   6.689 -1.0469  0.0289  0.7758
20243SOL     OW63748   1.956   1.928   7.067  0.4612 -0.1126 -0.1260
20243SOL    HW163749   2.019   1.996   7.045  0.1749 -0.0001 -0.6142
20243SOL    HW263750   2.009   1.850   7.085  0.7756  0.1749  0.1884
20244SOL     OW63751   9.255   8.281   5.709  0.3176  0.2117 -0.2863
20244SOL    HW163752   9.264   8.207   5.770  0.5948 -0.7357 -1.4546
20244SOL    HW263753   9.245   8.240   5.623 -2.5494  1.4774 -0.6072
20245SOL     OW63754   8.355   6.981   6.516 -0.4754  0.1639  0.2819
20245SOL    HW163755   8.270   7.026   6.516 -0.5419  0.0554 -0.6407
20245SOL    HW263756   8.362   6.943   6.428  1.7124  2.4552 -0.6308
20246SOL     OW63757   2.194   5.932   3.555  0.1556 -0.0113 -0.1779
20246SOL    HW163758   2.168   5.961   3.468  0.0680 -0.3207 -0.2547
20246SOL    HW263759   2.187   5.837   3.552  3.2427 -0.2957 -0.8664
20247SOL     OW63760   0.305   5.013   3.011  0.5390  0.2871  0.0259
20247SOL    HW163761   0.348   5.093   2.978  1.6093  0.8970  2.7592
20247SOL    HW263762   0.353   4.991   3.091 -1.9152 -1.1534  1.1721
20248SOL     OW63763   4.916   8.319   3.457  0.1416  0.0808  0.2253
20248SOL    HW163764   4.848   8.314   3.390 -0.5770  0.1576  0.9495
20248SOL    HW263765   4.931   8.413   3.469  0.3303  0.0663  0.1196
20249SOL     OW63766   5.299   7.824   6.160  0.1521 -0.0752  0.0950
20249SOL    HW163767   5.312   7.864   6.074  3.0586 -1.1933 -0.0590
20249SOL    HW263768   5.289   7.730   6.142  0.3948 -0.2705  0.9497
20250SOL     OW63769   5.406   8.184   5.345 -0.5405  0.3643 -0.5969
20250SOL    HW163770   5.357   8.110   5.307 -0.0982 -0.4065  0.3136
20250SOL    HW263771   5.398   8.171   5.439  1.7834 -0.0142 -0.4396
20251SOL     OW63772   3.863   3.238   9.406  0.5690 -0.0327 -0.5141
20251SOL    HW163773   3.828   3.283   9.329 -0.9621  1.5604  1.0538
20251SOL    HW263774   3.786   3.198   9.447  0.8000  2.0433  2.0395
20252SOL     OW63775   4.112   4.004   8.888 -0.3652 -0.2291  0.1650
20252SOL    HW163776   4.063   3.964   8.960  0.2816 -1.3033  0.0165
20252SOL    HW263777   4.152   4.082   8.926  0.6322 -1.2291  1.1901
20253SOL     OW63778   8.250   2.487   7.537 -0.5584  0.0343  0.6693
20253SOL    HW163779   8.280   2.559   7.481 -1.2349 -0.3814 -0.2374
20253SOL    HW263780   8.330   2.445   7.567 -0.0963  2.0785  2.4299
20254SOL     OW63781   5.124   4.792   8.173  0.4235  0.4574  0.3628
20254SOL    HW163782   5.176   4.757   8.100  1.4345  1.4341  0.6007
20254SOL    HW263783   5.184   4.793   8.247 -0.8274 -1.2688  1.4485
20255SOL     OW63784   7.133   5.836   3.295 -0.1082  0.2241  0.0282
20255SOL    HW163785   7.113   5.828   3.202 -0.8170 -0.7295  0.2546
20255SOL    HW263786   7.139   5.745   3.326 -0.4608  0.5323  1.0220
20256SOL     OW63787   6.504   5.928   3.345  0.2728  0.0912 -0.3439
20256SOL    HW163788   6.523   6.014   3.307 -1.9229  0.9166  0.3436
20256SOL    HW263789   6.561   5.868   3.298  2.2281  1.9950 -0.4803
20257SOL     OW63790   4.108   1.420   3.129  0.1677  0.6503 -0.0418
20257SOL    HW163791   4.025   1.426   3.082 -0.4772  0.1539  1.0158
20257SOL    HW263792   4.136   1.330   3.117  1.0497  1.0531 -1.1895
20258SOL     OW63793   5.702   3.277   3.866 -0.0601  0.1865  0.0720
20258SOL    HW163794   5.730   3.331   3.792  0.7191  0.4262  0.5363
20258SOL    HW263795   5.657   3.338   3.925 -3.6978 -0.6018 -1.7345
20259SOL     OW63796   7.224   3.063   4.069 -0.1755 -0.3674 -0.1417
20259SOL    HW163797   7.155   3.101   4.123  1.0932 -0.8787  1.9053
20259SOL    HW263798   7.287   3.135   4.056  0.8121 -0.9317  1.3243
20260SOL     OW63799   5.283   2.908   4.978  0.7774  0.1626  0.1677
20260SOL    HW163800   5.209   2.858   5.012  1.2771 -1.5049 -1.1045
20260SOL    HW263801   5.337   2.926   5.054 -0.0749 -0.0891  0.8458
20261SOL     OW63802   7.709   1.219   5.299 -0.8428 -0.0631 -0.2729
20261SOL    HW163803   7.677   1.130   5.309  0.6426 -0.7054 -1.1345
20261SOL    HW263804   7.640   1.274   5.338 -2.2952 -1.4937 -0.7878
20262SOL     OW63805   2.731   4.187   0.890  0.3297  0.4487 -0.0017
20262SOL    HW163806   2.673   4.170   0.964  2.0298 -2.2806  0.8195
20262SOL    HW263807   2.683   4.154   0.814 -0.3110  0.7312  0.2764
20263SOL     OW63808   7.566   8.143   8.308 -0.0371  0.2699 -0.2022
20263SOL    HW163809   7.532   8.102   8.229 -2.1865  1.7480 -0.0717
20263SOL    HW263810   7.493   8.141   8.370  0.9676  1.0441  1.0301
20264SOL     OW63811   5.197   7.726   1.943 -0.4975 -0.4657 -0.0016
20264SOL    HW163812   5.237   7.663   2.003 -0.5265 -0.2306  0.2635
20264SOL    HW263813   5.114   7.687   1.918 -0.4501 -0.5993  0.0507
20265SOL     OW63814   0.049   8.288   7.283 -0.5325  0.0352 -0.4646
20265SOL    HW163815   0.033   8.284   7.188 -3.5199  0.3373  0.0087
20265SOL    HW263816   0.018   8.375   7.308 -0.4401 -0.3374  0.9452
20266SOL     OW63817   5.784   4.894   6.912 -0.2768  0.2394 -0.6000
20266SOL    HW163818   5.744   4.872   6.996 -0.7958  0.9270 -0.6619
20266SOL    HW263819   5.814   4.985   6.922  2.6921 -0.7383 -0.0231
20267SOL     OW63820   1.782   3.875   6.872 -0.1014 -0.1585  0.4904
20267SOL    HW163821   1.764   3.827   6.953 -1.7977  0.4152  0.4685
20267SOL    HW263822   1.706   3.933   6.861  0.2441 -0.0276 -1.3519
20268SOL     OW63823   6.427   5.431   6.100 -0.7615  0.0828  0.1328
20268SOL    HW163824   6.413   5.521   6.131 -2.8436  0.2461 -1.2104
20268SOL    HW263825   6.402   5.433   6.008  1.9949 -1.2219 -0.6871
20269SOL     OW63826   2.444   4.984   9.058 -0.1802 -0.2312  0.1062
20269SOL    HW163827   2.376   5.018   9.116  0.2971 -2.2729  1.9154
20269SOL    HW263828   2.504   4.937   9.116  0.9723 -1.2843 -1.8974
20270SOL     OW63829   7.190   9.013   4.064  0.1251 -0.4594  0.0911
20270SOL    HW163830   7.236   9.082   4.111 -0.7710  0.8531 -0.9345
20270SOL    HW263831   7.104   9.050   4.044 -0.4652 -1.9589 -0.2588
20271SOL     OW63832   5.459   8.867   0.712 -0.1910 -0.2241 -0.1964
20271SOL    HW163833   5.469   8.807   0.785 -0.7400  0.0652  0.1213
20271SOL    HW263834   5.421   8.946   0.751 -3.7952 -1.3124 -1.3656
20272SOL     OW63835   8.067   5.746   4.583  0.2435  0.2469 -0.2772
20272SOL    HW163836   8.025   5.741   4.669  2.5773  2.2669  1.0449
20272SOL    HW263837   8.143   5.689   4.590 -1.0333 -1.7466 -1.9723
20273SOL     OW63838   8.249   3.692   7.832  0.0505  0.5848 -0.3111
20273SOL    HW163839   8.169   3.657   7.871 -0.1091 -2.0026 -2.8379
20273SOL    HW263840   8.225   3.780   7.804 -1.3410  0.5166  0.6362
20274SOL     OW63841   5.002   7.671   9.393  1.0696 -0.0765  0.1396
20274SOL    HW163842   4.963   7.651   9.478 -0.0146 -0.0367 -0.3380
20274SOL    HW263843   4.994   7.590   9.343 -1.4265  0.8540 -1.0814
20275SOL     OW63844   7.767   4.797   2.687 -0.9186  0.0069 -0.0017
20275SOL    HW163845   7.802   4.836   2.607  0.0759 -0.5951  0.1268
20275SOL    HW263846   7.820   4.719   2.701 -1.1783  0.0263  1.1690
20276SOL     OW63847   1.609   8.138   4.357  0.6083  0.3792  0.6533
20276SOL    HW163848   1.583   8.228   4.379 -1.5436 -0.4188  1.4839
20276SOL    HW263849   1.675   8.116   4.422 -0.3718  0.6544  1.7676
20277SOL     OW63850   8.532   4.254   5.843  0.5517 -0.0064  0.2434
20277SOL    HW163851   8.458   4.248   5.783  0.7505  0.4891 -0.0568
20277SOL    HW263852   8.584   4.328   5.810  0.7915  0.1162  0.8770
20278SOL     OW63853   6.070   1.563   4.946 -0.5790  0.4349  0.5932
20278SOL    HW163854   6.140   1.551   4.881  0.9616  0.8849  2.1399
20278SOL    HW263855   6.067   1.480   4.994 -1.4404  0.2506  0.2371
20279SOL     OW63856   4.600   2.419   0.774 -0.0016 -0.6375  0.5244
20279SOL    HW163857   4.531   2.368   0.816 -0.4599 -0.6331 -0.2049
20279SOL    HW263858   4.636   2.474   0.843 -1.5844  0.2799  0.6264
20280SOL     OW63859   4.895   4.910   0.415 -0.3050 -0.4153 -0.0146
20280SOL    HW163860   4.825   4.869   0.365 -0.1942 -0.1635 -0.3713
20280SOL    HW263861   4.881   5.004   0.404  0.1655 -0.3636 -0.1935
20281SOL     OW63862   0.838   5.326   3.082  0.5303  0.0374  0.6332
20281SOL    HW163863   0.844   5.416   3.114  0.0590  0.6974 -1.1126
20281SOL    HW263864   0.929   5.295   3.082  0.8124  0.8507  0.2988
20282SOL     OW63865   2.371   4.432   4.054  0.4736 -0.2358  0.3976
20282SOL    HW163866   2.397   4.472   3.972 -0.4596  0.8799  0.6422
20282SOL    HW263867   2.450   4.436   4.109  0.1770  2.0017  0.7026
20283SOL     OW63868   3.155   7.626   4.554  0.2945 -0.8962 -0.0648
20283SOL    HW163869   3.112   7.545   4.528  1.2183 -1.5233  0.3528
20283SOL    HW263870   3.221   7.641   4.486  0.8105 -1.0383  0.3999
20284SOL     OW63871   3.810   9.035   3.346 -0.2749  0.3455 -0.2689
20284SOL    HW163872   3.901   9.048   3.320 -0.9236  1.4571 -2.0401
20284SOL    HW263873   3.760   9.038   3.265 -1.7882 -1.4706  0.5522
20285SOL     OW63874   8.380   5.021   6.377  0.2105  0.0135  0.4363
20285SOL    HW163875   8.319   5.090   6.400  3.9198  3.4970  0.2767
20285SOL    HW263876   8.343   4.982   6.297 -1.9400  1.7947  0.5343
20286SOL     OW63877   0.561   6.530   7.435 -0.1176  0.5721  0.4032
20286SOL    HW163878   0.518   6.581   7.366 -1.0158  0.5263  0.9309
20286SOL    HW263879   0.562   6.440   7.402  0.9396  0.8161 -0.2685
20287SOL     OW63880   6.270   4.790   1.578 -0.1286 -0.3886 -0.1408
20287SOL    HW163881   6.234   4.714   1.530 -0.1385 -0.9662  0.7675
20287SOL    HW263882   6.201   4.856   1.572 -0.4129 -0.6993 -0.3281
20288SOL     OW63883   0.016   5.962   1.638  0.0983  0.4573 -0.2207
20288SOL    HW163884   0.038   5.912   1.717  0.2647 -1.3940 -1.4358
20288SOL    HW263885   0.080   6.033   1.637  0.1756  0.4355  1.2416
20289SOL     OW63886   3.615   0.769   0.472 -0.1867  0.1849  0.0050
20289SOL    HW163887   3.611   0.704   0.402 -1.9538  0.0430  0.2067
20289SOL    HW263888   3.582   0.723   0.550 -1.1398  1.1962  0.2257
20290SOL     OW63889   5.044   5.342   2.207 -0.6647  0.0602 -0.1858
20290SOL    HW163890   4.994   5.325   2.286 -0.8820 -0.5497 -0.4531
20290SOL    HW263891   5.093   5.423   2.226 -0.9977  0.1175  0.4264
20291SOL     OW63892   2.083   4.866   6.958 -0.2879 -0.1907  0.0262
20291SOL    HW163893   2.019   4.834   6.896  2.2179 -1.4569 -2.0235
20291SOL    HW263894   2.101   4.791   7.015  0.6406 -0.3854 -0.5151
20292SOL     OW63895   6.358   1.152   6.209  0.2241 -0.1989 -0.3304
20292SOL    HW163896   6.349   1.194   6.294  0.8688  2.2258 -1.3970
20292SOL    HW263897   6.437   1.099   6.216 -0.2616 -0.7577  0.8707
20293SOL     OW63898   9.037   5.772   5.616 -0.5568 -0.0437  0.1767
20293SOL    HW163899   9.123   5.732   5.609 -0.9377 -0.8379  0.0517
20293SOL    HW263900   9.056   5.865   5.630  0.3216 -0.2517  0.4343
20294SOL     OW63901   9.414   9.026   4.010 -0.2008 -0.1072  0.1623
20294SOL    HW163902   9.374   9.110   4.030 -2.2353 -0.7358 -1.0293
20294SOL    HW263903   9.379   9.003   3.923 -1.1065 -2.9714  1.1995
20295SOL     OW63904   4.952   3.145   2.348  0.6538  0.6050  0.4694
20295SOL    HW163905   4.870   3.128   2.302  3.3463 -2.1482 -3.6335
20295SOL    HW263906   4.988   3.223   2.305  1.1279  0.6672  0.9675
20296SOL     OW63907   0.362   7.719   1.507  0.0362  0.6704 -0.4146
20296SOL    HW163908   0.381   7.782   1.577  1.5220  0.6016 -0.7246
20296SOL    HW263909   0.300   7.764   1.451 -0.8345  0.8989  0.7110
20297SOL     OW63910   2.869   4.466   2.838 -0.2178 -0.0615  0.1014
20297SOL    HW163911   2.878   4.526   2.764 -0.4400 -0.4737 -0.2559
20297SOL    HW263912   2.827   4.519   2.906  1.8402  0.9262  0.6503
20298SOL     OW63913   2.414   5.344   8.838  0.1250  0.0280  0.1362
20298SOL    HW163914   2.501   5.307   8.858 -0.1592 -0.6845  0.0861
20298SOL    HW263915   2.385   5.380   8.922 -0.0899 -0.9251  0.4881
20299SOL     OW63916   0.350   9.111   7.320  0.5153  0.2955  0.0385
20299SOL    HW163917   0.303   9.080   7.243  0.2309 -1.9080  1.0486
20299SOL    HW263918   0.283   9.151   7.375  0.5377  0.8991 -0.3690
20300SOL     OW63919   8.937   9.407   8.381  0.4072  0.5750 -0.0600
20300SOL    HW163920   8.983   9.455   8.311  0.0655  0.0157 -0.6662
20300SOL    HW263921   8.994   9.418   8.457  1.8855 -0.6462 -0.9567
20301SOL     OW63922   2.509   6.755   4.123  0.1403  1.0062  0.6348
20301SOL    HW163923   2.493   6.681   4.065 -2.1685  0.0797  2.3536
20301SOL    HW263924   2.531   6.827   4.065  0.6370 -0.5678 -1.1916
20302SOL     OW63925   3.842   8.983   1.211  0.1731  0.3363  0.1314
20302SOL    HW163926   3.828   8.963   1.118 -2.4159 -1.1717  0.7838
20302SOL    HW263927   3.936   8.976   1.223  0.4647 -0.2241 -2.2301
20303SOL     OW63928   5.718   5.128   0.901 -0.0664  0.0516 -0.0495
20303SOL    HW163929   5.631   5.106   0.868 -0.6059  1.1287  0.6497
20303SOL    HW263930   5.777   5.076   0.847 -1.0203  0.7112 -1.7760
20304SOL     OW63931   8.990   3.169   1.129  0.2265  0.5087  0.0088
20304SOL    HW163932   9.083   3.148   1.132  0.5161  1.8412  0.4343
20304SOL    HW263933   8.954   3.129   1.208 -0.0311 -2.1026 -1.3610
20305SOL     OW63934   0.533   6.052   7.725  0.2868  0.0901 -0.0575
20305SOL    HW163935   0.478   6.121   7.762  2.0809  1.1037  0.7797
20305SOL    HW263936   0.546   5.991   7.798  1.1355  0.4039  0.0594
20306SOL     OW63937   6.903   5.935   0.023  0.3302 -0.5924 -0.2789
20306SOL    HW163938   6.840   5.944  -0.049 -3.1025 -1.2441  2.4944
20306SOL    HW263939   6.900   5.842   0.046  2.7222 -0.7312 -0.3883
20307SOL     OW63940   7.574   5.281   7.012 -0.7657 -0.3274 -0.9036
20307SOL    HW163941   7.549   5.211   7.071  1.4159 -0.1720  0.2479
20307SOL    HW263942   7.632   5.240   6.948  0.8009  0.4731 -0.0198
20308SOL     OW63943   7.918   6.307   1.003 -0.3603 -0.2545 -0.0930
20308SOL    HW163944   7.949   6.328   0.915 -1.2001  3.8857  0.4891
20308SOL    HW263945   7.997   6.311   1.057  0.0108 -1.9207 -0.4847
20309SOL     OW63946   8.837   2.735   6.420 -0.0555 -0.8113 -0.0908
20309SOL    HW163947   8.898   2.805   6.399 -1.5528  0.6949  0.4868
20309SOL    HW263948   8.872   2.658   6.374  1.7256  0.2370 -0.5419
20310SOL     OW63949   1.992   4.698   7.374  0.1812 -0.2270  0.0716
20310SOL    HW163950   2.060   4.758   7.405 -0.7517  0.3134  1.1200
20310SOL    HW263951   2.040   4.629   7.329  1.3548  0.6923 -0.1297
20311SOL     OW63952   8.049   4.493   8.222  0.1099 -0.1040 -0.2416
20311SOL    HW163953   8.014   4.421   8.274 -1.1583 -0.8196 -2.0412
20311SOL    HW263954   8.117   4.531   8.277 -0.3361 -1.6231  1.4160
20312SOL     OW63955   3.642   1.924   0.188  0.0928 -0.4623  0.2010
20312SOL    HW163956   3.600   1.853   0.140  0.5692 -0.7784  0.2572
20312SOL    HW263957   3.679   1.883   0.267 -0.0588 -0.0719  0.4805
20313SOL     OW63958   8.460   0.124   9.441 -0.1000 -0.0209  0.3060
20313SOL    HW163959   8.456   0.108   9.535  1.4447  1.3790  0.6356
20313SOL    HW263960   8.369   0.135   9.415 -0.4478  1.1385  1.9311
20314SOL     OW63961   4.686   4.053   5.943 -0.0460  0.2073  0.2157
20314SOL    HW163962   4.618   4.107   5.902 -1.4697 -1.1565  0.6985
20314SOL    HW263963   4.728   4.007   5.870 -1.0325 -0.4878  0.0755
20315SOL     OW63964   1.506   2.038   2.802  0.1576  0.4549  0.2008
20315SOL    HW163965   1.548   2.119   2.831  1.6288 -0.4540  0.7089
20315SOL    HW263966   1.521   2.036   2.708 -1.4512  1.6396 -0.0921
20316SOL     OW63967   4.479   6.438   5.262  0.2147  0.1219  0.2422
20316SOL    HW163968   4.571   6.462   5.267 -0.3645  2.0617  2.1430
20316SOL    HW263969   4.460   6.433   5.168  1.9031  1.0907 -0.1641
20317SOL     OW63970   5.723   0.046   1.605 -1.0399  0.2356  0.6191
20317SOL    HW163971   5.745  -0.007   1.528  3.0220  1.3708  0.8903
20317SOL    HW263972   5.668   0.116   1.571  0.6035  0.6454 -1.2790
20318SOL     OW63973   7.341   2.887   6.615 -0.0973 -0.0197 -0.3091
20318SOL    HW163974   7.349   2.872   6.521  0.5988 -1.4549 -0.0312
20318SOL    HW263975   7.421   2.935   6.639 -1.7601  3.2379 -0.9818
20319SOL     OW63976   4.867   4.925   3.591  0.0399  0.3936 -1.2417
20319SOL    HW163977   4.889   4.918   3.684  0.5138  2.0153 -1.2050
20319SOL    HW263978   4.952   4.920   3.546 -0.1117  0.4031 -1.5297
20320SOL     OW63979   4.427   8.879   6.957 -0.0610 -0.2206 -0.2575
20320SOL    HW163980   4.482   8.866   6.880 -0.6668 -0.0005 -0.7279
20320SOL    HW263981   4.469   8.826   7.025  0.0046 -1.0750 -0.9614
20321SOL     OW63982   8.453   8.599   3.805 -0.3327  0.3321 -0.2389
20321SOL    HW163983   8.454   8.694   3.796 -0.5622  0.4037  0.4575
20321SOL    HW263984   8.492   8.583   3.891 -1.2476 -0.1439  0.0936
20322SOL     OW63985   4.398   5.105   1.019 -0.3424  0.0829 -0.0184
20322SOL    HW163986   4.466   5.082   0.956  1.4766  1.0180  1.5572
20322SOL    HW263987   4.324   5.134   0.965  1.3743  1.4015 -1.7151
20323SOL     OW63988   5.834   8.863   7.672 -0.6282 -0.1154 -0.3437
20323SOL    HW163989   5.892   8.887   7.745  1.7733 -0.7377 -1.9688
20323SOL    HW263990   5.869   8.912   7.597 -1.2881 -1.6892 -1.6996
20324SOL     OW63991   6.044   9.428   3.204  0.4515  0.1053 -0.0795
20324SOL    HW163992   6.022   9.479   3.282 -0.2633 -2.1103  1.2212
20324SOL    HW263993   6.139   9.436   3.195  0.6381 -0.3177  1.5094
20325SOL     OW63994   7.354   5.843   2.705  0.3014 -0.0080 -0.3114
20325SOL    HW163995   7.446   5.860   2.687  0.7732 -1.0062  1.1069
20325SOL    HW263996   7.331   5.772   2.645  1.0808 -1.3186  0.9211
20326SOL     OW63997   6.803   5.121   7.222 -0.2310 -0.3105 -1.2320
20326SOL    HW163998   6.820   5.205   7.265 -0.8806 -0.4254 -0.7570
20326SOL    HW263999   6.711   5.104   7.237 -0.3029 -0.6944 -2.0741
20327SOL     OW64000   1.659   6.014   2.162  0.5935  0.1040 -0.0768
20327SOL    HW164001   1.612   6.047   2.239 -1.8911  1.0602 -1.9223
20327SOL    HW264002   1.733   6.074   2.152  0.5177  0.4237  1.1347
20328SOL     OW64003   3.966   4.605   6.642 -0.1647 -0.0882 -0.3152
20328SOL    HW164004   3.884   4.575   6.680  0.6807 -0.6762  1.0965
20328SOL    HW264005   3.983   4.545   6.569 -1.2285  0.3621 -0.9521
20329SOL     OW64006   8.859   5.039   2.274 -0.3889 -0.0824 -0.1996
20329SOL    HW164007   8.941   5.005   2.239 -0.6679 -1.4192  0.4087
20329SOL    HW264008   8.844   5.120   2.226  1.3646  0.2500 -0.1962
20330SOL     OW64009   6.971   3.734   5.498  0.0780  0.2905  1.2361
20330SOL    HW164010   7.026   3.664   5.462  0.2361  0.0653  1.9069
20330SOL    HW264011   6.885   3.692   5.511 -0.9492  1.2676 -2.0451
20331SOL     OW64012   3.969   0.147   6.220 -0.0497  0.2418 -0.5363
20331SOL    HW164013   3.874   0.148   6.225  0.0165 -0.5397  0.9053
20331SOL    HW264014   3.993   0.236   6.195 -1.0558  0.9576  1.0090
20332SOL     OW64015   7.851   1.489   4.938  0.1153 -0.2629  0.2221
20332SOL    HW164016   7.788   1.427   4.976  1.0557 -1.3101  0.0993
20332SOL    HW264017   7.890   1.441   4.864  0.4787  0.6659 -0.1949
20333SOL     OW64018   4.409   7.065   0.139  0.1687 -0.0384  0.0558
20333SOL    HW164019   4.450   7.137   0.092  0.2686 -0.8682 -1.1696
20333SOL    HW264020   4.448   7.066   0.226  0.0818  1.4452  0.0881
20334SOL     OW64021   6.762   7.530   2.810 -0.1310 -0.6218  0.2067
20334SOL    HW164022   6.805   7.597   2.863  1.2260  0.6135 -2.3256
20334SOL    HW264023   6.832   7.494   2.756 -1.6072 -1.1685 -1.3974
20335SOL     OW64024   3.451   1.512   0.972  0.4009  0.1836 -0.0949
20335SOL    HW164025   3.520   1.448   0.989 -0.4351 -0.5485  0.5689
20335SOL    HW264026   3.390   1.501   1.044 -0.8034  0.2859 -1.0858
20336SOL     OW64027   8.917   8.661   6.738  0.4015 -0.0784  0.1711
20336SOL    HW164028   8.908   8.756   6.734  0.6655 -0.0412  0.4760
20336SOL    HW264029   8.952   8.644   6.825 -0.1541 -0.4953  0.3106
20337SOL     OW64030   7.598   4.547   3.697 -0.2203 -0.2334  0.2683
20337SOL    HW164031   7.549   4.556   3.615  2.7553  1.6204 -1.4114
20337SOL    HW264032   7.607   4.453   3.710 -1.1745 -0.5568 -1.2819
20338SOL     OW64033   5.449   1.249   3.667  0.2290  0.5656 -0.2873
20338SOL    HW164034   5.397   1.214   3.595  0.9327  0.1963 -0.6222
20338SOL    HW264035   5.436   1.186   3.738  1.8445 -0.6516 -1.0308
20339SOL     OW64036   8.712   0.256   0.421  0.2277 -0.3992  0.3914
20339SOL    HW164037   8.630   0.211   0.398  0.7149 -1.2026  0.2231
20339SOL    HW264038   8.745   0.207   0.497  0.4457  0.0624  0.5935
20340SOL     OW64039   6.419   4.664   9.102 -0.2237  0.6874  0.3480
20340SOL    HW164040   6.481   4.722   9.057 -0.8246  1.1938  0.1612
20340SOL    HW264041   6.472   4.589   9.129 -0.1122 -0.3456 -2.4987
20341SOL     OW64042   6.342   6.573   8.952 -0.4571  0.9933  0.2430
20341SOL    HW164043   6.357   6.570   9.046  0.9300  0.3721  0.0110
20341SOL    HW264044   6.403   6.640   8.920 -0.9397  1.2201 -0.2205
20342SOL     OW64045   0.084   9.399   3.923 -0.1935 -0.0125  0.4782
20342SOL    HW164046   0.029   9.434   3.853 -0.4212 -0.1222  0.6011
20342SOL    HW264047   0.113   9.313   3.890  0.4032  0.3060  0.1559
20343SOL     OW64048   1.179   5.916   5.962  0.4822 -0.1498 -0.2877
20343SOL    HW164049   1.197   5.928   5.868 -0.8959  0.5616 -0.4703
20343SOL    HW264050   1.255   5.955   6.006  0.6294  0.4887 -1.0899
20344SOL     OW64051   1.381   6.314   9.263 -0.2335 -0.1535 -0.2394
20344SOL    HW164052   1.442   6.343   9.330 -0.1536 -2.0357  0.5354
20344SOL    HW264053   1.294   6.337   9.297 -0.1178  0.0488 -0.0839
20345SOL     OW64054   5.458   2.848   4.298 -0.5426 -0.3701  0.6021
20345SOL    HW164055   5.373   2.861   4.256 -0.6139 -0.2739  0.7740
20345SOL    HW264056   5.464   2.919   4.362 -0.5989 -0.7333  1.0140
20346SOL     OW64057   7.995   2.258   1.829  1.0830 -0.1245 -0.4438
20346SOL    HW164058   7.998   2.211   1.746  1.8866 -1.3902  0.2757
20346SOL    HW264059   7.920   2.222   1.875  0.4874  0.7543 -0.7019
20347SOL     OW64060   2.477   5.165   1.429  0.8712  0.9713  0.0124
20347SOL    HW164061   2.394   5.132   1.395  1.5396  0.7794 -1.4694
20347SOL    HW264062   2.521   5.088   1.465  0.6718  0.9697  0.2573
20348SOL     OW64063   7.056   6.513   8.140 -0.8223  0.3389 -0.2981
20348SOL    HW164064   6.999   6.532   8.065 -0.9642  1.1028 -0.0035
20348SOL    HW264065   7.008   6.447   8.190 -2.2255  2.1743  0.8231
20349SOL     OW64066   3.554   8.648   7.265 -0.5856  0.2400 -0.0689
20349SOL    HW164067   3.597   8.573   7.224 -0.7410  0.1507 -0.0669
20349SOL    HW264068   3.478   8.611   7.311 -0.7540  0.4176 -0.2030
20350SOL     OW64069   3.959   8.200   8.574 -0.1276  0.6201 -0.6465
20350SOL    HW164070   3.998   8.127   8.621  0.8600  0.0082 -2.3879
20350SOL    HW264071   3.973   8.276   8.631  1.2100 -0.0782 -0.0429
20351SOL     OW64072   6.045   4.005   3.460  0.1175 -0.2930 -0.3693
20351SOL    HW164073   6.094   3.995   3.378  0.7323 -1.5776  0.1332
20351SOL    HW264074   6.092   4.073   3.508  0.0271  0.1368 -0.8821
20352SOL     OW64075   8.853   5.257   1.612 -0.2217 -0.7114 -0.1043
20352SOL    HW164076   8.802   5.279   1.534 -0.2814 -0.0261  0.1240
20352SOL    HW264077   8.901   5.178   1.588 -0.8645 -0.9701 -0.5581
20353SOL     OW64078   1.212   9.341   3.425  0.1365  0.4518  0.6410
20353SOL    HW164079   1.220   9.382   3.511  1.4651  1.0102  0.2525
20353SOL    HW264080   1.232   9.411   3.363 -1.8897  0.3487 -0.1780
20354SOL     OW64081   8.049   8.038   0.026  0.0866 -0.2166  0.3936
20354SOL    HW164082   8.015   7.957  -0.012 -2.5867  0.8639  0.3594
20354SOL    HW264083   8.095   8.011   0.106 -1.1015 -1.7358  0.5699
20355SOL     OW64084   0.703   3.776   9.022 -0.6012  0.1509  0.0894
20355SOL    HW164085   0.673   3.790   9.112 -0.8795 -0.9682  0.1736
20355SOL    HW264086   0.772   3.710   9.030 -1.7624 -1.1928 -0.6882
20356SOL     OW64087   0.330   2.966   1.782  0.1228 -0.2556 -0.5934
20356SOL    HW164088   0.419   2.956   1.814 -0.3855  1.9450  1.6490
20356SOL    HW264089   0.274   2.950   1.858 -1.3660 -0.5754 -1.7135
20357SOL     OW64090   0.292   8.332   4.190 -0.2008 -0.2573  0.1874
20357SOL    HW164091   0.266   8.341   4.282 -0.4305 -2.3890  0.3418
20357SOL    HW264092   0.225   8.276   4.152 -0.0331  0.5097 -1.2654
20358SOL     OW64093   5.343   3.827   4.195 -0.1350 -0.0986 -0.0493
20358SOL    HW164094   5.255   3.861   4.181 -0.6468 -1.3632  0.0736
20358SOL    HW264095   5.401   3.900   4.173 -1.2152  0.7818  0.0118
20359SOL     OW64096   6.699   5.395   1.720  0.3168 -0.1906  0.2618
20359SOL    HW164097   6.650   5.428   1.796  0.7734  2.7183 -0.6293
20359SOL    HW264098   6.650   5.426   1.644  0.6847 -1.7869 -0.6499
20360SOL     OW64099   0.604   0.227   8.516  0.4984  0.2835  0.5592
20360SOL    HW164100   0.605   0.178   8.434 -1.3652 -0.1419  0.7783
20360SOL    HW264101   0.662   0.179   8.574 -0.4149 -1.0194  0.4014
20361SOL     OW64102   2.895   9.195   4.600 -0.0941  0.4182  0.1534
20361SOL    HW164103   2.921   9.284   4.576  0.9083  0.5640  1.7584
20361SOL    HW264104   2.805   9.205   4.632  0.2987  0.9863  1.0952
20362SOL     OW64105   3.879   5.735   2.719 -0.6349 -0.7082  0.0167
20362SOL    HW164106   3.937   5.789   2.773 -1.7744  1.0471 -0.4651
20362SOL    HW264107   3.824   5.689   2.782 -2.4326  1.8622  0.4091
20363SOL     OW64108   5.709   1.903   5.766 -0.5740 -0.0459 -0.4092
20363SOL    HW164109   5.632   1.925   5.713 -0.9139 -0.9902 -0.3262
20363SOL    HW264110   5.774   1.876   5.701 -0.3363  0.6944 -0.4758
20364SOL     OW64111   0.034   4.941   2.673  0.7016 -0.4173  0.4557
20364SOL    HW164112   0.078   4.886   2.738  0.3624 -0.7750  0.3809
20364SOL    HW264113   0.095   4.943   2.599  0.1207 -1.8061 -0.0770
20365SOL     OW64114   8.637   5.724   0.834 -0.4605  0.5348 -0.2996
20365SOL    HW164115   8.556   5.770   0.857  1.6908  2.7118  3.5391
20365SOL    HW264116   8.690   5.789   0.790 -0.1127 -0.3942 -1.2686
20366SOL     OW64117   2.439   1.660   2.914 -0.8238  0.2229  0.3780
20366SOL    HW164118   2.396   1.578   2.935  0.3966 -1.9395 -4.6624
20366SOL    HW264119   2.368   1.720   2.893 -1.6675 -0.1187  2.2313
20367SOL     OW64120   5.474   0.780   4.970 -0.6018  0.4165  0.0447
20367SOL    HW164121   5.487   0.828   4.888 -0.7702  0.8825  0.2900
20367SOL    HW264122   5.547   0.718   4.973 -1.6898 -0.9592 -1.4208
20368SOL     OW64123   1.113   6.245   4.723 -0.3782 -0.5614  0.0846
20368SOL    HW164124   1.123   6.151   4.741 -0.9265 -0.7552 -0.5876
20368SOL    HW264125   1.153   6.288   4.798  1.6089 -1.3288 -0.4856
20369SOL     OW64126   3.414   2.249   4.367 -0.4785  0.1251  0.3150
20369SOL    HW164127   3.402   2.291   4.282 -1.1253  0.9788  0.8227
20369SOL    HW264128   3.328   2.212   4.388 -0.6686  1.0645  1.2113
20370SOL     OW64129   8.626   5.472   8.541 -0.1924 -0.0532 -0.2347
20370SOL    HW164130   8.701   5.461   8.483 -0.3099  1.2885 -0.6775
20370SOL    HW264131   8.577   5.391   8.534 -0.9678  0.6041 -3.1400
20371SOL     OW64132   9.274   5.382   3.931  0.6198 -0.3916  0.5694
20371SOL    HW164133   9.240   5.300   3.896 -0.9946 -0.6221  2.5544
20371SOL    HW264134   9.365   5.385   3.903  0.0347 -1.6695 -1.5974
20372SOL     OW64135   6.898   8.948   0.148  1.1031  0.2097 -0.1621
20372SOL    HW164136   6.973   8.889   0.146  0.9339  0.0331 -1.5147
20372SOL    HW264137   6.929   9.030   0.111  0.8193  0.3639 -0.0676
20373SOL     OW64138   2.531   5.103   2.591 -0.2221  0.5547 -0.3744
20373SOL    HW164139   2.459   5.061   2.544 -0.1097  0.8949 -0.8532
20373SOL    HW264140   2.537   5.190   2.552  0.4528  0.5271 -0.3320
20374SOL     OW64141   4.074   0.171   3.988  0.5253 -0.3226 -0.3229
20374SOL    HW164142   4.056   0.246   4.044 -0.0358 -1.4955  1.0978
20374SOL    HW264143   3.987   0.141   3.959  0.4773 -2.3958  1.7817
20375SOL     OW64144   6.715   1.576   8.949 -0.4268  0.3958 -0.3243
20375SOL    HW164145   6.774   1.506   8.918  1.7466  2.3682 -0.7646
20375SOL    HW264146   6.668   1.603   8.870 -0.2107  0.4073 -0.4526
20376SOL     OW64147   2.817   6.457   7.962 -0.1418 -0.2551  0.2472
20376SOL    HW164148   2.793   6.409   8.041 -1.5385 -0.4561 -0.2749
20376SOL    HW264149   2.795   6.398   7.890  0.7258  0.0877 -0.3092
20377SOL     OW64150   5.030   4.600   5.287  0.0617  0.0600 -0.4889
20377SOL    HW164151   5.093   4.530   5.268 -0.4652 -0.9973  1.4792
20377SOL    HW264152   5.075   4.658   5.347 -0.2354  0.2486 -0.4460
20378SOL     OW64153   1.399   7.332   4.561 -0.4785  0.3168  0.2638
20378SOL    HW164154   1.438   7.403   4.612 -0.9301  0.0219  1.0207
20378SOL    HW264155   1.341   7.287   4.622 -0.3890 -0.5510 -0.2811
20379SOL     OW64156   2.921   3.294   0.234 -0.0932  0.4141 -0.3811
20379SOL    HW164157   2.945   3.315   0.324  0.8473  0.7153 -0.6924
20379SOL    HW264158   3.001   3.261   0.194 -0.7762 -0.7595 -0.8108
20380SOL     OW64159   3.397   2.446   6.504 -0.2513 -0.0129 -0.4167
20380SOL    HW164160   3.455   2.521   6.493 -0.7445  0.4245 -0.0497
20380SOL    HW264161   3.457   2.373   6.522  0.1545  0.5822  0.7064
20381SOL     OW64162   5.694   4.596   5.146  0.1877 -0.0146  0.0993
20381SOL    HW164163   5.675   4.609   5.053  1.2704 -1.6455 -0.3735
20381SOL    HW264164   5.646   4.665   5.190  0.0482  1.0899 -1.7210
20382SOL     OW64165   3.329   4.027   2.360  0.0498 -0.7437  0.4108
20382SOL    HW164166   3.379   4.044   2.280  2.1246 -1.4526  1.5242
20382SOL    HW264167   3.296   3.938   2.349 -1.7743  0.0176 -0.6965
20383SOL     OW64168   7.459   5.530   2.917 -0.4451 -0.2245  0.0813
20383SOL    HW164169   7.495   5.442   2.931 -0.1892 -0.1858 -0.3317
20383SOL    HW264170   7.371   5.515   2.883 -1.7415 -0.3412  3.2289
20384SOL     OW64171   6.271   5.519   5.764  0.6748 -0.0640 -0.0873
20384SOL    HW164172   6.309   5.552   5.683 -0.9358 -1.2050 -1.3393
20384SOL    HW264173   6.198   5.465   5.736  0.2416 -0.6848  2.1287
20385SOL     OW64174   4.158   5.225   6.671  0.4483 -0.0772  0.1201
20385SOL    HW164175   4.075   5.183   6.647 -0.0491  1.2616 -0.5601
20385SOL    HW264176   4.223   5.156   6.662 -0.8765 -1.7593  2.7961
20386SOL     OW64177   1.510   2.110   7.830 -0.7831  0.1629 -0.4558
20386SOL    HW164178   1.585   2.069   7.787 -1.9752 -1.7813 -0.7392
20386SOL    HW264179   1.458   2.147   7.758 -0.9825 -0.0447 -0.4224
20387SOL     OW64180   7.901   4.342   6.297 -0.1104 -0.2485 -0.8189
20387SOL    HW164181   7.926   4.435   6.301 -0.0232 -0.2400 -1.4706
20387SOL    HW264182   7.968   4.302   6.241 -1.3768 -0.2931 -2.3128
20388SOL     OW64183   4.961   1.536   8.451  0.5008  0.3830 -0.2440
20388SOL    HW164184   4.892   1.600   8.435  1.3452  1.0424 -1.3679
20388SOL    HW264185   5.035   1.588   8.483  1.0972 -0.0653 -0.8843
20389SOL     OW64186   2.590   1.105   4.467 -0.0666 -0.5532  0.2658
20389SOL    HW164187   2.651   1.037   4.496  2.1720  1.2933 -0.0205
20389SOL    HW264188   2.578   1.088   4.374  1.9083  0.4630 -0.2062
20390SOL     OW64189   1.382   0.647   0.993 -0.4565 -0.1021  0.1117
20390SOL    HW164190   1.453   0.589   0.966 -0.8771 -0.0956 -1.0377
20390SOL    HW264191   1.425   0.722   1.034  0.2975  0.6919 -2.0770
20391SOL     OW64192   8.191   1.947   7.353  0.1586 -0.1064  0.3165
20391SOL    HW164193   8.103   1.908   7.356  0.1335 -0.1700 -0.8990
20391SOL    HW264194   8.196   1.988   7.267  1.3449 -0.1391  0.3571
20392SOL     OW64195   5.329   0.331   8.282 -0.3030 -0.3075 -0.4054
20392SOL    HW164196   5.354   0.239   8.275 -0.5302 -0.4224  0.2714
20392SOL    HW264197   5.325   0.362   8.191  1.1076 -0.5961 -0.5756
20393SOL     OW64198   1.395   5.191   6.654 -0.6140  0.3177 -0.4115
20393SOL    HW164199   1.342   5.255   6.607  0.1020  0.6797 -0.7365
20393SOL    HW264200   1.481   5.231   6.661 -0.0635 -0.7352 -0.9153
20394SOL     OW64201   4.781   2.820   4.790 -0.2219 -0.1912  0.3153
20394SOL    HW164202   4.833   2.817   4.869  0.7837 -0.9749 -0.3615
20394SOL    HW264203   4.709   2.880   4.810  0.4151  0.1598  1.5648
20395SOL     OW64204   6.710   3.297   8.137 -0.0736  0.1124 -0.2796
20395SOL    HW164205   6.650   3.327   8.069 -0.9753  0.6998  0.7427
20395SOL    HW264206   6.661   3.309   8.219  0.7903 -1.0775  0.4255
20396SOL     OW64207   7.259   4.908   0.151  0.1312 -0.2627  0.9563
20396SOL    HW164208   7.256   4.813   0.145 -0.7209 -0.1404 -1.0864
20396SOL    HW264209   7.302   4.936   0.070 -1.1771  1.1536  0.7149
20397SOL     OW64210   7.758   0.750   3.385  0.0587 -0.1068  0.2609
20397SOL    HW164211   7.717   0.784   3.464  1.3581  3.5091 -0.5392
20397SOL    HW264212   7.837   0.706   3.415 -0.7091 -0.9010  1.1559
20398SOL     OW64213   1.129   7.715   3.035  0.4371 -0.4383 -0.2564
20398SOL    HW164214   1.043   7.753   3.055  0.6604 -1.0713  2.0324
20398SOL    HW264215   1.191   7.772   3.079  0.9837 -1.6821  0.6057
20399SOL     OW64216   7.786   0.054   8.249 -0.1362  1.0771  0.0816
20399SOL    HW164217   7.812  -0.036   8.232 -0.4691  0.7250  1.3424
20399SOL    HW264218   7.841   0.080   8.324  0.9873  2.4028 -1.1746
20400SOL     OW64219   3.042   5.077   6.405  0.0563 -0.4543 -0.1876
20400SOL    HW164220   3.085   5.117   6.481 -2.5916  0.2831  1.0082
20400SOL    HW264221   3.061   4.983   6.413 -0.7944 -0.4870  1.8385
20401SOL     OW64222   2.041   3.305   7.331 -0.1790 -0.4049  0.0722
20401SOL    HW164223   1.958   3.331   7.371 -0.9633 -1.5943 -0.7392
20401SOL    HW264224   2.033   3.333   7.240  0.4748 -0.1814  0.0800
20402SOL     OW64225   9.127   2.617   4.539 -0.0215  0.0516 -0.2056
20402SOL    HW164226   9.161   2.581   4.621  0.5139 -1.3512 -1.0288
20402SOL    HW264227   9.142   2.711   4.547  1.2151 -0.1990  0.7716
20403SOL     OW64228   2.536   8.092   2.751  0.4690 -0.5894 -0.2564
20403SOL    HW164229   2.515   8.009   2.708  0.9327 -0.5516 -0.5650
20403SOL    HW264230   2.632   8.096   2.751  0.4523 -0.0493 -0.2605
20404SOL     OW64231   8.730   3.959   3.283  0.1535 -0.2030 -0.3570
20404SOL    HW164232   8.643   3.962   3.243 -1.0167 -1.2044  2.0296
20404SOL    HW264233   8.756   3.867   3.279  0.5325 -0.1211  0.1199
20405SOL     OW64234   8.045   7.367   4.097 -0.0249 -0.7133  0.0658
20405SOL    HW164235   7.961   7.324   4.104 -1.1181  1.4784  0.9029
20405SOL    HW264236   8.040   7.441   4.158  0.7106  2.2222 -3.2587
20406SOL     OW64237   5.017   5.973   1.129 -0.2145 -0.6438  0.0348
20406SOL    HW164238   4.992   6.054   1.084 -2.6711 -0.6219  1.3725
20406SOL    HW264239   5.062   6.002   1.208  1.1192 -0.6508 -0.6977
20407SOL     OW64240   0.431   7.193   5.613 -0.1116  0.1547  0.0464
20407SOL    HW164241   0.489   7.214   5.540  1.5169  1.2742  1.6511
20407SOL    HW264242   0.457   7.252   5.683 -1.2400 -1.3413  1.7715
20408SOL     OW64243   7.855   7.924   2.609  0.9313 -0.0756 -0.2753
20408SOL    HW164244   7.904   7.858   2.559 -0.3719 -1.5018  0.2741
20408SOL    HW264245   7.829   7.878   2.689 -0.4774  0.9365 -0.1386
20409SOL     OW64246   6.150   7.157   3.185 -0.5725 -0.2991  0.1567
20409SOL    HW164247   6.202   7.145   3.106 -1.6013 -1.0445 -0.4159
20409SOL    HW264248   6.195   7.227   3.233  1.5775 -1.7026  0.2275
20410SOL     OW64249   2.455   1.137   2.604 -0.3908 -0.0938 -0.1495
20410SOL    HW164250   2.482   1.046   2.605 -0.2216 -0.0631 -1.0202
20410SOL    HW264251   2.441   1.157   2.511  0.0953  0.9112 -0.0186
20411SOL     OW64252   0.450   8.785   8.011 -0.4767 -0.5412 -0.0043
20411SOL    HW164253   0.463   8.794   7.917  0.0961 -0.9541  0.0278
20411SOL    HW264254   0.410   8.867   8.038  2.5271  1.0087 -0.0739
20412SOL     OW64255   9.063   9.210   1.825 -0.2120  0.8375  0.1604
20412SOL    HW164256   9.071   9.137   1.886 -0.3908  0.6413 -0.0481
20412SOL    HW264257   9.141   9.205   1.770 -0.9055 -0.0462 -0.7671
20413SOL     OW64258   2.065   3.878   5.319  0.5724 -0.0792 -0.0058
20413SOL    HW164259   2.093   3.937   5.249  0.3171  0.8787  0.6853
20413SOL    HW264260   2.145   3.853   5.364  0.5665  0.8287  0.5346
20414SOL     OW64261   6.869   3.377   0.857 -0.1534  0.2318  0.2101
20414SOL    HW164262   6.845   3.317   0.927  1.6115  0.0568  0.6771
20414SOL    HW264263   6.862   3.326   0.776 -1.9554  0.3703  0.2603
20415SOL     OW64264   2.516   9.187   9.080  0.4394 -0.3464 -0.1953
20415SOL    HW164265   2.583   9.200   9.148 -0.6055  2.1623  0.4110
20415SOL    HW264266   2.457   9.261   9.090 -0.5305 -0.6773 -2.9635
20416SOL     OW64267   7.147   2.081   3.426 -0.1423 -0.5009  0.2699
20416SOL    HW164268   7.147   1.990   3.398  2.8959 -0.6716  0.5745
20416SOL    HW264269   7.219   2.121   3.377  1.0907  0.7481  2.9668
20417SOL     OW64270   1.121   8.966   7.190 -0.0234 -0.4908  0.3325
20417SOL    HW164271   1.070   8.951   7.111 -0.0265 -1.8119  0.5794
20417SOL    HW264272   1.199   8.911   7.179  2.1981  2.6864 -0.7953
20418SOL     OW64273   4.368   1.606   4.252 -0.7716 -0.0638 -0.8285
20418SOL    HW164274   4.405   1.652   4.327 -0.2051 -0.9546 -0.5547
20418SOL    HW264275   4.410   1.520   4.253  0.3899  0.4604 -3.0734
20419SOL     OW64276   6.121   1.522   1.620  0.3726 -0.1749 -0.6304
20419SOL    HW164277   6.032   1.494   1.643  0.5356  0.5319  0.8966
20419SOL    HW264278   6.123   1.615   1.643  2.1426 -0.6556  1.2406
20420SOL     OW64279   3.250   6.951   2.160 -0.0317 -0.0533 -0.0577
20420SOL    HW164280   3.345   6.953   2.171  0.0311  0.9932 -0.7865
20420SOL    HW264281   3.237   6.906   2.076 -0.1842 -0.2717  0.0827
20421SOL     OW64282   4.334   0.864   8.742  0.1950 -0.6608 -0.2568
20421SOL    HW164283   4.355   0.900   8.656  1.6826  1.3718  0.9237
20421SOL    HW264284   4.319   0.771   8.726 -0.4608 -0.1393 -2.8540
20422SOL     OW64285   4.428   4.025   9.242 -0.3384 -0.2451  0.4878
20422SOL    HW164286   4.454   3.955   9.183  0.3367  0.4736 -0.0674
20422SOL    HW264287   4.440   4.105   9.192  1.9796  0.5157  2.1851
20423SOL     OW64288   6.322   0.246   3.690  0.1494  0.3549  0.4016
20423SOL    HW164289   6.398   0.199   3.656 -1.7495 -1.7321 -1.1810
20423SOL    HW264290   6.249   0.213   3.637 -1.9940  1.5845  2.5102
20424SOL     OW64291   6.461   3.011   3.178  0.0475 -0.5338  0.0511
20424SOL    HW164292   6.390   3.001   3.115  0.6100 -0.6767 -0.5598
20424SOL    HW264293   6.456   2.933   3.233 -0.2023 -0.5935 -0.0569
20425SOL     OW64294   8.567   4.552   1.603 -0.4338 -0.1973 -0.0910
20425SOL    HW164295   8.500   4.510   1.549  1.1854 -1.9092 -0.8323
20425SOL    HW264296   8.650   4.526   1.563  0.6868  3.5014 -0.4082
20426SOL     OW64297   4.788   8.728   5.640  0.0531 -0.2554  0.1755
20426SOL    HW164298   4.855   8.753   5.704  0.8123 -1.3654 -0.1664
20426SOL    HW264299   4.707   8.726   5.690  0.0771  2.0781  0.3856
20427SOL     OW64300   1.961   3.213   0.312 -0.1373 -0.0246 -0.3443
20427SOL    HW164301   2.025   3.142   0.306 -0.6600 -0.5704  0.4178
20427SOL    HW264302   1.878   3.172   0.288 -0.6697 -0.0109  1.4182
20428SOL     OW64303   3.709   0.164   8.117 -0.3563  0.0102 -0.2710
20428SOL    HW164304   3.648   0.095   8.142  1.1567 -1.6108 -0.9730
20428SOL    HW264305   3.721   0.215   8.198 -0.5286 -1.2989  0.5993
20429SOL     OW64306   2.666   3.251   1.182  0.0862  0.4436 -0.5427
20429SOL    HW164307   2.611   3.217   1.112 -1.2176  1.6859 -0.1482
20429SOL    HW264308   2.724   3.314   1.140 -1.7021  2.2990 -0.3069
20430SOL     OW64309   1.151   7.211   3.954 -0.3569  0.0741  0.8188
20430SOL    HW164310   1.165   7.116   3.958  0.3953  0.1640  0.5088
20430SOL    HW264311   1.238   7.247   3.935 -0.3986  0.9141  2.1720
20431SOL     OW64312   4.425   1.137   1.146  0.0488  0.5312 -0.0293
20431SOL    HW164313   4.376   1.215   1.119  0.0486  0.7679  0.6267
20431SOL    HW264314   4.411   1.132   1.241  0.0767 -0.2503 -0.0599
20432SOL     OW64315   3.562   8.955   4.949  0.3957 -0.0645  0.3100
20432SOL    HW164316   3.600   8.964   5.036 -2.5029  1.5392  1.4774
20432SOL    HW264317   3.502   9.029   4.942  1.0363  0.1791 -3.3194
20433SOL     OW64318   1.762   7.184   0.720 -0.2664 -0.0751 -0.5495
20433SOL    HW164319   1.753   7.184   0.625  0.9219  1.8926 -0.6884
20433SOL    HW264320   1.855   7.201   0.735 -0.8690  1.9741  0.9786
20434SOL     OW64321   1.399   7.844   0.479 -0.2548 -0.6819  0.2397
20434SOL    HW164322   1.367   7.817   0.393 -1.9964  3.2598 -0.4926
20434SOL    HW264323   1.320   7.849   0.533  0.3810  0.1257  1.1102
20435SOL     OW64324   7.704   1.465   5.825  0.1199  0.7896  0.0887
20435SOL    HW164325   7.659   1.467   5.740 -1.0393  0.9492  0.6923
20435SOL    HW264326   7.784   1.515   5.812 -0.1438  0.9621 -0.8692
20436SOL     OW64327   7.592   8.955   9.339  0.2571  0.1411  0.8838
20436SOL    HW164328   7.628   8.929   9.424  0.2568 -0.2327  0.7667
20436SOL    HW264329   7.613   9.049   9.333 -1.0715  0.5266  1.9666
20437SOL     OW64330   7.841   8.984   8.182  0.0737  0.3660 -0.2041
20437SOL    HW164331   7.830   8.982   8.277 -2.5888  0.4386 -0.4776
20437SOL    HW264332   7.886   8.902   8.162  1.5631  0.8048  1.1997
20438SOL     OW64333   7.703   0.128   5.810  0.3411  0.2184 -0.3697
20438SOL    HW164334   7.723   0.219   5.834  0.4291 -0.6152  2.9194
20438SOL    HW264335   7.783   0.097   5.766  1.5567  0.7449  1.4311
20439SOL     OW64336   7.278   6.070   6.095 -0.5840  0.7651  0.0082
20439SOL    HW164337   7.347   6.059   6.161 -0.1457  6.0469  0.6330
20439SOL    HW264338   7.322   6.057   6.011  0.8629  2.6276  0.4659
20440SOL     OW64339   1.577   5.161   2.517 -0.1235 -0.3921  0.3960
20440SOL    HW164340   1.655   5.125   2.474  0.7680  2.5154 -0.4832
20440SOL    HW264341   1.611   5.204   2.595 -0.8151  0.9317 -0.0237
20441SOL     OW64342   1.158   6.488   7.464 -0.0684  0.1419  0.6454
20441SOL    HW164343   1.111   6.470   7.383 -1.1958  0.6941  1.1746
20441SOL    HW264344   1.184   6.401   7.496  0.4938 -0.0644 -0.3698
20442SOL     OW64345   4.269   8.071   5.957  0.1560  0.5298  0.1736
20442SOL    HW164346   4.248   7.977   5.953  1.8100  0.1321  0.5855
20442SOL    HW264347   4.251   8.095   6.048  2.2892 -0.0293  0.7757
20443SOL     OW64348   0.067   2.852   7.573  0.5993  0.1854 -0.4282
20443SOL    HW164349   0.154   2.831   7.607  0.7460  2.4335  0.6408
20443SOL    HW264350   0.031   2.915   7.636 -1.6062 -0.3213 -1.1319
20444SOL     OW64351   4.318   6.506   3.897  0.7170  0.2434  0.8291
20444SOL    HW164352   4.303   6.596   3.924 -1.8613 -0.4522  1.8518
20444SOL    HW264353   4.380   6.471   3.960  0.9780  1.0225  1.0004
20445SOL     OW64354   4.778   4.189   3.347 -0.1107  0.3324  0.1294
20445SOL    HW164355   4.829   4.236   3.281  1.4905 -1.3325  0.1274
20445SOL    HW264356   4.837   4.184   3.423 -0.1737 -1.7805  0.0656
20446SOL     OW64357   4.261   5.493   0.243  0.8915  0.2704 -0.0103
20446SOL    HW164358   4.190   5.532   0.192  1.2516  0.5296 -0.3155
20446SOL    HW264359   4.306   5.567   0.283  0.6262  0.0677  0.6691
20447SOL     OW64360   8.153   4.932   0.104  0.2354 -0.4211 -0.4563
20447SOL    HW164361   8.100   4.906   0.029 -0.1176  3.2852 -1.5479
20447SOL    HW264362   8.239   4.952   0.067  0.0873  1.3340  0.1003
20448SOL     OW64363   4.653   9.293   3.672  0.8412 -0.2795  0.4106
20448SOL    HW164364   4.567   9.287   3.713  0.0601 -1.5017 -1.3372
20448SOL    HW264365   4.714   9.270   3.742 -0.3520 -0.8622  1.2888
20449SOL     OW64366   7.304   0.438   3.761  0.1346  0.8019  0.6231
20449SOL    HW164367   7.260   0.385   3.695 -2.2405  1.2789  1.7726
20449SOL    HW264368   7.234   0.474   3.814  1.8493  2.9371  1.5263
20450SOL     OW64369   5.337   1.896   6.406  0.5127  0.2521  0.2349
20450SOL    HW164370   5.288   1.976   6.390  2.0446  1.6073  2.0181
20450SOL    HW264371   5.406   1.895   6.340 -0.1297 -0.1403 -0.4335
20451SOL     OW64372   9.407   8.689   3.376 -0.4020  0.3080  0.3936
20451SOL    HW164373   9.430   8.711   3.466 -1.4216 -1.6439  1.1484
20451SOL    HW264374   9.490   8.699   3.328  0.4534  0.1065  1.7877
20452SOL     OW64375   8.476   7.831   7.246 -0.4226 -0.1515 -0.1577
20452SOL    HW164376   8.384   7.857   7.236 -0.6885 -1.0805 -0.1866
20452SOL    HW264377   8.498   7.787   7.164 -0.4195 -1.2983  0.4502
20453SOL     OW64378   3.250   6.357   3.667 -0.8590 -0.3251  0.0453
20453SOL    HW164379   3.165   6.398   3.680 -1.0619 -1.3641  2.2113
20453SOL    HW264380   3.232   6.280   3.614 -1.3529 -0.7930  0.8795
20454SOL     OW64381   4.091   8.470   1.081  0.0511  0.2125 -0.1631
20454SOL    HW164382   4.179   8.452   1.113  0.5039  1.2122 -0.8345
20454SOL    HW264383   4.040   8.486   1.160  0.2770 -1.1510  0.2797
20455SOL     OW64384   1.950   7.212   4.676 -0.0096 -0.5702  0.3065
20455SOL    HW164385   1.877   7.248   4.627  0.0802  0.2482  0.7716
20455SOL    HW264386   1.989   7.147   4.617 -0.0962  0.1670 -0.5758
20456SOL     OW64387   5.369   7.652   1.727  0.3652 -0.3472  0.1427
20456SOL    HW164388   5.334   7.668   1.815  2.8746 -0.5969  1.2652
20456SOL    HW264389   5.464   7.664   1.737  0.8855 -2.1402 -2.1244
20457SOL     OW64390   2.838   5.178   2.395 -0.1888 -0.0717 -0.3001
20457SOL    HW164391   2.887   5.165   2.477  0.4612  2.1812 -0.3005
20457SOL    HW264392   2.794   5.262   2.407 -2.8591 -1.3342 -0.9357
20458SOL     OW64393   8.258   8.242   0.075 -0.3728  0.3671  0.0609
20458SOL    HW164394   8.185   8.185   0.050  0.3361  0.0328 -1.2889
20458SOL    HW264395   8.305   8.257  -0.007  0.8216  0.9492  0.8483
20459SOL     OW64396   2.405   8.203   3.758 -0.0873 -0.3391 -0.2272
20459SOL    HW164397   2.377   8.284   3.800  0.5075  0.8941 -2.1101
20459SOL    HW264398   2.423   8.229   3.667  3.1267 -1.8973 -0.1129
20460SOL     OW64399   9.284   5.242   2.168  0.0064 -0.8446  0.4137
20460SOL    HW164400   9.205   5.253   2.115  0.3786 -0.0080  0.0302
20460SOL    HW264401   9.349   5.207   2.106  0.0193 -1.2608  0.6608
20461SOL     OW64402   1.258   1.891   6.134 -0.2287  0.3401 -0.5369
20461SOL    HW164403   1.297   1.833   6.068 -1.4709  0.1999 -1.1688
20461SOL    HW264404   1.298   1.976   6.118 -0.1449  0.1909 -1.1434
20462SOL     OW64405   4.758   0.883   0.265 -0.4585 -0.2795 -0.4497
20462SOL    HW164406   4.788   0.972   0.285 -0.0018 -0.8861  1.6967
20462SOL    HW264407   4.663   0.892   0.256 -0.5902  0.2180  1.1753
20463SOL     OW64408   9.436   0.583   0.635  0.2251  0.2308  0.5929
20463SOL    HW164409   9.480   0.668   0.639  1.2793 -0.2259 -0.9407
20463SOL    HW264410   9.382   0.587   0.556 -0.5658 -0.1153  1.1149
20464SOL     OW64411   5.094   0.644   5.123 -0.5564 -0.2429  0.3180
20464SOL    HW164412   5.165   0.593   5.162 -0.2895 -1.4127 -1.6520
20464SOL    HW264413   5.133   0.730   5.107  0.5245 -0.9486 -0.9890
20465SOL     OW64414   4.263   9.071   0.212  0.1583 -0.3586 -0.0831
20465SOL    HW164415   4.191   9.017   0.179  0.6094 -0.4120 -1.0077
20465SOL    HW264416   4.254   9.154   0.165  0.1250 -0.0262  0.5145
20466SOL     OW64417   6.966   8.979   7.711 -0.5562 -0.5983  0.0518
20466SOL    HW164418   6.978   8.909   7.647 -0.7938 -0.2107 -0.4244
20466SOL    HW264419   7.010   8.948   7.790  0.6973 -0.6261 -0.6363
20467SOL     OW64420   7.042   6.553   3.666 -0.2464 -0.1073 -0.1116
20467SOL    HW164421   7.093   6.551   3.585  0.7632  0.6035  0.5037
20467SOL    HW264422   6.954   6.581   3.637  0.1352  0.2587 -0.9494
20468SOL     OW64423   6.145   4.259   7.853  0.2014 -0.3639  0.0285
20468SOL    HW164424   6.197   4.222   7.925 -0.9733 -1.0394  0.5355
20468SOL    HW264425   6.057   4.266   7.888 -0.3667 -0.5987 -1.3194
20469SOL     OW64426   1.464   7.288   9.331  0.1002  0.4751 -0.3181
20469SOL    HW164427   1.501   7.363   9.379  0.9103  0.2357 -0.5806
20469SOL    HW264428   1.406   7.246   9.395 -0.9739  1.7776 -0.3991
20470SOL     OW64429   2.798   2.696   8.180 -0.2229 -0.0464  0.5915
20470SOL    HW164430   2.833   2.612   8.152  0.3714  0.3689  0.0779
20470SOL    HW264431   2.868   2.734   8.234 -0.3289  0.2915  0.4944
20471SOL     OW64432   5.524   7.407   4.301  0.2291  0.1873  0.5506
20471SOL    HW164433   5.610   7.405   4.260  1.1572  0.1001  2.4145
20471SOL    HW264434   5.511   7.318   4.334 -0.9491 -0.0195 -0.4441
20472SOL     OW64435   6.306   8.427   4.349  0.0510  0.4924 -0.3937
20472SOL    HW164436   6.378   8.365   4.345 -0.0475  0.2464  1.2642
20472SOL    HW264437   6.318   8.483   4.273  1.0054 -0.6167 -1.0691
20473SOL     OW64438   0.839   1.435   9.294 -0.5397 -0.2987  0.8363
20473SOL    HW164439   0.782   1.398   9.361  0.0275  0.7876  1.9442
20473SOL    HW264440   0.927   1.404   9.318 -0.9135 -4.5050 -2.5738
20474SOL     OW64441   8.935   4.423   9.155  0.2287  0.7103  0.3634
20474SOL    HW164442   9.017   4.469   9.174  0.4066  0.5696 -0.0672
20474SOL    HW264443   8.926   4.427   9.060  1.3013 -1.9505  0.1173
20475SOL     OW64444   6.579   2.652   2.593 -0.4118 -0.0555 -0.2031
20475SOL    HW164445   6.510   2.613   2.647 -0.1292 -1.0042 -0.5137
20475SOL    HW264446   6.533   2.689   2.518 -0.6318 -0.3106 -0.1950
20476SOL     OW64447   1.939   0.957   6.814 -0.1299 -0.2792  0.0289
20476SOL    HW164448   2.023   0.994   6.844  0.1673  0.5936 -1.8189
20476SOL    HW264449   1.883   1.034   6.800  0.4648 -0.4588 -3.7562
20477SOL     OW64450   0.678   0.893   2.608  0.1600  0.5261 -0.2801
20477SOL    HW164451   0.712   0.870   2.522  0.0643  1.1737 -0.4985
20477SOL    HW264452   0.622   0.819   2.633 -0.3021  0.6136 -1.0499
20478SOL     OW64453   1.615   0.759   7.199 -0.0684 -0.0432  0.3735
20478SOL    HW164454   1.557   0.685   7.215  1.1043 -0.7013  1.5985
20478SOL    HW264455   1.650   0.744   7.111 -1.0179 -0.1125 -0.0066
20479SOL     OW64456   8.637   2.612   1.277  0.7098 -0.6019  0.1303
20479SOL    HW164457   8.606   2.655   1.197  2.8809 -0.6107 -0.7384
20479SOL    HW264458   8.574   2.542   1.292 -0.2048 -0.0678 -1.0746
20480SOL     OW64459   2.526   7.897   5.969 -0.5018  0.1162  0.2335
20480SOL    HW164460   2.566   7.949   5.900 -0.3083 -2.3266 -1.5584
20480SOL    HW264461   2.590   7.828   5.989 -1.4517 -0.4857  1.3262
20481SOL     OW64462   7.778   3.539   5.388  0.5665 -0.4539 -0.1493
20481SOL    HW164463   7.852   3.480   5.372  1.0773 -0.0331  0.5988
20481SOL    HW264464   7.786   3.563   5.481 -0.9310 -0.9681  0.1192
20482SOL     OW64465   3.134   2.606   4.118  0.1764 -0.3521  0.2737
20482SOL    HW164466   3.056   2.584   4.169  0.6071 -0.3269  0.9421
20482SOL    HW264467   3.102   2.668   4.052  0.3741  2.9339  3.1286
20483SOL     OW64468   6.068   3.000   0.364  0.2424 -0.2798 -0.2460
20483SOL    HW164469   6.041   2.992   0.272 -1.7232 -1.5874  0.4212
20483SOL    HW264470   5.989   3.028   0.410  0.7978 -1.1955  1.2977
20484SOL     OW64471   0.513   1.544   5.233 -0.4422 -0.3453  0.1964
20484SOL    HW164472   0.429   1.571   5.270 -0.6663  0.0978 -0.6196
20484SOL    HW264473   0.527   1.604   5.160  0.1835 -0.9576 -0.1872
20485SOL     OW64474   3.278   1.402   1.831 -0.2973  0.2975  0.2569
20485SOL    HW164475   3.225   1.414   1.752  1.6320  1.0764 -0.9729
20485SOL    HW264476   3.238   1.460   1.895  2.0401  4.9582 -2.2173
20486SOL     OW64477   0.761   2.304   5.241  0.0034  0.1349 -0.2406
20486SOL    HW164478   0.760   2.383   5.187  0.8406  0.7636  0.6495
20486SOL    HW264479   0.683   2.312   5.296 -0.5626 -0.2496 -0.9740
20487SOL     OW64480   0.286   8.968   6.051  0.3673  0.3802 -0.5202
20487SOL    HW164481   0.320   8.947   6.138 -2.9952 -3.4634  0.0080
20487SOL    HW264482   0.207   9.019   6.069 -0.9204 -1.3212 -1.2455
20488SOL     OW64483   8.269   4.363   8.026 -0.5992 -0.1063 -0.4535
20488SOL    HW164484   8.218   4.296   8.072 -0.2742 -0.1755 -0.1913
20488SOL    HW264485   8.334   4.314   7.976  0.3366  0.0455  0.5716
20489SOL     OW64486   5.000   2.016   3.480  0.5395  0.7520 -0.2617
20489SOL    HW164487   5.024   2.106   3.461 -2.6015  1.7398  0.1673
20489SOL    HW264488   4.996   2.012   3.576  1.4963 -0.0976 -0.2422
20490SOL     OW64489   5.040   0.563   4.399 -0.1046 -0.6424  0.2192
20490SOL    HW164490   5.026   0.518   4.316 -1.4405 -0.5540  0.3851
20490SOL    HW264491   5.051   0.655   4.375  0.2148 -0.7129  0.0872
20491SOL     OW64492   8.714   4.648   3.334  0.2495 -0.3486  0.2300
20491SOL    HW164493   8.704   4.704   3.411 -0.4489 -0.2271  0.0601
20491SOL    HW264494   8.630   4.602   3.327 -0.5889  1.4173 -1.8428
20492SOL     OW64495   5.826   8.754   0.284  0.7033  0.1635 -0.5462
20492SOL    HW164496   5.821   8.800   0.200 -0.6063  1.9229  0.4653
20492SOL    HW264497   5.736   8.728   0.302  1.2986 -2.0805 -0.6755
20493SOL     OW64498   6.567   2.652   3.658  0.1834  0.1691  0.4719
20493SOL    HW164499   6.479   2.639   3.621  0.3340  1.9775 -0.5712
20493SOL    HW264500   6.603   2.563   3.664 -0.7185 -0.3749 -1.6258
20494SOL     OW64501   1.830   1.912   0.905 -0.1500 -0.7343 -0.3101
20494SOL    HW164502   1.863   1.824   0.924  0.9557 -0.6704 -1.8441
20494SOL    HW264503   1.783   1.903   0.822  1.4756  0.4470 -1.4010
20495SOL     OW64504   5.105   8.497   2.537  0.2584  0.3831 -0.3540
20495SOL    HW164505   5.144   8.580   2.509 -1.3436  1.4097  0.3238
20495SOL    HW264506   5.010   8.513   2.533 -0.0591 -1.0545  0.8307
20496SOL     OW64507   7.330   2.281   1.824 -0.0053  0.1204 -0.0798
20496SOL    HW164508   7.371   2.294   1.739  2.1399 -0.3665  0.8533
20496SOL    HW264509   7.346   2.189   1.844  1.2718  0.7111  1.7373
20497SOL     OW64510   2.782   0.242   4.999  0.8710  0.0481 -0.2854
20497SOL    HW164511   2.766   0.150   5.021 -1.6513 -0.0660 -2.3576
20497SOL    HW264512   2.799   0.242   4.905  0.5944  1.7404 -0.3510
20498SOL     OW64513   0.435   2.058   0.122 -0.6022 -0.2124 -0.2712
20498SOL    HW164514   0.482   2.009   0.055 -0.2117 -0.3053  0.0701
20498SOL    HW264515   0.421   1.996   0.193 -0.0665  0.1703  0.1820
20499SOL     OW64516   8.054   2.047   0.579  0.5491  0.2403 -0.1163
20499SOL    HW164517   7.969   2.090   0.593  0.8875  0.3092  1.8799
20499SOL    HW264518   8.050   1.969   0.634  1.0585 -0.7786 -1.5046
20500SOL     OW64519   5.528   2.853   5.564 -0.2522 -0.3823 -0.3485
20500SOL    HW164520   5.576   2.789   5.617  0.7142  0.8996  0.3415
20500SOL    HW264521   5.436   2.841   5.591 -0.1203 -1.6550 -0.4288
20501SOL     OW64522   6.342   2.049   2.659 -0.2845 -0.1693 -0.1066
20501SOL    HW164523   6.377   1.960   2.667  2.5705  1.0244  1.2148
20501SOL    HW264524   6.360   2.074   2.568 -0.5368 -0.7050 -0.3065
20502SOL     OW64525   1.755   6.338   1.748 -0.0888  0.0565  0.2149
20502SOL    HW164526   1.660   6.326   1.742 -0.2209  1.6134 -1.1893
20502SOL    HW264527   1.788   6.308   1.664  0.3121  2.5596 -0.5416
20503SOL     OW64528   6.843   3.812   7.966 -0.3402 -0.4235 -0.1510
20503SOL    HW164529   6.877   3.758   8.038 -1.1496 -2.9140 -1.5803
20503SOL    HW264530   6.901   3.793   7.893 -1.2737 -0.1919 -0.9606
20504SOL     OW64531   4.401   8.470   9.285 -0.1530 -0.1232  0.0026
20504SOL    HW164532   4.429   8.551   9.242 -1.5955  0.4912  0.1810
20504SOL    HW264533   4.472   8.449   9.346  0.0242  1.2685  0.2946
20505SOL     OW64534   1.709   5.309   1.129  0.4005  0.5613 -0.1115
20505SOL    HW164535   1.726   5.347   1.215  0.9277  0.8704 -0.3531
20505SOL    HW264536   1.616   5.326   1.114  0.4085  0.8985  0.2077
20506SOL     OW64537   4.156   2.947   5.255 -0.2150  0.5108  0.5901
20506SOL    HW164538   4.235   2.894   5.260 -0.2720  0.5257  1.7029
20506SOL    HW264539   4.166   2.999   5.175  0.0368 -0.8627 -0.2751
20507SOL     OW64540   3.523   2.366   2.187  0.4174 -0.4039  0.4127
20507SOL    HW164541   3.617   2.357   2.201  0.6207  0.4099 -0.3940
20507SOL    HW264542   3.484   2.341   2.271  1.3464 -0.7829  0.7363
20508SOL     OW64543   3.563   2.158   6.020  0.8775  0.3960  0.0716
20508SOL    HW164544   3.519   2.191   5.942 -0.3549  0.7494  0.9160
20508SOL    HW264545   3.639   2.215   6.031  2.3045 -0.9828 -2.1089
20509SOL     OW64546   1.714   3.501   8.868 -0.5650  0.1185 -0.0717
20509SOL    HW164547   1.716   3.595   8.849  1.4743  0.0096 -0.5477
20509SOL    HW264548   1.802   3.470   8.844 -1.0503 -1.8134  0.5563
20510SOL     OW64549   3.716   4.582   3.560  0.8768  0.0318 -0.1903
20510SOL    HW164550   3.704   4.619   3.473 -1.0204 -1.2881 -0.5037
20510SOL    HW264551   3.690   4.652   3.620  3.6799  1.5102 -0.5817
20511SOL     OW64552   7.802   1.406   7.753  0.3630 -0.4861 -0.1905
20511SOL    HW164553   7.737   1.353   7.706  0.7768 -1.2225  0.0622
20511SOL    HW264554   7.752   1.450   7.822  0.2264 -1.5109  0.3793
20512SOL     OW64555   6.566   1.634   7.437  0.5312  0.4884 -0.3277
20512SOL    HW164556   6.596   1.569   7.501  2.4272 -0.0701 -1.7666
20512SOL    HW264557   6.618   1.712   7.457  1.5622  0.1234 -1.5723
20513SOL     OW64558   2.882   3.888   0.196 -0.5345 -0.5909  0.3427
20513SOL    HW164559   2.867   3.892   0.291 -1.3498 -1.0510  0.2361
20513SOL    HW264560   2.963   3.937   0.183 -2.8194  3.4990  0.7330
20514SOL     OW64561   1.070   7.230   2.203  0.1353  0.5396 -0.2949
20514SOL    HW164562   1.041   7.150   2.247  0.6001 -0.6036 -2.0442
20514SOL    HW264563   1.037   7.301   2.259  1.9290 -0.8706  2.6619
20515SOL     OW64564   8.386   9.372   2.618 -0.4193 -0.1575  0.2718
20515SOL    HW164565   8.387   9.404   2.527  0.0545  1.5597  0.8602
20515SOL    HW264566   8.295   9.379   2.645 -0.3483  0.5536  0.3359
20516SOL     OW64567   2.501   0.837   0.609  0.0893 -0.3423  0.1114
20516SOL    HW164568   2.533   0.863   0.696 -0.5725  0.0137  0.2534
20516SOL    HW264569   2.546   0.755   0.590 -0.5499 -0.9618  1.2391
20517SOL     OW64570   3.362   7.560   2.781 -0.1567 -0.0829 -0.0294
20517SOL    HW164571   3.387   7.508   2.705 -0.8649 -2.2098  1.1562
20517SOL    HW264572   3.275   7.593   2.760 -0.6618 -1.2783  0.1305
20518SOL     OW64573   8.231   8.374   4.789 -0.1596  0.3257  0.2793
20518SOL    HW164574   8.300   8.359   4.853 -0.6411  1.0552  0.9749
20518SOL    HW264575   8.160   8.414   4.838 -0.3322  1.3973 -0.8018
20519SOL     OW64576   6.475   0.681   3.712 -0.9474 -0.4937 -0.0044
20519SOL    HW164577   6.549   0.626   3.738  0.8477  0.4913 -2.8102
20519SOL    HW264578   6.463   0.741   3.785  2.2925  0.5794 -0.2696
20520SOL     OW64579   3.136   8.990   5.284 -0.0574 -0.5122 -0.4353
20520SOL    HW164580   3.125   8.953   5.196 -0.8144  0.1813 -0.6448
20520SOL    HW264581   3.059   9.045   5.296  0.7382  0.4982  0.1080
20521SOL     OW64582   0.928   8.782   6.772 -0.0778 -0.2659 -0.2574
20521SOL    HW164583   0.869   8.850   6.806 -0.4102 -0.5748 -0.2124
20521SOL    HW264584   1.014   8.805   6.808 -0.1406  0.2698 -0.4376
20522SOL     OW64585   3.313   6.688   2.497 -0.4966 -0.6594  0.0110
20522SOL    HW164586   3.365   6.753   2.448 -1.1042 -0.8127 -0.8428
20522SOL    HW264587   3.378   6.625   2.527 -0.0893 -0.4903 -0.4863
20523SOL     OW64588   9.049   3.638   0.825  0.4907 -0.3609  0.3854
20523SOL    HW164589   9.136   3.599   0.836  0.7289  0.2110  0.5965
20523SOL    HW264590   8.994   3.567   0.791  1.0481 -0.7180  0.2221
20524SOL     OW64591   2.808   5.636   1.193 -0.1119 -0.0992  0.0261
20524SOL    HW164592   2.786   5.551   1.231 -1.4760 -1.2813 -3.2385
20524SOL    HW264593   2.737   5.694   1.220 -0.6848 -0.7387 -0.0918
20525SOL     OW64594   3.182   5.192   0.140  0.2828 -0.4879 -0.4069
20525SOL    HW164595   3.116   5.237   0.193  0.2476 -0.4096 -0.5167
20525SOL    HW264596   3.262   5.243   0.154  0.1418 -0.1347 -0.8700
20526SOL     OW64597   6.365   1.060   6.649 -0.6865 -0.4812  0.1347
20526SOL    HW164598   6.349   1.118   6.574 -0.6511 -0.2696  0.2880
20526SOL    HW264599   6.452   1.025   6.633  0.6972  2.0765  1.6801
20527SOL     OW64600   1.863   8.875   5.608  0.0194 -0.5677 -0.0438
20527SOL    HW164601   1.895   8.816   5.540  0.7795  1.5738 -1.5929
20527SOL    HW264602   1.774   8.896   5.581 -0.2803 -1.0578  0.5536
20528SOL     OW64603   0.521   0.879   7.841  0.2740 -0.2284  0.3090
20528SOL    HW164604   0.526   0.880   7.745  1.4285  1.0291  0.3736
20528SOL    HW264605   0.525   0.971   7.866 -0.2704 -0.5405  1.5692
20529SOL     OW64606   0.065   4.274   4.437  0.1940 -0.3155  0.5704
20529SOL    HW164607   0.120   4.282   4.359 -0.8735 -1.6966 -0.3302
20529SOL    HW264608   0.126   4.278   4.510  1.5707 -2.3570 -0.4306
20530SOL     OW64609   8.500   9.022   4.354 -0.3262 -0.2682 -0.3541
20530SOL    HW164610   8.423   8.998   4.405 -0.9273  0.2160 -1.0196
20530SOL    HW264611   8.492   9.117   4.342  1.0924 -0.0087  0.7352
20531SOL     OW64612   5.905   4.206   7.288 -0.0167 -0.4414  0.2170
20531SOL    HW164613   5.820   4.162   7.297 -0.7319  0.3066 -2.3280
20531SOL    HW264614   5.948   4.160   7.216  0.8358  0.5635  0.0727
20532SOL     OW64615   0.807   5.945   3.078  0.0049 -1.1236  0.5789
20532SOL    HW164616   0.746   5.998   3.027  0.9459 -1.0876 -0.5305
20532SOL    HW264617   0.828   5.999   3.154  0.8298  0.0424 -0.4640
20533SOL     OW64618   0.294   8.239   5.423 -0.3104 -0.1575  0.4822
20533SOL    HW164619   0.254   8.166   5.470  0.9050 -0.9381  0.3289
20533SOL    HW264620   0.350   8.198   5.358  0.5705  0.9173  0.5485
20534SOL     OW64621   6.402   0.036   6.302  0.5452 -0.1950 -0.2873
20534SOL    HW164622   6.459   0.033   6.378 -0.2634 -1.6753  0.2757
20534SOL    HW264623   6.436   0.108   6.249  1.4778  0.4499  1.1729
20535SOL     OW64624   0.386   4.841   7.814  0.0710 -0.6104 -0.2836
20535SOL    HW164625   0.399   4.746   7.815 -1.1656 -0.8082 -1.2573
20535SOL    HW264626   0.337   4.859   7.895  0.6469 -0.7504  0.0953
20536SOL     OW64627   7.919   8.574   6.564 -0.2577  0.4605  0.1725
20536SOL    HW164628   7.971   8.501   6.529 -1.3667 -0.2235 -0.0788
20536SOL    HW264629   7.930   8.568   6.659 -0.0190  0.2033  0.1286
20537SOL     OW64630   7.567   2.728   5.394 -0.0507  0.1210 -0.1410
20537SOL    HW164631   7.505   2.735   5.467  0.0582 -1.7607  0.1735
20537SOL    HW264632   7.513   2.706   5.318  0.0314  0.3241 -0.2582
20538SOL     OW64633   5.100   3.785   3.913 -0.5028 -0.1784  0.2095
20538SOL    HW164634   5.106   3.802   4.007 -2.0608 -0.2987  0.3445
20538SOL    HW264635   5.157   3.851   3.873 -1.6219  1.3601  1.1047
20539SOL     OW64636   3.069   3.876   2.060  0.1476  0.1284  0.2446
20539SOL    HW164637   2.978   3.904   2.056  0.3002  0.6504  0.4333
20539SOL    HW264638   3.075   3.804   1.996 -0.1555  0.7524 -0.4928
20540SOL     OW64639   1.726   7.341   7.201  0.0460 -0.1540 -0.6160
20540SOL    HW164640   1.631   7.349   7.204  0.1562  0.5578  1.2093
20540SOL    HW264641   1.759   7.409   7.259  1.6210 -1.4660  0.0954
20541SOL     OW64642   8.817   3.317   3.891 -0.2206  0.2727  0.5248
20541SOL    HW164643   8.833   3.223   3.895 -0.1322  0.2205 -0.8430
20541SOL    HW264644   8.893   3.353   3.844 -1.1337  0.7919 -0.5793
20542SOL     OW64645   5.304   3.899   7.204  0.3554  0.0792 -1.0714
20542SOL    HW164646   5.391   3.889   7.165  0.5903 -1.6230 -0.1612
20542SOL    HW264647   5.320   3.917   7.296 -0.2526  0.8625 -1.1097
20543SOL     OW64648   7.976   8.057   3.815  0.3618 -0.0609  0.6329
20543SOL    HW164649   7.921   8.127   3.782 -0.9608 -0.8770  1.0877
20543SOL    HW264650   8.020   8.022   3.738 -0.8599 -0.3611  0.0708
20544SOL     OW64651   2.048   1.472   7.970 -0.3685 -0.5943 -0.2056
20544SOL    HW164652   2.126   1.517   8.002 -0.3759 -0.5697 -0.2213
20544SOL    HW264653   1.992   1.464   8.047 -0.7664  0.2560 -0.3956
20545SOL     OW64654   1.138   8.253   6.155 -0.4040  0.0499  0.2295
20545SOL    HW164655   1.216   8.231   6.104 -1.5692 -1.4797 -0.9728
20545SOL    HW264656   1.079   8.179   6.140 -1.8906  0.9489  1.5160
20546SOL     OW64657   8.720   8.456   7.611 -0.8641  0.5377  0.2844
20546SOL    HW164658   8.764   8.378   7.577  0.7748  0.8358  1.6723
20546SOL    HW264659   8.630   8.427   7.628 -0.1916 -1.1640  1.0875
20547SOL     OW64660   1.732   2.475   7.248  0.4756  0.0300  0.2192
20547SOL    HW164661   1.822   2.452   7.224  0.4282  0.5227 -0.4308
20547SOL    HW264662   1.706   2.541   7.184 -0.3807 -0.1762  0.3526
20548SOL     OW64663   6.485   5.906   5.626 -0.0344  0.3944 -0.2027
20548SOL    HW164664   6.513   5.927   5.536 -2.0911  0.4961 -0.8437
20548SOL    HW264665   6.414   5.842   5.615 -1.4530  1.6730  1.2724
20549SOL     OW64666   3.186   1.749   8.161 -0.8349  0.1446 -0.1780
20549SOL    HW164667   3.182   1.654   8.167  1.1028 -0.0513 -1.5481
20549SOL    HW264668   3.237   1.777   8.237 -0.2280 -0.0281 -0.5197
20550SOL     OW64669   7.898   0.306   0.595  0.0404 -0.3781  0.5598
20550SOL    HW164670   7.919   0.398   0.579  0.9550 -0.7570 -0.4770
20550SOL    HW264671   7.803   0.302   0.592  0.0375  0.3420 -0.4669
20551SOL     OW64672   7.538   5.922   7.078  0.2707  0.7600  0.7466
20551SOL    HW164673   7.574   5.834   7.086 -0.9491  0.0317 -1.5679
20551SOL    HW264674   7.475   5.929   7.150 -0.8337 -0.8584 -0.0408
20552SOL     OW64675   6.739   1.751   4.264  0.7315  0.2861 -0.2980
20552SOL    HW164676   6.773   1.684   4.205 -0.3963  1.1804 -2.0163
20552SOL    HW264677   6.685   1.807   4.208  0.0921  1.4992  1.4820
20553SOL     OW64678   8.782   8.084   1.266  0.2954  0.1917 -0.0182
20553SOL    HW164679   8.702   8.063   1.315  0.1174 -1.1837 -0.8518
20553SOL    HW264680   8.819   8.159   1.312  0.1548 -1.0600  2.2478
20554SOL     OW64681   2.028   1.906   5.568  0.0129 -0.4538  0.0393
20554SOL    HW164682   1.948   1.946   5.603 -0.6544 -1.4669 -0.3342
20554SOL    HW264683   2.028   1.929   5.476  0.6436  0.3450  0.2350
20555SOL     OW64684   4.944   5.431   6.669 -0.4928 -0.8228  0.0163
20555SOL    HW164685   5.025   5.472   6.637 -0.9271  0.3950  0.4432
20555SOL    HW264686   4.875   5.471   6.616 -0.8927 -1.2861  0.1917
20556SOL     OW64687   8.025   2.708   8.900  0.0076 -0.5782  0.2655
20556SOL    HW164688   7.978   2.717   8.817 -1.2708 -1.2729  0.8966
20556SOL    HW264689   8.115   2.734   8.879 -0.4901  0.1207 -1.1251
20557SOL     OW64690   0.135   4.278   1.999 -0.0285 -0.3285 -0.5250
20557SOL    HW164691   0.113   4.237   2.083  1.8753  0.9270  0.6076
20557SOL    HW264692   0.151   4.204   1.940  3.5694 -1.3121  1.5466
20558SOL     OW64693   3.352   2.937   2.933 -0.6144  0.0295  0.5361
20558SOL    HW164694   3.269   2.927   2.888 -1.3248  2.2720  1.2539
20558SOL    HW264695   3.337   2.901   3.020 -0.6897 -0.0412  0.4935
20559SOL     OW64696   1.531   3.172   6.788  0.0985 -0.3968 -0.2239
20559SOL    HW164697   1.584   3.107   6.834 -1.2442 -1.2380  0.1784
20559SOL    HW264698   1.466   3.120   6.741 -1.5862  0.6906  0.8583
20560SOL     OW64699   5.332   6.493   3.532 -0.0706 -0.3294 -0.2494
20560SOL    HW164700   5.378   6.409   3.534  2.0785  0.7908 -1.3397
20560SOL    HW264701   5.369   6.539   3.457 -2.1914  1.0726 -0.4751
20561SOL     OW64702   6.945   8.129   7.523 -0.1046 -0.6095  0.2726
20561SOL    HW164703   7.015   8.193   7.514 -0.3228 -0.7375 -2.8606
20561SOL    HW264704   6.967   8.080   7.603  1.7803  1.2227  0.9168
20562SOL     OW64705   3.337   0.080   8.319  0.5034  0.4463  0.0128
20562SOL    HW164706   3.260   0.037   8.284  0.7330  0.2540 -0.2585
20562SOL    HW264707   3.410   0.025   8.292  0.6791  0.2723  0.8346
20563SOL     OW64708   5.188   5.445   7.671 -0.0212 -1.1230  0.2675
20563SOL    HW164709   5.239   5.379   7.718 -2.1880 -2.2555  1.1040
20563SOL    HW264710   5.153   5.398   7.595  0.9788 -0.0942 -0.8494
20564SOL     OW64711   0.103   8.412   9.379 -0.6342 -0.8008 -0.4840
20564SOL    HW164712   0.190   8.452   9.374 -0.5398 -0.8814  0.4182
20564SOL    HW264713   0.120   8.320   9.399 -0.9581 -0.5989  0.7264
20565SOL     OW64714   4.872   7.648   3.542  0.3277  0.3487  0.1498
20565SOL    HW164715   4.953   7.642   3.491 -0.0231  1.8775 -0.6177
20565SOL    HW264716   4.822   7.718   3.500 -0.7370  0.4468  1.5348
20566SOL     OW64717   7.993   6.794   6.527  0.0896 -0.2318 -0.4153
20566SOL    HW164718   8.071   6.764   6.574 -0.2507  1.1731  1.0701
20566SOL    HW264719   7.931   6.721   6.533  0.3658 -0.3866  0.5557
20567SOL     OW64720   6.393   2.968   5.760  0.0951  0.0913 -0.4009
20567SOL    HW164721   6.352   2.998   5.841 -1.5689  1.3660 -1.6824
20567SOL    HW264722   6.386   2.873   5.763 -1.6219  0.2161  0.1240
20568SOL     OW64723   3.003   1.326   6.540  0.4381 -0.0741  0.9973
20568SOL    HW164724   2.920   1.283   6.555 -0.0328  0.9006  1.2678
20568SOL    HW264725   3.010   1.390   6.612  1.1362  0.2518  0.6456
20569SOL     OW64726   2.431   7.831   3.667  0.4345 -0.2641 -0.1379
20569SOL    HW164727   2.368   7.781   3.616  1.2290 -1.1294 -0.2811
20569SOL    HW264728   2.381   7.906   3.700 -1.1033 -1.8083  1.1437
20570SOL     OW64729   9.150   7.313   4.624 -0.3081 -0.0151  0.9241
20570SOL    HW164730   9.223   7.255   4.644 -0.3417 -0.5527 -0.5107
20570SOL    HW264731   9.191   7.398   4.607 -0.0905 -0.1316  0.8700
20571SOL     OW64732   0.851   4.466   4.321  0.0904  0.6869 -0.0331
20571SOL    HW164733   0.902   4.516   4.258  1.4433 -0.1652  0.3784
20571SOL    HW264734   0.916   4.423   4.377 -1.0769  0.3702  1.1032
20572SOL     OW64735   7.183   5.804   6.745 -0.5228  0.5680 -0.1793
20572SOL    HW164736   7.183   5.839   6.834  0.0613 -0.9088  0.4238
20572SOL    HW264737   7.258   5.745   6.743 -0.2799  0.9218 -1.7904
20573SOL     OW64738   2.333   9.020   8.877 -0.2638  0.2234 -0.0039
20573SOL    HW164739   2.409   9.054   8.924 -0.5334  0.2764  0.4011
20573SOL    HW264740   2.258   9.049   8.929 -0.5811  0.4964 -0.5968
20574SOL     OW64741   1.958   4.435   1.883  0.0932  0.6803  0.5616
20574SOL    HW164742   1.904   4.426   1.961 -0.0488 -0.0362  0.3861
20574SOL    HW264743   1.912   4.499   1.828 -0.2252  0.5723  0.7056
20575SOL     OW64744   2.194   2.849   5.534 -0.0555  0.0330 -0.2137
20575SOL    HW164745   2.217   2.938   5.560 -0.3325  0.2799 -0.8042
20575SOL    HW264746   2.243   2.793   5.594  0.9551  0.5700 -0.5317
20576SOL     OW64747   6.261   0.070   6.631  0.1512 -0.0418 -0.1458
20576SOL    HW164748   6.288   0.150   6.586 -0.9141  0.8650  0.7844
20576SOL    HW264749   6.251   0.097   6.723  1.4248 -1.6469  0.4923
20577SOL     OW64750   2.850   7.028   4.786 -0.0371 -0.0615  0.2186
20577SOL    HW164751   2.933   6.986   4.765  0.5079 -0.4455  3.0063
20577SOL    HW264752   2.816   6.979   4.861 -1.3151  1.9437  1.0049
20578SOL     OW64753   4.190   2.704   0.833 -0.5900 -0.6056  0.3682
20578SOL    HW164754   4.193   2.800   0.823 -0.1986 -0.5581  0.9029
20578SOL    HW264755   4.110   2.688   0.884 -0.2958 -0.5064  0.8648
20579SOL     OW64756   0.886   4.941   6.515  0.0063 -0.3253  0.0548
20579SOL    HW164757   0.858   5.027   6.548 -3.2764 -0.9640 -0.8376
20579SOL    HW264758   0.926   4.959   6.431  0.0190  0.4137  0.2141
20580SOL     OW64759   8.992   6.908   3.657  0.2164  0.3604  0.0653
20580SOL    HW164760   8.942   6.876   3.732  1.4647  0.3755  0.9135
20580SOL    HW264761   9.070   6.853   3.655 -0.2599 -0.2746 -1.8189
20581SOL     OW64762   5.052   8.543   4.449  0.2319 -0.1531 -0.0928
20581SOL    HW164763   5.102   8.576   4.524  2.0117 -0.1445 -1.2478
20581SOL    HW264764   4.975   8.501   4.488  1.6561 -1.0930  1.8055
20582SOL     OW64765   3.112   4.039   0.191  0.3807 -0.5586  0.3683
20582SOL    HW164766   3.179   3.991   0.240  1.2255  0.2490  0.0261
20582SOL    HW264767   3.148   4.047   0.103 -0.2609 -0.2994  0.1273
20583SOL     OW64768   6.096   5.201   5.720  0.3821 -0.4744 -0.3838
20583SOL    HW164769   6.110   5.164   5.807  0.0422  1.1058  0.3667
20583SOL    HW264770   6.006   5.233   5.722 -0.1891 -1.9259 -1.9021
20584SOL     OW64771   8.076   8.389   0.883 -0.0569 -0.2863  0.2169
20584SOL    HW164772   8.161   8.429   0.863 -0.3864 -0.1324 -0.8971
20584SOL    HW264773   8.097   8.298   0.902  0.2414 -0.4972 -1.0876
20585SOL     OW64774   1.095   6.803   1.020 -0.1863  0.4595  0.2640
20585SOL    HW164775   1.000   6.807   1.024 -0.2049  0.6457 -0.3212
20585SOL    HW264776   1.113   6.733   0.957  0.0583  0.7627 -0.0063
20586SOL     OW64777   6.423   3.959   5.037  0.8281  0.0911  0.6648
20586SOL    HW164778   6.467   3.918   4.963  1.4384 -0.7490  1.4867
20586SOL    HW264779   6.333   3.972   5.006  1.0835 -0.2122 -0.2312
20587SOL     OW64780   3.827   3.163   8.297  0.1691  0.0489 -0.1043
20587SOL    HW164781   3.822   3.225   8.370  0.0662 -0.0867  0.0039
20587SOL    HW264782   3.759   3.099   8.315  0.4758 -0.2665 -0.0541
20588SOL     OW64783   9.342   3.002   3.732  0.4588  0.2081 -0.0514
20588SOL    HW164784   9.383   2.932   3.782 -0.6152 -0.2655  0.1931
20588SOL    HW264785   9.363   2.984   3.641 -0.7246 -1.0648 -0.0887
20589SOL     OW64786   4.217   2.660   9.246 -0.6684  0.0427 -0.1309
20589SOL    HW164787   4.236   2.573   9.211  0.9063  0.0321  0.6879
20589SOL    HW264788   4.163   2.702   9.179  0.3843 -0.7813 -1.5205
20590SOL     OW64789   5.022   5.502   0.759  0.0469 -0.4180 -0.8016
20590SOL    HW164790   4.971   5.526   0.836 -2.1853 -1.5368 -1.8712
20590SOL    HW264791   4.994   5.412   0.739  0.4822 -0.0998 -2.9851
20591SOL     OW64792   1.343   8.138   6.766  0.2177  0.5127 -0.4335
20591SOL    HW164793   1.264   8.137   6.820 -0.2689  0.7594 -1.1363
20591SOL    HW264794   1.415   8.127   6.828 -0.4113 -0.4520  0.1371
20592SOL     OW64795   0.084   0.529   3.041  0.7614  0.4004  0.0592
20592SOL    HW164796   0.094   0.520   2.946 -0.0646 -0.8428  0.0772
20592SOL    HW264797   0.170   0.557   3.071  1.0874  0.6110 -1.0350
20593SOL     OW64798   4.181   1.922   2.611 -0.9186 -0.0918 -0.1990
20593SOL    HW164799   4.114   1.906   2.678  1.8398 -2.0427  2.2488
20593SOL    HW264800   4.154   1.868   2.537 -0.4329 -3.4786  1.9539
20594SOL     OW64801   7.808   1.324   1.336  0.3508 -0.4949 -0.0459
20594SOL    HW164802   7.902   1.312   1.324  0.6460  1.4160  0.1576
20594SOL    HW264803   7.794   1.311   1.430  0.8225  1.6175  0.3398
20595SOL     OW64804   3.946   2.111   8.161 -0.2608 -0.0465 -0.3189
20595SOL    HW164805   3.872   2.059   8.193  0.4527 -1.8325 -1.4494
20595SOL    HW264806   4.019   2.050   8.159  0.6134  1.0093 -1.6834
20596SOL     OW64807   2.810   0.626   0.042  0.1619  0.2377 -0.0842
20596SOL    HW164808   2.843   0.560   0.103  1.2172 -0.0365 -0.9380
20596SOL    HW264809   2.726   0.590   0.012 -0.4470  0.4697  1.3496
20597SOL     OW64810   7.147   2.406   8.964 -0.1141 -0.3713 -0.1170
20597SOL    HW164811   7.177   2.476   9.022 -0.1668  1.5873 -2.3944
20597SOL    HW264812   7.183   2.326   9.002  2.1121  1.1564  1.1049
20598SOL     OW64813   7.395   1.710   6.317  0.5035  0.0352 -0.2616
20598SOL    HW164814   7.387   1.784   6.256 -0.7524 -0.0250 -0.1914
20598SOL    HW264815   7.354   1.637   6.271  2.7424 -0.9190 -0.7831
20599SOL     OW64816   4.365   5.613   6.186 -0.1738 -0.1493  0.1800
20599SOL    HW164817   4.299   5.623   6.255  1.3209 -1.8586  1.9345
20599SOL    HW264818   4.347   5.527   6.149  0.5511 -0.2746  0.1153
20600SOL     OW64819   2.520   4.262   3.675 -0.3527  0.0171  0.2660
20600SOL    HW164820   2.512   4.246   3.581  0.3829 -0.1580  0.2277
20600SOL    HW264821   2.443   4.315   3.697 -1.0607 -0.7806 -0.2340
20601SOL     OW64822   5.528   6.474   5.893 -0.7715 -0.1639 -0.1923
20601SOL    HW164823   5.547   6.522   5.973  1.7841 -1.9759  0.3552
20601SOL    HW264824   5.534   6.539   5.824 -0.6064  0.9532  0.8553
20602SOL     OW64825   6.256   5.534   2.605 -0.2051  0.3452  0.5968
20602SOL    HW164826   6.248   5.627   2.585  0.7865  0.4030  0.4102
20602SOL    HW264827   6.201   5.521   2.682 -1.8646  0.6842 -0.5161
20603SOL     OW64828   1.503   4.007   1.862 -0.6576  0.0485 -0.3633
20603SOL    HW164829   1.418   4.049   1.851 -0.5674 -0.0560 -1.5112
20603SOL    HW264830   1.486   3.932   1.919 -1.4441 -0.2795 -1.0189
20604SOL     OW64831   7.266   5.099   1.048 -0.4483  0.0129 -0.2576
20604SOL    HW164832   7.355   5.109   1.015 -1.0920  3.2964 -1.0812
20604SOL    HW264833   7.221   5.050   0.980 -0.0238  0.9005 -1.1883
20605SOL     OW64834   6.839   6.900   3.716 -0.0773  0.0561  0.9967
20605SOL    HW164835   6.879   6.968   3.772 -0.8357  3.3122 -2.2411
20605SOL    HW264836   6.904   6.884   3.648 -1.0686 -0.4449  0.1619
20606SOL     OW64837   0.899   0.478   1.021  0.3540 -0.3224 -0.1705
20606SOL    HW164838   0.919   0.537   1.094 -0.4930  0.4950 -0.5954
20606SOL    HW264839   0.982   0.433   1.004  0.9575  0.5982  0.2800
20607SOL     OW64840   3.610   8.848   4.094 -0.1790  0.0616  0.2115
20607SOL    HW164841   3.529   8.839   4.144  0.9871  1.4372  2.4619
20607SOL    HW264842   3.675   8.799   4.145  0.8646  0.8240 -0.3501
20608SOL     OW64843   9.325   4.565   4.326  0.3165  0.1559 -0.1102
20608SOL    HW164844   9.338   4.567   4.421 -1.6478 -0.1630  0.1822
20608SOL    HW264845   9.408   4.597   4.290  0.9046  0.7698  1.7247
20609SOL     OW64846   1.659   6.556   2.131  0.4712  0.7702  0.0104
20609SOL    HW164847   1.635   6.616   2.201 -1.4603  1.3323 -1.1114
20609SOL    HW264848   1.596   6.484   2.137  0.9590  0.2966 -0.4751
20610SOL     OW64849   5.156   9.281   4.386 -0.2296  0.1868 -0.0133
20610SOL    HW164850   5.174   9.374   4.372 -0.0569  0.1793  0.1511
20610SOL    HW264851   5.129   9.275   4.477  0.5427 -0.0401  0.2014
20611SOL     OW64852   7.815   5.699   5.349  0.0546  0.2068  0.6204
20611SOL    HW164853   7.799   5.657   5.264  0.6402  0.8925  0.1619
20611SOL    HW264854   7.906   5.678   5.370  0.3591  1.2416  0.3748
20612SOL     OW64855   5.778   7.899   1.812  0.6431  0.1770 -0.1797
20612SOL    HW164856   5.812   7.897   1.722  0.3855  1.6825 -0.3148
20612SOL    HW264857   5.839   7.956   1.859  0.4419 -0.1394  0.4742
20613SOL     OW64858   3.736   8.012   6.650  0.2081  0.2383  0.5213
20613SOL    HW164859   3.697   7.958   6.581  2.1668  0.6199 -0.9425
20613SOL    HW264860   3.745   7.952   6.725 -0.9929 -0.4670  0.1104
20614SOL     OW64861   1.893   7.877   8.273  0.3605 -0.1266  0.5228
20614SOL    HW164862   1.832   7.803   8.264  0.6418 -0.3023  0.0712
20614SOL    HW264863   1.980   7.836   8.276  0.5380  0.2059 -0.0514
20615SOL     OW64864   8.536   6.901   3.389  0.8006 -0.1244 -0.0275
20615SOL    HW164865   8.454   6.950   3.399  0.6798 -0.4738  0.7473
20615SOL    HW264866   8.563   6.880   3.479  0.2516 -2.4498 -0.3622
20616SOL     OW64867   0.048   1.217   1.920  0.2559 -0.1434  0.3828
20616SOL    HW164868   0.077   1.128   1.900 -0.7677 -0.6296  1.0366
20616SOL    HW264869   0.109   1.248   1.987  0.1462 -0.6467  0.7199
20617SOL     OW64870   6.753   3.943   0.364  0.0369 -0.2089  0.5119
20617SOL    HW164871   6.820   4.001   0.400 -0.2071 -0.2280  1.0121
20617SOL    HW264872   6.801   3.873   0.320  0.3384  1.5330 -2.0087
20618SOL     OW64873   0.513   5.092   1.599 -0.2526  0.0658  0.0866
20618SOL    HW164874   0.594   5.143   1.590  0.3868 -0.6693  1.4704
20618SOL    HW264875   0.517   5.058   1.688 -3.0386  1.6095  0.8512
20619SOL     OW64876   6.428   6.236   1.676 -0.0337  0.8405 -0.4168
20619SOL    HW164877   6.405   6.170   1.611  1.2578  0.2690 -0.3051
20619SOL    HW264878   6.506   6.278   1.642  0.6056  0.5905  0.7195
20620SOL     OW64879   9.087   8.184   7.411 -0.1053 -0.7184 -0.3456
20620SOL    HW164880   9.052   8.095   7.408 -1.0542 -0.4507  2.0678
20620SOL    HW264881   9.170   8.176   7.458 -0.9441 -0.1109  1.2546
20621SOL     OW64882   5.930   3.512   3.106 -0.0410  0.2963 -0.1252
20621SOL    HW164883   5.967   3.487   3.191 -0.2136  1.0605  0.1815
20621SOL    HW264884   5.910   3.429   3.063  0.3714 -0.1009  0.4397
20622SOL     OW64885   8.358   6.122   5.924 -0.3966  0.7240  0.5557
20622SOL    HW164886   8.361   6.124   6.020 -0.9241 -0.2270  0.6012
20622SOL    HW264887   8.272   6.159   5.902 -1.1288 -0.9431  0.5414
20623SOL     OW64888   5.473   0.177   1.960  0.1932  0.0091 -0.2598
20623SOL    HW164889   5.489   0.102   2.016 -0.0885 -0.3578 -0.6735
20623SOL    HW264890   5.537   0.243   1.989 -1.0601  0.4367  1.6242
20624SOL     OW64891   2.691   6.073   6.568  0.1779 -0.1320  0.0472
20624SOL    HW164892   2.658   6.086   6.657 -1.0445  0.9890 -0.5418
20624SOL    HW264893   2.613   6.051   6.517  0.5290  1.1878 -1.1143
20625SOL     OW64894   1.980   3.476   1.740  1.2735 -0.0779  0.0655
20625SOL    HW164895   2.039   3.418   1.787  1.8843  0.5113  0.0283
20625SOL    HW264896   1.987   3.448   1.649  0.7213 -0.6742  0.2059
20626SOL     OW64897   0.091   3.304   6.417 -0.4932 -0.5255  0.1120
20626SOL    HW164898   0.095   3.374   6.351 -0.8495 -0.1105  0.5188
20626SOL    HW264899   0.028   3.241   6.381  1.3099 -1.6341 -1.1823
20627SOL     OW64900   8.605   8.885   4.142  0.0573  0.2910 -0.2510
20627SOL    HW164901   8.658   8.810   4.169 -0.1215  0.4179  0.4663
20627SOL    HW264902   8.569   8.919   4.224 -2.6446 -0.9261 -0.8740
20628SOL     OW64903   8.360   0.502   0.867 -0.4092  0.2586  0.0123
20628SOL    HW164904   8.272   0.538   0.857  0.1473  2.2109  1.7594
20628SOL    HW264905   8.407   0.530   0.789 -0.4752  1.9130  0.5484
20629SOL     OW64906   5.690   9.181   6.023  0.0136 -0.4280 -0.5857
20629SOL    HW164907   5.602   9.188   6.060 -0.0742 -1.5984 -0.5564
20629SOL    HW264908   5.678   9.132   5.942  0.5696 -0.1108 -0.8630
20630SOL     OW64909   5.139   7.223   6.432 -0.4015  0.7770 -0.3997
20630SOL    HW164910   5.203   7.190   6.369 -1.3811 -0.5737 -0.6939
20630SOL    HW264911   5.111   7.307   6.395 -1.1212 -0.0946 -1.8941
20631SOL     OW64912   7.026   8.834   6.567  0.6372  0.4550 -0.3054
20631SOL    HW164913   6.960   8.766   6.554  1.0613  0.4227 -2.5796
20631SOL    HW264914   6.976   8.910   6.598 -0.3182  0.0738 -0.8780
20632SOL     OW64915   7.297   8.143   2.205 -0.5832  0.1949  0.0838
20632SOL    HW164916   7.369   8.109   2.258  1.7373  2.4299 -1.4827
20632SOL    HW264917   7.221   8.089   2.228  2.0422 -3.5659  0.3094
20633SOL     OW64918   4.414   6.468   6.903 -0.2059  0.5642 -0.1734
20633SOL    HW164919   4.347   6.406   6.933  0.5123  0.3171  0.9377
20633SOL    HW264920   4.423   6.450   6.810 -1.4377  0.3588 -0.2566
20634SOL     OW64921   8.712   6.771   3.657 -0.1051 -0.9242  0.0761
20634SOL    HW164922   8.750   6.768   3.745 -1.4024 -0.8054  0.6625
20634SOL    HW264923   8.622   6.741   3.670  0.2233 -2.6642 -1.5223
20635SOL     OW64924   6.802   4.467   7.806 -0.1119  0.2701  0.0957
20635SOL    HW164925   6.758   4.384   7.827 -0.1043  0.3405  0.3959
20635SOL    HW264926   6.755   4.533   7.857  0.3768  0.3367  0.4716
20636SOL     OW64927   8.157   9.014   9.047  0.4868  0.2245  0.3011
20636SOL    HW164928   8.181   8.922   9.057 -0.9258 -0.0177  1.5750
20636SOL    HW264929   8.161   9.029   8.952  1.8425 -0.8269  0.1710
20637SOL     OW64930   1.512   5.498   8.305 -0.2103 -0.2647  0.4195
20637SOL    HW164931   1.467   5.451   8.235  0.0159  0.6668 -0.3486
20637SOL    HW264932   1.448   5.561   8.337 -0.4116 -0.8806  1.2574
20638SOL     OW64933   5.365   0.877   4.213  0.5100  0.4245 -0.4800
20638SOL    HW164934   5.369   0.828   4.295  0.3490 -0.1441 -0.8125
20638SOL    HW264935   5.317   0.957   4.235 -1.4752 -0.7161 -0.5182
20639SOL     OW64936   2.046   6.088   4.276 -0.5568 -0.2666  0.3054
20639SOL    HW164937   2.086   6.001   4.280 -0.1276 -0.1515 -1.2193
20639SOL    HW264938   2.096   6.135   4.210 -0.6071  1.2544  1.3296
20640SOL     OW64939   8.329   8.951   2.377 -0.3881  0.0267  0.3827
20640SOL    HW164940   8.332   8.856   2.375 -1.7158 -0.0353  0.7423
20640SOL    HW264941   8.408   8.977   2.425 -0.0535 -0.8943  0.3286
20641SOL     OW64942   1.758   5.668   1.902  0.5712 -0.6072 -0.1686
20641SOL    HW164943   1.730   5.663   1.993  0.6303  0.8811 -0.0601
20641SOL    HW264944   1.684   5.709   1.857  1.2199  0.2278 -0.4816
20642SOL     OW64945   7.746   1.115   8.805  0.0814  0.1174 -0.6671
20642SOL    HW164946   7.699   1.140   8.884  1.1075  0.6854 -0.2305
20642SOL    HW264947   7.755   1.196   8.756  1.2901  0.1695 -0.3779
20643SOL     OW64948   5.019   8.534   2.825 -0.3151  0.3209  0.5009
20643SOL    HW164949   4.997   8.491   2.908 -1.5232  1.8551  0.9959
20643SOL    HW264950   5.091   8.482   2.789 -0.7029 -1.1714  1.8476
20644SOL     OW64951   0.658   1.239   3.023 -0.2478  0.4516  0.1937
20644SOL    HW164952   0.563   1.238   3.014 -0.2909  0.3443  0.6389
20644SOL    HW264953   0.689   1.170   2.963 -0.7432 -2.5361  3.1789
20645SOL     OW64954   3.169   7.073   4.940 -0.1025  0.8120 -0.0779
20645SOL    HW164955   3.123   7.098   5.020 -0.0660  0.4624  0.0544
20645SOL    HW264956   3.245   7.130   4.937  1.4305 -1.0733  1.6278
20646SOL     OW64957   8.039   5.312   7.727  0.0377  0.2922 -0.0458
20646SOL    HW164958   8.055   5.309   7.821 -0.9142  2.1119  0.2075
20646SOL    HW264959   8.104   5.374   7.694  0.3262 -0.2908 -0.5830
20647SOL     OW64960   5.542   2.639   7.159  0.7734  0.4383 -0.4061
20647SOL    HW164961   5.467   2.584   7.184  0.3014 -0.5508 -3.8138
20647SOL    HW264962   5.508   2.729   7.163 -0.2342  0.0837 -0.6863
20648SOL     OW64963   6.871   6.444   9.279  0.3863 -0.0013  0.2495
20648SOL    HW164964   6.965   6.444   9.295  0.3687 -0.2315  0.3591
20648SOL    HW264965   6.854   6.359   9.238 -0.2557 -1.3671  3.1849
20649SOL     OW64966   7.419   1.435   4.887  0.0146 -0.2394 -0.3103
20649SOL    HW164967   7.356   1.432   4.959  1.8005 -2.3758  1.2129
20649SOL    HW264968   7.399   1.358   4.834  0.5836 -0.2629 -0.4925
20650SOL     OW64969   6.538   7.697   5.961 -0.3000  0.6294  0.0253
20650SOL    HW164970   6.604   7.659   5.904  0.1563  1.3154  0.0878
20650SOL    HW264971   6.519   7.629   6.026 -0.0022  0.2615 -0.2763
20651SOL     OW64972   7.338   6.328   0.919  0.0227  0.4362 -0.8225
20651SOL    HW164973   7.430   6.309   0.936 -0.0417  2.2310  1.7926
20651SOL    HW264974   7.290   6.269   0.975 -0.3846  0.8086 -0.7789
20652SOL     OW64975   7.290   7.197   2.131 -0.2529 -0.1453  0.1713
20652SOL    HW164976   7.319   7.140   2.202 -0.0606 -0.2385  0.0178
20652SOL    HW264977   7.306   7.146   2.051 -0.5516 -0.0769  0.0671
20653SOL     OW64978   0.478   7.481   1.624 -0.0684 -0.3119  0.3384
20653SOL    HW164979   0.459   7.567   1.587  0.9388  0.0268  0.5969
20653SOL    HW264980   0.395   7.452   1.662 -0.1197  1.0736  1.3022
20654SOL     OW64981   6.481   5.364   8.539 -0.2028  0.4183 -0.6452
20654SOL    HW164982   6.448   5.429   8.477  0.7476  0.4827 -1.0813
20654SOL    HW264983   6.566   5.399   8.568  0.3578 -0.6787 -0.9571
20655SOL     OW64984   2.279   5.678   2.172  0.0467  0.1843 -0.3235
20655SOL    HW164985   2.281   5.659   2.079 -0.4228  1.1494 -0.5398
20655SOL    HW264986   2.343   5.748   2.184 -1.3021  1.4506 -0.2695
20656SOL     OW64987   6.751   2.777   2.792 -0.0238  0.0499 -0.0336
20656SOL    HW164988   6.736   2.866   2.825 -0.5993  0.5596 -1.6168
20656SOL    HW264989   6.679   2.761   2.731  1.3057 -0.6319 -1.4826
20657SOL     OW64990   5.830   3.164   0.785 -0.0130  0.0744 -0.2328
20657SOL    HW164991   5.754   3.165   0.728 -0.7974 -0.6839  0.7826
20657SOL    HW264992   5.800   3.202   0.868 -0.4970 -4.0812  1.6039
20658SOL     OW64993   3.227   0.506   1.749  0.0240  0.1637  0.0976
20658SOL    HW164994   3.243   0.458   1.830  0.3036  0.7722  0.4045
20658SOL    HW264995   3.142   0.547   1.761 -0.6152 -0.9426 -0.5069
20659SOL     OW64996   0.590   6.238   9.164  0.5927  0.1850  0.4959
20659SOL    HW164997   0.538   6.192   9.097 -0.0704  1.1374  0.3461
20659SOL    HW264998   0.527   6.258   9.233  0.5537  2.0911 -0.0606
20660SOL     OW64999   3.295   6.621   3.927  0.2157 -0.5051  0.4482
20660SOL    HW165000   3.262   6.703   3.962 -1.5212 -0.5271 -1.0599
20660SOL    HW265001   3.246   6.607   3.846  2.8672 -1.3416 -1.0935
20661SOL     OW65002   0.763   0.329   4.736  0.0546 -0.0045  0.2592
20661SOL    HW165003   0.721   0.379   4.666 -0.1799 -0.7896 -0.1750
20661SOL    HW265004   0.746   0.237   4.713  0.9671 -0.3012  0.7295
20662SOL     OW65005   8.925   3.169   5.169  0.3354 -0.1757 -0.5307
20662SOL    HW165006   8.982   3.125   5.106  0.5216 -0.2896 -0.2829
20662SOL    HW265007   8.868   3.225   5.115  0.4127 -0.3630 -0.8083
20663SOL     OW65008   2.197   5.806   6.452  0.1318  0.3570  0.2496
20663SOL    HW165009   2.178   5.736   6.515 -1.6255  1.2860  0.7762
20663SOL    HW265010   2.267   5.770   6.397  0.5878 -1.0778  1.7195
20664SOL     OW65011   5.243   3.961   3.775 -0.2239  0.8112  0.8038
20664SOL    HW165012   5.317   4.010   3.809 -0.4751  1.1795  0.8277
20664SOL    HW265013   5.191   4.026   3.726 -0.0579  0.3640  0.0310
20665SOL     OW65014   6.581   5.548   2.350 -0.4214 -0.2496  0.5534
20665SOL    HW165015   6.585   5.465   2.304 -1.4856  0.7022 -1.3030
20665SOL    HW265016   6.666   5.589   2.333 -0.1690 -0.6351  0.8744
20666SOL     OW65017   4.862   7.424   6.855 -0.2336  0.2248  0.2320
20666SOL    HW165018   4.957   7.428   6.870 -0.3829  2.1712  0.8181
20666SOL    HW265019   4.853   7.427   6.759  0.3064 -0.0677  0.1716
20667SOL     OW65020   1.283   8.658   5.731 -0.4109 -0.4150  0.2398
20667SOL    HW165021   1.349   8.608   5.779  2.2875  2.4214 -0.3245
20667SOL    HW265022   1.303   8.642   5.639 -1.9165 -1.2509  0.0414
20668SOL     OW65023   4.842   5.617   1.310 -0.0169 -0.1745  0.2370
20668SOL    HW165024   4.925   5.570   1.308  0.5039  0.7448 -0.2357
20668SOL    HW265025   4.785   5.563   1.365  0.9027 -0.7896  0.6050
20669SOL     OW65026   3.072   1.166   8.801 -0.6101 -0.0901  0.2209
20669SOL    HW165027   3.083   1.073   8.821 -1.3689  0.1607  1.9022
20669SOL    HW265028   3.044   1.168   8.710  1.2567 -1.3931 -0.4226
20670SOL     OW65029   6.029   6.416   4.419  0.4602  0.5187 -0.0964
20670SOL    HW165030   6.080   6.396   4.341  0.8261  0.6444  0.1091
20670SOL    HW265031   5.939   6.421   4.388  0.2788 -2.0234 -0.0550
20671SOL     OW65032   1.002   1.562   7.038 -0.1645  0.0102  0.2886
20671SOL    HW165033   0.979   1.628   7.103 -2.5755 -0.1467 -0.3797
20671SOL    HW265034   1.003   1.479   7.087 -3.2827 -0.2964 -0.0942
20672SOL     OW65035   2.093   4.043   5.091 -0.2525 -0.1209 -0.2775
20672SOL    HW165036   2.033   4.104   5.048  0.0179 -0.3007 -0.9177
20672SOL    HW265037   2.121   3.984   5.021 -1.5504 -1.8281  0.6097
20673SOL     OW65038   2.847   4.088   5.546  0.3178  0.2039 -0.5776
20673SOL    HW165039   2.788   4.160   5.524 -0.8381 -0.5445  0.0292
20673SOL    HW265040   2.840   4.079   5.641 -0.4474 -1.4735 -0.7815
20674SOL     OW65041   5.999   7.360   1.984  0.4339 -1.2848  0.5732
20674SOL    HW165042   6.072   7.350   1.924 -0.3970 -2.4144 -0.2690
20674SOL    HW265043   6.010   7.448   2.021  1.5101 -0.9716 -0.4670
20675SOL     OW65044   7.247   3.962   8.335  0.8640 -0.2732  0.5823
20675SOL    HW165045   7.304   4.039   8.342  0.7197 -0.0460 -0.6947
20675SOL    HW265046   7.181   3.987   8.271  1.9154 -2.1334 -1.2822
20676SOL     OW65047   5.481   8.224   7.295  0.4493  0.1165  0.0206
20676SOL    HW165048   5.525   8.308   7.305 -0.9488  1.0156 -1.2385
20676SOL    HW265049   5.388   8.245   7.288  0.1824 -1.4252 -1.4858
20677SOL     OW65050   8.899   5.934   2.670  0.4801  0.5711 -0.3895
20677SOL    HW165051   8.864   5.994   2.736  0.2623  1.9849 -1.7614
20677SOL    HW265052   8.873   5.847   2.701  1.0161  1.1408  1.7542
20678SOL     OW65053   0.484   2.740   4.284 -0.1425 -0.7010  0.2978
20678SOL    HW165054   0.579   2.746   4.295 -0.3905  1.7381  1.1949
20678SOL    HW265055   0.472   2.664   4.226  2.3918 -0.5213 -0.5295
20679SOL     OW65056   5.254   1.909   4.973 -0.3442 -0.7465  0.4860
20679SOL    HW165057   5.303   1.845   5.025 -0.7675 -1.3956  0.1031
20679SOL    HW265058   5.179   1.931   5.027 -0.3455 -0.7867  0.5003
20680SOL     OW65059   6.399   2.117   4.519  0.1640  0.3970 -0.3773
20680SOL    HW165060   6.365   2.036   4.556  1.5485 -0.3484 -0.6798
20680SOL    HW265061   6.491   2.097   4.499  0.6434  2.1691 -0.0447
20681SOL     OW65062   8.797   7.237   7.185  0.1108 -0.0883 -0.3205
20681SOL    HW165063   8.785   7.255   7.092  0.8829  1.6882 -0.0933
20681SOL    HW265064   8.710   7.249   7.223 -0.1586 -0.6004 -0.7676
20682SOL     OW65065   5.154   1.765   6.013  0.5843  0.3882  0.3471
20682SOL    HW165066   5.123   1.764   5.923  0.2696  1.0327  0.4427
20682SOL    HW265067   5.116   1.845   6.051  2.8199  1.5138  0.3002
20683SOL     OW65068   1.834   7.410   6.546  0.0733  0.1893 -0.2577
20683SOL    HW165069   1.887   7.337   6.578  1.7126  0.5803 -2.0047
20683SOL    HW265070   1.769   7.424   6.615 -1.7104 -4.3135 -0.8134
20684SOL     OW65071   6.550   9.112   5.357  0.0298 -0.5873  0.1070
20684SOL    HW165072   6.643   9.094   5.367  0.1461  0.1302  0.3734
20684SOL    HW265073   6.522   9.145   5.442 -0.3905 -0.4727 -0.0705
20685SOL     OW65074   0.394   4.190   2.685  0.6464 -0.4317 -0.5067
20685SOL    HW165075   0.469   4.161   2.738 -0.3273 -2.9400 -0.4180
20685SOL    HW265076   0.327   4.211   2.750  0.6753  0.0901 -0.6451
20686SOL     OW65077   1.559   5.814   9.300 -0.3761  0.2286  0.2495
20686SOL    HW165078   1.605   5.869   9.237  0.2676 -1.2728 -0.6229
20686SOL    HW265079   1.538   5.873   9.373  0.9499  1.4306 -0.3243
20687SOL     OW65080   2.148   3.321   8.934 -0.0226 -0.0911 -0.0677
20687SOL    HW165081   2.056   3.330   8.961  0.2968  0.1233  0.9830
20687SOL    HW265082   2.157   3.378   8.858 -0.6370  0.2785  0.1348
20688SOL     OW65083   6.296   3.525   9.385 -0.5265  0.5107 -0.3792
20688SOL    HW165084   6.325   3.536   9.295  0.2122  1.1387 -0.0719
20688SOL    HW265085   6.340   3.595   9.433  0.6294 -0.9841  0.7916
20689SOL     OW65086   5.081   3.892   4.173  0.5712 -0.4890 -0.4624
20689SOL    HW165087   5.088   3.976   4.217  0.1549 -0.9380  0.4649
20689SOL    HW265088   4.990   3.888   4.143  0.4745 -0.7985 -0.1276
20690SOL     OW65089   8.757   0.720   0.788 -0.2449 -0.0391 -0.0382
20690SOL    HW165090   8.832   0.664   0.809  1.2498  2.0157  0.2622
20690SOL    HW265091   8.735   0.763   0.870  0.1530  1.5757 -0.7489
20691SOL     OW65092   3.472   1.294   1.303  0.3481 -0.4156  0.1250
20691SOL    HW165093   3.497   1.366   1.361  0.2738  0.4191 -0.8627
20691SOL    HW265094   3.542   1.230   1.313  2.8722  1.8090 -2.4504
20692SOL     OW65095   2.090   9.289   0.980 -0.0594  0.7511  0.2404
20692SOL    HW165096   2.015   9.283   1.040 -0.8810 -2.0960 -0.9848
20692SOL    HW265097   2.094   9.382   0.957 -2.4193  1.1834  1.3397
20693SOL     OW65098   1.918   2.030   8.364 -0.2676  0.1464 -0.0383
20693SOL    HW165099   1.962   2.110   8.337  0.6327 -0.2801  0.1653
20693SOL    HW265100   1.862   2.008   8.290 -0.0391  0.6064 -0.3536
20694SOL     OW65101   4.592   2.690   1.671 -0.2313 -0.2803  0.7608
20694SOL    HW165102   4.609   2.609   1.720 -0.8514  0.6438  2.5523
20694SOL    HW265103   4.678   2.731   1.661  0.4337 -2.2218 -2.1570
20695SOL     OW65104   5.483   9.226   3.437 -0.2913  0.1680 -0.1939
20695SOL    HW165105   5.424   9.198   3.367  2.1636  1.2922 -2.8126
20695SOL    HW265106   5.459   9.318   3.452  0.5338  0.5334 -1.0423
20696SOL     OW65107   2.798   8.767   5.599  0.4736 -0.2265  0.1114
20696SOL    HW165108   2.874   8.790   5.546  0.3406  0.7909  0.3572
20696SOL    HW265109   2.794   8.835   5.666 -0.6559 -0.2750  0.0979
20697SOL     OW65110   2.645   3.455   4.552  0.1312  1.0522  0.0499
20697SOL    HW165111   2.550   3.463   4.558 -0.0984 -1.2902  0.2185
20697SOL    HW265112   2.678   3.501   4.629 -0.8947  1.5172  0.2178
20698SOL     OW65113   0.782   9.172   4.180 -0.1922  0.3134  0.4337
20698SOL    HW165114   0.770   9.082   4.149 -0.3483  0.3728  0.3179
20698SOL    HW265115   0.784   9.224   4.099  1.3276  0.2532  0.4155
20699SOL     OW65116   8.108   6.398   0.624  0.0057 -0.1012  0.0410
20699SOL    HW165117   8.170   6.455   0.579  1.2994 -0.4173  1.3839
20699SOL    HW265118   8.152   6.373   0.705 -1.4388 -1.2244  0.5145
20700SOL     OW65119   2.384   2.984   3.762 -0.4958  0.1678 -0.1614
20700SOL    HW165120   2.329   2.940   3.827 -0.1205 -0.0768 -0.0049
20700SOL    HW265121   2.467   2.936   3.764 -0.2235  0.6261 -0.2900
20701SOL     OW65122   6.131   5.634   6.307 -0.0365  0.2365 -0.2294
20701SOL    HW165123   6.103   5.647   6.397 -0.2008  0.3402 -0.2951
20701SOL    HW265124   6.206   5.574   6.313  1.6948  2.3952  0.2076
20702SOL     OW65125   5.622   0.355   2.097  0.0183 -0.4318  0.3314
20702SOL    HW165126   5.692   0.339   2.159  0.3592  0.4593  0.1850
20702SOL    HW265127   5.570   0.425   2.137  0.0989 -0.0269 -0.2654
20703SOL     OW65128   9.120   5.340   7.256  0.5475  0.5383 -0.1844
20703SOL    HW165129   9.050   5.368   7.197  0.4775 -0.9765 -0.8393
20703SOL    HW265130   9.200   5.372   7.215  0.2695  2.3761  0.6239
20704SOL     OW65131   3.592   8.081   7.826 -0.4055 -0.4225  0.0969
20704SOL    HW165132   3.604   8.147   7.758  2.2022 -0.0093  0.8978
20704SOL    HW265133   3.523   8.024   7.793 -0.3411  0.7380 -2.1153
20705SOL     OW65134   9.433   7.953   4.041 -0.5351 -0.6385 -0.4800
20705SOL    HW165135   9.383   7.967   3.960 -3.0651  0.4185  1.2296
20705SOL    HW265136   9.479   8.035   4.056 -1.8622 -0.0288  0.3443
20706SOL     OW65137   8.113   7.251   1.400 -0.2701 -0.2318 -0.0111
20706SOL    HW165138   8.083   7.212   1.482 -0.5401 -1.9276 -0.8913
20706SOL    HW265139   8.204   7.224   1.392  0.3098  1.5059  0.6488
20707SOL     OW65140   5.007   4.896   4.351  0.3227  0.7933 -0.4550
20707SOL    HW165141   5.028   4.898   4.445  0.0219 -2.8324 -0.2624
20707SOL    HW265142   5.082   4.853   4.311 -1.8911 -2.5659 -1.1466
20708SOL     OW65143   2.628   8.962   7.246  0.0888  0.2207 -0.1430
20708SOL    HW165144   2.681   8.984   7.323  0.7175 -0.1792 -0.4491
20708SOL    HW265145   2.693   8.949   7.176 -0.4033 -0.4299 -0.4853
20709SOL     OW65146   5.096   1.414   5.963  0.4996 -0.3278 -0.5377
20709SOL    HW165147   5.155   1.429   6.036  0.1802 -0.7985 -0.1844
20709SOL    HW265148   5.063   1.325   5.975 -2.1959  0.7652  0.6547
20710SOL     OW65149   4.370   5.633   5.007 -0.8764 -0.1895  0.4882
20710SOL    HW165150   4.390   5.699   5.074  0.1967 -0.6629  0.6384
20710SOL    HW265151   4.401   5.672   4.925 -0.5824 -0.3599  0.5206
20711SOL     OW65152   1.978   4.681   7.704  0.2856  0.3371 -0.1450
20711SOL    HW165153   1.900   4.719   7.745  0.3626  1.0925 -0.6889
20711SOL    HW265154   1.947   4.599   7.666 -0.3113  0.7616 -0.5878
20712SOL     OW65155   5.373   2.942   6.133 -0.4887  0.5111 -0.1445
20712SOL    HW165156   5.424   2.955   6.053  1.1490 -0.9055  0.6422
20712SOL    HW265157   5.284   2.923   6.102  0.5683 -2.0636 -1.7125
20713SOL     OW65158   6.057   4.187   5.052 -0.1731 -0.2507 -0.4893
20713SOL    HW165159   6.097   4.102   5.034 -0.4645 -0.7989  1.4078
20713SOL    HW265160   5.964   4.168   5.065 -0.0312  0.1644  1.2214
20714SOL     OW65161   5.302   7.686   3.586 -0.1028 -0.5659  0.3091
20714SOL    HW165162   5.374   7.626   3.571 -0.1906 -1.0886  1.9265
20714SOL    HW265163   5.240   7.668   3.515  0.0774 -2.0774  0.5301
20715SOL     OW65164   6.366   3.389   6.028  0.0157 -0.0597  0.1181
20715SOL    HW165165   6.307   3.373   5.954 -0.5080  1.1435  0.2562
20715SOL    HW265166   6.316   3.448   6.086  1.4288  1.1252  0.1442
20716SOL     OW65167   2.291   4.020   4.395  0.0227 -0.5622 -0.2746
20716SOL    HW165168   2.367   4.078   4.388 -1.2952  1.3448  0.7870
20716SOL    HW265169   2.293   3.968   4.314  2.0753 -0.0875 -0.5440
20717SOL     OW65170   6.024   9.016   6.761 -0.6534 -0.4404  0.1491
20717SOL    HW165171   6.031   9.106   6.731  0.6680 -0.5203  0.1791
20717SOL    HW265172   5.963   9.020   6.835 -0.0581  0.5422  0.5976
20718SOL     OW65173   6.194   3.394   3.790  0.0120  0.0875  0.3483
20718SOL    HW165174   6.147   3.359   3.866  1.6166  0.0468  1.3380
20718SOL    HW265175   6.277   3.425   3.825  0.5159  0.6464 -1.2956
20719SOL     OW65176   7.997   9.393   5.033  0.2673 -0.0302  0.1053
20719SOL    HW165177   8.048   9.323   4.992  1.4059  0.2511  1.0281
20719SOL    HW265178   7.932   9.417   4.967  0.7351 -1.0225 -0.7326
20720SOL     OW65179   0.956   5.494   5.529  0.2333  0.1401 -0.0409
20720SOL    HW165180   0.879   5.463   5.577  1.5905 -0.4617  1.8105
20720SOL    HW265181   0.947   5.455   5.442 -0.7059 -1.3042  0.6834
20721SOL     OW65182   0.553   7.332   6.413 -0.0338 -0.4688 -0.3590
20721SOL    HW165183   0.601   7.401   6.366  1.4219 -1.3009 -0.1198
20721SOL    HW265184   0.461   7.360   6.409  0.5200  1.4335 -0.3631
20722SOL     OW65185   7.642   5.358   6.027 -0.2687  0.3149  0.1136
20722SOL    HW165186   7.660   5.450   6.009  0.0833  0.0385 -1.0456
20722SOL    HW265187   7.694   5.311   5.961 -0.6585 -0.6983  0.5212
20723SOL     OW65188   3.996   5.117   2.015  0.1541  0.5669  0.1273
20723SOL    HW165189   3.967   5.052   2.079 -0.0306  0.6139  0.0901
20723SOL    HW265190   3.930   5.187   2.020  0.6219  0.9840  0.5340
20724SOL     OW65191   0.547   5.223   7.162  0.0379 -0.5085 -0.1168
20724SOL    HW165192   0.524   5.303   7.210  0.0766 -0.4744 -0.1546
20724SOL    HW265193   0.515   5.239   7.073 -0.7088 -0.8823  0.0846
20725SOL     OW65194   5.805   5.243   1.498  0.4658  0.3786  0.3728
20725SOL    HW165195   5.799   5.338   1.498 -2.7746  0.2660  2.7802
20725SOL    HW265196   5.724   5.213   1.457  1.3861 -1.3842 -0.2412
20726SOL     OW65197   1.846   2.842   4.211  0.6570 -0.1084  0.5357
20726SOL    HW165198   1.918   2.806   4.263  0.6315 -1.4575 -0.3517
20726SOL    HW265199   1.767   2.802   4.247  0.5670 -0.4227 -0.0061
20727SOL     OW65200   6.021   5.522   4.004 -0.0476  0.0850  0.1221
20727SOL    HW165201   5.941   5.512   4.056 -0.1245 -1.0755 -0.1879
20727SOL    HW265202   6.069   5.592   4.047 -2.0362  2.0338 -0.7304
20728SOL     OW65203   6.923   2.873   7.235 -0.4231 -0.4714 -0.5187
20728SOL    HW165204   6.884   2.940   7.179 -1.6938 -0.3436  0.4836
20728SOL    HW265205   6.880   2.792   7.210  0.8032 -0.8517 -1.4320
20729SOL     OW65206   3.514   4.355   1.562 -0.2273 -0.0599  0.0840
20729SOL    HW165207   3.492   4.396   1.646 -0.1361 -0.1980  0.1750
20729SOL    HW265208   3.558   4.273   1.586 -1.3566 -0.7293 -0.0926
20730SOL     OW65209   1.447   3.399   1.173 -0.1640 -0.3715  0.2045
20730SOL    HW165210   1.387   3.473   1.165  1.3695  0.8394 -0.4221
20730SOL    HW265211   1.446   3.378   1.266 -1.8733 -0.6401  0.1358
20731SOL     OW65212   8.189   4.464   5.258 -0.0514 -0.0847  0.5486
20731SOL    HW165213   8.173   4.469   5.164  0.0451 -0.7534  0.4966
20731SOL    HW265214   8.273   4.419   5.266 -1.0627 -1.9713  1.0088
20732SOL     OW65215   7.324   2.672   2.037  0.4007  0.5312 -0.1486
20732SOL    HW165216   7.277   2.754   2.048 -1.2105 -0.5624  1.3996
20732SOL    HW265217   7.277   2.609   2.092  1.1172 -1.6334 -1.9192
20733SOL     OW65218   5.904   1.935   1.456  0.3402  0.3359 -0.0700
20733SOL    HW165219   5.827   1.939   1.514  1.7087  2.0042  1.7113
20733SOL    HW265220   5.920   2.026   1.432  0.7920 -0.1781 -1.7711
20734SOL     OW65221   4.914   0.134   6.042  0.1507  0.1196 -0.0264
20734SOL    HW165222   4.840   0.101   5.991 -2.5450  1.7104  2.6888
20734SOL    HW265223   4.886   0.126   6.134  2.9912  1.6041  1.0495
20735SOL     OW65224   6.812   4.612   2.720 -0.1222  0.8676  0.3080
20735SOL    HW165225   6.734   4.575   2.762  0.8857 -0.8527  0.7210
20735SOL    HW265226   6.853   4.666   2.789  0.9703 -1.1268  1.2871
20736SOL     OW65227   7.251   2.755   2.827 -0.0353  0.3936 -0.3485
20736SOL    HW165228   7.282   2.724   2.743 -1.0756  1.0627 -0.9869
20736SOL    HW265229   7.286   2.692   2.890 -0.9452 -1.2555 -1.4701
20737SOL     OW65230   2.187   3.095   4.051  0.4107 -0.1123  0.2423
20737SOL    HW165231   2.163   3.011   4.010 -1.6399  0.9536 -0.8357
20737SOL    HW265232   2.278   3.083   4.079  0.0596 -2.8101  0.4114
20738SOL     OW65233   6.910   6.211   8.751 -0.0691  0.3678 -0.0310
20738SOL    HW165234   6.857   6.288   8.729 -0.4878  0.2800  0.6551
20738SOL    HW265235   6.979   6.245   8.808 -0.4653  0.1784  0.5655
20739SOL     OW65236   7.932   6.903   6.773 -0.6046  0.2804 -0.1158
20739SOL    HW165237   8.015   6.894   6.820 -0.0443  3.0399 -0.4981
20739SOL    HW265238   7.953   6.883   6.682 -0.8744 -1.2628  0.1434
20740SOL     OW65239   1.850   1.181   1.878 -0.1064 -0.5762  0.1329
20740SOL    HW165240   1.935   1.155   1.841 -0.8294 -1.4394 -0.9543
20740SOL    HW265241   1.785   1.141   1.819 -1.2657 -0.0072  1.0117
20741SOL     OW65242   5.614   5.302   5.144 -0.1516  0.3400  0.2314
20741SOL    HW165243   5.652   5.390   5.141 -0.4297  0.4330 -0.6609
20741SOL    HW265244   5.520   5.317   5.141 -0.2996  0.1276  2.7870
20742SOL     OW65245   9.231   0.241   5.121 -0.3472  0.6738 -0.6533
20742SOL    HW165246   9.303   0.288   5.163  0.1502  1.9184 -2.8069
20742SOL    HW265247   9.152   0.278   5.160  0.1686 -1.2344  2.2757
20743SOL     OW65248   8.843   5.845   7.847  0.1537 -0.0930  0.2634
20743SOL    HW165249   8.858   5.931   7.886  0.2076 -0.2738  0.6487
20743SOL    HW265250   8.789   5.862   7.770 -2.0788  0.0264  1.8170
20744SOL     OW65251   6.392   1.600   4.285  0.5100 -0.2331 -1.0097
20744SOL    HW165252   6.299   1.590   4.265  1.2984 -1.4193 -4.3773
20744SOL    HW265253   6.426   1.655   4.215  2.6000 -0.9433 -0.5856
20745SOL     OW65254   5.902   2.225   5.976  0.1867  0.1351  0.2467
20745SOL    HW165255   5.836   2.156   5.987 -1.5258  1.4605 -1.4240
20745SOL    HW265256   5.893   2.280   6.054  0.9955 -1.0196  1.1841
20746SOL     OW65257   0.424   2.466   3.241 -0.8428 -0.1724  0.0819
20746SOL    HW165258   0.401   2.502   3.326  1.0066  0.4866  0.3344
20746SOL    HW265259   0.448   2.375   3.259 -1.4779 -0.3320  0.1062
20747SOL     OW65260   4.255   2.957   6.187  0.2330 -0.7363 -0.3001
20747SOL    HW165261   4.304   2.950   6.105  2.1289 -0.9582  0.8158
20747SOL    HW265262   4.265   2.871   6.228 -0.5108 -0.5516  0.2934
20748SOL     OW65263   3.666   3.777   4.843  0.8850 -1.4706 -0.0047
20748SOL    HW165264   3.638   3.743   4.758  0.3412  0.4421 -0.6299
20748SOL    HW265265   3.758   3.800   4.831  0.3406  0.4975 -0.6725
20749SOL     OW65266   4.056   3.386   8.204 -0.1821 -0.4228  0.0856
20749SOL    HW165267   4.066   3.421   8.115  0.5369 -2.3497 -0.6170
20749SOL    HW265268   4.132   3.329   8.216 -1.6497 -2.2423  0.9460
20750SOL     OW65269   1.261   9.385   8.877 -0.5354  0.2919 -0.5738
20750SOL    HW165270   1.315   9.320   8.832 -2.9213 -1.1030 -1.5089
20750SOL    HW265271   1.252   9.352   8.966 -1.4030 -0.4725 -0.9361
20751SOL     OW65272   4.974   9.057   3.522  0.0593  0.0890  0.5214
20751SOL    HW165273   4.934   8.999   3.586 -1.4562  1.0659  0.4720
20751SOL    HW265274   5.039   9.107   3.572 -1.1259  0.8623  1.3080
20752SOL     OW65275   1.050   3.353   4.332  0.1023 -0.1612 -0.1157
20752SOL    HW165276   1.018   3.443   4.336 -0.0801 -0.2656  0.9562
20752SOL    HW265277   1.143   3.360   4.353  0.0805 -0.2284  0.0027
20753SOL     OW65278   3.606   4.426   1.910  0.1187 -0.8473 -0.1632
20753SOL    HW165279   3.578   4.410   2.000 -1.1042 -3.1534 -0.9138
20753SOL    HW265280   3.675   4.361   1.895  1.4302  0.5675 -0.4081
20754SOL     OW65281   0.366   6.348   2.582 -0.6188  0.3257  0.1192
20754SOL    HW165282   0.389   6.263   2.617  0.2260  0.3448 -0.3899
20754SOL    HW265283   0.286   6.373   2.629 -2.3827 -1.9157 -1.5882
20755SOL     OW65284   3.956   1.532   6.378  0.6882  0.0559  0.1035
20755SOL    HW165285   4.044   1.501   6.400  0.2289 -1.1174  0.2887
20755SOL    HW265286   3.898   1.460   6.401 -0.2208  0.3846 -1.0777
20756SOL     OW65287   4.116   5.099   3.580 -0.1083 -0.6420  0.0308
20756SOL    HW165288   4.021   5.100   3.591 -0.1301 -1.4894  0.0185
20756SOL    HW265289   4.138   5.185   3.545 -0.9626 -0.7027 -0.6650
20757SOL     OW65290   7.470   8.001   8.675  0.5403 -0.1399 -0.3257
20757SOL    HW165291   7.532   7.933   8.700  1.2209  0.6968  0.3174
20757SOL    HW265292   7.481   8.069   8.741 -0.3848  0.4410 -0.7522
20758SOL     OW65293   2.767   3.047   3.007  0.3983 -0.3032  0.1539
20758SOL    HW165294   2.708   3.114   2.972  0.0094 -1.2873 -1.0877
20758SOL    HW265295   2.853   3.070   2.970  0.0425 -1.1705 -1.2321
20759SOL     OW65296   1.008   0.119   7.143 -0.2020  0.2795 -0.3726
20759SOL    HW165297   0.953   0.160   7.076 -0.0353  1.2598  0.0868
20759SOL    HW265298   1.031   0.033   7.106 -2.4170 -0.3522 -0.3770
20760SOL     OW65299   6.824   4.282   7.191  0.0744  0.8716 -0.6389
20760SOL    HW165300   6.907   4.234   7.202 -0.0463  0.5849 -0.9442
20760SOL    HW265301   6.846   4.373   7.212  0.6234  0.9137 -1.3522
20761SOL     OW65302   3.351   2.933   6.511  0.5553  0.0615 -0.3134
20761SOL    HW165303   3.300   2.866   6.466  2.6750 -2.0805  0.3939
20761SOL    HW265304   3.286   2.996   6.542 -1.3455 -0.9578 -2.1374
20762SOL     OW65305   5.184   5.288   0.530  0.1087  0.0170  0.0264
20762SOL    HW165306   5.250   5.346   0.491 -0.6674  0.1559 -1.1076
20762SOL    HW265307   5.220   5.200   0.522  0.6565  0.1966  0.4627
20763SOL     OW65308   9.318   8.298   4.941  0.4450  0.0117  0.0998
20763SOL    HW165309   9.347   8.219   4.895  0.4085  0.4748 -0.7211
20763SOL    HW265310   9.384   8.364   4.921  0.9617 -0.0576  1.5295
20764SOL     OW65311   5.969   4.011   9.255 -0.0045 -0.2024  0.6809
20764SOL    HW165312   5.921   4.046   9.181 -0.8262 -2.1379  0.2830
20764SOL    HW265313   5.959   4.077   9.323 -0.5368  0.8772 -0.4312
20765SOL     OW65314   6.404   5.620   5.099 -0.2204 -0.8639 -0.3332
20765SOL    HW165315   6.340   5.563   5.057 -1.1433 -0.1775  0.1140
20765SOL    HW265316   6.356   5.660   5.171  0.4090  0.4877 -0.6541
20766SOL     OW65317   6.985   1.973   2.419  0.0708  0.1188  0.5289
20766SOL    HW165318   6.932   1.957   2.497 -0.4034 -2.4160 -0.2624
20766SOL    HW265319   6.949   1.913   2.353  1.9150  0.6145 -0.9676
20767SOL     OW65320   3.878   1.927   5.073 -0.7326  0.3279  0.5865
20767SOL    HW165321   3.935   2.003   5.069 -1.0130  0.4670 -1.0435
20767SOL    HW265322   3.811   1.949   5.138 -0.1871  1.0135  0.9161
20768SOL     OW65323   1.154   7.671   4.589  0.0148  0.4124 -0.0912
20768SOL    HW165324   1.231   7.665   4.532 -1.5262  0.9976 -2.2860
20768SOL    HW265325   1.164   7.754   4.634  0.5079  0.6434 -0.6198
20769SOL     OW65326   1.020   6.461   5.118  0.0588 -0.1106  0.1760
20769SOL    HW165327   1.065   6.453   5.202 -2.5233  0.7069  1.6893
20769SOL    HW265328   0.963   6.384   5.113 -1.0630  0.7164 -0.0176
20770SOL     OW65329   0.613   4.941   2.810  0.0243 -0.3127  0.0705
20770SOL    HW165330   0.691   4.946   2.866  1.0894  1.5928 -1.5045
20770SOL    HW265331   0.591   5.032   2.792 -0.4565 -0.8825 -2.3665
20771SOL     OW65332   0.085   1.923   0.234 -0.2170  0.2238 -0.2479
20771SOL    HW165333   0.078   2.019   0.229 -0.7346  0.1923 -0.1335
20771SOL    HW265334   0.179   1.906   0.223 -0.3417  0.6318 -2.1167
20772SOL     OW65335   8.725   1.083   7.284  0.0371 -0.0137 -0.3849
20772SOL    HW165336   8.740   1.000   7.329 -0.2424  0.6843  1.0047
20772SOL    HW265337   8.708   1.058   7.193  0.6952 -1.4232 -0.1253
20773SOL     OW65338   6.592   5.203   6.892 -0.5755 -0.2594 -0.0583
20773SOL    HW165339   6.519   5.163   6.940  0.0175  0.3019  1.3431
20773SOL    HW265340   6.664   5.141   6.902 -0.6245 -0.4345 -0.7623
20774SOL     OW65341   0.694   2.874   3.242 -0.4911 -0.4046  0.3702
20774SOL    HW165342   0.776   2.889   3.290  0.4217  0.4984 -1.4217
20774SOL    HW265343   0.664   2.789   3.273  0.3255 -0.0762  2.1685
20775SOL     OW65344   9.359   8.956   1.453 -0.0399  0.1568  0.5644
20775SOL    HW165345   9.339   8.969   1.546 -1.0594 -0.5656  0.4603
20775SOL    HW265346   9.289   8.898   1.422  1.3436 -1.1540 -0.1959
20776SOL     OW65347   0.690   4.294   0.666  0.2183 -0.3612  0.2911
20776SOL    HW165348   0.674   4.262   0.577  1.4520 -1.8898  0.6028
20776SOL    HW265349   0.744   4.372   0.654 -0.1851 -0.1757 -0.3325
20777SOL     OW65350   3.035   2.017   3.380 -0.1793 -0.9058 -0.3150
20777SOL    HW165351   3.071   2.021   3.291  0.2965 -1.1168 -0.1373
20777SOL    HW265352   3.089   1.950   3.424 -0.0811 -0.4403  0.2769
20778SOL     OW65353   5.303   8.300   2.418 -0.1046 -0.3350  0.0263
20778SOL    HW165354   5.243   8.246   2.368  2.1149 -2.5194 -0.3997
20778SOL    HW265355   5.354   8.347   2.352  1.6350 -1.8970  0.2002
20779SOL     OW65356   5.333   3.396   0.024 -0.5861  0.4937  0.1539
20779SOL    HW165357   5.345   3.303   0.046  0.8920  0.0177 -2.4843
20779SOL    HW265358   5.239   3.404   0.008 -0.5793 -0.8067 -0.6572
20780SOL     OW65359   3.518   7.360   8.874  0.0020 -0.1386  0.6243
20780SOL    HW165360   3.537   7.454   8.878  0.3348 -0.1767 -0.1348
20780SOL    HW265361   3.426   7.356   8.848  0.0781 -0.0276  0.3355
20781SOL     OW65362   8.467   0.390   2.791 -0.5525  0.0294 -0.4691
20781SOL    HW165363   8.450   0.322   2.726 -1.0210  0.3687 -0.7030
20781SOL    HW265364   8.381   0.427   2.811 -0.4028 -0.0054  0.2718
20782SOL     OW65365   4.677   9.045   6.374 -0.6140  0.1605  0.0680
20782SOL    HW165366   4.744   9.092   6.424  0.6414 -1.3809 -0.1115
20782SOL    HW265367   4.714   8.957   6.361 -1.2883  0.2474 -2.7950
20783SOL     OW65368   8.627   8.905   8.947  0.6505 -0.0582  0.1172
20783SOL    HW165369   8.685   8.964   8.900  0.3585  0.7857  0.8026
20783SOL    HW265370   8.607   8.836   8.884  0.4838  0.9080 -0.9088
20784SOL     OW65371   5.591   1.718   9.260  0.1128 -0.4358  0.3273
20784SOL    HW165372   5.506   1.730   9.218 -0.2474 -0.9277  0.9106
20784SOL    HW265373   5.652   1.702   9.187 -0.3888 -0.6158 -0.0530
20785SOL     OW65374   5.988   5.068   6.457  0.2153  0.3117 -0.3303
20785SOL    HW165375   6.020   5.155   6.436  1.3399  0.3952  1.6566
20785SOL    HW265376   5.895   5.070   6.432  0.8602  1.2140 -2.7345
20786SOL     OW65377   8.962   6.111   7.002 -0.0277 -0.5035  0.2968
20786SOL    HW165378   8.994   6.183   6.947  0.3959 -0.4207  0.6528
20786SOL    HW265379   8.993   6.132   7.090  0.4641 -1.3531  0.3239
20787SOL     OW65380   6.472   1.730   3.210 -0.1259 -0.0547 -0.0958
20787SOL    HW165381   6.552   1.720   3.262 -0.5716  0.6592  0.7461
20787SOL    HW265382   6.502   1.730   3.119  0.8618  0.4908  0.2251
20788SOL     OW65383   8.059   0.819   2.131  0.8684  0.1581  0.1137
20788SOL    HW165384   8.092   0.892   2.183  2.2199 -1.1938  1.2327
20788SOL    HW265385   8.137   0.768   2.110  0.0854 -0.3842 -1.5876
20789SOL     OW65386   5.708   4.419   2.452 -0.0668  0.1282 -0.1455
20789SOL    HW165387   5.752   4.495   2.490 -1.6990  0.8992  0.2505
20789SOL    HW265388   5.703   4.356   2.524 -1.2940  0.7826  0.3623
20790SOL     OW65389   4.337   0.457   6.208 -0.2261 -0.2905 -0.0391
20790SOL    HW165390   4.429   0.467   6.186 -0.3592  1.3074  0.0294
20790SOL    HW265391   4.325   0.508   6.288 -1.0735 -0.8502  0.2002
20791SOL     OW65392   7.575   9.327   6.871 -0.3258 -0.1795  0.1374
20791SOL    HW165393   7.495   9.286   6.838  0.1084  0.0356 -1.2196
20791SOL    HW265394   7.567   9.419   6.847 -0.0043 -0.0226  0.6289
20792SOL     OW65395   5.425   4.286   2.522  0.6242 -0.1016  0.0151
20792SOL    HW165396   5.513   4.277   2.487  0.5997  1.3295 -0.4523
20792SOL    HW265397   5.378   4.337   2.456  0.1992  1.4491  1.4526
20793SOL     OW65398   1.914   4.297   6.608  0.4797 -0.1225 -0.0498
20793SOL    HW165399   1.842   4.359   6.605 -1.2901 -2.1010  0.5919
20793SOL    HW265400   1.990   4.349   6.635 -0.2288  2.3769 -2.6295
20794SOL     OW65401   5.424   6.106   1.420 -0.6989  0.0118 -0.0899
20794SOL    HW165402   5.508   6.152   1.425 -0.2868 -0.4274 -2.3763
20794SOL    HW265403   5.435   6.042   1.350 -2.5775 -0.8502  0.3553
20795SOL     OW65404   5.873   8.057   8.510  0.0787 -0.1326  0.0350
20795SOL    HW165405   5.968   8.052   8.510  0.1071  0.2273 -1.3192
20795SOL    HW265406   5.853   8.150   8.498 -0.4446 -0.3270 -0.6153
20796SOL     OW65407   5.940   8.682   5.326  0.0973 -0.0888  0.2866
20796SOL    HW165408   6.013   8.647   5.377  1.5654  0.3613 -1.4670
20796SOL    HW265409   5.893   8.604   5.295  1.1446 -0.4458 -0.4348
20797SOL     OW65410   1.942   8.829   0.994 -0.2870 -0.5822 -0.1991
20797SOL    HW165411   1.978   8.832   0.905  0.9786  0.3922  0.3389
20797SOL    HW265412   1.924   8.736   1.009 -1.6750 -0.6418 -1.9243
20798SOL     OW65413   1.334   1.777   1.319  0.0451  0.7532 -0.1282
20798SOL    HW165414   1.329   1.740   1.231 -0.0721  0.9305 -0.1962
20798SOL    HW265415   1.427   1.797   1.332  0.1155  0.3899 -0.0730
20799SOL     OW65416   0.421   5.652   4.102 -0.1199 -0.3260  0.1405
20799SOL    HW165417   0.443   5.734   4.146 -0.2440  0.0817 -0.5412
20799SOL    HW265418   0.476   5.587   4.145 -0.3958  0.0231  1.0368
20800SOL     OW65419   7.347   9.251   5.068 -0.0316  0.0389  0.3085
20800SOL    HW165420   7.305   9.300   4.998  0.1129  1.7332  1.4008
20800SOL    HW265421   7.348   9.160   5.036 -1.1753  0.5712 -1.2926
20801SOL     OW65422   7.362   7.541   7.033 -0.2200 -0.1369 -0.6946
20801SOL    HW165423   7.422   7.615   7.036  1.2568 -1.3136 -0.0351
20801SOL    HW265424   7.386   7.488   7.110 -1.3362 -1.2034 -1.0668
20802SOL     OW65425   4.654   2.339   9.109 -0.2636  0.5753 -0.2990
20802SOL    HW165426   4.624   2.304   9.025 -0.9733  0.6258 -0.0663
20802SOL    HW265427   4.641   2.434   9.101 -0.1110  0.6034 -0.2168
20803SOL     OW65428   8.752   5.312   2.007 -0.2567 -0.5092  0.2620
20803SOL    HW165429   8.848   5.302   2.004  0.0899  2.5525 -1.3588
20803SOL    HW265430   8.722   5.270   1.926  0.0926  1.3973 -0.8996
20804SOL     OW65431   1.090   2.479   5.448  0.1366 -0.1499  0.0793
20804SOL    HW165432   1.026   2.430   5.500 -1.3392  1.3147 -0.2919
20804SOL    HW265433   1.117   2.550   5.506  1.5557 -0.8395  0.2786
20805SOL     OW65434   2.652   5.744   1.393 -0.0318  0.6559 -0.2505
20805SOL    HW165435   2.581   5.680   1.398 -0.0263  0.6176 -0.5847
20805SOL    HW265436   2.695   5.740   1.478 -0.3923  0.6341 -0.0674
20806SOL     OW65437   4.790   6.018   6.308  0.2594 -0.2841 -0.4695
20806SOL    HW165438   4.868   6.050   6.355  0.1630 -1.9094  0.8518
20806SOL    HW265439   4.736   5.977   6.376 -0.5880 -1.3825 -1.7726
20807SOL     OW65440   2.094   0.273   5.984  0.0467  0.2131 -0.1030
20807SOL    HW165441   2.153   0.225   5.926  0.9745  1.0821  0.1087
20807SOL    HW265442   2.039   0.325   5.925 -1.7964 -1.9792 -0.4076
20808SOL     OW65443   3.647   0.599   3.539  0.0403  0.1064  0.1766
20808SOL    HW165444   3.574   0.658   3.524  0.5508  0.6100 -0.3488
20808SOL    HW265445   3.641   0.577   3.632 -0.1152  1.0387  0.3879
20809SOL     OW65446   7.316   8.314   5.231 -0.6989 -0.1897  0.2751
20809SOL    HW165447   7.329   8.220   5.221 -0.7939  0.0849 -3.3867
20809SOL    HW265448   7.270   8.340   5.151  2.2211  3.4888 -0.3688
20810SOL     OW65449   4.280   1.402   7.609 -0.1187  0.3391 -0.2025
20810SOL    HW165450   4.282   1.307   7.604 -1.7238  0.2573  0.1777
20810SOL    HW265451   4.220   1.428   7.538  0.4061  1.0751 -0.3845
20811SOL     OW65452   0.147   0.855   1.502 -0.4405  0.3460 -0.2970
20811SOL    HW165453   0.159   0.882   1.593  0.3069 -1.3594  0.1313
20811SOL    HW265454   0.228   0.880   1.458 -2.0298  4.0933 -1.2749
20812SOL     OW65455   5.238   7.619   2.981  0.0623 -0.5859  0.1422
20812SOL    HW165456   5.206   7.684   2.919  2.1778 -0.7131 -1.1406
20812SOL    HW265457   5.229   7.661   3.067  1.8336  1.6129 -0.7102
20813SOL     OW65458   1.105   5.256   2.419 -0.3191 -0.3652  0.1432
20813SOL    HW165459   1.026   5.300   2.388 -0.8188 -1.5465 -0.3015
20813SOL    HW265460   1.075   5.204   2.494  0.3297  0.3063  0.8765
20814SOL     OW65461   6.496   9.143   0.295 -0.1340  0.0432 -0.0117
20814SOL    HW165462   6.413   9.095   0.295  1.1123 -2.1803  0.5141
20814SOL    HW265463   6.534   9.126   0.381  0.7511  1.2959 -0.1354
20815SOL     OW65464   1.011   2.720   7.903 -0.5897 -0.6502  0.2580
20815SOL    HW165465   0.986   2.666   7.828 -0.3064 -0.6164  0.1403
20815SOL    HW265466   0.934   2.774   7.920 -0.6967 -0.7420  0.0664
20816SOL     OW65467   8.596   3.431   1.768 -0.4732  0.3424  0.3304
20816SOL    HW165468   8.600   3.345   1.727  0.1194  1.4183 -1.9089
20816SOL    HW265469   8.615   3.414   1.861  0.9905 -1.7344 -0.3233
20817SOL     OW65470   5.079   2.881   5.723  0.0363  0.2262 -0.4946
20817SOL    HW165471   5.002   2.857   5.775 -0.6245 -0.1232 -1.6032
20817SOL    HW265472   5.093   2.805   5.665 -0.0095  1.1023 -1.6806
20818SOL     OW65473   7.654   0.908   8.433 -0.1083  0.0524  0.2816
20818SOL    HW165474   7.628   0.903   8.525 -0.1229 -2.9108  0.1746
20818SOL    HW265475   7.731   0.852   8.427  0.0098  0.3805 -1.4736
20819SOL     OW65476   0.552   6.217   0.460  0.0037  0.0193 -0.9916
20819SOL    HW165477   0.545   6.174   0.546  1.1890 -0.0428 -0.9118
20819SOL    HW265478   0.496   6.294   0.467  0.7669  0.4906  0.1522
20820SOL     OW65479   9.030   3.753   7.992  0.5356 -0.4136  0.3624
20820SOL    HW165480   9.028   3.664   7.957  1.8153  0.0327 -0.9255
20820SOL    HW265481   9.031   3.809   7.914 -0.2047  0.7244  1.1598
20821SOL     OW65482   3.280   1.463   1.175 -0.4660 -0.5219  0.1419
20821SOL    HW165483   3.353   1.418   1.218 -0.1631 -0.8065 -0.6508
20821SOL    HW265484   3.204   1.444   1.230 -0.0076 -0.5214  0.7804
20822SOL     OW65485   4.829   2.846   5.882 -0.2872  0.4577 -0.4814
20822SOL    HW165486   4.822   2.929   5.929 -1.3263 -0.6907  1.4869
20822SOL    HW265487   4.741   2.830   5.849  0.1665  0.6586 -1.8535
20823SOL     OW65488   2.692   5.690   2.378  0.5205 -0.1874  0.2142
20823SOL    HW165489   2.768   5.631   2.385  1.0286  0.2923 -1.0633
20823SOL    HW265490   2.708   5.739   2.297 -1.1960 -0.1300 -0.0945
20824SOL     OW65491   1.300   1.508   8.862 -0.0477  0.0196  0.6468
20824SOL    HW165492   1.310   1.418   8.892 -1.5554 -0.7791 -1.1116
20824SOL    HW265493   1.217   1.536   8.900  0.0696  0.4167  0.6118
20825SOL     OW65494   8.544   4.722   3.830 -0.7510  0.2153 -0.5208
20825SOL    HW165495   8.581   4.787   3.890  0.3403 -0.5954 -0.3069
20825SOL    HW265496   8.527   4.645   3.886  1.7156 -1.0958 -1.5307
20826SOL     OW65497   2.197   7.459   5.814 -0.4429 -0.0909  0.2339
20826SOL    HW165498   2.112   7.501   5.800 -1.1101 -0.8235  1.9169
20826SOL    HW265499   2.253   7.530   5.847 -1.1605 -0.1650  1.6705
20827SOL     OW65500   2.784   8.112   4.080 -0.2240  0.2799  0.3390
20827SOL    HW165501   2.702   8.104   4.128 -0.1375  0.3944  0.5060
20827SOL    HW265502   2.794   8.028   4.036 -1.7302  1.1662 -1.7726
20828SOL     OW65503   8.642   4.285   8.534 -0.1718 -0.5611  0.1261
20828SOL    HW165504   8.585   4.214   8.564 -1.4815  0.5102  0.2462
20828SOL    HW265505   8.607   4.309   8.448  0.5461 -0.3740 -0.1193
20829SOL     OW65506   3.708   8.340   5.207 -0.5018  0.4857  0.4449
20829SOL    HW165507   3.671   8.367   5.122 -0.9983  0.8650  0.7790
20829SOL    HW265508   3.655   8.386   5.272 -0.3537 -0.0833  0.9747
20830SOL     OW65509   3.031   1.690   7.640  0.7647  0.0291  0.0533
20830SOL    HW165510   3.002   1.654   7.723 -0.7614  0.5997 -0.2211
20830SOL    HW265511   3.090   1.762   7.664  1.1608 -0.4779  0.6155
20831SOL     OW65512   3.934   1.202   7.970 -0.2178 -0.0002  0.3898
20831SOL    HW165513   3.999   1.251   8.019  0.3452  0.9999 -1.3319
20831SOL    HW265514   3.879   1.161   8.038  0.4796  1.4069  1.8370
20832SOL     OW65515   8.009   7.678   4.234  0.2799  0.6957  0.0408
20832SOL    HW165516   7.921   7.642   4.224  0.1948  0.4941  1.3795
20832SOL    HW265517   7.997   7.757   4.286  0.8781  0.7153  0.1520
20833SOL     OW65518   8.226   2.002   3.524  0.4689 -0.1093  0.2527
20833SOL    HW165519   8.211   1.908   3.512  2.1438 -0.4128  0.4219
20833SOL    HW265520   8.190   2.020   3.611  1.5780 -0.9418  0.9038
20834SOL     OW65521   2.307   0.735   7.368 -0.1937  0.1043 -0.1561
20834SOL    HW165522   2.352   0.770   7.445  1.0019  1.0514 -1.2776
20834SOL    HW265523   2.289   0.643   7.391  0.3881  0.2978  1.1398
20835SOL     OW65524   9.194   4.219   4.728  0.4066  0.2611 -0.0013
20835SOL    HW165525   9.129   4.236   4.796  0.7411 -0.3687  0.4714
20835SOL    HW265526   9.255   4.157   4.767  0.9522  0.3748 -0.6585
20836SOL     OW65527   8.254   6.210   7.732 -0.1424 -0.1350 -0.4452
20836SOL    HW165528   8.192   6.137   7.730 -0.8109  0.3901  0.4524
20836SOL    HW265529   8.208   6.281   7.686 -0.6005  0.5334  0.9872
20837SOL     OW65530   6.390   8.709   2.235 -0.0836  0.6498 -0.0914
20837SOL    HW165531   6.399   8.679   2.145 -0.4302  2.7236 -0.8249
20837SOL    HW265532   6.468   8.676   2.279 -0.2338 -0.9480 -0.9683
20838SOL     OW65533   4.646   8.876   9.038 -0.2769  0.1521  0.1974
20838SOL    HW165534   4.660   8.936   9.111 -2.3217  1.8589 -0.7308
20838SOL    HW265535   4.714   8.899   8.975  0.8559 -0.6267  1.1206
20839SOL     OW65536   2.073   4.008   1.587  0.1041 -0.3005  0.6622
20839SOL    HW165537   2.076   3.921   1.546 -1.2674 -0.5752  1.0868
20839SOL    HW265538   2.056   3.990   1.680  2.8943  0.3260  1.3229
20840SOL     OW65539   2.455   7.589   2.616 -0.3463  0.0867  0.4304
20840SOL    HW165540   2.382   7.578   2.554 -1.6615 -2.2043  2.2711
20840SOL    HW265541   2.431   7.533   2.690  2.9310 -0.0903  1.4236
20841SOL     OW65542   8.201   7.487   9.079  0.3228  0.6079  0.7349
20841SOL    HW165543   8.189   7.463   8.987 -1.2880 -1.2172  1.3751
20841SOL    HW265544   8.148   7.566   9.091  0.1543  0.5750  0.1997
20842SOL     OW65545   0.693   3.456   4.104 -0.2123  0.1392 -0.3717
20842SOL    HW165546   0.717   3.369   4.137 -0.5757  0.0570 -0.3225
20842SOL    HW265547   0.598   3.455   4.102 -0.2334  0.8069  0.3356
20843SOL     OW65548   7.910   1.828   6.515  0.1163 -0.5468  0.3279
20843SOL    HW165549   7.875   1.748   6.553 -1.0967  0.7245  1.9862
20843SOL    HW265550   8.002   1.809   6.498  0.5762 -1.3856  3.4284
20844SOL     OW65551   2.635   0.439   9.372 -0.0348  0.0428 -0.2068
20844SOL    HW165552   2.614   0.352   9.337 -1.1668  1.0490 -2.0890
20844SOL    HW265553   2.571   0.454   9.441 -0.9721  0.1275 -1.0967
20845SOL     OW65554   4.392   3.580   8.556  0.3730 -0.5592 -0.3639
20845SOL    HW165555   4.447   3.598   8.480  0.8678 -4.0149 -0.8993
20845SOL    HW265556   4.340   3.504   8.531  0.0694 -1.3559  2.5081
20846SOL     OW65557   8.335   2.724   6.245  0.3858 -0.0329  0.1510
20846SOL    HW165558   8.356   2.718   6.152  0.0351  2.7655 -0.1594
20846SOL    HW265559   8.253   2.772   6.248  0.7246  0.4710  1.9371
20847SOL     OW65560   8.843   1.623   5.705  0.3284 -0.1771 -0.1735
20847SOL    HW165561   8.754   1.591   5.693  0.3650  0.0770 -1.2161
20847SOL    HW265562   8.885   1.558   5.761  0.1277 -1.4812 -1.5117
20848SOL     OW65563   8.750   8.709   0.302 -0.1505  0.2936 -0.2969
20848SOL    HW165564   8.794   8.700   0.217  0.2151 -1.0706  0.0281
20848SOL    HW265565   8.821   8.709   0.366 -0.5207 -0.3010  0.1156
20849SOL     OW65566   6.279   1.450   4.734  0.0345  0.3812 -0.1276
20849SOL    HW165567   6.281   1.359   4.762 -2.2729  0.1222 -0.7078
20849SOL    HW265568   6.250   1.447   4.643 -0.6181  1.7436  0.0190
20850SOL     OW65569   5.875   7.018   5.947  0.1210  0.2736 -0.1714
20850SOL    HW165570   5.908   7.097   5.906 -1.0914 -0.1952 -2.1099
20850SOL    HW265571   5.826   7.049   6.023 -1.3142  1.5002 -1.5532
20851SOL     OW65572   6.068   0.059   6.905 -0.6339  0.2336  0.6842
20851SOL    HW165573   6.002  -0.005   6.876  0.7971 -0.4385 -1.2318
20851SOL    HW265574   6.055   0.134   6.847  0.6588 -0.1556 -0.1424
20852SOL     OW65575   9.053   6.167   3.447  0.4232 -0.1823 -0.7710
20852SOL    HW165576   9.092   6.164   3.534 -0.3004 -1.8741 -0.4740
20852SOL    HW265577   8.961   6.144   3.462 -0.0371  0.9725 -1.8008
20853SOL     OW65578   5.239   9.138   8.278 -0.7378  0.2311  0.3172
20853SOL    HW165579   5.177   9.085   8.228 -0.0236  1.4264 -1.9093
20853SOL    HW265580   5.206   9.227   8.272  0.0187  0.5712  0.9938
20854SOL     OW65581   0.723   8.293   5.508  0.1779  0.2086 -0.4259
20854SOL    HW165582   0.657   8.332   5.451  0.1899  2.0460  0.7690
20854SOL    HW265583   0.703   8.200   5.508 -1.7643  0.6005 -0.9281
20855SOL     OW65584   8.819   2.547   2.925  0.5647  0.8645 -0.3696
20855SOL    HW165585   8.905   2.532   2.886  0.7654  2.6968 -0.6907
20855SOL    HW265586   8.824   2.508   3.012  0.8292 -1.3594 -1.3642
20856SOL     OW65587   7.103   8.630   4.253  0.3011  0.0845  0.2757
20856SOL    HW165588   7.100   8.725   4.249  1.8825  0.1047 -1.1755
20856SOL    HW265589   7.192   8.610   4.282 -0.0778 -0.9611  0.7715
20857SOL     OW65590   3.259   6.688   6.690  0.5231 -0.5566 -0.3739
20857SOL    HW165591   3.271   6.730   6.605  2.2412 -1.1162 -0.4328
20857SOL    HW265592   3.282   6.756   6.753 -1.4369  0.0769 -0.3253
20858SOL     OW65593   6.823   7.759   3.293  0.4651 -0.2597 -0.2226
20858SOL    HW165594   6.806   7.853   3.302  3.0388  0.1930  0.2571
20858SOL    HW265595   6.801   7.722   3.379  0.7436  0.1046  0.0050
20859SOL     OW65596   9.285   6.354   5.734  0.0466  0.1123 -0.0838
20859SOL    HW165597   9.316   6.424   5.677 -0.1582 -0.3345 -0.7525
20859SOL    HW265598   9.197   6.381   5.760  0.1491  0.3275  0.0407
20860SOL     OW65599   1.433   6.845   3.188  0.4228 -0.5907 -0.2697
20860SOL    HW165600   1.351   6.872   3.229  1.1598 -0.1144  0.9029
20860SOL    HW265601   1.432   6.887   3.102  1.4853  3.1296  1.4632
20861SOL     OW65602   4.877   1.405   0.248 -0.3705  0.1107 -0.3220
20861SOL    HW165603   4.905   1.356   0.171  0.2791 -0.3463  0.1882
20861SOL    HW265604   4.946   1.471   0.261  0.7212 -1.2794  1.1816
20862SOL     OW65605   4.088   0.150   8.088 -0.3809 -0.0401 -0.4013
20862SOL    HW165606   4.177   0.117   8.079  0.1412  0.7960  1.5943
20862SOL    HW265607   4.084   0.225   8.028  0.6219  0.6475  0.3898
20863SOL     OW65608   3.942   3.223   5.105 -0.4708 -0.4105 -0.0584
20863SOL    HW165609   3.962   3.283   5.177 -0.5183  0.3693 -0.6830
20863SOL    HW265610   4.026   3.184   5.083  0.1458  1.7264 -1.6732
20864SOL     OW65611   7.507   8.638   5.846 -0.5734  0.4267  0.0886
20864SOL    HW165612   7.601   8.627   5.832 -0.4315  2.2999 -0.5927
20864SOL    HW265613   7.494   8.617   5.939  0.3298 -0.8900 -0.0694
20865SOL     OW65614   8.133   9.402   0.469 -0.0683  0.4408 -0.1643
20865SOL    HW165615   8.156   9.345   0.543 -1.3889 -0.8646 -0.7326
20865SOL    HW265616   8.205   9.466   0.465  0.3031  0.1862  1.8772
20866SOL     OW65617   6.701   0.605   3.851  0.1099 -0.3361  0.6825
20866SOL    HW165618   6.691   0.672   3.918 -1.2268 -0.1491  0.3163
20866SOL    HW265619   6.673   0.524   3.894  2.3189 -0.7693  1.3133
20867SOL     OW65620   4.509   2.037   8.915 -0.2687  0.1595 -0.2631
20867SOL    HW165621   4.557   1.969   8.962 -0.7248 -0.8953 -1.3177
20867SOL    HW265622   4.577   2.084   8.865  0.0220  0.3779  0.3393
20868SOL     OW65623   4.827   2.921   5.250 -0.2464  0.4386 -0.3521
20868SOL    HW165624   4.793   2.832   5.251  1.2032 -0.1466 -1.3371
20868SOL    HW265625   4.901   2.918   5.189  0.3969  2.0965  0.3148
20869SOL     OW65626   6.061   3.110   4.173  0.3392  0.8862  0.3039
20869SOL    HW165627   6.043   3.201   4.197 -1.0778  1.0553 -1.2885
20869SOL    HW265628   5.999   3.059   4.225 -2.2288  1.2019 -2.3149
20870SOL     OW65629   3.204   0.303   8.298 -0.5216  0.1022  0.2025
20870SOL    HW165630   3.127   0.269   8.344 -2.4415  0.1554 -2.8456
20870SOL    HW265631   3.265   0.229   8.295 -0.1340  0.2576  3.2359
20871SOL     OW65632   3.328   0.749   0.149  0.6901 -0.1339  0.3955
20871SOL    HW165633   3.271   0.816   0.111 -3.7608 -0.8429  5.1461
20871SOL    HW265634   3.416   0.785   0.142 -0.9579  3.7201 -2.1222
20872SOL     OW65635   8.601   3.515   7.630  0.0439  0.3432 -0.3767
20872SOL    HW165636   8.655   3.572   7.575  0.1497  0.7839  0.1774
20872SOL    HW265637   8.511   3.540   7.610  0.0617 -0.0109 -0.8968
20873SOL     OW65638   6.028   3.007   8.114 -0.0280  0.3385 -0.1328
20873SOL    HW165639   6.073   2.924   8.100 -1.0176 -0.4997  1.6130
20873SOL    HW265640   6.087   3.057   8.170 -0.2640  0.1211  0.3042
20874SOL     OW65641   6.574   5.591   4.233  0.3950  0.1399 -0.4028
20874SOL    HW165642   6.626   5.512   4.216  1.0616  0.7957 -1.4897
20874SOL    HW265643   6.550   5.622   4.146  1.7456  2.1978 -0.0682
20875SOL     OW65644   0.099   7.250   1.614 -0.1113 -0.2329  0.1391
20875SOL    HW165645   0.153   7.244   1.692 -0.4886 -0.9462  0.3523
20875SOL    HW265646   0.145   7.312   1.557  0.6280 -0.4055  0.5502
20876SOL     OW65647   4.473   0.531   1.692  0.5676 -0.4360  0.2355
20876SOL    HW165648   4.441   0.442   1.708 -0.5336  0.1271  1.1583
20876SOL    HW265649   4.415   0.565   1.624  2.0347 -0.9931 -1.3545
20877SOL     OW65650   3.685   7.678   0.861 -0.5220  0.2178 -0.2362
20877SOL    HW165651   3.737   7.696   0.939 -0.6776  1.7860 -0.4624
20877SOL    HW265652   3.598   7.714   0.882 -0.4880  0.8970 -1.2117
20878SOL     OW65653   2.906   7.440   5.326  0.1581  0.7663 -0.6035
20878SOL    HW165654   2.848   7.470   5.256 -0.1705  0.6106 -0.4036
20878SOL    HW265655   2.870   7.355   5.351  0.6348  0.5477 -0.6594
20879SOL     OW65656   5.030   6.917   3.112 -0.2797  0.4388  0.2745
20879SOL    HW165657   5.083   6.944   3.187 -0.8219  0.2662  0.7200
20879SOL    HW265658   5.079   6.948   3.036  0.1742  0.7853  0.7050
20880SOL     OW65659   7.495   0.494   1.523 -0.0548  0.4777 -0.0308
20880SOL    HW165660   7.519   0.437   1.451 -0.5703  0.0965  0.1005
20880SOL    HW265661   7.553   0.570   1.514 -0.3780  0.6088 -1.0621
20881SOL     OW65662   9.330   7.757   0.591  0.0522 -1.2383 -0.5616
20881SOL    HW165663   9.380   7.764   0.672  0.6970 -1.2861 -0.9558
20881SOL    HW265664   9.339   7.843   0.550 -2.4238 -0.3416  0.6553
20882SOL     OW65665   6.548   1.191   5.935 -0.1923  0.6811  0.0896
20882SOL    HW165666   6.474   1.138   5.909  1.2948 -1.1309 -0.5751
20882SOL    HW265667   6.516   1.243   6.009 -1.5640 -1.4601  1.0315
20883SOL     OW65668   8.337   3.742   2.955 -0.0158 -0.6149 -0.1720
20883SOL    HW165669   8.297   3.808   2.899  3.5501  1.1363 -0.7745
20883SOL    HW265670   8.301   3.760   3.042 -1.5570  0.0353 -0.9271
20884SOL     OW65671   6.618   9.380   6.978 -0.0773  0.3145 -0.3519
20884SOL    HW165672   6.537   9.425   6.954  1.4922  2.4077 -1.8703
20884SOL    HW265673   6.662   9.439   7.038 -1.0560 -2.1996  3.0109
20885SOL     OW65674   0.758   2.088   4.708  0.3805 -0.2063 -0.2617
20885SOL    HW165675   0.764   2.164   4.765 -1.9534  0.3940 -0.7700
20885SOL    HW265676   0.787   2.119   4.623 -2.6268  0.7441 -0.9916
20886SOL     OW65677   7.771   5.029   4.102 -0.0273  0.0196  0.3779
20886SOL    HW165678   7.820   5.110   4.090  1.4315 -0.2598  3.9740
20886SOL    HW265679   7.720   5.043   4.182 -0.7978 -2.1076  0.2853
20887SOL     OW65680   5.219   6.961   0.592 -0.3640 -0.3645  0.3090
20887SOL    HW165681   5.246   7.049   0.566  1.0804 -0.4695  1.3833
20887SOL    HW265682   5.236   6.907   0.515 -0.5083  0.1543 -0.0890
20888SOL     OW65683   1.666   8.516   7.598 -0.8984  0.5868  0.4339
20888SOL    HW165684   1.579   8.509   7.560 -0.8633 -0.8062  0.6017
20888SOL    HW265685   1.722   8.465   7.540 -0.6152 -0.4621  1.6034
20889SOL     OW65686   4.381   8.371   6.183  0.4069  0.4111  0.1227
20889SOL    HW165687   4.411   8.459   6.159  1.6088 -0.1957 -0.5944
20889SOL    HW265688   4.293   8.365   6.144  1.2842  0.4121 -1.8948
20890SOL     OW65689   8.287   5.213   4.279 -0.1487  0.3033  0.1799
20890SOL    HW165690   8.297   5.270   4.355  1.2887 -0.0327  0.2500
20890SOL    HW265691   8.223   5.147   4.307  1.6717 -0.8567  1.7335
20891SOL     OW65692   8.224   0.708   2.415  0.3906  0.4887  0.2388
20891SOL    HW165693   8.253   0.620   2.389 -1.4846  0.3355 -1.5026
20891SOL    HW265694   8.277   0.767   2.363  0.3975  0.3178  0.0488
20892SOL     OW65695   6.804   9.087   4.964  0.4515 -0.1534 -0.3490
20892SOL    HW165696   6.890   9.091   5.007  0.7439  2.5088 -1.1191
20892SOL    HW265697   6.823   9.055   4.876  0.4761 -0.8673 -0.0872
20893SOL     OW65698   2.802   2.418   1.219 -0.4627  0.9704 -0.3505
20893SOL    HW165699   2.768   2.329   1.209 -1.0720  1.2279 -0.5759
20893SOL    HW265700   2.897   2.408   1.214 -0.4988  0.2405  0.3371
20894SOL     OW65701   0.495   5.131   0.886 -0.3218  0.0397  0.2556
20894SOL    HW165702   0.557   5.071   0.844 -2.8410 -2.3248 -0.1775
20894SOL    HW265703   0.517   5.217   0.849  2.5537 -0.7470 -0.0232
20895SOL     OW65704   6.688   4.906   9.422  0.0385  0.3708  0.1240
20895SOL    HW165705   6.612   4.962   9.436  0.0837  0.6980 -0.9080
20895SOL    HW265706   6.755   4.965   9.386 -0.2241 -0.5309 -1.8790
20896SOL     OW65707   3.228   6.482   4.514  0.0423  0.6256 -0.3921
20896SOL    HW165708   3.305   6.446   4.557  0.7041  0.6261 -1.5665
20896SOL    HW265709   3.160   6.415   4.527  0.0091  0.9757  1.3120
20897SOL     OW65710   6.062   0.646   8.776  0.0445 -0.0825  1.0752
20897SOL    HW165711   6.036   0.592   8.701 -1.9310  1.2290  0.7924
20897SOL    HW265712   6.003   0.618   8.846 -1.3432  2.0114  0.7879
20898SOL     OW65713   3.159   1.437   4.456 -0.6112  0.1441  0.7731
20898SOL    HW165714   3.209   1.514   4.430 -1.5065  0.7765  0.8980
20898SOL    HW265715   3.095   1.424   4.386 -0.4112 -0.5307  0.7147
20899SOL     OW65716   1.197   6.680   5.921 -0.0797  0.5660  0.1357
20899SOL    HW165717   1.210   6.602   5.976 -0.8991 -0.6519 -1.3552
20899SOL    HW265718   1.235   6.752   5.972 -0.8372 -0.5289  2.2989
20900SOL     OW65719   5.573   8.475   7.352 -0.1211 -0.1562  1.0733
20900SOL    HW165720   5.575   8.522   7.435  1.8176  0.7963  0.5203
20900SOL    HW265721   5.664   8.477   7.321 -0.6478 -1.2949 -0.6119
20901SOL     OW65722   2.934   0.304   5.243  0.1787 -0.4667  0.0696
20901SOL    HW165723   2.921   0.274   5.153 -3.3360 -0.7770  0.6115
20901SOL    HW265724   2.979   0.388   5.234 -4.1121  1.7424 -2.2473
20902SOL     OW65725   6.041   4.143   6.972  0.7222  0.0973 -0.0023
20902SOL    HW165726   6.123   4.186   6.996  0.5886  0.6892 -0.5878
20902SOL    HW265727   6.050   4.123   6.879  0.1263  0.3402 -0.1162
20903SOL     OW65728   6.623   8.697   3.295  0.1737  0.5512  0.3466
20903SOL    HW165729   6.682   8.738   3.359  0.0801  5.2909 -2.4164
20903SOL    HW265730   6.535   8.722   3.324 -0.0640 -0.2126  0.2891
20904SOL     OW65731   0.631   0.541   6.999  0.3679  0.2369  0.5235
20904SOL    HW165732   0.565   0.478   7.028  0.3878  0.6623  1.5336
20904SOL    HW265733   0.590   0.627   7.011  0.2165  0.4121 -1.1538
20905SOL     OW65734   0.271   7.657   6.034 -0.1191 -0.0638  0.2869
20905SOL    HW165735   0.302   7.569   6.056  0.5182  0.9197  3.6724
20905SOL    HW265736   0.349   7.703   6.004 -0.5075 -0.6931 -1.7624
20906SOL     OW65737   9.134   2.766   7.119  0.1437  0.1701 -0.2917
20906SOL    HW165738   9.222   2.727   7.115  0.1333  0.1692 -0.4950
20906SOL    HW265739   9.149   2.860   7.111  0.1626  0.2078  0.1661
20907SOL     OW65740   1.454   0.589   6.559  0.7348  0.5870 -0.1643
20907SOL    HW165741   1.476   0.531   6.632  0.0944 -0.3369 -0.6941
20907SOL    HW265742   1.409   0.662   6.600 -0.4333 -0.3668  0.2903
20908SOL     OW65743   1.053   2.518   3.191  0.4706  0.0166  0.2178
20908SOL    HW165744   1.088   2.476   3.270  0.3911 -1.7276 -0.6743
20908SOL    HW265745   1.085   2.465   3.119  0.5919  1.6405 -0.9606
20909SOL     OW65746   2.845   1.083   7.530  0.5259  0.0347  0.1612
20909SOL    HW165747   2.870   1.153   7.591  1.2593 -1.5649  1.7441
20909SOL    HW265748   2.927   1.055   7.491  0.2578 -0.0989 -0.3019
20910SOL     OW65749   4.926   8.786   6.221 -0.3738 -0.0251 -0.0165
20910SOL    HW165750   4.992   8.721   6.248 -0.4128  0.4344  1.2432
20910SOL    HW265751   4.973   8.846   6.164  0.1091 -0.1425  0.2532
20911SOL     OW65752   3.017   8.397   9.210 -0.4332  0.3612 -0.8644
20911SOL    HW165753   2.927   8.366   9.218  0.5203 -2.5673 -1.0068
20911SOL    HW265754   3.068   8.339   9.267  1.2679  2.5268 -0.0906
20912SOL     OW65755   4.329   3.873   4.053  0.3379  0.5506 -0.3909
20912SOL    HW165756   4.395   3.913   3.997  0.5281 -0.7291 -1.1060
20912SOL    HW265757   4.366   3.876   4.141  1.6411 -0.7564 -0.8791
20913SOL     OW65758   5.573   2.629   1.662  0.0640  0.5261  0.3525
20913SOL    HW165759   5.627   2.582   1.599  0.1868  0.2191  0.6835
20913SOL    HW265760   5.506   2.565   1.688 -0.1491  0.7384  0.3268
20914SOL     OW65761   8.893   8.110   0.148  0.3823  0.4140  0.3354
20914SOL    HW165762   8.949   8.032   0.151  0.2077  0.2529 -0.4668
20914SOL    HW265763   8.953   8.183   0.153  0.6752  0.2408 -0.6145
20915SOL     OW65764   2.240   1.545   5.224 -0.0035  0.2117  0.0652
20915SOL    HW165765   2.238   1.517   5.133  1.5041 -3.2203  1.0103
20915SOL    HW265766   2.258   1.465   5.274 -2.8741  1.5686  3.5745
20916SOL     OW65767   5.786   7.816   2.420  0.3196  0.0826 -0.0145
20916SOL    HW165768   5.733   7.880   2.466 -1.2770 -0.6323 -0.8358
20916SOL    HW265769   5.844   7.779   2.488  0.5800  1.6784  0.6416
20917SOL     OW65770   0.065   6.804   5.625  0.0245 -0.1276  0.6284
20917SOL    HW165771   0.142   6.851   5.658  0.0156  0.9012 -0.7896
20917SOL    HW265772  -0.010   6.848   5.665  0.0675  0.3246  0.2083
20918SOL     OW65773   4.082   8.181   1.368  0.1422  0.0722  0.2100
20918SOL    HW165774   4.097   8.154   1.459  0.1158 -0.9128 -0.0711
20918SOL    HW265775   4.004   8.133   1.342 -0.2872  0.9378 -0.0971
20919SOL     OW65776   7.264   6.912   3.468 -0.3586 -0.1428  0.2036
20919SOL    HW165777   7.264   7.003   3.438 -0.1180  0.4761  2.0448
20919SOL    HW265778   7.355   6.884   3.459 -0.2905  0.0358  0.3347
20920SOL     OW65779   3.406   0.878   5.218  0.0997 -0.4423  0.1427
20920SOL    HW165780   3.381   0.925   5.297 -1.5522 -1.0701  0.0184
20920SOL    HW265781   3.403   0.786   5.242  0.0784 -0.6168 -0.5099
20921SOL     OW65782   5.193   1.424   1.865 -0.3905 -0.1451 -0.4651
20921SOL    HW165783   5.137   1.494   1.834 -0.6076 -0.1666 -0.1139
20921SOL    HW265784   5.165   1.347   1.815 -1.3165 -0.3719  0.4045
20922SOL     OW65785   2.797   3.445   1.030  0.5888  0.2716 -0.3892
20922SOL    HW165786   2.757   3.520   0.985 -2.4247  1.2598  3.5892
20922SOL    HW265787   2.864   3.484   1.086  0.7254 -0.3181 -0.1383
20923SOL     OW65788   8.042   6.501   8.563  0.0631  0.0161  0.1044
20923SOL    HW165789   8.074   6.514   8.473  0.8536  0.8562  0.5004
20923SOL    HW265790   8.113   6.533   8.618 -1.5505  2.1923  0.9926
20924SOL     OW65791   8.343   7.390   0.681  0.3879 -0.5414 -0.0585
20924SOL    HW165792   8.393   7.350   0.610  1.1384 -0.7628  0.5837
20924SOL    HW265793   8.398   7.463   0.711 -0.0553 -0.2722  0.0991
20925SOL     OW65794   4.105   9.285   7.196 -0.5876  0.4035  0.2336
20925SOL    HW165795   4.177   9.222   7.190 -0.9181 -0.0570  1.0505
20925SOL    HW265796   4.102   9.310   7.288 -0.4864  1.5911 -0.0792
20926SOL     OW65797   0.227   8.503   5.545 -0.4516 -0.0988  0.4022
20926SOL    HW165798   0.247   8.420   5.504  0.4431  0.9472 -1.3456
20926SOL    HW265799   0.157   8.483   5.608 -0.9246 -1.9658 -0.6815
20927SOL     OW65800   3.723   9.222   5.000  0.6638 -0.0926 -0.3086
20927SOL    HW165801   3.802   9.168   5.001  0.1733 -0.8316  0.7347
20927SOL    HW265802   3.702   9.233   4.907  2.7871  1.3317 -0.6490
20928SOL     OW65803   7.294   8.333   2.531  0.0013  0.0752 -0.0111
20928SOL    HW165804   7.246   8.265   2.578 -0.5380  0.2275 -0.3263
20928SOL    HW265805   7.228   8.400   2.512  0.0093 -0.3685 -1.7146
20929SOL     OW65806   0.530   6.884   8.057  0.5770 -0.2198 -0.2726
20929SOL    HW165807   0.575   6.958   8.098  0.0675 -0.7393  1.2604
20929SOL    HW265808   0.601   6.828   8.025  0.9989 -0.0371  0.3268
20930SOL     OW65809   5.796   8.575   6.274 -0.0648 -0.5819 -0.5715
20930SOL    HW165810   5.710   8.536   6.284  0.8782 -2.1062  1.9314
20930SOL    HW265811   5.856   8.500   6.267  1.2879  0.4367 -0.1697
20931SOL     OW65812   1.175   0.369   1.599 -0.1966  0.1998 -0.0260
20931SOL    HW165813   1.214   0.298   1.549  1.8375  1.1616  0.1445
20931SOL    HW265814   1.233   0.444   1.584 -1.7190  1.5437  0.6375
20932SOL     OW65815   7.562   3.572   7.564 -0.3135 -0.4034 -0.6360
20932SOL    HW165816   7.504   3.645   7.543 -1.0167 -0.7892 -0.0682
20932SOL    HW265817   7.557   3.515   7.488 -0.1779 -0.1188 -0.8588
20933SOL     OW65818   8.788   6.180   2.398  0.1128  0.0848 -0.4995
20933SOL    HW165819   8.758   6.207   2.485  0.0210  0.3549 -0.6139
20933SOL    HW265820   8.870   6.134   2.413  0.1203  0.1733 -0.2734
20934SOL     OW65821   3.959   8.416   3.898 -0.0294 -0.3112  0.2321
20934SOL    HW165822   3.909   8.337   3.917  1.5076 -1.8079 -1.7413
20934SOL    HW265823   3.995   8.402   3.811  2.0026  1.6712  0.6825
20935SOL     OW65824   1.325   1.562   1.693 -0.1690 -0.0989 -0.0562
20935SOL    HW165825   1.331   1.492   1.627 -0.6678 -0.4371  0.2569
20935SOL    HW265826   1.381   1.632   1.658  1.3578 -1.1362  0.2344
20936SOL     OW65827   2.984   4.220   7.699 -0.9224  0.4801 -0.2630
20936SOL    HW165828   3.034   4.235   7.779 -1.4827  2.4514 -0.2556
20936SOL    HW265829   3.051   4.201   7.633 -0.4839 -1.5189  0.7066
20937SOL     OW65830   0.678   5.589   7.833  0.1699 -0.0733 -0.1746
20937SOL    HW165831   0.676   5.499   7.865  1.0661  0.0456  0.2177
20937SOL    HW265832   0.723   5.584   7.749 -2.9386 -0.5180 -1.9233
20938SOL     OW65833   3.295   2.223   2.063 -0.0084  0.0926  0.0512
20938SOL    HW165834   3.361   2.278   2.105  1.1968 -0.9999 -0.3796
20938SOL    HW265835   3.279   2.153   2.126 -0.5309  0.1947  0.0294
20939SOL     OW65836   5.984   6.867   7.540 -0.0382 -0.0633  0.0389
20939SOL    HW165837   6.058   6.877   7.599  0.5716 -1.4873 -0.4561
20939SOL    HW265838   5.995   6.937   7.476  0.4645  0.1929  0.4026
20940SOL     OW65839   3.624   2.989   3.038  0.5298  0.5950  0.2163
20940SOL    HW165840   3.540   2.945   3.050  1.1864 -0.8369 -0.3349
20940SOL    HW265841   3.618   3.066   3.094 -0.7245 -0.0804  1.0584
20941SOL     OW65842   1.638   7.809   3.269 -0.0023 -0.2710 -0.4466
20941SOL    HW165843   1.681   7.813   3.184  0.9060 -0.0355  0.0087
20941SOL    HW265844   1.623   7.901   3.293 -2.1959 -0.3783 -1.2941
20942SOL     OW65845   0.414   1.090   8.945  0.2237  0.2446 -0.1737
20942SOL    HW165846   0.323   1.083   8.974  0.4202  0.3539  0.4786
20942SOL    HW265847   0.465   1.065   9.022  0.8512  3.8342  0.6358
20943SOL     OW65848   5.443   3.078   3.067 -0.0438  0.0824  0.2759
20943SOL    HW165849   5.375   3.074   3.000  1.3603 -0.3731 -1.1371
20943SOL    HW265850   5.504   3.009   3.043  0.7144  0.2124  1.7777
20944SOL     OW65851   9.432   8.276   8.220 -0.3553 -0.3655  0.2517
20944SOL    HW165852   9.403   8.309   8.135  1.5113 -1.7882 -0.9661
20944SOL    HW265853   9.506   8.218   8.200 -1.1129 -2.2583  2.6675
20945SOL     OW65854   2.464   5.168   5.107  0.4917  0.1662  0.2001
20945SOL    HW165855   2.545   5.133   5.144  0.3769 -0.3304 -0.0103
20945SOL    HW265856   2.486   5.258   5.083  1.1583 -0.1366 -0.3876
20946SOL     OW65857   3.157   7.384   3.180  0.5066 -0.0027  0.1668
20946SOL    HW165858   3.195   7.373   3.093 -0.6989 -0.6172 -0.2837
20946SOL    HW265859   3.232   7.375   3.240  1.0337 -1.5163 -0.6922
20947SOL     OW65860   0.549   1.727   6.757 -0.1741 -0.0274 -0.0338
20947SOL    HW165861   0.621   1.706   6.816 -0.4141  1.0146  0.6397
20947SOL    HW265862   0.589   1.773   6.684  0.1010 -1.1755 -0.6197
20948SOL     OW65863   1.252   7.678   4.221  0.3162  0.3360 -0.1635
20948SOL    HW165864   1.322   7.691   4.284  0.9951  0.7092 -0.9896
20948SOL    HW265865   1.256   7.586   4.198  1.1903  0.5708 -0.9690
20949SOL     OW65866   7.963   7.035   7.964 -0.2287  0.4265 -0.4496
20949SOL    HW165867   8.052   7.064   7.944 -0.0511 -0.9462 -1.7469
20949SOL    HW265868   7.967   7.004   8.054  0.5724  0.4743 -0.4626
20950SOL     OW65869   1.248   8.901   8.721  0.0919 -0.3703 -0.1323
20950SOL    HW165870   1.283   8.820   8.684 -2.1257 -0.4498 -2.2575
20950SOL    HW265871   1.170   8.874   8.769  0.6663  0.2419  1.1725
20951SOL     OW65872   9.233   0.270   8.559  0.3536 -0.1938  0.1751
20951SOL    HW165873   9.298   0.283   8.628 -0.3427 -1.1765  1.0278
20951SOL    HW265874   9.149   0.283   8.602 -0.1878 -2.9732  0.0417
20952SOL     OW65875   4.050   5.396   9.047  0.4598 -0.7816  0.1426
20952SOL    HW165876   3.982   5.372   8.984  1.0993 -1.2813 -0.3589
20952SOL    HW265877   4.132   5.390   8.998  0.8105  0.5017  0.5567
20953SOL     OW65878   6.268   5.633   1.259  0.0319 -0.1793 -0.0265
20953SOL    HW165879   6.192   5.586   1.225 -0.0679  0.4631 -0.6999
20953SOL    HW265880   6.230   5.699   1.319  0.1025 -0.2946  0.1449
20954SOL     OW65881   7.210   6.367   3.011  0.1874 -0.5166 -0.2247
20954SOL    HW165882   7.152   6.395   2.940  1.2714 -3.6122 -2.4204
20954SOL    HW265883   7.276   6.436   3.016  0.9023 -0.8942 -3.2264
20955SOL     OW65884   5.945   7.881   2.180  0.3910  0.0349  0.3760
20955SOL    HW165885   5.888   7.883   2.257  0.7726 -0.1564  0.6633
20955SOL    HW265886   6.026   7.840   2.211  1.0742  1.2562  0.2436
20956SOL     OW65887   8.908   4.156   9.204  0.0101 -0.0316 -0.0545
20956SOL    HW165888   8.822   4.151   9.246  0.2218  0.4564  0.4534
20956SOL    HW265889   8.909   4.243   9.164 -0.4434 -0.7292 -1.6434
20957SOL     OW65890   2.311   8.439   5.905 -0.1181 -0.0887  0.0176
20957SOL    HW165891   2.337   8.514   5.958 -1.8142 -0.6329  1.6557
20957SOL    HW265892   2.340   8.362   5.954 -0.3942 -0.5649 -0.5463
20958SOL     OW65893   7.229   6.868   5.414  0.0030 -0.6226  0.1954
20958SOL    HW165894   7.229   6.930   5.487  1.5887 -1.0683  0.5879
20958SOL    HW265895   7.153   6.812   5.430 -1.6761  1.4188 -0.3679
20959SOL     OW65896   1.933   3.222   2.058  0.2721 -0.3512 -0.6419
20959SOL    HW165897   1.984   3.281   2.114 -0.2863 -1.4096  1.0481
20959SOL    HW265898   1.846   3.262   2.055  0.5531  0.1946 -1.5293
20960SOL     OW65899   0.917   8.729   6.175  0.3454 -0.0539 -0.1765
20960SOL    HW165900   0.901   8.720   6.269  0.6225  0.2019 -0.1026
20960SOL    HW265901   0.891   8.819   6.155  2.9530  0.8223  0.2102
20961SOL     OW65902   5.634   3.203   0.133 -0.4425 -0.3762  0.2210
20961SOL    HW165903   5.628   3.263   0.059  1.1316 -0.3019  0.1391
20961SOL    HW265904   5.647   3.117   0.093  0.6487 -0.3029  0.4047
20962SOL     OW65905   7.086   2.456   1.308  0.3908  0.9162  0.5283
20962SOL    HW165906   7.070   2.465   1.402  1.5127 -0.5312  0.8839
20962SOL    HW265907   7.085   2.546   1.275  1.1156  1.5455  2.1297
20963SOL     OW65908   7.392   7.034   7.550 -0.1050 -0.4929  0.0232
20963SOL    HW165909   7.445   6.977   7.495 -1.4125 -0.2076 -1.5565
20963SOL    HW265910   7.402   7.121   7.512  1.0782  0.1996  1.8333
20964SOL     OW65911   3.309   7.871   1.247  0.0207  0.0725 -0.1739
20964SOL    HW165912   3.377   7.899   1.186  0.0529  0.3310 -0.0231
20964SOL    HW265913   3.327   7.778   1.263  0.0285  0.0106 -0.5343
20965SOL     OW65914   0.412   7.626   2.694 -0.2965  0.6535 -0.2755
20965SOL    HW165915   0.416   7.721   2.696  0.5373  0.6466 -0.8950
20965SOL    HW265916   0.486   7.598   2.748 -0.7253  0.3557  0.1606
20966SOL     OW65917   7.010   2.582   0.181  0.5431  0.3885  0.0102
20966SOL    HW165918   6.957   2.653   0.146 -1.1426 -1.5272 -1.3948
20966SOL    HW265919   6.951   2.535   0.240  0.3396 -2.2832 -2.2350
20967SOL     OW65920   0.009   2.128   4.727 -0.2918 -0.2194  0.3621
20967SOL    HW165921  -0.085   2.123   4.710 -0.4733 -1.3481  1.5971
20967SOL    HW265922   0.033   2.218   4.705 -1.2601 -0.4916 -1.9204
20968SOL     OW65923   4.538   2.518   7.035  0.0081  0.4424 -0.7530
20968SOL    HW165924   4.626   2.492   7.009 -0.3560 -0.9969 -0.5690
20968SOL    HW265925   4.537   2.613   7.023  1.2355  0.3418 -1.7906
20969SOL     OW65926   8.315   3.031   0.903 -0.1474 -0.1013 -0.6004
20969SOL    HW165927   8.368   2.972   0.956  1.9542  1.8366 -0.4756
20969SOL    HW265928   8.339   3.010   0.812  0.1830  0.1902 -0.5793
20970SOL     OW65929   5.931   0.184   4.115 -0.1991 -0.0698 -0.1443
20970SOL    HW165930   5.952   0.132   4.037 -1.7286  0.1482 -0.7118
20970SOL    HW265931   6.011   0.181   4.167  0.7931 -0.3630 -1.6379
20971SOL     OW65932   4.352   2.687   6.755 -0.0663  0.0976  0.4544
20971SOL    HW165933   4.365   2.755   6.822 -0.4526  0.4021  0.2220
20971SOL    HW265934   4.385   2.607   6.796 -1.4733  0.0353  1.4913
20972SOL     OW65935   4.149   2.092   1.606 -0.6514  0.6725 -0.0697
20972SOL    HW165936   4.166   2.186   1.603  0.2380  0.4768 -1.4424
20972SOL    HW265937   4.082   2.077   1.539 -0.1791  0.2068 -0.4432
20973SOL     OW65938   2.392   8.726   2.408  0.3123  0.2435 -0.2527
20973SOL    HW165939   2.433   8.663   2.349  0.0136  1.6065 -1.9594
20973SOL    HW265940   2.447   8.725   2.486  1.3548 -0.7724 -0.9880
20974SOL     OW65941   5.713   3.892   2.417  0.2763 -0.0093 -0.7836
20974SOL    HW165942   5.789   3.853   2.459  0.0974  1.4036  0.9389
20974SOL    HW265943   5.646   3.823   2.420  0.9805 -0.7038 -0.8405
20975SOL     OW65944   6.631   0.400   3.646 -0.0699 -0.0850 -0.1738
20975SOL    HW165945   6.663   0.346   3.719  0.1791 -0.7654 -0.7817
20975SOL    HW265946   6.586   0.339   3.589 -0.5912  0.5165 -0.4087
20976SOL     OW65947   4.091   7.278   3.335  0.2452 -0.3760  0.0721
20976SOL    HW165948   4.015   7.274   3.393 -0.4534  0.4134 -0.7511
20976SOL    HW265949   4.103   7.372   3.319  1.1540 -0.5241 -0.1066
20977SOL     OW65950   3.261   6.095   6.654 -0.2368 -0.1980 -0.1081
20977SOL    HW165951   3.341   6.045   6.668  0.0264 -0.3195 -1.9341
20977SOL    HW265952   3.242   6.084   6.561 -2.1273  0.2002  0.2094
20978SOL     OW65953   6.692   3.355   6.521 -0.4935  0.0654 -0.4365
20978SOL    HW165954   6.732   3.407   6.591 -2.2117 -0.7661  1.2065
20978SOL    HW265955   6.726   3.266   6.535 -0.4049  0.0034 -1.0169
20979SOL     OW65956   8.256   8.038   0.422 -0.1297 -0.3591 -0.4092
20979SOL    HW165957   8.346   8.006   0.411 -0.1509 -0.6516  0.1940
20979SOL    HW265958   8.201   7.971   0.382 -0.1358 -0.7267  0.2066
20980SOL     OW65959   5.888   2.787   2.182 -0.0718 -0.0394 -0.0192
20980SOL    HW165960   5.814   2.748   2.136 -0.7110  0.0070  0.9624
20980SOL    HW265961   5.849   2.856   2.236  0.7261  0.1856  0.2743
20981SOL     OW65962   7.855   3.275   6.503  0.2479  0.2674  0.0826
20981SOL    HW165963   7.775   3.249   6.456 -0.0202  1.2159 -0.0028
20981SOL    HW265964   7.926   3.238   6.452  0.0765  3.1460 -2.3587
20982SOL     OW65965   5.647   6.600   2.827  0.1058  0.5201  0.6368
20982SOL    HW165966   5.686   6.513   2.834  0.3366  0.8601  5.1326
20982SOL    HW265967   5.555   6.584   2.808  0.3146 -0.6841  0.5827
20983SOL     OW65968   7.326   8.157   3.973  0.2523  0.0125 -0.1348
20983SOL    HW165969   7.315   8.244   4.011 -1.2324 -0.2900  0.1297
20983SOL    HW265970   7.255   8.105   4.009 -0.6228 -0.5515 -2.5546
20984SOL     OW65971   8.219   3.603   4.261  0.2069 -0.3639  0.5656
20984SOL    HW165972   8.186   3.513   4.261  0.2446 -0.3798  0.7863
20984SOL    HW265973   8.213   3.630   4.353  0.5138 -0.2575  0.5545
20985SOL     OW65974   1.719   5.275   4.502 -0.4876 -0.1530  0.1021
20985SOL    HW165975   1.630   5.273   4.467 -0.8396 -0.8740  1.0209
20985SOL    HW265976   1.723   5.201   4.563  0.4326  0.4532  0.8017
20986SOL     OW65977   3.060   7.316   6.767 -0.2538  0.3419 -0.2057
20986SOL    HW165978   3.102   7.390   6.812 -1.1894  1.3950 -1.0129
20986SOL    HW265979   3.130   7.253   6.751  0.6061  1.1725  0.2918
20987SOL     OW65980   4.388   7.671   1.901 -0.0871 -0.4087  0.0645
20987SOL    HW165981   4.420   7.686   1.990 -1.5076 -0.7562  0.6467
20987SOL    HW265982   4.401   7.578   1.886  2.4896  0.0787 -1.0563
20988SOL     OW65983   2.456   4.232   0.790 -0.1665 -0.4657  0.3941
20988SOL    HW165984   2.400   4.188   0.853 -0.3123 -2.3133 -0.9975
20988SOL    HW265985   2.399   4.247   0.714 -0.5524  3.4927  1.3539
20989SOL     OW65986   2.538   0.997   2.905 -0.5513  0.0462  0.5119
20989SOL    HW165987   2.462   1.037   2.863 -1.0610 -0.1998  1.1994
20989SOL    HW265988   2.605   0.995   2.836 -1.2581 -0.0080 -0.1784
20990SOL     OW65989   9.400   0.932   4.731  0.0090 -0.4837  0.2774
20990SOL    HW165990   9.453   0.934   4.811 -0.3074 -0.7352  0.4941
20990SOL    HW265991   9.407   0.842   4.700 -1.3025 -0.8442  0.9896
20991SOL     OW65992   1.203   4.524   9.241 -0.1790  0.6504 -0.2383
20991SOL    HW165993   1.239   4.590   9.301 -0.0732  1.1231 -0.8231
20991SOL    HW265994   1.278   4.471   9.216 -0.0879  0.9297 -0.5597
20992SOL     OW65995   6.620   3.758   5.584 -0.3463  0.3602  0.0866
20992SOL    HW165996   6.645   3.844   5.550  3.3531  0.4815  2.7146
20992SOL    HW265997   6.631   3.766   5.679  0.9764 -3.2094  0.3245
20993SOL     OW65998   5.053   4.415   7.954 -0.1687  0.0053 -0.0499
20993SOL    HW165999   5.137   4.459   7.942 -0.0766 -0.1869 -0.1063
20993SOL    HW266000   5.072   4.323   7.940 -0.7249  0.1390 -1.7607
20994SOL     OW66001   6.710   7.531   2.499  0.1643 -0.4609 -0.1837
20994SOL    HW166002   6.733   7.619   2.528 -0.2386 -0.9477  1.6952
20994SOL    HW266003   6.614   7.532   2.494  0.2194 -0.4180 -1.4471
20995SOL     OW66004   7.441   5.418   3.233 -0.1973  0.2691  0.0587
20995SOL    HW166005   7.526   5.440   3.194  0.1273 -0.1794  0.4900
20995SOL    HW266006   7.448   5.325   3.253 -0.6777  0.3010  0.3875
20996SOL     OW66007   1.351   6.059   9.170 -0.1943 -0.5240 -0.1552
20996SOL    HW166008   1.380   6.143   9.206  1.1138 -0.7559 -0.6591
20996SOL    HW266009   1.309   6.014   9.244  0.2969  0.0101  0.4498
20997SOL     OW66010   7.554   7.289   3.914 -0.9080 -0.5348  0.6983
20997SOL    HW166011   7.568   7.210   3.862 -1.8568  0.4448 -1.1044
20997SOL    HW266012   7.636   7.302   3.962  1.1219  0.1763 -2.8160
20998SOL     OW66013   4.854   2.575   5.522 -0.0439  0.6138 -0.1571
20998SOL    HW166014   4.840   2.588   5.428 -1.6330  1.2130  0.1440
20998SOL    HW266015   4.835   2.483   5.536  2.0744  0.0568 -0.7237
20999SOL     OW66016   0.731   3.941   7.760 -0.3325  0.8197 -0.0591
20999SOL    HW166017   0.768   3.923   7.846 -0.1390 -1.7754 -0.6200
20999SOL    HW266018   0.805   3.973   7.708 -0.2462  1.4962  0.4729
21000SOL     OW66019   4.750   6.992   5.357 -0.0119  0.3221  0.1205
21000SOL    HW166020   4.819   7.057   5.344 -0.4418  0.6446 -0.5944
21000SOL    HW266021   4.668   7.042   5.348 -0.4101 -0.8049 -3.3996
21001SOL     OW66022   0.671   8.872   0.007 -0.5331  0.2673  0.1009
21001SOL    HW166023   0.581   8.842   0.019 -0.5012  0.1837  0.1279
21001SOL    HW266024   0.662   8.960  -0.029 -0.6214  0.0030 -0.5222
21002SOL     OW66025   0.356   6.842   8.530  0.4894 -0.3133  0.1833
21002SOL    HW166026   0.373   6.910   8.465  1.6028  2.0613  2.8429
21002SOL    HW266027   0.418   6.772   8.508  0.5754  0.2752 -1.5041
21003SOL     OW66028   9.434   5.074   5.554  0.8760 -0.7641  0.0474
21003SOL    HW166029   9.456   5.162   5.524 -1.5015 -0.2258 -0.2563
21003SOL    HW266030   9.381   5.088   5.633  0.6851 -1.9188  0.1338
21004SOL     OW66031   2.444   2.361   2.927  0.0083 -0.0062  0.2741
21004SOL    HW166032   2.441   2.311   3.009  0.5353 -0.0981  0.2404
21004SOL    HW266033   2.353   2.369   2.900  0.0098 -2.0968 -0.4076
21005SOL     OW66034   0.499   8.964   2.424 -0.6831 -0.2675 -0.2339
21005SOL    HW166035   0.579   9.014   2.410 -0.9756  0.5119  0.8550
21005SOL    HW266036   0.501   8.941   2.517 -1.6016 -0.4683 -0.2613
21006SOL     OW66037   7.710   0.657   1.592  0.0506 -0.3484 -0.0248
21006SOL    HW166038   7.676   0.655   1.681 -1.0263  0.3474 -0.3991
21006SOL    HW266039   7.753   0.742   1.584 -0.1000 -0.2916 -0.2471
21007SOL     OW66040   4.419   0.376   7.333  0.3509 -0.2624  0.5286
21007SOL    HW166041   4.376   0.440   7.275  1.8077  0.1637 -0.1096
21007SOL    HW266042   4.376   0.293   7.312  0.4300 -0.0022 -0.7365
21008SOL     OW66043   0.609   1.613   0.363  0.3997  0.2650 -0.6678
21008SOL    HW166044   0.539   1.576   0.308 -1.6457  0.2985  1.8179
21008SOL    HW266045   0.630   1.697   0.321  0.2874 -0.5871 -2.5043
21009SOL     OW66046   5.325   3.692   6.326 -0.0529 -0.1359  0.1081
21009SOL    HW166047   5.303   3.686   6.419  0.4297  0.4389  0.2622
21009SOL    HW266048   5.373   3.612   6.307  2.3699  1.0333  1.0573
21010SOL     OW66049   4.696   8.030   4.377  0.1399  0.4457 -0.7174
21010SOL    HW166050   4.772   7.990   4.419 -1.8038 -0.8407  1.6323
21010SOL    HW266051   4.682   8.111   4.426 -0.4941  0.2773 -0.6210
21011SOL     OW66052   2.028   5.295   4.055  0.4869  0.3490  0.0213
21011SOL    HW166053   2.122   5.293   4.035  0.4934  1.2504 -0.0692
21011SOL    HW266054   2.021   5.247   4.138  1.3022  1.9550  1.0528
21012SOL     OW66055   0.196   0.312   4.008  0.1596 -0.3411  0.5472
21012SOL    HW166056   0.106   0.288   3.987 -0.7840  2.7954  0.7783
21012SOL    HW266057   0.192   0.344   4.099  1.5906 -0.5735  0.7065
21013SOL     OW66058   4.683   7.181   4.488  0.3635  0.2312 -0.3178
21013SOL    HW166059   4.679   7.144   4.399  0.6366 -0.4034 -0.0691
21013SOL    HW266060   4.708   7.107   4.543 -1.0996  0.3094  0.4835
21014SOL     OW66061   0.687   1.636   2.642  0.1196  0.1634 -0.4500
21014SOL    HW166062   0.767   1.688   2.653  0.1414  0.4292 -1.7373
21014SOL    HW266063   0.622   1.699   2.611 -0.3501 -0.2321 -0.2708
21015SOL     OW66064   0.406   2.630   0.970 -0.1620  0.2214 -0.1780
21015SOL    HW166065   0.469   2.624   0.898  1.8240 -0.0302  1.5240
21015SOL    HW266066   0.407   2.543   1.010 -1.1257  0.4026  0.2490
21016SOL     OW66067   3.051   7.461   2.062 -0.0439 -0.3312 -0.4028
21016SOL    HW166068   3.084   7.382   2.105 -0.7515 -1.0915 -1.2381
21016SOL    HW266069   3.120   7.526   2.075 -0.4148 -0.4069  2.2484
21017SOL     OW66070   5.860   2.221   9.205  0.8234  0.1896  0.2510
21017SOL    HW166071   5.772   2.184   9.208  0.6906  0.4117 -0.7639
21017SOL    HW266072   5.848   2.310   9.174  1.5952 -0.4467 -1.9972
21018SOL     OW66073   8.028   1.875   0.075 -0.1457  0.5659 -0.1595
21018SOL    HW166074   7.948   1.824   0.064 -0.6995  1.2726  0.5108
21018SOL    HW266075   8.030   1.897   0.169  1.0026  0.2820 -0.1056
21019SOL     OW66076   0.114   0.891   7.934 -0.1601  0.1295  0.1948
21019SOL    HW166077   0.094   0.802   7.907  1.5021  0.3505 -1.8964
21019SOL    HW266078   0.189   0.882   7.994  0.9889  0.2047 -1.1990
21020SOL     OW66079   4.748   2.464   1.793  1.0638  0.5813  0.3609
21020SOL    HW166080   4.732   2.383   1.743 -0.6329 -0.4185  2.4745
21020SOL    HW266081   4.815   2.439   1.857 -1.1826  0.1371  2.6101
21021SOL     OW66082   1.420   4.327   3.865 -0.5231  1.1680  0.0242
21021SOL    HW166083   1.481   4.260   3.833 -2.3931 -0.4559 -0.1896
21021SOL    HW266084   1.457   4.354   3.949  0.0160 -0.4458  0.3245
21022SOL     OW66085   3.619   2.837   9.328  0.3374  0.2019  0.2287
21022SOL    HW166086   3.608   2.799   9.415  0.7413 -0.9907 -0.2338
21022SOL    HW266087   3.573   2.777   9.269  2.6660 -0.6602 -0.7479
21023SOL     OW66088   4.876   6.724   1.124  0.3316 -0.0866  0.6031
21023SOL    HW166089   4.828   6.807   1.133  1.1023  0.3470  0.7984
21023SOL    HW266090   4.931   6.737   1.047 -0.8385 -1.0808 -0.4286
21024SOL     OW66091   5.064   1.159   7.854 -0.0537 -0.3721  0.1071
21024SOL    HW166092   5.017   1.132   7.775  1.2906  0.6305 -1.0685
21024SOL    HW266093   5.002   1.145   7.925 -0.5115 -3.3765 -0.8484
21025SOL     OW66094   0.709   3.636   3.368  0.5512 -0.6291  0.1188
21025SOL    HW166095   0.692   3.655   3.276  2.1035  1.6109  0.2450
21025SOL    HW266096   0.789   3.584   3.368 -0.3180 -1.9828  0.1292
21026SOL     OW66097   4.885   6.364   1.550  0.1918 -0.1716 -0.1736
21026SOL    HW166098   4.903   6.309   1.626  0.0261  1.2687  0.9114
21026SOL    HW266099   4.808   6.324   1.509 -0.4031 -0.2930  1.0524
21027SOL     OW66100   0.725   9.383   4.875  0.1441  0.2461 -0.4914
21027SOL    HW166101   0.731   9.288   4.868  0.1859  0.1782  0.5107
21027SOL    HW266102   0.730   9.414   4.784 -0.6913 -0.7528 -0.8827
21028SOL     OW66103   4.710   5.631   0.691  0.1747  0.2881  0.1585
21028SOL    HW166104   4.681   5.669   0.773 -1.7071  0.0510 -0.3737
21028SOL    HW266105   4.773   5.693   0.656 -1.5952  2.1163  0.1137
21029SOL     OW66106   6.485   5.587   3.310  0.2357 -0.3365  0.2098
21029SOL    HW166107   6.394   5.605   3.331 -0.0185 -1.1887 -0.1419
21029SOL    HW266108   6.496   5.617   3.220  0.1946 -0.5807  0.1213
21030SOL     OW66109   1.059   5.073   0.658 -0.1291  0.1859 -0.3628
21030SOL    HW166110   1.015   4.994   0.627  0.0896 -0.4200  0.8478
21030SOL    HW266111   1.145   5.070   0.617 -0.5782  0.4506 -1.3250
21031SOL     OW66112   6.030   1.083   7.434  0.1842  0.0110 -0.7424
21031SOL    HW166113   6.106   1.100   7.378  0.2037  1.7073 -0.2182
21031SOL    HW266114   5.959   1.062   7.374 -0.3227  3.7883 -1.5744
21032SOL     OW66115   8.671   9.127   1.235  0.0397 -0.9618 -0.1034
21032SOL    HW166116   8.710   9.112   1.148  1.8391  2.0818  0.1307
21032SOL    HW266117   8.599   9.188   1.219 -0.3849 -1.3109  0.4286
21033SOL     OW66118   0.617   4.572   3.506 -0.0329 -0.2939 -0.2674
21033SOL    HW166119   0.642   4.610   3.590  0.5423 -1.8564  0.2920
21033SOL    HW266120   0.618   4.477   3.521 -0.6572 -0.5727 -1.8315
21034SOL     OW66121   8.342   4.947   2.074  0.1043  0.2622  0.3454
21034SOL    HW166122   8.285   5.024   2.077 -1.5142 -0.9319  0.8006
21034SOL    HW266123   8.323   4.899   2.155  1.2994 -0.4788  0.2052
21035SOL     OW66124   0.755   6.520   0.678 -0.1243  0.1325 -0.2794
21035SOL    HW166125   0.712   6.461   0.741 -0.6732 -0.3964 -1.1290
21035SOL    HW266126   0.837   6.475   0.656  0.0761  0.3265  0.0760
21036SOL     OW66127   4.103   3.008   7.354  0.1715  0.1725 -0.3692
21036SOL    HW166128   4.044   2.944   7.394 -0.2425  1.4702  1.1234
21036SOL    HW266129   4.045   3.072   7.313  0.5881 -0.4084 -1.9358
21037SOL     OW66130   1.498   0.707   4.058  0.9665 -0.4862  0.1375
21037SOL    HW166131   1.578   0.687   4.107  2.3879 -0.5758 -2.1172
21037SOL    HW266132   1.509   0.661   3.974 -0.9533  0.3844 -0.6287
21038SOL     OW66133   3.907   2.205   0.330 -0.4275 -0.1701 -0.1337
21038SOL    HW166134   3.865   2.213   0.415 -1.2233 -3.2650 -0.1829
21038SOL    HW266135   3.994   2.169   0.349  0.9971  2.9970 -0.3285
21039SOL     OW66136   2.240   0.345   5.666 -0.4953  0.2272 -0.0671
21039SOL    HW166137   2.294   0.281   5.621  1.2799  0.6701  1.3660
21039SOL    HW266138   2.215   0.408   5.599  0.0767 -0.4450 -0.9078
21040SOL     OW66139   8.302   0.098   5.349 -0.6667 -0.2655 -0.6688
21040SOL    HW166140   8.364   0.070   5.281  1.1722  0.4063  0.6766
21040SOL    HW266141   8.218   0.061   5.321 -0.2910  1.2064 -4.0378
21041SOL     OW66142   7.307   5.017   9.361  0.4183 -0.1448 -0.3973
21041SOL    HW166143   7.378   5.068   9.323  0.6963 -1.5025 -1.7503
21041SOL    HW266144   7.230   5.041   9.310  0.6660 -1.4941 -1.4251
21042SOL     OW66145   7.610   9.016   6.630 -0.2312  0.0936  0.0292
21042SOL    HW166146   7.613   8.929   6.589  0.8008  1.0063 -1.9441
21042SOL    HW266147   7.696   9.027   6.671 -0.2701  0.2601  0.0684
21043SOL     OW66148   1.521   6.878   7.065 -0.5811  0.4200 -0.2947
21043SOL    HW166149   1.473   6.958   7.043 -3.2506 -1.2166 -0.6378
21043SOL    HW266150   1.491   6.813   7.001  1.3917 -0.9418  0.0979
21044SOL     OW66151   4.556   8.061   0.893  0.3516  0.5265 -0.2663
21044SOL    HW166152   4.581   7.969   0.902  0.3766  0.6647  1.1444
21044SOL    HW266153   4.631   8.102   0.849 -0.0298 -0.2777 -1.7260
21045SOL     OW66154   0.507   1.044   8.697  0.1455 -0.0013  0.5119
21045SOL    HW166155   0.593   1.004   8.706 -0.6187 -1.5049  1.4291
21045SOL    HW266156   0.487   1.076   8.785  0.7737  2.4843 -0.2319
21046SOL     OW66157   3.084   4.315   0.670 -0.2451 -0.2985 -0.1642
21046SOL    HW166158   3.110   4.262   0.746 -4.5183 -1.0550  0.8728
21046SOL    HW266159   3.087   4.255   0.596  0.0244 -0.6261  0.1093
21047SOL     OW66160   0.241   4.853   9.247  0.2890 -0.0044  0.1395
21047SOL    HW166161   0.176   4.921   9.261 -0.2686 -0.2621 -1.0748
21047SOL    HW266162   0.226   4.790   9.317  0.4154  0.8152  0.9160
21048SOL     OW66163   1.390   7.497   6.151  0.1554  0.0086  0.0526
21048SOL    HW166164   1.421   7.417   6.108  1.6111  0.7961 -0.4135
21048SOL    HW266165   1.465   7.526   6.204 -0.5281  0.7849  0.6004
21049SOL     OW66166   2.212   9.032   3.036  0.4212 -0.0141  0.2907
21049SOL    HW166167   2.128   9.020   2.992  1.8244 -2.1844 -1.9530
21049SOL    HW266168   2.265   9.081   2.974  1.8909 -1.6481  0.2097
21050SOL     OW66169   2.795   3.925   6.519 -0.8939  0.0315  0.2025
21050SOL    HW166170   2.756   3.886   6.596  0.0163 -1.1614  0.0800
21050SOL    HW266171   2.727   3.980   6.482 -2.1124 -1.2482  0.5275
21051SOL     OW66172   5.575   3.562   5.648 -0.0001 -0.2117  0.0365
21051SOL    HW166173   5.520   3.553   5.570 -1.6073  1.5146  0.9301
21051SOL    HW266174   5.631   3.637   5.630 -0.8140  0.5903  0.7614
21052SOL     OW66175   1.602   1.789   1.283 -0.0900  0.1977  0.1923
21052SOL    HW166176   1.607   1.701   1.319  1.1738  0.2319  0.1160
21052SOL    HW266177   1.634   1.846   1.353  0.5045  0.4519 -0.2837
21053SOL     OW66178   7.423   5.801   1.309 -0.4394  0.3300  0.3084
21053SOL    HW166179   7.482   5.726   1.319 -1.5000 -0.6753 -0.7026
21053SOL    HW266180   7.477   5.868   1.267  0.9293  0.6805  2.5569
21054SOL     OW66181   3.128   5.350   7.396  0.6983 -0.1599  0.4065
21054SOL    HW166182   3.142   5.363   7.490 -0.2957  0.8384  0.4260
21054SOL    HW266183   3.044   5.391   7.378  0.5528 -0.9644 -0.8008
21055SOL     OW66184   4.311   0.944   7.496  0.1967 -0.3976  0.0284
21055SOL    HW166185   4.339   0.866   7.543 -0.0982 -0.5359 -0.0250
21055SOL    HW266186   4.344   0.931   7.407 -0.1340 -0.6119 -0.0628
21056SOL     OW66187   3.674   7.080   1.724 -0.2428 -0.0022  0.2060
21056SOL    HW166188   3.589   7.123   1.732 -1.1666 -1.8740  0.9155
21056SOL    HW266189   3.653   6.991   1.695  1.3806 -0.8447  1.5143
21057SOL     OW66190   6.637   0.374   4.017 -0.4264 -0.1679 -0.6479
21057SOL    HW166191   6.588   0.295   3.991 -0.5506 -1.0272  2.0550
21057SOL    HW266192   6.592   0.405   4.095  0.7686  1.5298 -0.6251
21058SOL     OW66193   5.345   6.822   3.366 -0.8319 -0.0112 -0.0993
21058SOL    HW166194   5.415   6.880   3.395 -0.2369  0.0278 -1.5587
21058SOL    HW266195   5.299   6.797   3.446 -0.4677  1.6651  0.6536
21059SOL     OW66196   7.905   5.637   8.943  0.4202  0.3072  0.3796
21059SOL    HW166197   7.969   5.708   8.949  0.2016  0.4644  0.8140
21059SOL    HW266198   7.861   5.651   8.859  0.5088  0.5689  0.3781
21060SOL     OW66199   3.973   1.244   6.024 -0.2741 -0.2875 -0.4461
21060SOL    HW166200   3.929   1.278   5.946 -1.9072  1.3399  1.1329
21060SOL    HW266201   3.918   1.171   6.052 -1.2325  0.8485  0.7086
21061SOL     OW66202   6.548   4.839   3.378  0.7124  0.1742  0.0077
21061SOL    HW166203   6.576   4.924   3.346  2.0705 -0.1279  0.3552
21061SOL    HW266204   6.577   4.777   3.310 -0.0417 -0.0389 -0.1258
21062SOL     OW66205   0.705   4.373   7.396 -0.0092  0.3805 -0.1136
21062SOL    HW166206   0.638   4.356   7.463 -0.9246 -0.1817 -1.1439
21062SOL    HW266207   0.731   4.463   7.410 -2.5086  1.2929 -0.9864
21063SOL     OW66208   1.103   3.916   1.260  0.1642 -0.3187  0.0762
21063SOL    HW166209   1.146   3.948   1.181  0.4752  0.0130  0.3780
21063SOL    HW266210   1.009   3.925   1.241  0.2475  1.5555  0.4641
21064SOL     OW66211   7.121   1.127   8.983 -0.7088 -0.0556 -0.0220
21064SOL    HW166212   7.104   1.039   8.950  3.1064 -1.1885  0.7352
21064SOL    HW266213   7.187   1.163   8.923 -1.3647  1.8458  0.3594
21065SOL     OW66214   7.341   7.176   4.073 -0.7169 -0.5344 -0.3772
21065SOL    HW166215   7.431   7.207   4.083 -1.5470  1.7691  0.3552
21065SOL    HW266216   7.324   7.181   3.979 -0.7196  0.9707 -0.3117
21066SOL     OW66217   6.490   2.747   8.830 -0.5336  0.2531 -0.0542
21066SOL    HW166218   6.412   2.763   8.883 -0.8623 -0.8001 -0.2251
21066SOL    HW266219   6.460   2.690   8.759  0.2962  0.1962 -0.3653
21067SOL     OW66220   1.259   6.279   8.721  0.3177 -0.4383  0.6622
21067SOL    HW166221   1.168   6.309   8.724  0.0683 -0.9820 -0.8236
21067SOL    HW266222   1.263   6.223   8.644  1.4775 -1.9064  1.7543
21068SOL     OW66223   2.873   8.004   8.051 -0.2785 -0.2571 -0.4713
21068SOL    HW166224   2.885   8.062   8.126 -0.3918 -1.9290  0.8637
21068SOL    HW266225   2.801   8.043   8.001  0.5652  1.4927 -0.3544
21069SOL     OW66226   7.020   3.815   9.377 -0.2838  0.6931  0.1401
21069SOL    HW166227   6.968   3.794   9.455  0.7922 -0.1794  0.6403
21069SOL    HW266228   6.966   3.786   9.303  0.3934 -2.2823  0.7423
21070SOL     OW66229   8.428   4.642   4.954  0.6954  0.1750  0.0850
21070SOL    HW166230   8.421   4.633   4.858  0.3576  0.4738  0.0779
21070SOL    HW266231   8.383   4.565   4.988 -1.0330  1.1331  0.0160
21071SOL     OW66232   4.892   7.706   4.856 -0.2958 -0.7766  0.6127
21071SOL    HW166233   4.806   7.735   4.886 -0.4179 -1.2573  0.7431
21071SOL    HW266234   4.872   7.636   4.792  0.0228 -2.3327  2.1740
21072SOL     OW66235   6.664   7.953   4.341 -0.0324  0.2441 -0.1036
21072SOL    HW166236   6.584   8.006   4.341  0.1365  0.4950 -0.6605
21072SOL    HW266237   6.724   8.002   4.398 -0.3055 -0.0024  0.4059
21073SOL     OW66238   3.817   3.178   2.314 -0.2475  0.2043 -0.0398
21073SOL    HW166239   3.821   3.115   2.386  0.4990  0.2220 -0.0661
21073SOL    HW266240   3.818   3.124   2.235  0.0789  0.2365 -0.0570
21074SOL     OW66241   3.000   8.598   0.162 -0.6300  0.2711 -0.2159
21074SOL    HW166242   3.020   8.659   0.233  1.3033 -1.2023  0.5335
21074SOL    HW266243   3.057   8.623   0.090 -0.3913 -0.1669 -0.1816
21075SOL     OW66244   4.744   6.119   3.969  0.4796 -0.4239 -0.0297
21075SOL    HW166245   4.736   6.181   3.896  1.0166 -0.9051 -0.4937
21075SOL    HW266246   4.668   6.061   3.960  0.7195 -0.6824 -0.3924
21076SOL     OW66247   1.911   9.097   1.890  0.0331 -0.3032 -0.0919
21076SOL    HW166248   2.004   9.095   1.915 -0.0308 -1.2365  0.0632
21076SOL    HW266249   1.869   9.144   1.962  0.4041  0.2693 -0.2385
21077SOL     OW66250   6.224   5.732   6.980  0.1552  0.0893 -0.0122
21077SOL    HW166251   6.310   5.741   7.020  1.5458 -1.0468 -2.6960
21077SOL    HW266252   6.222   5.798   6.910 -1.9347  1.4581  1.2528
21078SOL     OW66253   6.317   2.760   3.054  0.3160  0.1173  0.3385
21078SOL    HW166254   6.345   2.782   2.965 -1.6116  1.5084  0.0394
21078SOL    HW266255   6.351   2.672   3.069  0.4371 -0.2385 -1.8811
21079SOL     OW66256   8.123   1.383   4.059 -0.3740 -0.3442 -0.1700
21079SOL    HW166257   8.218   1.384   4.069 -0.2926  0.7109 -0.9151
21079SOL    HW266258   8.091   1.439   4.130 -0.3204  0.6250 -0.8954
21080SOL     OW66259   8.870   1.403   4.915  0.1832 -0.2140 -0.1670
21080SOL    HW166260   8.953   1.359   4.933  0.4781  0.4655  0.1257
21080SOL    HW266261   8.889   1.496   4.926 -0.8515 -0.1174  0.8167
21081SOL     OW66262   2.294   2.843   8.201 -0.5149 -0.3349  0.4839
21081SOL    HW166263   2.236   2.899   8.149  0.7055  2.3136  1.8362
21081SOL    HW266264   2.374   2.838   8.148  0.3820  1.5768  1.5921
21082SOL     OW66265   6.833   4.273   5.798  0.5171 -1.1055  0.3023
21082SOL    HW166266   6.775   4.350   5.796  0.4726 -1.1205  0.8728
21082SOL    HW266267   6.892   4.285   5.724 -0.1148 -1.0047 -0.1884
21083SOL     OW66268   8.373   4.807   6.150 -0.2492 -0.1799  0.3551
21083SOL    HW166269   8.375   4.853   6.066 -0.5514  2.8586  1.9148
21083SOL    HW266270   8.285   4.772   6.156 -0.2210 -0.4246 -0.6092
21084SOL     OW66271   8.865   8.021   8.196  0.3324  0.0060 -0.3960
21084SOL    HW166272   8.895   8.058   8.279  0.4856  0.2454 -0.5536
21084SOL    HW266273   8.807   7.949   8.220  1.9975 -1.2460 -0.0767
21085SOL     OW66274   0.480   4.719   2.861  0.7064  0.1284 -0.2373
21085SOL    HW166275   0.528   4.802   2.855  1.4232 -0.2973 -0.4196
21085SOL    HW266276   0.490   4.679   2.775  0.5029 -0.2275 -0.0979
21086SOL     OW66277   8.975   8.487   7.715  0.3476  0.2212  0.4096
21086SOL    HW166278   8.985   8.577   7.747 -2.1944  0.6844  0.0037
21086SOL    HW266279   8.891   8.487   7.670  0.1382 -2.4783  0.7240
21087SOL     OW66280   3.255   4.889   8.806 -0.3148 -0.1729 -0.3275
21087SOL    HW166281   3.295   4.951   8.867 -1.7152  0.9160 -0.5006
21087SOL    HW266282   3.253   4.936   8.722 -1.0852 -0.5788 -0.5386
21088SOL     OW66283   2.875   1.332   6.242 -0.2680  0.3742  0.2985
21088SOL    HW166284   2.869   1.246   6.284 -1.6882  0.3190  0.0057
21088SOL    HW266285   2.860   1.394   6.314  1.1517  0.3997  0.5856
21089SOL     OW66286   6.906   8.247   0.176 -0.1825 -0.8981  0.3884
21089SOL    HW166287   6.989   8.252   0.129  0.0393 -0.1736  0.8515
21089SOL    HW266288   6.894   8.335   0.212 -0.3870 -1.4300  1.6231
21090SOL     OW66289   2.353   3.788   6.948  0.0903  0.1949  0.5810
21090SOL    HW166290   2.391   3.813   6.864 -0.0233 -0.4653  0.3308
21090SOL    HW266291   2.396   3.845   7.011 -1.2394  2.0650 -0.1476
21091SOL     OW66292   1.688   7.650   2.986 -0.8859 -0.4351 -0.1457
21091SOL    HW166293   1.658   7.574   2.937  0.5054 -2.1935  1.6507
21091SOL    HW266294   1.770   7.675   2.943 -0.1180 -1.4416  0.6927
21092SOL     OW66295   2.359   9.390   3.961 -0.2945  0.0906  0.1131
21092SOL    HW166296   2.344   9.440   4.042 -2.8350  1.4721 -1.1567
21092SOL    HW266297   2.394   9.454   3.900  0.8191 -0.7615 -0.1464
21093SOL     OW66298   0.922   8.014   9.398 -0.1525 -0.4261  0.0937
21093SOL    HW166299   0.909   7.960   9.321  0.1178 -2.0581  1.1679
21093SOL    HW266300   0.990   7.969   9.448  1.4760  1.9393  0.0810
21094SOL     OW66301   7.666   2.265   7.261 -0.1097  0.3183 -0.4957
21094SOL    HW166302   7.622   2.185   7.232  2.1529 -1.0429 -0.2902
21094SOL    HW266303   7.601   2.310   7.315 -1.5154 -1.2302 -0.8512
21095SOL     OW66304   5.240   8.362   7.147  0.0404  0.6996 -0.3555
21095SOL    HW166305   5.213   8.270   7.156  1.1162  0.2657 -1.4195
21095SOL    HW266306   5.195   8.392   7.068 -0.3449  1.1075  0.0190
21096SOL     OW66307   6.985   4.829   6.018 -0.1696  0.2866 -0.1079
21096SOL    HW166308   6.977   4.735   6.002 -1.0743  0.8250 -3.2068
21096SOL    HW266309   6.918   4.848   6.084 -0.1358 -1.1875  0.3722
21097SOL     OW66310   5.600   9.231   0.835 -0.1433  0.3682 -0.4392
21097SOL    HW166311   5.569   9.315   0.868 -0.8125 -0.2485  0.5404
21097SOL    HW266312   5.531   9.169   0.859  0.2923 -0.4439 -1.2461
21098SOL     OW66313   9.014   5.202   8.788  0.0168  0.1772 -0.3636
21098SOL    HW166314   9.100   5.244   8.799 -0.8544  1.8456  0.2670
21098SOL    HW266315   8.951   5.272   8.805 -1.4911 -1.4412  0.8541
21099SOL     OW66316   6.234   5.359   3.913  0.7564  0.7688  0.2590
21099SOL    HW166317   6.154   5.407   3.933  0.3239  0.4286 -0.6340
21099SOL    HW266318   6.208   5.267   3.912  0.6255  0.7986 -2.3887
21100SOL     OW66319   1.922   0.960   6.203  0.4294 -0.5417 -0.0746
21100SOL    HW166320   1.893   1.007   6.281 -0.7940  0.6701 -1.2557
21100SOL    HW266321   1.922   0.868   6.230 -0.7085 -0.1983  1.1339
21101SOL     OW66322   3.530   5.272   5.948 -0.4074  0.1588 -0.3668
21101SOL    HW166323   3.486   5.210   6.007  1.2064 -0.9731 -0.3035
21101SOL    HW266324   3.588   5.217   5.896  1.4130  1.6737 -0.0005
21102SOL     OW66325   2.105   0.169   4.484 -0.0371  0.7164  0.2699
21102SOL    HW166326   2.048   0.240   4.514 -2.0066 -1.5229  1.9690
21102SOL    HW266327   2.133   0.125   4.564  1.4684 -0.2132 -0.7368
21103SOL     OW66328   0.450   3.316   0.371 -0.1023 -0.3150 -0.3108
21103SOL    HW166329   0.377   3.262   0.402 -0.2692  0.0026 -0.1432
21103SOL    HW266330   0.528   3.263   0.387 -0.1385  0.0248  1.1159
21104SOL     OW66331   1.591   3.051   6.132  0.6459 -0.6643  0.7781
21104SOL    HW166332   1.575   2.956   6.136  0.7524 -0.6895  0.6473
21104SOL    HW266333   1.523   3.084   6.072  1.0959 -0.7757  0.1960
21105SOL     OW66334   4.859   9.007   4.829 -0.3240 -0.2455 -0.2276
21105SOL    HW166335   4.832   8.942   4.894 -1.2593  2.2393  1.9583
21105SOL    HW266336   4.919   9.065   4.876  2.0865 -0.6650 -2.6996
21106SOL     OW66337   9.080   2.436   7.055  0.4254  0.1686  0.1747
21106SOL    HW166338   9.152   2.479   7.101  0.9491  0.1660 -0.6325
21106SOL    HW266339   9.123   2.370   7.000 -0.1894  0.1441 -0.2815
21107SOL     OW66340   3.113   3.367   3.240  0.0618 -0.2656 -0.3846
21107SOL    HW166341   3.084   3.332   3.325  0.1060  0.0026 -0.2567
21107SOL    HW266342   3.083   3.458   3.240  1.9669  0.4005  0.2914
21108SOL     OW66343   8.401   3.515   2.557 -0.2556 -0.2142 -0.0768
21108SOL    HW166344   8.412   3.533   2.650 -1.5471  0.8758 -0.1135
21108SOL    HW266345   8.480   3.549   2.516  1.2366 -2.5149  0.8342
21109SOL     OW66346   0.613   4.267   5.073  0.6723  0.1150 -0.3129
21109SOL    HW166347   0.542   4.265   5.138 -0.5016  2.6981 -1.4446
21109SOL    HW266348   0.629   4.175   5.052  0.0617 -0.6880  2.5245
21110SOL     OW66349   7.072   4.711   0.794 -0.2903  0.1015  0.2300
21110SOL    HW166350   7.149   4.761   0.766 -0.8059  0.4991 -0.4955
21110SOL    HW266351   7.083   4.700   0.888  1.9146 -2.0273 -0.2442
21111SOL     OW66352   6.728   8.842   4.196 -0.1419  0.0776  0.1051
21111SOL    HW166353   6.645   8.858   4.241 -0.2421 -0.1916  0.0186
21111SOL    HW266354   6.789   8.903   4.236 -0.8595  1.7043 -1.1987
21112SOL     OW66355   3.310   9.318   5.583 -0.0673 -0.1872  0.0612
21112SOL    HW166356   3.315   9.355   5.672  0.5133 -2.7900  1.1565
21112SOL    HW266357   3.226   9.348   5.550 -0.7246  0.0361  1.8514
21113SOL     OW66358   2.752   1.002   2.736  0.2892  0.0850  0.3126
21113SOL    HW166359   2.800   0.924   2.709 -0.7132 -0.3070 -0.3365
21113SOL    HW266360   2.786   1.072   2.681  0.0316 -0.2156 -0.2250
21114SOL     OW66361   6.956   7.142   5.544 -0.6709  0.1197 -0.2207
21114SOL    HW166362   7.044   7.114   5.568 -0.3749  0.1791 -1.2345
21114SOL    HW266363   6.964   7.173   5.454 -1.3987  1.6218  0.2197
21115SOL     OW66364   2.346   9.200   5.998 -0.0625  0.2632  0.1471
21115SOL    HW166365   2.317   9.284   6.033 -0.1562  0.8436 -1.2701
21115SOL    HW266366   2.402   9.224   5.923 -1.6153 -0.9481 -1.4262
21116SOL     OW66367   8.374   6.858   5.971 -0.0536  0.1406 -0.0789
21116SOL    HW166368   8.285   6.848   5.938  0.8235 -1.1473 -2.1513
21116SOL    HW266369   8.417   6.914   5.906  1.2231 -1.0164 -0.2570
21117SOL     OW66370   1.329   8.942   6.731  0.6920  0.1250  0.3096
21117SOL    HW166371   1.299   8.931   6.821  0.5891  0.9730  0.3911
21117SOL    HW266372   1.333   8.854   6.695 -2.1572 -0.0049  0.2130
21118SOL     OW66373   9.038   1.715   7.094 -0.2104  0.1489  0.5584
21118SOL    HW166374   9.048   1.639   7.036 -0.5608  0.1043  0.5542
21118SOL    HW266375   9.003   1.678   7.175 -3.1210  0.6646 -0.4087
21119SOL     OW66376   1.953   5.964   3.971  0.0932  0.2524  0.2032
21119SOL    HW166377   1.981   5.900   3.905  0.2573  0.8658 -0.3233
21119SOL    HW266378   2.034   5.987   4.018  0.2289  0.9353 -0.3633
21120SOL     OW66379   7.182   8.858   2.465 -0.5762 -0.0303 -0.2455
21120SOL    HW166380   7.173   8.807   2.545  1.2537 -1.3865 -0.8599
21120SOL    HW266381   7.273   8.843   2.437 -0.2049  3.0116 -0.8194
21121SOL     OW66382   7.630   0.716   9.289 -0.1441 -0.0724 -0.1317
21121SOL    HW166383   7.602   0.784   9.350  1.6360 -0.7306  1.4949
21121SOL    HW266384   7.551   0.690   9.242 -0.7545  3.4385 -1.1343
21122SOL     OW66385   0.295   4.917   7.362  0.4558  0.1701  0.3449
21122SOL    HW166386   0.291   4.836   7.412 -0.0632 -0.1376 -0.1850
21122SOL    HW266387   0.205   4.930   7.331  0.9373 -0.0857 -1.2038
21123SOL     OW66388   8.193   8.377   7.979 -0.1081  0.4034 -1.3288
21123SOL    HW166389   8.158   8.453   7.932 -0.3429  0.4736 -1.0378
21123SOL    HW266390   8.243   8.414   8.051  1.3239  0.3264 -2.2562
21124SOL     OW66391   5.492   0.004   7.406 -0.1526 -0.2384 -0.3536
21124SOL    HW166392   5.445   0.067   7.461 -0.8349  0.0451 -1.2712
21124SOL    HW266393   5.543  -0.048   7.469  0.3234  1.1355  0.4263
21125SOL     OW66394   3.473   4.586   1.742  0.0264  0.0393 -0.0534
21125SOL    HW166395   3.517   4.528   1.804 -1.2938  0.6364  1.4611
21125SOL    HW266396   3.382   4.587   1.770  0.2673  3.9351  0.8404
21126SOL     OW66397   6.570   2.868   0.229  1.0546  0.2029  1.0451
21126SOL    HW166398   6.511   2.938   0.202 -1.6538 -1.9526  1.0969
21126SOL    HW266399   6.567   2.870   0.324  1.2799  0.2425  1.0520
21127SOL     OW66400   3.233   2.075   0.320  0.7264  0.3034 -0.3742
21127SOL    HW166401   3.170   2.012   0.354  1.2629  0.5665  1.1443
21127SOL    HW266402   3.319   2.037   0.340  1.0709  2.1071  1.8005
21128SOL     OW66403   8.462   4.268   8.303  0.2522  0.6299  0.1183
21128SOL    HW166404   8.380   4.220   8.310  0.3538  0.3390 -0.6306
21128SOL    HW266405   8.490   4.255   8.212  2.0508 -0.7768  0.8379
21129SOL     OW66406   1.926   0.551   8.526 -0.2128  0.0912  0.2485
21129SOL    HW166407   1.945   0.541   8.619  0.2021  0.7560  0.2375
21129SOL    HW266408   1.958   0.470   8.486  0.0103 -0.0028  0.6200
21130SOL     OW66409   8.805   3.585   1.365  0.3810 -0.3216  0.0387
21130SOL    HW166410   8.819   3.668   1.410  0.4554 -0.3499  0.0679
21130SOL    HW266411   8.848   3.520   1.422  0.7210 -0.3219 -0.2175
21131SOL     OW66412   2.100   2.382   7.535  0.0296  0.3244 -0.0244
21131SOL    HW166413   2.096   2.354   7.626 -1.7100  1.3925  0.2581
21131SOL    HW266414   2.090   2.301   7.485  0.7325 -0.2353  0.7301
21132SOL     OW66415   4.112   8.360   6.055  0.3722  0.3707 -0.3646
21132SOL    HW166416   4.037   8.415   6.076  0.2978  1.6823 -3.8179
21132SOL    HW266417   4.083   8.271   6.075 -1.7151  0.9629 -0.6657
21133SOL     OW66418   5.674   1.908   3.407  0.3766  0.0028  0.5840
21133SOL    HW166419   5.596   1.958   3.382  0.6752  1.1434  1.8784
21133SOL    HW266420   5.742   1.974   3.420  1.5675 -0.9921 -0.5328
21134SOL     OW66421   2.987   7.516   2.554 -0.7628  0.1388  0.0471
21134SOL    HW166422   3.016   7.440   2.605 -0.3147  0.1670 -0.1679
21134SOL    HW266423   2.903   7.488   2.516  0.1936 -0.8573 -1.3731
21135SOL     OW66424   3.133   0.909   0.549  0.0288 -0.0853 -0.1026
21135SOL    HW166425   3.131   0.825   0.502  1.6400  0.6724 -1.5638
21135SOL    HW266426   3.224   0.918   0.577  0.0716  1.6523 -0.8003
21136SOL     OW66427   0.366   5.750   4.931 -0.6448 -0.3703 -0.3056
21136SOL    HW166428   0.292   5.738   4.991  0.8307 -1.8188  1.2727
21136SOL    HW266429   0.376   5.666   4.887  0.3935 -0.3610 -0.1073
21137SOL     OW66430   5.220   0.915   1.371  0.0357  0.2055  0.1170
21137SOL    HW166431   5.306   0.888   1.406 -1.0772 -2.9901  0.5824
21137SOL    HW266432   5.240   0.948   1.284  1.7172 -0.7977  0.0859
21138SOL     OW66433   2.147   6.677   1.746 -0.3846  0.1620 -0.1579
21138SOL    HW166434   2.215   6.619   1.710  0.9281  1.3346  0.3939
21138SOL    HW266435   2.068   6.655   1.696  1.0910  0.9198 -2.9408
21139SOL     OW66436   2.693   1.918   3.076 -0.7965  0.1927 -0.0680
21139SOL    HW166437   2.775   1.879   3.045 -2.1838 -2.4479 -0.6156
21139SOL    HW266438   2.699   1.914   3.171  0.2458  1.2488 -0.0735
21140SOL     OW66439   6.787   8.611   6.425  0.5861 -0.0581 -0.3074
21140SOL    HW166440   6.734   8.690   6.435  2.8710  1.2431  2.2159
21140SOL    HW266441   6.802   8.604   6.330  1.6592  3.4436 -0.4680
21141SOL     OW66442   2.757   6.201   7.500 -0.2768 -0.0337 -0.1858
21141SOL    HW166443   2.672   6.174   7.535 -0.2525  0.4036  0.2237
21141SOL    HW266444   2.739   6.282   7.453  0.1859  0.9669  1.3182
21142SOL     OW66445   6.542   1.127   3.243  0.3449  0.4808  0.1131
21142SOL    HW166446   6.565   1.148   3.334  0.7177 -2.0369  0.6470
21142SOL    HW266447   6.461   1.176   3.227  1.9298  3.4526  0.7215
21143SOL     OW66448   7.344   1.343   5.155  0.4216  0.0078 -0.1315
21143SOL    HW166449   7.384   1.262   5.123  2.1387  0.7422  0.1059
21143SOL    HW266450   7.250   1.329   5.144  0.6773 -2.1147  0.1509
21144SOL     OW66451   9.275   3.291   7.125  0.1734  0.4707  0.3809
21144SOL    HW166452   9.225   3.369   7.098 -0.0227  0.5919  1.0964
21144SOL    HW266453   9.287   3.302   7.219 -0.0125 -0.4582  0.5109
21145SOL     OW66454   4.175   9.314   2.061 -0.2658 -0.3110 -0.6697
21145SOL    HW166455   4.229   9.268   2.126  0.7783  1.2031 -0.4524
21145SOL    HW266456   4.197   9.272   1.978  0.3938 -0.4752 -0.4182
21146SOL     OW66457   5.611   8.883   4.158 -0.0586 -0.2548 -0.1689
21146SOL    HW166458   5.586   8.798   4.121  0.0864  0.2166 -1.3736
21146SOL    HW266459   5.528   8.921   4.187 -0.2845 -0.2733 -0.7796
21147SOL     OW66460   1.201   5.514   5.711 -0.2887 -0.1345 -0.2753
21147SOL    HW166461   1.113   5.506   5.673 -0.4064 -1.3728  0.2161
21147SOL    HW266462   1.207   5.440   5.772  0.7828  0.4399  0.3297
21148SOL     OW66463   0.130   4.237   2.459 -0.6926  0.1947  0.0713
21148SOL    HW166464   0.111   4.267   2.548 -1.0704  1.2023 -0.3393
21148SOL    HW266465   0.170   4.150   2.471 -0.0455  0.6397  1.2520
21149SOL     OW66466   0.099   5.677   6.704 -0.1353 -0.4042 -0.3122
21149SOL    HW166467   0.125   5.648   6.616 -1.9313 -1.4301 -0.5179
21149SOL    HW266468   0.181   5.682   6.752  0.9951  1.0591 -2.3075
21150SOL     OW66469   9.299   5.951   5.799 -0.0674  0.0350 -0.0057
21150SOL    HW166470   9.345   6.025   5.761 -1.7655 -0.6616 -3.6727
21150SOL    HW266471   9.209   5.981   5.809 -0.3829 -0.9491  0.2197
21151SOL     OW66472   3.617   5.521   6.869 -0.0646 -0.2031 -0.0858
21151SOL    HW166473   3.569   5.595   6.905  3.2938  0.2326  3.8729
21151SOL    HW266474   3.558   5.446   6.881 -1.9556  1.1745 -0.5909
21152SOL     OW66475   5.382   2.076   0.262 -0.6746  0.5669 -0.2636
21152SOL    HW166476   5.368   1.997   0.210  1.1261  1.0346 -1.5157
21152SOL    HW266477   5.463   2.059   0.311  0.0409  1.8387 -0.9824
21153SOL     OW66478   5.481   1.887   7.448 -0.3980  0.0392  0.3703
21153SOL    HW166479   5.568   1.905   7.413 -1.2314  2.2562 -0.6224
21153SOL    HW266480   5.494   1.884   7.543  0.4649  2.1286  0.3421
21154SOL     OW66481   8.882   1.630   2.416  0.2567 -0.0967  0.2515
21154SOL    HW166482   8.882   1.541   2.452  0.2733  0.6431  2.1365
21154SOL    HW266483   8.901   1.686   2.491 -0.4322  1.5577 -0.7896
21155SOL     OW66484   3.294   0.060   9.414 -0.3420 -0.3477 -0.0932
21155SOL    HW166485   3.361   0.082   9.479  0.0748 -1.6947 -0.0473
21155SOL    HW266486   3.343   0.044   9.333 -0.6187 -1.1472 -0.1071
21156SOL     OW66487   1.482   1.361   4.399 -0.3135  0.0870  0.1092
21156SOL    HW166488   1.521   1.322   4.321 -0.2726  0.6923 -0.1755
21156SOL    HW266489   1.387   1.357   4.383 -0.3697 -1.0760  0.6543
21157SOL     OW66490   8.992   1.225   7.308 -0.5375 -0.8562 -0.2865
21157SOL    HW166491   9.030   1.238   7.395  1.8305 -2.1869 -1.0888
21157SOL    HW266492   9.038   1.149   7.273 -0.4316  0.5194 -3.2827
21158SOL     OW66493   1.607   3.337   7.889  0.1876  0.0115 -0.1788
21158SOL    HW166494   1.581   3.338   7.796  0.7770  0.1583 -0.3457
21158SOL    HW266495   1.663   3.260   7.897  1.3706  0.8555 -0.2899
21159SOL     OW66496   0.810   2.122   8.730 -0.0048  0.2934 -0.3590
21159SOL    HW166497   0.847   2.105   8.643  0.5087 -0.9113  0.0904
21159SOL    HW266498   0.873   2.083   8.791  0.0607  1.8616  0.6054
21160SOL     OW66499   3.075   3.074   0.418 -0.4999 -0.2640 -0.0710
21160SOL    HW166500   3.127   3.079   0.338  0.6223 -1.8068  0.5175
21160SOL    HW266501   3.036   3.161   0.427  0.4835  0.3593 -1.5322
21161SOL     OW66502   1.830   6.757   7.171 -0.0428  0.4309 -0.6565
21161SOL    HW166503   1.815   6.849   7.147  0.0866  0.8342  0.7802
21161SOL    HW266504   1.751   6.731   7.217 -0.2993 -0.3524 -1.5298
21162SOL     OW66505   8.665   0.033   0.661 -0.0099 -1.1659  0.4893
21162SOL    HW166506   8.732  -0.024   0.698 -0.1887 -1.8291 -0.1990
21162SOL    HW266507   8.646   0.096   0.731 -0.5246 -2.5518  1.6073
21163SOL     OW66508   7.276   6.975   9.230 -0.1721 -0.1972 -0.1734
21163SOL    HW166509   7.280   6.928   9.147 -1.5554  1.8241 -1.4398
21163SOL    HW266510   7.332   7.052   9.218 -1.4501  0.8237  0.2685
21164SOL     OW66511   0.983   7.199   2.594  0.5943  0.0750  0.0286
21164SOL    HW166512   0.889   7.198   2.610  0.4498  0.1922 -0.7895
21164SOL    HW266513   1.003   7.290   2.572  0.9170  0.0715  0.3024
21165SOL     OW66514   3.296   3.651   6.332  0.3207  0.0885 -0.7954
21165SOL    HW166515   3.246   3.605   6.264  0.0363  0.1266 -0.6115
21165SOL    HW266516   3.383   3.612   6.327 -0.1526 -1.1232 -0.0318
21166SOL     OW66517   8.215   8.202   6.976 -0.3430 -0.1529 -0.4737
21166SOL    HW166518   8.305   8.194   7.009 -0.4444 -0.2250 -0.2155
21166SOL    HW266519   8.216   8.281   6.922  0.3126 -1.1089 -1.8807
21167SOL     OW66520   3.830   9.053   8.723  0.0387  0.2049 -0.0651
21167SOL    HW166521   3.883   9.094   8.655  2.1867 -0.1073  1.4077
21167SOL    HW266522   3.841   8.959   8.709  1.5004  0.1251  1.4492
21168SOL     OW66523   7.364   3.660   2.058  0.3361 -0.4709 -0.3900
21168SOL    HW166524   7.277   3.633   2.030 -1.1498  2.7282  0.8939
21168SOL    HW266525   7.367   3.754   2.040  3.1005 -0.3038  0.7039
21169SOL     OW66526   0.625   6.386   2.199  0.0903 -0.0299  0.3178
21169SOL    HW166527   0.623   6.464   2.143 -1.5653 -0.1595  0.1753
21169SOL    HW266528   0.655   6.418   2.284  1.6576  0.3403 -0.3558
21170SOL     OW66529   4.281   1.832   7.230  0.5571  0.3357  0.0352
21170SOL    HW166530   4.254   1.778   7.155  0.8818  0.0080  0.1515
21170SOL    HW266531   4.358   1.879   7.199 -0.0721  1.1957 -0.2613
21171SOL     OW66532   7.406   0.726   4.366 -0.2743 -0.2044 -0.2120
21171SOL    HW166533   7.442   0.773   4.442  0.5236 -2.1885  0.6726
21171SOL    HW266534   7.363   0.650   4.404 -2.3478  0.2661 -1.5655
21172SOL     OW66535   5.279   6.391   1.289  0.0252  0.2177  0.0180
21172SOL    HW166536   5.203   6.441   1.318  1.2624  1.8036  0.6076
21172SOL    HW266537   5.315   6.353   1.370 -1.6904 -2.8355 -0.5683
21173SOL     OW66538   4.318   8.366   4.626 -0.2117 -0.1315  0.0777
21173SOL    HW166539   4.226   8.381   4.604 -0.1794 -0.4392 -0.2782
21173SOL    HW266540   4.317   8.291   4.684 -0.1139 -0.6619 -0.6062
21174SOL     OW66541   9.287   7.281   6.706 -0.0737 -0.0050 -0.0937
21174SOL    HW166542   9.216   7.221   6.684  1.3707 -1.3782 -1.1595
21174SOL    HW266543   9.280   7.352   6.642  1.0383 -1.4419 -1.8629
21175SOL     OW66544   8.156   8.492   1.990 -0.4792  0.8093  0.2119
21175SOL    HW166545   8.200   8.462   1.911 -0.4795 -0.9472  0.8525
21175SOL    HW266546   8.208   8.457   2.062 -1.8289  0.3273  0.9796
21176SOL     OW66547   6.668   1.307   6.966  0.2424  0.1867 -0.1658
21176SOL    HW166548   6.585   1.261   6.954 -0.4761  1.2581  0.5669
21176SOL    HW266549   6.646   1.382   7.022  1.5171  1.0133 -0.7386
21177SOL     OW66550   5.041   6.555   4.523  0.0430 -0.4141  0.2140
21177SOL    HW166551   4.957   6.564   4.568 -0.1089  0.8553 -0.3137
21177SOL    HW266552   5.107   6.575   4.589 -0.2666  4.9918 -0.9245
21178SOL     OW66553   8.306   0.459   6.516 -0.1277  0.2443  0.5464
21178SOL    HW166554   8.239   0.525   6.532 -1.4598 -0.4333 -2.0156
21178SOL    HW266555   8.260   0.375   6.526  1.0284 -0.2870  1.5923
21179SOL     OW66556   8.428   5.694   5.215 -0.3578 -0.3354  0.4413
21179SOL    HW166557   8.441   5.782   5.180  0.2435 -0.6066 -0.0190
21179SOL    HW266558   8.517   5.662   5.233 -0.6573 -0.1527  2.3296
21180SOL     OW66559   5.411   2.462   3.791  0.0640  0.1775 -0.5531
21180SOL    HW166560   5.365   2.486   3.871 -0.0902  0.2795 -0.6722
21180SOL    HW266561   5.503   2.458   3.817  0.1025  1.0064 -0.5560
21181SOL     OW66562   1.017   9.364   9.149  0.1107 -0.0642  0.1402
21181SOL    HW166563   0.938   9.395   9.106 -1.0991 -1.8887  0.9591
21181SOL    HW266564   0.986   9.331   9.234  1.6013 -1.5157  0.1485
21182SOL     OW66565   8.464   3.021   5.346  0.0805  0.1261 -0.3159
21182SOL    HW166566   8.529   3.081   5.308 -0.3712  0.2826 -0.8422
21182SOL    HW266567   8.483   3.022   5.440 -0.9973  2.3917 -0.0991
21183SOL     OW66568   0.206   2.678   1.369 -0.1024  0.0842  0.3576
21183SOL    HW166569   0.256   2.732   1.308 -0.0119 -0.4740 -0.0575
21183SOL    HW266570   0.270   2.616   1.404 -0.8111 -1.5537 -1.2353
21184SOL     OW66571   4.088   8.858   7.355  0.6761  0.0095 -0.3819
21184SOL    HW166572   4.055   8.792   7.294 -0.9825  0.9310 -0.5071
21184SOL    HW266573   4.122   8.807   7.429 -2.7848 -0.9749  0.6408
21185SOL     OW66574   1.206   3.296   0.847  0.7017 -0.3017  0.0343
21185SOL    HW166575   1.289   3.332   0.818  0.1700  1.8259  1.0158
21185SOL    HW266576   1.193   3.333   0.935 -0.8359 -1.3069  0.2562
21186SOL     OW66577   0.301   1.225   7.164 -0.7825 -0.1114 -0.0500
21186SOL    HW166578   0.297   1.132   7.144 -1.0674 -0.4262  1.4208
21186SOL    HW266579   0.300   1.229   7.260 -1.5398  1.4257 -0.1074
21187SOL     OW66580   1.711   6.056   1.295 -0.4521  0.2403  0.4795
21187SOL    HW166581   1.772   6.101   1.236  1.6804  1.1948  3.2674
21187SOL    HW266582   1.756   5.974   1.317 -0.1959  0.9032  2.4775
21188SOL     OW66583   6.441   7.544   6.559  0.0145  0.3341 -0.6761
21188SOL    HW166584   6.448   7.451   6.539 -0.9956 -0.2126  1.3387
21188SOL    HW266585   6.347   7.562   6.555  0.2238  1.3415 -1.3011
21189SOL     OW66586   2.125   7.676   8.821 -0.0032 -0.5751 -0.5910
21189SOL    HW166587   2.125   7.611   8.890 -2.5238 -0.0454 -0.0665
21189SOL    HW266588   2.178   7.637   8.751  1.7795 -1.4974  1.2395
21190SOL     OW66589   3.325   5.632   6.739 -0.0712 -0.4962 -0.1582
21190SOL    HW166590   3.419   5.652   6.735  0.1394 -1.3596  0.3818
21190SOL    HW266591   3.286   5.689   6.673  0.7249  0.5136  0.2385
21191SOL     OW66592   3.577   2.388   7.507  0.5540 -0.2666 -0.6221
21191SOL    HW166593   3.541   2.304   7.535  1.1984  0.1344  1.5013
21191SOL    HW266594   3.659   2.397   7.556  0.6863  1.4253 -1.0998
21192SOL     OW66595   5.512   9.344   6.877 -0.2380 -0.6334  0.4279
21192SOL    HW166596   5.578   9.282   6.908  0.1521  0.3139  1.5573
21192SOL    HW266597   5.468   9.374   6.956 -0.0469  0.9307 -0.0269
21193SOL     OW66598   4.828   2.693   6.683 -0.0256  0.3313  0.0001
21193SOL    HW166599   4.767   2.756   6.722 -0.6771 -1.2246  1.5503
21193SOL    HW266600   4.809   2.696   6.589 -2.6904 -0.3119  0.4905
21194SOL     OW66601   6.457   5.956   8.106  0.3763 -0.7031  0.6160
21194SOL    HW166602   6.550   5.975   8.112  0.0199  0.8533  1.3785
21194SOL    HW266603   6.436   5.965   8.013  0.5441  1.0963  0.7414
21195SOL     OW66604   2.575   8.696   7.303  0.3791  0.1266  0.0638
21195SOL    HW166605   2.635   8.769   7.319  0.1079  0.8207 -1.9555
21195SOL    HW266606   2.488   8.736   7.301  0.1004 -0.4608  0.3289
21196SOL     OW66607   7.559   3.371   7.347  1.1061  0.1407  0.2956
21196SOL    HW166608   7.510   3.307   7.295  0.7535  0.7903 -0.1662
21196SOL    HW266609   7.646   3.373   7.306  1.8615 -1.7159  1.6865
21197SOL     OW66610   8.016   5.160   6.311 -0.9116 -0.2750 -0.2553
21197SOL    HW166611   8.069   5.226   6.267 -1.4852  0.1227 -0.3491
21197SOL    HW266612   7.926   5.178   6.282 -0.7456 -2.8663 -2.5748
21198SOL     OW66613   5.716   3.627   4.721 -0.4640  0.0949  0.6897
21198SOL    HW166614   5.761   3.640   4.805  0.6002  1.7001 -0.0918
21198SOL    HW266615   5.704   3.532   4.715  1.5167 -0.2476  1.6015
21199SOL     OW66616   5.334   7.592   6.483 -0.7514  0.1048 -0.4937
21199SOL    HW166617   5.323   7.687   6.485  0.7515  0.2563  2.0470
21199SOL    HW266618   5.277   7.559   6.552  0.1389 -0.6939 -0.1359
21200SOL     OW66619   3.870   3.703   6.208 -0.4296 -0.2675 -0.0804
21200SOL    HW166620   3.885   3.676   6.298 -1.3946  2.0271  0.7821
21200SOL    HW266621   3.937   3.769   6.191 -2.2983  1.6690  0.0290
21201SOL     OW66622   1.192   2.296   6.618  0.2776  0.0201 -0.4710
21201SOL    HW166623   1.267   2.247   6.651  0.8481  0.8164 -0.5633
21201SOL    HW266624   1.136   2.230   6.578  0.7193 -0.6407 -0.0054
21202SOL     OW66625   8.327   7.420   0.243 -0.2270 -0.1840 -0.0658
21202SOL    HW166626   8.335   7.482   0.171  0.4935  0.6410  0.7090
21202SOL    HW266627   8.296   7.339   0.202 -1.9806  0.9158 -0.9578
21203SOL     OW66628   2.837   7.695   4.551 -0.6547  0.0393 -0.1944
21203SOL    HW166629   2.768   7.711   4.616 -2.9481 -2.5666 -1.8434
21203SOL    HW266630   2.854   7.781   4.512 -1.2819  1.1307  1.8690
21204SOL     OW66631   4.934   3.196   2.973  0.6063 -0.2331 -0.6425
21204SOL    HW166632   4.864   3.150   2.925 -0.8792  1.3934 -0.0532
21204SOL    HW266633   4.912   3.288   2.965  1.3982  0.1678  1.5867
21205SOL     OW66634   7.131   2.000   8.507  0.1157  0.0677 -0.2446
21205SOL    HW166635   7.120   2.093   8.484  0.2538  0.2899  0.5684
21205SOL    HW266636   7.207   1.999   8.566 -0.5112 -0.4360  0.5592
21206SOL     OW66637   4.100   8.831   7.904 -0.1931  0.1889  0.2463
21206SOL    HW166638   4.075   8.856   7.815 -1.3624 -1.3650  0.1087
21206SOL    HW266639   4.172   8.769   7.891 -0.7516 -0.4892  0.3357
21207SOL     OW66640   0.144   1.297   6.932 -0.6601 -0.1725 -0.6859
21207SOL    HW166641   0.090   1.218   6.927 -1.2101  0.1623  0.0024
21207SOL    HW266642   0.199   1.285   7.009 -0.2168 -0.2136 -1.0051
21208SOL     OW66643   7.299   5.065   4.125  0.0328  0.1817 -0.3750
21208SOL    HW166644   7.234   5.057   4.195 -0.5395 -1.0046 -1.0340
21208SOL    HW266645   7.267   5.138   4.072 -0.5429 -0.1162 -0.4510
21209SOL     OW66646   1.231   7.984   3.421 -1.2793  0.2392  0.1326
21209SOL    HW166647   1.146   8.016   3.452 -0.6203  0.8409  1.3400
21209SOL    HW266648   1.295   8.025   3.480 -0.2907 -1.8569  0.5549
21210SOL     OW66649   8.440   4.881   0.001 -0.4714  0.6192  0.0236
21210SOL    HW166650   8.475   4.862  -0.086 -0.0884  0.5757  0.1849
21210SOL    HW266651   8.420   4.795   0.038 -3.3886  0.7590 -1.1384
21211SOL     OW66652   1.227   8.705   6.802  0.0530 -0.4634  0.1781
21211SOL    HW166653   1.184   8.673   6.881 -0.3521 -1.1614 -0.3278
21211SOL    HW266654   1.270   8.628   6.765 -1.2595 -0.5159 -1.2622
21212SOL     OW66655   9.406   3.931   8.660 -0.0280  0.0727  0.2674
21212SOL    HW166656   9.439   3.940   8.749  3.0386  1.3405 -0.8945
21212SOL    HW266657   9.366   4.015   8.640 -0.6453 -0.1842  0.4349
21213SOL     OW66658   6.105   9.066   2.616  0.1740  0.0326 -0.2403
21213SOL    HW166659   6.055   9.047   2.696 -0.1685 -0.4865 -0.5770
21213SOL    HW266660   6.105   8.984   2.568  0.8850  0.1852 -0.5010
21214SOL     OW66661   7.489   2.290   6.087  0.0211  0.0416 -0.0759
21214SOL    HW166662   7.571   2.261   6.127  0.8986  1.2541 -0.9665
21214SOL    HW266663   7.507   2.378   6.056 -1.3323 -0.0406 -1.1477
21215SOL     OW66664   1.515   8.060   3.777 -0.4554 -0.0237  0.5992
21215SOL    HW166665   1.548   8.110   3.851 -0.5811 -0.4927  0.9739
21215SOL    HW266666   1.576   7.987   3.767 -0.2584  0.2106  0.0399
21216SOL     OW66667   8.915   7.747   1.563 -0.6280 -0.2904  0.2444
21216SOL    HW166668   8.857   7.821   1.580 -0.7064 -0.6608  1.6385
21216SOL    HW266669   8.859   7.682   1.520 -1.1595 -0.4924  1.2316
21217SOL     OW66670   4.052   2.358   7.868  0.1179 -0.4290  0.1817
21217SOL    HW166671   4.031   2.450   7.850  1.5568 -0.1236  0.0302
21217SOL    HW266672   3.968   2.313   7.858 -0.1957  0.5485 -1.9240
21218SOL     OW66673   4.444   6.460   4.950 -0.0904  0.1144 -0.4137
21218SOL    HW166674   4.431   6.466   4.855  1.5676 -0.5248 -0.6924
21218SOL    HW266675   4.393   6.383   4.975 -0.2575  0.0808 -0.8383
21219SOL     OW66676   0.037   3.998   7.952  0.8053 -0.0763 -0.0373
21219SOL    HW166677  -0.017   3.946   7.892  0.3794 -0.3727  0.6040
21219SOL    HW266678  -0.023   4.027   8.020  1.8860 -2.3963  1.9861
21220SOL     OW66679   2.296   3.168   6.082 -0.3587  0.2924 -0.1702
21220SOL    HW166680   2.243   3.244   6.107 -1.1335 -0.9419  2.0711
21220SOL    HW266681   2.381   3.183   6.125 -0.5189 -0.1147  0.2898
21221SOL     OW66682   0.387   7.225   0.581  0.2774 -0.2328 -0.1906
21221SOL    HW166683   0.310   7.173   0.558  0.3621  0.3272 -1.8249
21221SOL    HW266684   0.422   7.254   0.496  0.2054  2.5177  0.6831
21222SOL     OW66685   4.019   6.665   8.931  0.1119  0.3080 -0.1136
21222SOL    HW166686   4.006   6.758   8.950  0.4186  0.5246 -0.9530
21222SOL    HW266687   4.058   6.663   8.844  2.4702 -0.5109  0.9278
21223SOL     OW66688   6.051   1.406   8.009 -0.2297  0.1740 -0.2688
21223SOL    HW166689   5.973   1.350   8.006  0.5595 -1.0010  0.6507
21223SOL    HW266690   6.092   1.385   8.093  0.9492  0.9561 -0.6395
21224SOL     OW66691   5.680   3.954   5.976  0.0767 -0.3828 -0.5484
21224SOL    HW166692   5.685   3.862   5.949 -0.5989 -0.5777 -0.0216
21224SOL    HW266693   5.685   3.952   6.071 -0.6342  0.0666 -0.4899
21225SOL     OW66694   4.068   1.816   5.266  0.1352 -0.3943 -0.4870
21225SOL    HW166695   4.050   1.839   5.357 -0.4714  3.1800 -1.4114
21225SOL    HW266696   3.982   1.815   5.224  0.6402  0.9001 -1.6032
21226SOL     OW66697   0.773   7.440   7.595  0.3752 -0.0641 -0.4287
21226SOL    HW166698   0.700   7.477   7.544  2.2678  3.2827 -0.8793
21226SOL    HW266699   0.832   7.404   7.529  0.8657  0.5529 -0.3313
21227SOL     OW66700   2.765   2.617   4.017 -0.3513  0.1289 -0.1187
21227SOL    HW166701   2.805   2.588   4.099 -0.2479  0.4063 -0.0707
21227SOL    HW266702   2.838   2.627   3.957 -0.3202  0.8600  0.0360
21228SOL     OW66703   6.403   9.353   0.020 -0.5086 -0.6056  0.4046
21228SOL    HW166704   6.485   9.381   0.060 -0.5152 -1.9501  1.3824
21228SOL    HW266705   6.427   9.280  -0.037 -1.1701 -1.7541  1.5694
21229SOL     OW66706   5.555   5.634   3.265 -0.1036 -0.0493 -0.1560
21229SOL    HW166707   5.531   5.718   3.227 -0.5758  0.1779  0.6140
21229SOL    HW266708   5.640   5.612   3.226  0.7735  1.5386  0.8095
21230SOL     OW66709   1.549   3.098   5.517 -0.5189 -0.1874  0.2856
21230SOL    HW166710   1.532   3.063   5.605  0.5332 -1.7191 -0.1052
21230SOL    HW266711   1.615   3.039   5.480 -2.3482 -0.7254 -2.2570
21231SOL     OW66712   6.889   4.336   4.614  0.5365 -0.7002  0.5915
21231SOL    HW166713   6.809   4.325   4.666 -1.0118  1.1398 -1.2889
21231SOL    HW266714   6.886   4.427   4.584  2.6616 -0.9971 -0.6243
21232SOL     OW66715   7.552   1.054   3.849 -0.1422 -0.3016  0.0187
21232SOL    HW166716   7.462   1.049   3.882  0.2979  2.0636  1.6672
21232SOL    HW266717   7.581   1.142   3.871  2.6043 -1.0287 -0.5098
21233SOL     OW66718   0.106   2.653   6.063 -0.3269  0.2680 -0.4528
21233SOL    HW166719   0.018   2.681   6.040  0.0863  1.7223 -0.3208
21233SOL    HW266720   0.157   2.734   6.069  1.0822 -0.5616 -0.7811
21234SOL     OW66721   5.219   1.715   0.675 -0.4469  0.0003  0.1197
21234SOL    HW166722   5.226   1.801   0.633  0.6105 -0.9266 -1.6808
21234SOL    HW266723   5.232   1.733   0.768 -2.1616  2.0268  0.0096
21235SOL     OW66724   1.062   1.553   8.518 -0.0792  0.8630  0.1513
21235SOL    HW166725   1.081   1.642   8.489  1.0839  0.3705 -0.6106
21235SOL    HW266726   1.090   1.551   8.610  1.0365  0.9286 -0.1865
21236SOL     OW66727   7.937   5.486   2.759 -0.0415 -0.0418 -0.0194
21236SOL    HW166728   8.011   5.486   2.698 -0.4780  2.3539 -0.6165
21236SOL    HW266729   7.935   5.575   2.793 -2.7335 -0.0290 -0.1240
21237SOL     OW66730   0.850   6.884   8.987  0.5796  0.0528  0.2455
21237SOL    HW166731   0.819   6.827   9.057  0.7232 -1.1006 -0.6093
21237SOL    HW266732   0.824   6.972   9.014 -1.5777 -0.6500  0.5534
21238SOL     OW66733   4.766   7.345   2.298  0.4627 -0.2642  0.1375
21238SOL    HW166734   4.815   7.427   2.300  0.4856 -0.2098 -1.5869
21238SOL    HW266735   4.740   7.330   2.389  0.4445  1.6546  0.4749
21239SOL     OW66736   9.163   1.613   2.505  0.7067 -0.5333  0.0937
21239SOL    HW166737   9.210   1.668   2.442 -0.6284  0.0866 -0.3858
21239SOL    HW266738   9.098   1.672   2.543  0.3465 -1.3717  0.7791
21240SOL     OW66739   8.500   9.303   4.760  0.1056  0.0133  0.2911
21240SOL    HW166740   8.518   9.269   4.848 -1.3583  1.6231  1.2511
21240SOL    HW266741   8.562   9.258   4.704  1.1016 -1.0235  2.1700
21241SOL     OW66742   8.713   5.600   1.705  0.0999  0.5037  0.0377
21241SOL    HW166743   8.642   5.597   1.640  0.3122 -0.0620 -0.1706
21241SOL    HW266744   8.793   5.590   1.653  0.3975  1.9908  0.1687
21242SOL     OW66745   2.878   1.147   2.513  0.2077  0.0913  0.5561
21242SOL    HW166746   2.837   1.232   2.499 -0.4348 -0.5338 -1.5471
21242SOL    HW266747   2.972   1.166   2.520 -0.1520  1.2431  2.8860
21243SOL     OW66748   7.562   5.031   5.272 -0.6296 -0.3111 -0.2559
21243SOL    HW166749   7.656   5.022   5.257 -0.7931 -0.2073 -1.4349
21243SOL    HW266750   7.534   4.945   5.303 -0.2379 -0.5197 -0.4737
21244SOL     OW66751   7.151   5.116   0.501  0.1209  0.2146  0.1240
21244SOL    HW166752   7.235   5.130   0.544 -0.2908  0.5597  0.8331
21244SOL    HW266753   7.086   5.135   0.569 -0.5428  0.8266 -0.6731
21245SOL     OW66754   4.098   2.145   0.949 -0.8121 -0.1456  0.0354
21245SOL    HW166755   4.091   2.053   0.924 -0.4016 -0.6996  1.9279
21245SOL    HW266756   4.083   2.146   1.043  1.8998  1.3636  0.4977
21246SOL     OW66757   8.144   4.673   2.039 -0.4703  0.2885 -0.4808
21246SOL    HW166758   8.190   4.622   1.972 -0.8511  1.3565 -1.5772
21246SOL    HW266759   8.148   4.619   2.118  1.4269 -0.2584 -0.9343
21247SOL     OW66760   6.125   2.605   5.312 -0.1450  0.0734  0.3904
21247SOL    HW166761   6.055   2.670   5.306 -0.6248 -0.6475 -2.7594
21247SOL    HW266762   6.082   2.521   5.297  1.2603 -0.4428 -0.9224
21248SOL     OW66763   0.119   3.879   8.447  0.1885  0.3828 -0.3717
21248SOL    HW166764   0.100   3.788   8.425  0.1397  0.3498 -0.2002
21248SOL    HW266765   0.092   3.887   8.539 -0.2842  0.7075 -0.5389
21249SOL     OW66766   7.089   6.640   2.294 -0.4034 -0.3449 -0.7660
21249SOL    HW166767   7.136   6.569   2.250  0.1946  0.7312 -1.8953
21249SOL    HW266768   7.017   6.661   2.234  0.0142  0.6721 -0.9179
21250SOL     OW66769   0.046   5.148   3.832 -0.1054 -0.0077  0.1030
21250SOL    HW166770   0.010   5.162   3.744 -0.7636  2.0809  0.6567
21250SOL    HW266771  -0.005   5.075   3.868 -0.3212 -0.3968 -0.9864
21251SOL     OW66772   3.046   9.024   1.524 -0.9177  0.1321  0.1119
21251SOL    HW166773   3.126   9.060   1.484 -1.6066  1.7332  0.1637
21251SOL    HW266774   3.025   8.948   1.470  0.5473 -0.2022 -0.0074
21252SOL     OW66775   1.788   7.411   2.175  0.0621  0.1794 -0.5239
21252SOL    HW166776   1.734   7.389   2.099 -1.0522 -2.4169  0.9385
21252SOL    HW266777   1.807   7.326   2.216  0.9352  1.4908  1.8789
21253SOL     OW66778   7.130   3.350   5.666  0.2633 -0.3800 -0.0041
21253SOL    HW166779   7.097   3.439   5.682 -0.7445 -0.7687  0.0832
21253SOL    HW266780   7.052   3.298   5.650  0.5406 -1.9799  3.4639
21254SOL     OW66781   7.304   1.883   3.023 -0.3673  0.2673  0.0254
21254SOL    HW166782   7.286   1.842   3.107 -1.0678 -0.4702 -0.4839
21254SOL    HW266783   7.398   1.867   3.009 -0.5199 -0.7247  0.0703
21255SOL     OW66784   8.094   4.863   5.486 -0.0248 -0.1580  0.0395
21255SOL    HW166785   8.152   4.806   5.436 -0.0118 -0.1624  0.0604
21255SOL    HW266786   8.022   4.882   5.427 -0.4760 -0.9120  0.3398
21256SOL     OW66787   4.370   7.098   5.650 -0.1962  0.2561 -0.4314
21256SOL    HW166788   4.313   7.025   5.626 -1.1193  1.2692 -1.3909
21256SOL    HW266789   4.432   7.061   5.713 -0.8625 -1.2645 -0.6576
21257SOL     OW66790   1.529   0.978   7.352  0.8895 -0.0590 -0.1172
21257SOL    HW166791   1.525   0.883   7.362  0.9651 -0.0678 -0.1747
21257SOL    HW266792   1.608   1.004   7.398 -1.8213  0.5687  4.5260
21258SOL     OW66793   2.233   6.419   6.699 -0.3851 -0.2840 -0.4790
21258SOL    HW166794   2.264   6.483   6.635 -1.5518 -0.1551 -0.9296
21258SOL    HW266795   2.311   6.372   6.726  0.1887 -0.0231 -1.6636
21259SOL     OW66796   0.969   2.761   7.352  0.3877 -0.3302  0.3050
21259SOL    HW166797   0.878   2.787   7.369  0.2315 -1.0843  0.6350
21259SOL    HW266798   0.999   2.821   7.284  0.5385  1.7675  2.1838
21260SOL     OW66799   9.274   8.711   4.741  0.0460 -0.2489  0.4740
21260SOL    HW166800   9.325   8.633   4.765 -0.3090 -0.4837  0.4720
21260SOL    HW266801   9.309   8.737   4.655 -1.5546 -1.9270 -0.7301
21261SOL     OW66802   4.960   3.087   7.590 -0.1346 -0.2027 -0.6222
21261SOL    HW166803   5.009   3.008   7.612  1.8907  1.3464  0.5342
21261SOL    HW266804   5.002   3.119   7.510 -0.6990 -0.0582 -0.8624
21262SOL     OW66805   9.369   6.557   1.860  0.2524  0.2836 -0.2592
21262SOL    HW166806   9.278   6.530   1.846  0.8514 -1.8214 -0.3795
21262SOL    HW266807   9.376   6.574   1.954 -0.4199  1.0767 -0.3523
21263SOL     OW66808   0.122   6.751   1.091  0.5740  0.3650  0.8148
21263SOL    HW166809   0.062   6.689   1.132 -1.1414  0.3553 -1.6158
21263SOL    HW266810   0.080   6.837   1.103  0.2451  0.4050 -0.5626
21264SOL     OW66811   0.734   2.071   9.063  0.0643  0.0405 -0.0167
21264SOL    HW166812   0.731   2.165   9.083  1.6054  0.4460 -1.5517
21264SOL    HW266813   0.823   2.056   9.032  0.2422 -2.2233  1.4479
21265SOL     OW66814   7.796   6.705   5.472 -0.5155 -0.1332 -0.2196
21265SOL    HW166815   7.720   6.719   5.528  0.0625 -0.4667  0.6526
21265SOL    HW266816   7.846   6.786   5.479  0.8528 -1.1187  1.7691
21266SOL     OW66817   0.732   7.995   5.467  0.7082  0.3802 -0.4136
21266SOL    HW166818   0.699   7.907   5.483 -2.7118  1.3410 -1.8171
21266SOL    HW266819   0.757   7.995   5.375 -0.7140  1.3122 -0.8007
21267SOL     OW66820   5.035   4.707   0.922  0.4376 -0.0151  0.0155
21267SOL    HW166821   4.945   4.734   0.905  0.0065 -3.0173 -3.0087
21267SOL    HW266822   5.027   4.616   0.951  2.4905 -0.2001  0.0501
21268SOL     OW66823   7.560   8.558   0.734 -0.0938  0.1314  0.6350
21268SOL    HW166824   7.533   8.470   0.761  2.3265 -0.4779  1.2043
21268SOL    HW266825   7.653   8.561   0.754  0.2101  2.2522 -0.9747
21269SOL     OW66826   6.181   0.811   6.384 -0.1493 -0.1732 -0.4962
21269SOL    HW166827   6.114   0.785   6.320 -0.5827  0.7093 -0.4052
21269SOL    HW266828   6.143   0.887   6.428  0.8924  0.2796 -0.3860
21270SOL     OW66829   0.974   3.219   1.376  0.2979 -0.0643  0.8743
21270SOL    HW166830   1.039   3.257   1.434  0.5629  1.6270 -0.4972
21270SOL    HW266831   0.946   3.291   1.319  0.6645 -1.8411 -1.6520
21271SOL     OW66832   5.786   0.576   5.312 -0.5889 -0.2273 -0.4790
21271SOL    HW166833   5.817   0.527   5.388 -0.9144 -2.1407 -1.5501
21271SOL    HW266834   5.828   0.661   5.319  1.8905 -1.4746  0.1403
21272SOL     OW66835   7.478   0.394   6.100  0.5051  0.0687 -0.0667
21272SOL    HW166836   7.424   0.378   6.022  0.3189 -1.4310  0.3597
21272SOL    HW266837   7.521   0.477   6.082 -2.8770  1.9581  0.0716
21273SOL     OW66838   2.360   4.729   3.189  0.3998  0.0180  0.5087
21273SOL    HW166839   2.273   4.736   3.229  0.1317 -0.2504 -0.0147
21273SOL    HW266840   2.349   4.770   3.102  1.4340  2.2524  1.3920
21274SOL     OW66841   6.182   1.354   8.250  0.2492 -0.5456  0.2291
21274SOL    HW166842   6.223   1.310   8.325  2.2310 -3.5299 -2.4787
21274SOL    HW266843   6.248   1.417   8.221 -0.9172  1.3256  1.5365
21275SOL     OW66844   3.293   8.386   4.145  0.6143 -0.2031  0.5346
21275SOL    HW166845   3.293   8.481   4.134 -0.5964 -0.4417 -1.7845
21275SOL    HW266846   3.372   8.356   4.101  1.4155 -0.2189  1.9568
21276SOL     OW66847   4.014   7.234   3.976  0.0709  0.1454 -0.6295
21276SOL    HW166848   4.062   7.299   4.028  0.5811 -0.0814 -0.8115
21276SOL    HW266849   3.976   7.174   4.040  1.7750 -0.8848 -0.5610
21277SOL     OW66850   1.201   1.757   8.115 -0.1379  0.0262 -0.1777
21277SOL    HW166851   1.128   1.736   8.057  0.8442 -0.6662 -1.1690
21277SOL    HW266852   1.232   1.842   8.085  1.6501 -1.2257 -1.9975
21278SOL     OW66853   1.409   3.042   3.470  0.0762  0.4006  0.2202
21278SOL    HW166854   1.325   3.007   3.441 -0.3330  0.0594  1.7867
21278SOL    HW266855   1.457   2.966   3.502  2.0207  0.1703 -2.9774
21279SOL     OW66856   2.429   7.565   1.095 -0.1967 -0.5604  0.4252
21279SOL    HW166857   2.503   7.509   1.119 -1.2990 -2.5284 -0.5810
21279SOL    HW266858   2.354   7.526   1.140 -0.9122  0.4184  0.1050
21280SOL     OW66859   6.013   4.993   0.022 -0.7563  0.3445 -0.5175
21280SOL    HW166860   6.065   4.932  -0.029 -0.0184  0.6961 -0.1942
21280SOL    HW266861   6.012   5.074  -0.030  0.2895  0.8145  0.1727
21281SOL     OW66862   4.504   7.833   3.396  0.1061  0.1139  0.3888
21281SOL    HW166863   4.513   7.900   3.329 -0.9047 -0.7950 -0.6805
21281SOL    HW266864   4.507   7.750   3.348  3.9726 -0.7366  1.9499
21282SOL     OW66865   4.105   5.609   2.637 -0.8335  0.4714  0.1332
21282SOL    HW166866   4.018   5.646   2.651 -1.1938 -0.0458 -0.7583
21282SOL    HW266867   4.119   5.613   2.543  0.8874  2.3020  0.4258
21283SOL     OW66868   1.711   0.627   3.180 -0.4749  0.0870 -0.7399
21283SOL    HW166869   1.765   0.626   3.260 -2.2640 -0.4042  0.4913
21283SOL    HW266870   1.644   0.560   3.196 -0.1486 -0.8608 -3.1667
21284SOL     OW66871   3.696   8.588   4.266 -0.5250  0.1470  0.4337
21284SOL    HW166872   3.682   8.495   4.286 -2.1747 -0.2073 -2.1669
21284SOL    HW266873   3.791   8.597   4.261 -0.3665 -1.6664 -0.3999
21285SOL     OW66874   7.386   9.204   1.197 -0.2026  0.0145  0.6111
21285SOL    HW166875   7.382   9.249   1.281 -1.6583  2.2000 -0.5813
21285SOL    HW266876   7.472   9.228   1.161  0.1100 -0.3145  1.1260
21286SOL     OW66877   4.410   0.109   7.025  0.2034 -0.9204  0.2191
21286SOL    HW166878   4.341   0.141   7.084  1.3613  1.1123  0.5274
21286SOL    HW266879   4.377   0.129   6.938  1.3469  2.2791  0.4219
21287SOL     OW66880   3.308   4.508   8.785  0.1826  0.2365 -0.0274
21287SOL    HW166881   3.363   4.462   8.721 -0.2275 -0.9090  0.4333
21287SOL    HW266882   3.280   4.588   8.739 -0.1760 -0.6145 -1.3165
21288SOL     OW66883   1.507   6.445   9.028 -0.0504 -0.0897  0.1884
21288SOL    HW166884   1.593   6.409   9.046  0.8041  2.2701  1.0694
21288SOL    HW266885   1.449   6.402   9.091 -0.3157 -4.5001 -2.8953
21289SOL     OW66886   3.997   9.062   0.383  0.0518  0.2658  0.4512
21289SOL    HW166887   4.084   9.088   0.351 -0.2240 -2.7666 -3.0288
21289SOL    HW266888   4.014   9.025   0.470  2.1889  0.0024 -0.0484
21290SOL     OW66889   2.293   5.084   4.469  0.0144  0.4223  0.0095
21290SOL    HW166890   2.308   5.175   4.447 -0.3870  0.0426 -1.9578
21290SOL    HW266891   2.207   5.083   4.512  0.8025  1.1800  1.6369
21291SOL     OW66892   5.664   0.894   6.203 -0.2696 -0.4081 -0.0192
21291SOL    HW166893   5.607   0.968   6.223 -0.2199 -0.0446 -1.1756
21291SOL    HW266894   5.610   0.837   6.148  0.0227 -0.7355  0.0360
21292SOL     OW66895   3.896   2.830   4.522 -0.0463 -0.2013  0.0954
21292SOL    HW166896   3.832   2.800   4.587 -1.3032  1.4151 -0.3792
21292SOL    HW266897   3.971   2.859   4.574 -0.6841  0.2177  0.7868
21293SOL     OW66898   5.568   6.263   4.270  0.3568  0.1241 -0.0833
21293SOL    HW166899   5.637   6.289   4.208  0.6063  0.9239  0.5194
21293SOL    HW266900   5.606   6.191   4.320 -0.1158 -1.0352 -1.3558
21294SOL     OW66901   0.588   0.813   6.461  0.3534 -0.5354  0.1327
21294SOL    HW166902   0.676   0.809   6.424  0.9091  0.9648  1.2530
21294SOL    HW266903   0.597   0.778   6.549  0.0913  0.8564  0.7150
21295SOL     OW66904   3.510   7.778   4.628  0.1495 -1.2018  0.1507
21295SOL    HW166905   3.525   7.725   4.707 -0.4098 -1.3785  0.1440
21295SOL    HW266906   3.476   7.715   4.564 -0.2280 -0.8922  0.0459
21296SOL     OW66907   6.345   7.013   9.190  0.0668 -0.1439  0.0524
21296SOL    HW166908   6.414   7.039   9.251  0.1561  0.5813 -0.3519
21296SOL    HW266909   6.280   7.084   9.196 -0.2480 -0.4085 -0.1863
21297SOL     OW66910   7.770   5.365   1.909  0.0323  0.2579  0.7791
21297SOL    HW166911   7.743   5.455   1.927  1.4792  0.7090  0.6934
21297SOL    HW266912   7.801   5.367   1.818 -1.1490 -0.6240  0.3306
21298SOL     OW66913   8.558   5.193   9.377 -0.1436 -0.4254  0.1299
21298SOL    HW166914   8.582   5.187   9.285 -0.5826 -1.7944  0.1016
21298SOL    HW266915   8.635   5.161   9.424  0.2205  0.6161  0.2687
21299SOL     OW66916   2.906   3.898   6.973  1.1623 -0.1336 -0.0245
21299SOL    HW166917   2.868   3.873   7.058 -1.1293 -0.9442 -1.2252
21299SOL    HW266918   2.984   3.843   6.965 -1.0216 -3.3448 -0.3479
21300SOL     OW66919   8.804   2.775   2.257  0.5607  0.5470 -0.2997
21300SOL    HW166920   8.771   2.846   2.313  3.1244  0.2857  1.6199
21300SOL    HW266921   8.796   2.696   2.310 -0.3186 -0.2998 -1.6599
21301SOL     OW66922   5.142   0.614   8.445 -0.2241  0.3651  0.4009
21301SOL    HW166923   5.080   0.551   8.480 -1.0955  0.3397 -1.1529
21301SOL    HW266924   5.134   0.606   8.350  1.0660  1.4309  0.1796
21302SOL     OW66925   9.308   4.292   7.398  0.3053  0.8971  0.5138
21302SOL    HW166926   9.361   4.294   7.318 -0.5943 -0.3307 -0.1256
21302SOL    HW266927   9.226   4.251   7.371 -1.0798  3.0330  1.4403
21303SOL     OW66928   6.344   7.058   6.541  0.1062 -0.1898  0.1121
21303SOL    HW166929   6.358   7.144   6.501 -0.4699  0.1090  0.5437
21303SOL    HW266930   6.390   6.997   6.483 -0.4438  0.2702 -0.8186
21304SOL     OW66931   1.430   1.264   1.340 -0.1154  0.1968  0.0560
21304SOL    HW166932   1.398   1.299   1.257  1.3261  2.5928  0.4554
21304SOL    HW266933   1.357   1.275   1.400 -0.7145 -0.3158 -0.5771
21305SOL     OW66934   8.046   6.151   6.805  0.2256 -0.1211  0.3113
21305SOL    HW166935   8.020   6.207   6.877 -2.7108 -1.5862  0.4615
21305SOL    HW266936   8.081   6.072   6.847 -0.3191 -0.4618  0.1271
21306SOL     OW66937   3.426   2.945   5.321 -0.2907 -0.1583  0.2759
21306SOL    HW166938   3.496   2.935   5.386 -1.9382 -0.7126  2.0279
21306SOL    HW266939   3.415   2.857   5.285 -1.3274 -0.4836  1.3532
21307SOL     OW66940   2.792   7.520   0.540 -0.2184  0.3029 -0.6374
21307SOL    HW166941   2.772   7.445   0.484  0.5698  0.0412 -0.5747
21307SOL    HW266942   2.731   7.513   0.613  0.3795 -0.7310 -0.2275
21308SOL     OW66943   6.680   5.683   8.366 -0.2513 -0.1686 -0.1034
21308SOL    HW166944   6.685   5.603   8.314 -0.0271  0.1787 -0.6161
21308SOL    HW266945   6.766   5.724   8.357  0.1417 -0.6370  1.3997
21309SOL     OW66946   8.573   8.921   1.404 -0.6807  0.0231  0.6856
21309SOL    HW166947   8.618   8.994   1.362  0.0137  0.3941  2.0322
21309SOL    HW266948   8.530   8.875   1.333  0.5472  0.5826 -0.4457
21310SOL     OW66949   1.794   1.114   5.189 -0.0329  0.5490 -0.0827
21310SOL    HW166950   1.832   1.183   5.244  0.8305  0.5031 -0.6058
21310SOL    HW266951   1.702   1.139   5.180 -0.2387  0.4503  1.5454
21311SOL     OW66952   1.863   0.627   3.406 -0.2287  0.2492  0.2073
21311SOL    HW166953   1.862   0.538   3.441  1.6927 -0.6382 -1.8423
21311SOL    HW266954   1.914   0.677   3.469  2.0636 -1.0243 -0.5701
21312SOL     OW66955   8.680   3.231   7.658  0.3531 -0.4977 -0.4525
21312SOL    HW166956   8.653   3.321   7.645 -0.4407 -0.6176  0.3212
21312SOL    HW266957   8.603   3.178   7.637  1.0147 -1.0416 -1.5625
21313SOL     OW66958   8.434   8.435   1.439 -0.3999 -0.1921  0.3432
21313SOL    HW166959   8.366   8.453   1.374  0.1551 -0.8664 -0.4294
21313SOL    HW266960   8.387   8.396   1.512 -0.6492 -2.0667 -0.7893
21314SOL     OW66961   7.050   8.752   0.040  0.3648 -0.0172  0.2986
21314SOL    HW166962   7.043   8.747  -0.056  0.0406  1.1863  0.2509
21314SOL    HW266963   7.132   8.799   0.056 -0.3824  1.2126  0.5765
21315SOL     OW66964   4.513   5.000   5.107  0.1139 -0.1858  0.1553
21315SOL    HW166965   4.470   5.084   5.126 -2.6696 -2.0914  2.6485
21315SOL    HW266966   4.525   5.001   5.012 -2.9093  1.6792 -0.2764
21316SOL     OW66967   1.939   1.588   2.471  0.2767 -0.2651  0.3351
21316SOL    HW166968   1.917   1.674   2.435  1.1406  0.0850  0.6312
21316SOL    HW266969   1.857   1.556   2.509 -0.2862 -0.0019 -0.6278
21317SOL     OW66970   1.793   3.227   6.452  0.0471 -0.0166  0.6338
21317SOL    HW166971   1.734   3.273   6.393 -0.9953 -0.7661  1.0696
21317SOL    HW266972   1.863   3.195   6.396  0.7177  1.9901  0.3107
21318SOL     OW66973   7.721   4.471   7.675 -0.1456 -0.2338 -0.1149
21318SOL    HW166974   7.648   4.415   7.649 -1.6365  0.7883  1.7358
21318SOL    HW266975   7.785   4.411   7.712 -1.2638 -0.8505  0.8603
21319SOL     OW66976   7.912   8.009   0.548 -0.3233 -0.1584 -0.0444
21319SOL    HW166977   7.892   7.964   0.466 -0.3199 -3.1395  1.5378
21319SOL    HW266978   7.991   7.966   0.581 -0.5805  0.6844  1.7428
21320SOL     OW66979   9.359   6.350   0.183 -0.0161  0.0121  0.0529
21320SOL    HW166980   9.264   6.362   0.172  0.0490  0.8421  0.3615
21320SOL    HW266981   9.393   6.439   0.192  0.6218 -0.3701  1.4408
21321SOL     OW66982   3.247   2.290   8.326  0.4908  0.0106 -0.3023
21321SOL    HW166983   3.301   2.221   8.289 -0.8171 -1.3238  0.2682
21321SOL    HW266984   3.220   2.257   8.412 -1.9480  0.2817 -0.9433
21322SOL     OW66985   6.592   8.097   0.974  0.2054  0.5379 -0.4071
21322SOL    HW166986   6.525   8.030   0.987 -0.4115  1.3076  0.4383
21322SOL    HW266987   6.674   8.054   1.000 -0.0446 -0.1991 -0.8218
21323SOL     OW66988   6.614   0.592   5.319  0.4859 -0.2015 -0.0676
21323SOL    HW166989   6.667   0.562   5.245 -0.0308 -0.7665 -0.2111
21323SOL    HW266990   6.560   0.517   5.342 -2.1462  1.1382 -1.6056
21324SOL     OW66991   0.999   1.842   6.185 -0.1390  0.1280  0.3598
21324SOL    HW166992   1.094   1.845   6.182  0.0194 -2.4266  1.6161
21324SOL    HW266993   0.971   1.854   6.094  1.2756  2.6791  0.2261
21325SOL     OW66994   2.585   5.408   7.942  0.2045  0.4848  0.1807
21325SOL    HW166995   2.570   5.496   7.907  0.4808  0.2010 -0.6449
21325SOL    HW266996   2.664   5.377   7.899  0.6647  0.2067  1.2025
21326SOL     OW66997   0.581   6.339   3.166 -0.0239 -0.1437  0.5635
21326SOL    HW166998   0.528   6.312   3.090  0.8960  0.1057 -0.1763
21326SOL    HW266999   0.587   6.435   3.158  0.4164 -0.1576  0.7233
21327SOL     OW67000   3.396   3.254   4.859 -1.0498  0.2511  0.3970
21327SOL    HW167001   3.409   3.267   4.765  1.2536 -1.3890  0.4285
21327SOL    HW267002   3.343   3.175   4.866 -1.1184  0.3030  0.4626
21328SOL     OW67003   2.120   6.657   8.262 -0.3747  0.3496  0.2127
21328SOL    HW167004   2.183   6.727   8.280 -0.7665  0.1752  2.3659
21328SOL    HW267005   2.035   6.699   8.266 -0.5723 -0.0935  0.7811
21329SOL     OW67006   9.025   5.860   1.091  0.2800  0.1724 -0.7837
21329SOL    HW167007   9.071   5.941   1.074 -1.7366  1.2936 -1.1258
21329SOL    HW267008   9.018   5.817   1.005  0.3088  0.2124 -0.8059
21330SOL     OW67009   4.104   2.524   0.372 -0.5969  0.3304  0.1403
21330SOL    HW167010   4.105   2.440   0.326  1.8528  1.4126 -1.9183
21330SOL    HW267011   4.152   2.508   0.453  0.6070 -0.0822 -0.6387
21331SOL     OW67012   2.521   0.120   2.081 -0.5167 -0.1642  0.5427
21331SOL    HW167013   2.510   0.203   2.034 -0.2324 -0.5031 -0.1338
21331SOL    HW267014   2.592   0.076   2.033 -0.6767 -0.7968  0.8990
21332SOL     OW67015   0.759   0.446   1.691 -0.1913  0.2808 -0.1664
21332SOL    HW167016   0.668   0.445   1.659 -1.0070 -1.1688  2.0806
21332SOL    HW267017   0.753   0.484   1.778  1.4844  0.8255 -0.2839
21333SOL     OW67018   0.386   4.161   2.065 -0.3871  0.0612  0.5079
21333SOL    HW167019   0.378   4.073   2.101 -1.2726  0.7176  1.9433
21333SOL    HW267020   0.302   4.178   2.023  0.9237 -1.0308 -2.7307
21334SOL     OW67021   3.117   3.260   6.370 -0.4269 -0.5287 -0.2093
21334SOL    HW167022   3.156   3.291   6.451 -0.0681 -0.0197 -0.5708
21334SOL    HW267023   3.135   3.166   6.368  1.3716 -0.1951 -0.6813
21335SOL     OW67024   3.924   4.874   6.478 -0.0783  0.1396  0.0419
21335SOL    HW167025   3.930   4.787   6.518  2.7244 -0.6683 -1.9790
21335SOL    HW267026   3.854   4.866   6.414  0.7835 -0.9142 -0.7815
21336SOL     OW67027   3.407   6.419   4.064 -0.0739  0.5352  0.3367
21336SOL    HW167028   3.381   6.501   4.021  1.6065  0.6331 -0.5552
21336SOL    HW267029   3.404   6.354   3.994  0.5032  0.2492  0.5732
21337SOL     OW67030   2.541   2.433   2.091 -0.0089 -0.2999  0.1092
21337SOL    HW167031   2.573   2.484   2.165  1.9851  0.8353 -1.4785
21337SOL    HW267032   2.517   2.499   2.026 -1.7617 -1.2782 -0.2635
21338SOL     OW67033   2.638   3.600   1.499 -0.0535 -0.2949 -0.6464
21338SOL    HW167034   2.679   3.514   1.492  0.7565 -0.1846  2.0477
21338SOL    HW267035   2.705   3.655   1.540 -1.7912  0.6869  0.9394
21339SOL     OW67036   6.398   1.970   3.810  0.1690 -0.5046 -0.1286
21339SOL    HW167037   6.452   1.913   3.755  3.1289 -0.4282  2.5681
21339SOL    HW267038   6.394   2.053   3.763  2.6723 -0.4234 -0.2312
21340SOL     OW67039   0.922   7.676   5.238  0.4232  0.3241  0.6678
21340SOL    HW167040   0.930   7.588   5.202  1.4204  0.5518  0.3202
21340SOL    HW267041   0.829   7.684   5.262  0.4297 -0.9756  1.1252
21341SOL     OW67042   3.916   5.466   4.302 -0.3912 -0.4893 -0.1147
21341SOL    HW167043   3.950   5.509   4.224 -1.9362  1.9862  0.4999
21341SOL    HW267044   3.916   5.373   4.281 -1.0359  0.1703 -3.1677
21342SOL     OW67045   2.704   6.419   7.323 -0.4468  0.0658  0.0195
21342SOL    HW167046   2.614   6.444   7.302 -0.7695 -0.3484  0.9185
21342SOL    HW267047   2.730   6.363   7.249 -0.5127  1.1508 -0.8372
21343SOL     OW67048   7.569   5.689   0.745  0.2540  0.3637  0.2338
21343SOL    HW167049   7.477   5.686   0.772  0.0634 -1.5394 -0.5643
21343SOL    HW267050   7.584   5.781   0.721 -1.1190  0.9192  1.4319
21344SOL     OW67051   9.329   2.407   0.962 -0.4222  0.0771  0.0925
21344SOL    HW167052   9.341   2.402   0.867 -0.1574  2.6523 -0.0446
21344SOL    HW267053   9.235   2.394   0.975 -0.5132  0.0665 -0.5503
21345SOL     OW67054   4.628   2.358   4.551 -0.2068 -0.2133 -0.5626
21345SOL    HW167055   4.709   2.321   4.586 -0.9498 -0.8203  0.5874
21345SOL    HW267056   4.610   2.434   4.606  0.1726  0.5978 -1.5430
21346SOL     OW67057   1.333   5.423   6.160  0.0023 -0.2178  0.1345
21346SOL    HW167058   1.428   5.433   6.165 -0.1894  3.4722 -1.4437
21346SOL    HW267059   1.309   5.377   6.240  3.1852 -1.9085  0.1889
21347SOL     OW67060   8.880   0.849   1.943 -0.4118  0.3070  0.2214
21347SOL    HW167061   8.860   0.764   1.905  1.4995 -1.0397  2.0908
21347SOL    HW267062   8.944   0.830   2.012 -0.1638  3.2204  0.8661
21348SOL     OW67063   4.126   6.699   2.125  0.4872  0.0873  0.1461
21348SOL    HW167064   4.050   6.752   2.099  0.9076  0.8097  0.3674
21348SOL    HW267065   4.117   6.618   2.075  1.1150  1.3432 -2.0891
21349SOL     OW67066   1.290   6.886   8.007  0.6320 -0.2346  0.5450
21349SOL    HW167067   1.265   6.892   8.099 -0.9796 -0.6574  0.1451
21349SOL    HW267068   1.356   6.816   8.004  0.4907 -0.3961  1.3290
21350SOL     OW67069   7.281   2.610   3.061  0.4184 -0.1115 -0.4776
21350SOL    HW167070   7.192   2.577   3.072  0.7998 -1.9336 -2.4505
21350SOL    HW267071   7.312   2.629   3.150 -1.5298 -0.5275  0.2982
21351SOL     OW67072   2.840   3.052   8.216  0.6630 -0.0587  0.0020
21351SOL    HW167073   2.920   2.999   8.205  0.0720 -0.8636 -0.5095
21351SOL    HW267074   2.815   3.040   8.307 -0.7977 -2.6138 -0.6828
21352SOL     OW67075   6.012   5.459   6.776  0.0143 -0.1060  0.1671
21352SOL    HW167076   5.973   5.545   6.796  0.0109 -0.2419  0.7474
21352SOL    HW267077   6.087   5.452   6.836  0.0134 -0.5092  0.1216
21353SOL     OW67078   9.244   5.029   3.406 -0.0834 -0.4690  0.7043
21353SOL    HW167079   9.235   4.964   3.475 -1.3318 -0.2383  0.7717
21353SOL    HW267080   9.297   5.098   3.445 -0.6264 -0.4233  1.3712
21354SOL     OW67081   5.250   4.576   7.778  0.3010 -0.5186  0.0032
21354SOL    HW167082   5.276   4.549   7.866  1.5889 -0.5387 -0.3636
21354SOL    HW267083   5.332   4.574   7.727 -0.4282 -0.5450 -1.1969
21355SOL     OW67084   8.054   5.606   0.774  0.3139  0.2666  0.0055
21355SOL    HW167085   7.998   5.683   0.762 -0.2997 -0.3625 -1.2956
21355SOL    HW267086   8.109   5.627   0.849  0.1174  1.9627 -0.3152
21356SOL     OW67087   0.194   2.730   5.736  0.3992  0.1620 -0.5782
21356SOL    HW167088   0.164   2.802   5.791  2.5038 -0.2586  1.1732
21356SOL    HW267089   0.248   2.771   5.669  3.0245  0.1258  1.4290
21357SOL     OW67090   9.381   4.637   9.357  0.6999 -0.0999 -0.6411
21357SOL    HW167091   9.404   4.653   9.449 -0.8438  1.2173 -0.4591
21357SOL    HW267092   9.461   4.604   9.318  1.8715  0.9598  0.7974
21358SOL     OW67093   0.968   3.433   5.764  0.0492 -0.6292 -0.0953
21358SOL    HW167094   1.010   3.454   5.680 -0.1681 -1.0195 -0.3015
21358SOL    HW267095   0.885   3.393   5.739 -1.1809  1.5900  0.2882
21359SOL     OW67096   8.435   8.986   8.058 -0.0255  0.3781  0.0551
21359SOL    HW167097   8.423   8.944   8.143  0.7031  1.6892  0.8240
21359SOL    HW267098   8.350   9.027   8.039 -0.7368 -1.3933 -0.6957
21360SOL     OW67099   6.819   6.218   9.110 -0.6711 -0.0073 -0.6393
21360SOL    HW167100   6.750   6.242   9.049 -0.3703 -1.1715 -1.4625
21360SOL    HW267101   6.776   6.164   9.176 -0.4276 -1.3203 -1.5423
21361SOL     OW67102   6.896   5.204   8.548 -0.4666  0.1052  0.6029
21361SOL    HW167103   6.971   5.217   8.606  0.1956  0.3759 -0.2966
21361SOL    HW267104   6.935   5.193   8.462 -1.3705 -1.4976  0.3889
21362SOL     OW67105   7.378   6.143   1.209 -0.1090 -0.1187 -0.3646
21362SOL    HW167106   7.296   6.126   1.163  0.3428 -0.9776 -0.8874
21362SOL    HW267107   7.435   6.070   1.182  0.5050 -0.0506  0.7352
21363SOL     OW67108   3.172   0.685   6.766  0.2988  0.3007  0.4119
21363SOL    HW167109   3.227   0.628   6.820 -0.6481 -0.2365  0.8416
21363SOL    HW267110   3.166   0.641   6.682 -0.2793 -0.1601  0.6847
21364SOL     OW67111   7.660   4.280   4.062  0.2061 -0.0463 -0.3141
21364SOL    HW167112   7.618   4.205   4.103  1.9692 -0.8643  0.0361
21364SOL    HW267113   7.714   4.318   4.131  1.2484  0.0594 -1.1664
21365SOL     OW67114   5.491   4.880   4.625 -0.1574 -0.0551 -0.1303
21365SOL    HW167115   5.467   4.806   4.568 -0.6375 -0.9409  1.1853
21365SOL    HW267116   5.567   4.849   4.673  0.9756  1.1354 -1.1312
21366SOL     OW67117   6.338   4.964   4.645 -0.4075 -0.4548  0.4412
21366SOL    HW167118   6.314   4.874   4.623 -0.7054 -0.5104  0.9746
21366SOL    HW267119   6.326   4.969   4.740 -0.9148  0.3039  0.3404
21367SOL     OW67120   2.722   3.655   2.987 -0.1807 -0.1534  0.2787
21367SOL    HW167121   2.730   3.608   3.069 -0.3340 -1.7609 -0.6168
21367SOL    HW267122   2.809   3.650   2.948 -0.2143  0.2522  0.1491
21368SOL     OW67123   2.903   8.272   5.380  0.1796 -0.2018 -0.0524
21368SOL    HW167124   2.854   8.219   5.443 -0.6590 -0.2286 -0.7261
21368SOL    HW267125   2.980   8.219   5.359 -0.8720 -1.3448 -1.0472
21369SOL     OW67126   2.358   1.113   0.709  0.2633  0.4764  0.0461
21369SOL    HW167127   2.282   1.106   0.767 -0.1715 -1.0706 -0.6976
21369SOL    HW267128   2.322   1.114   0.621  1.0808  0.3844 -0.2958
21370SOL     OW67129   8.192   2.414   1.216 -0.0330 -0.4608  0.0487
21370SOL    HW167130   8.176   2.497   1.170 -0.9404  0.7584  2.4430
21370SOL    HW267131   8.286   2.413   1.231 -0.1106  0.5524  0.6950
21371SOL     OW67132   8.798   8.192   4.251  0.1756 -0.2352  0.5694
21371SOL    HW167133   8.781   8.134   4.326  0.8169 -0.4063  0.5886
21371SOL    HW267134   8.731   8.260   4.258  0.0798 -0.3828  1.1624
21372SOL     OW67135   5.769   7.390   4.550 -0.0527  0.1981  0.2190
21372SOL    HW167136   5.769   7.377   4.455  0.1806 -2.1800  0.5121
21372SOL    HW267137   5.709   7.323   4.583  0.0071  0.8909  1.7713
21373SOL     OW67138   6.241   3.262   7.785  0.4011  0.4270 -0.3162
21373SOL    HW167139   6.258   3.193   7.849  0.3881 -0.9260 -1.7637
21373SOL    HW267140   6.147   3.256   7.768  0.7257 -0.4261 -1.8374
21374SOL     OW67141   0.377   6.071   8.055 -0.1710 -0.1191 -0.5373
21374SOL    HW167142   0.466   6.071   8.091 -0.2926  0.5537 -0.2266
21374SOL    HW267143   0.376   6.142   7.992 -0.3001 -0.5535 -1.0270
21375SOL     OW67144   4.071   3.240   7.822 -0.6353 -0.3276 -0.3162
21375SOL    HW167145   4.068   3.332   7.850  2.2416 -0.0213 -0.7742
21375SOL    HW267146   4.029   3.192   7.893 -1.2540  1.2568  0.4232
21376SOL     OW67147   5.863   0.529   4.578 -0.5519 -0.6546 -0.8716
21376SOL    HW167148   5.872   0.572   4.663  0.5902 -1.4468 -0.5782
21376SOL    HW267149   5.902   0.443   4.591 -1.9935 -1.4497 -1.7013
21377SOL     OW67150   1.280   5.901   4.143 -0.0748 -0.2857  0.0225
21377SOL    HW167151   1.208   5.870   4.197  0.2880 -0.5319  0.3666
21377SOL    HW267152   1.344   5.936   4.205 -0.4418  1.0833 -0.3576
21378SOL     OW67153   8.624   7.800   2.455  0.1459  0.6954 -0.5798
21378SOL    HW167154   8.608   7.835   2.367  0.0383  3.2748  0.4279
21378SOL    HW267155   8.716   7.820   2.472  0.0408  0.6277  0.0693
21379SOL     OW67156   4.604   9.077   0.330  0.4387  0.1704  0.0753
21379SOL    HW167157   4.594   9.105   0.421  0.6502 -0.7757  0.3955
21379SOL    HW267158   4.635   9.155   0.284 -1.2780  1.1103  0.4806
21380SOL     OW67159   2.448   3.228   8.567 -0.3635  0.3657  0.3313
21380SOL    HW167160   2.399   3.203   8.646 -0.6262 -0.5018 -0.1020
21380SOL    HW267161   2.414   3.315   8.546 -1.7863 -0.2448  0.0012
21381SOL     OW67162   8.277   8.235   7.749  0.2067 -0.1680 -0.1047
21381SOL    HW167163   8.255   8.280   7.831 -1.0770  0.9667 -1.0371
21381SOL    HW267164   8.370   8.214   7.757  0.3827  1.0108  1.1479
21382SOL     OW67165   2.064   3.367   1.503  0.1834 -0.0875  0.3828
21382SOL    HW167166   1.996   3.376   1.436 -0.4001  1.4927  1.1577
21382SOL    HW267167   2.144   3.396   1.461 -0.0607  0.2543  0.1511
21383SOL     OW67168   4.230   0.959   6.762 -0.5607  0.5745 -0.3820
21383SOL    HW167169   4.134   0.957   6.757 -0.5421  1.2139 -1.0177
21383SOL    HW267170   4.250   1.044   6.802 -0.2722  0.2416  0.1940
21384SOL     OW67171   0.120   8.234   1.889  0.2764  0.5600 -0.5077
21384SOL    HW167172   0.094   8.146   1.862  1.6040  0.9306 -3.1477
21384SOL    HW267173   0.120   8.231   1.985  0.2034 -2.2865 -0.5624
21385SOL     OW67174   2.712   2.791   2.828 -0.6211 -0.1161  0.5862
21385SOL    HW167175   2.641   2.824   2.773 -0.3116 -0.7761 -0.2101
21385SOL    HW267176   2.684   2.812   2.918 -2.2070 -1.1281  0.3442
21386SOL     OW67177   8.287   7.336   6.699  0.2965 -0.0734  0.3643
21386SOL    HW167178   8.258   7.427   6.704  0.1607 -0.0746 -0.3413
21386SOL    HW267179   8.208   7.287   6.673  0.7494 -0.1748 -0.8433
21387SOL     OW67180   4.686   6.611   3.736 -0.3387  0.7105 -0.4585
21387SOL    HW167181   4.623   6.604   3.664  0.6858 -0.4686 -1.2626
21387SOL    HW267182   4.772   6.609   3.693  0.3009 -0.6027  0.8186
21388SOL     OW67183   0.158   2.668   2.787 -0.1049 -0.4232  0.1135
21388SOL    HW167184   0.189   2.625   2.866  1.5407  1.0292  0.2866
21388SOL    HW267185   0.198   2.618   2.715 -0.3556 -0.7963  0.2303
21389SOL     OW67186   7.143   5.152   8.955  0.5320 -0.0791  0.0245
21389SOL    HW167187   7.168   5.159   8.863  1.9338 -0.1286  0.3829
21389SOL    HW267188   7.123   5.242   8.981  0.2885 -0.0416 -0.2804
21390SOL     OW67189   3.173   9.306   4.471  0.5062  0.8493  0.2255
21390SOL    HW167190   3.202   9.303   4.562 -3.0273  2.8782  1.4949
21390SOL    HW267191   3.202   9.391   4.440 -1.6402  1.7883  0.7016
21391SOL     OW67192   2.279   8.823   5.874 -0.6723  0.2552  0.2836
21391SOL    HW167193   2.323   8.753   5.825  0.4448  0.4734  0.9564
21391SOL    HW267194   2.272   8.788   5.963 -1.7206  0.2908  0.2173
21392SOL     OW67195   8.525   3.905   7.657 -0.3810  0.2866 -0.5375
21392SOL    HW167196   8.497   3.846   7.727  0.9750  0.4611  0.1686
21392SOL    HW267197   8.471   3.880   7.582 -0.3565 -1.3305 -0.0338
21393SOL     OW67198   4.010   2.599   1.998 -0.3511 -0.5700  0.4968
21393SOL    HW167199   3.946   2.651   1.950  0.8391  1.5849  1.1696
21393SOL    HW267200   4.092   2.649   1.989  1.1343 -3.0093  0.0629
21394SOL     OW67201   2.787   0.404   6.239  0.3026 -0.0857 -0.7449
21394SOL    HW167202   2.703   0.419   6.282 -0.0703 -1.3682 -1.0068
21394SOL    HW267203   2.823   0.327   6.283  1.9139  1.1874  0.2086
21395SOL     OW67204   0.760   5.613   2.876  0.6279  0.3860 -0.6868
21395SOL    HW167205   0.714   5.645   2.953 -0.6945 -0.3132 -1.1576
21395SOL    HW267206   0.842   5.576   2.909  0.0705  0.0894  0.3817
21396SOL     OW67207   0.577   3.488   8.425 -0.6365  0.0961 -0.0928
21396SOL    HW167208   0.618   3.402   8.432  0.5203  0.6510  0.1735
21396SOL    HW267209   0.583   3.509   8.332 -1.2692 -0.2711 -0.2192
21397SOL     OW67210   3.647   2.864   8.142 -0.0894 -0.4316  0.2111
21397SOL    HW167211   3.666   2.777   8.177 -0.3962 -0.3179  0.6600
21397SOL    HW267212   3.662   2.924   8.215 -1.1396 -0.2394  0.2739
21398SOL     OW67213   3.229   1.594   8.778 -0.0841  0.0085 -0.3336
21398SOL    HW167214   3.141   1.631   8.791  0.2452  0.7651 -0.2493
21398SOL    HW267215   3.249   1.612   8.687  1.4077  2.9699  0.5076
21399SOL     OW67216   9.416   6.777   1.622 -0.6056  0.3502 -0.9680
21399SOL    HW167217   9.496   6.798   1.670  0.3365 -0.2370 -2.2449
21399SOL    HW267218   9.348   6.770   1.689  0.7752 -0.9301  0.3380
21400SOL     OW67219   4.044   6.487   1.962  0.0718  0.5607  0.8374
21400SOL    HW167220   4.068   6.396   1.944  1.7671  0.8716  1.4119
21400SOL    HW267221   3.950   6.484   1.978  0.0573 -1.0459  0.5708
21401SOL     OW67222   3.355   7.201   7.994 -0.4016 -0.1252  0.0464
21401SOL    HW167223   3.344   7.281   7.943 -2.0500  0.0372  0.6319
21401SOL    HW267224   3.443   7.209   8.033 -0.3082  1.0960 -0.4017
21402SOL     OW67225   6.870   8.232   0.724  0.2365 -0.0125 -0.3822
21402SOL    HW167226   6.917   8.258   0.644  2.3576  1.2828  1.2448
21402SOL    HW267227   6.791   8.287   0.724  1.1479  1.3115 -0.6314
21403SOL     OW67228   6.911   6.668   2.870 -0.2306 -0.7900 -0.6432
21403SOL    HW167229   6.988   6.696   2.821  0.5594 -0.0379  0.9854
21403SOL    HW267230   6.915   6.573   2.868  1.4574 -0.7759  0.4697
21404SOL     OW67231   0.789   9.178   2.663  0.3911 -0.0694  0.7421
21404SOL    HW167232   0.827   9.266   2.661  0.9598 -0.2847  1.7843
21404SOL    HW267233   0.760   9.162   2.573  0.6947  1.0066  0.4530
21405SOL     OW67234   0.096   9.228   1.937 -0.3200  0.0915  0.1859
21405SOL    HW167235   0.006   9.257   1.947 -0.2849  0.6617 -0.9908
21405SOL    HW267236   0.134   9.233   2.025 -1.1914  0.6805  0.5286
21406SOL     OW67237   5.843   4.946   2.553  0.4409 -0.2361 -0.4759
21406SOL    HW167238   5.793   4.941   2.634  2.6634 -0.4131  0.9069
21406SOL    HW267239   5.797   5.012   2.501  0.9768  2.4479  2.3503
21407SOL     OW67240   1.704   7.938   1.141  0.4392  0.3026 -0.3005
21407SOL    HW167241   1.647   7.893   1.079  0.1155 -0.6667  0.6924
21407SOL    HW267242   1.692   7.891   1.224  1.0378  1.4388  0.4473
21408SOL     OW67243   5.778   5.536   4.172 -0.7426 -0.3374  0.5502
21408SOL    HW167244   5.827   5.599   4.225  1.0539 -0.0296 -1.4522
21408SOL    HW267245   5.715   5.590   4.124  0.4799 -0.0860 -0.8073
21409SOL     OW67246   9.443   6.115   4.366  0.1741 -0.3610 -0.0340
21409SOL    HW167247   9.512   6.050   4.382  0.1150 -0.4125  0.0134
21409SOL    HW267248   9.416   6.098   4.276 -0.5485 -1.0777  0.3050
21410SOL     OW67249   6.755   1.930   5.178  0.5652 -0.4886  0.4718
21410SOL    HW167250   6.807   1.964   5.105 -0.1190 -1.4336 -0.4670
21410SOL    HW267251   6.664   1.949   5.154  0.2610 -1.7663  0.5682
21411SOL     OW67252   6.252   3.349   5.216  0.2730 -0.5388 -0.6012
21411SOL    HW167253   6.272   3.406   5.290  0.4633  0.1638 -1.1799
21411SOL    HW267254   6.243   3.262   5.254  2.3951 -0.5423 -0.0207
21412SOL     OW67255   8.394   0.845   1.232 -0.1919  0.1750 -0.2026
21412SOL    HW167256   8.361   0.934   1.244 -1.3498 -0.2416 -0.2012
21412SOL    HW267257   8.315   0.790   1.230  0.4550 -0.7444 -1.1632
21413SOL     OW67258   1.859   2.256   9.173 -0.3117 -0.2894 -0.8006
21413SOL    HW167259   1.880   2.167   9.146  0.6897 -0.4300  0.4321
21413SOL    HW267260   1.823   2.248   9.261 -0.8711  0.4523 -0.9523
21414SOL     OW67261   2.191   0.030   5.871  0.3711  0.2095  0.0081
21414SOL    HW167262   2.113   0.031   5.815  0.6123 -2.5711 -0.4616
21414SOL    HW267263   2.259  -0.008   5.815  1.2276 -0.3977  1.4554
21415SOL     OW67264   4.727   1.995   5.591  0.3743 -0.4793 -0.4996
21415SOL    HW167265   4.642   2.018   5.554  0.8353 -0.7355 -1.7383
21415SOL    HW267266   4.751   2.071   5.643 -0.0969  0.0681 -1.0613
21416SOL     OW67267   4.792   1.995   0.122 -0.8903 -0.2521  0.1326
21416SOL    HW167268   4.803   1.916   0.174  0.6548 -0.2528 -0.1660
21416SOL    HW267269   4.821   2.066   0.179  0.5933 -0.2295 -0.6035
21417SOL     OW67270   5.278   9.373   2.962  0.4721 -0.9908 -0.0408
21417SOL    HW167271   5.290   9.412   2.875 -0.9478 -0.2072  0.1097
21417SOL    HW267272   5.279   9.279   2.946  2.0860 -0.9005 -0.6469
21418SOL     OW67273   6.011   4.541   6.879  0.7690  0.4916  0.7417
21418SOL    HW167274   6.100   4.553   6.911  0.8834  0.3674  0.4743
21418SOL    HW267275   5.970   4.483   6.943  1.1433 -0.1394  0.4138
21419SOL     OW67276   6.660   4.463   8.180 -0.4299  0.4201  0.1724
21419SOL    HW167277   6.595   4.401   8.212  0.7530 -0.5604  0.7466
21419SOL    HW267278   6.735   4.409   8.155  0.5045  1.5864  0.3652
21420SOL     OW67279   5.434   9.328   4.079  0.6395  0.1987 -0.0445
21420SOL    HW167280   5.342   9.350   4.065  0.4171 -1.1967 -0.8694
21420SOL    HW267281   5.440   9.306   4.172 -0.2745 -1.4826 -0.3536
21421SOL     OW67282   1.901   7.516   4.283  0.1099  0.9512  0.0442
21421SOL    HW167283   1.896   7.547   4.193  0.9311 -0.4835 -0.4998
21421SOL    HW267284   1.991   7.533   4.310  0.9004 -1.9088 -0.6309
21422SOL     OW67285   8.193   6.131   1.134 -0.4282  0.0200  0.4837
21422SOL    HW167286   8.253   6.072   1.179 -1.1983 -1.8580 -0.8731
21422SOL    HW267287   8.127   6.153   1.200  0.3861  0.1468  1.2682
21423SOL     OW67288   7.440   0.139   3.852  0.1556 -0.1438 -0.2982
21423SOL    HW167289   7.467   0.049   3.832  0.4542  0.0255 -0.6737
21423SOL    HW267290   7.379   0.162   3.781  0.4441  0.1105 -0.4671
21424SOL     OW67291   2.693   5.391   8.198  0.0703 -0.0437  0.2491
21424SOL    HW167292   2.637   5.399   8.120 -0.1341 -0.1170  0.3897
21424SOL    HW267293   2.651   5.447   8.263  1.3072  1.5527 -0.2932
21425SOL     OW67294   7.217   1.817   9.410 -0.4180 -0.3064 -0.2963
21425SOL    HW167295   7.221   1.821   9.505 -1.1389  0.9822 -0.3086
21425SOL    HW267296   7.182   1.730   9.391  0.6097 -0.9251  0.5780
21426SOL     OW67297   7.817   3.597   8.216 -0.0437  0.0083 -0.6773
21426SOL    HW167298   7.771   3.551   8.286 -1.6772 -0.0781 -1.7905
21426SOL    HW267299   7.748   3.631   8.159  1.1165  3.3958 -0.1927
21427SOL     OW67300   5.865   4.471   1.194  0.1660  0.8346 -0.2437
21427SOL    HW167301   5.907   4.386   1.178 -1.4645  0.1496 -1.0327
21427SOL    HW267302   5.897   4.528   1.124  0.0605  0.4149 -0.6364
21428SOL     OW67303   0.252   7.196   1.843 -0.9516 -0.1782 -0.2956
21428SOL    HW167304   0.319   7.221   1.907  0.4779 -0.9675 -1.4638
21428SOL    HW267305   0.228   7.107   1.867  0.8588 -1.1220 -1.8942
21429SOL     OW67306   1.580   2.777   0.169  0.3893  0.3645 -0.5238
21429SOL    HW167307   1.667   2.786   0.131  0.0414 -1.3462 -1.7421
21429SOL    HW267308   1.597   2.754   0.261  1.2264 -0.9938 -1.0050
21430SOL     OW67309   1.562   3.354   7.637 -0.2267 -0.1163  0.4776
21430SOL    HW167310   1.492   3.416   7.618 -0.2579 -0.2304  0.2116
21430SOL    HW267311   1.558   3.291   7.565 -0.3385 -0.5516  0.8607
21431SOL     OW67312   1.777   3.490   5.281  0.1662  0.7051  0.0889
21431SOL    HW167313   1.730   3.448   5.353  2.9468 -0.2557  1.4291
21431SOL    HW267314   1.828   3.559   5.323  1.5928  0.3267 -0.9797
21432SOL     OW67315   9.427   0.397   8.852 -0.1114  0.1142  0.2058
21432SOL    HW167316   9.483   0.367   8.924 -0.3810  0.9182  0.7524
21432SOL    HW267317   9.349   0.342   8.859 -0.6669  1.0229  1.2984
21433SOL     OW67318   8.712   6.331   0.715 -0.0618 -0.4019 -0.4903
21433SOL    HW167319   8.774   6.342   0.788  0.0207 -0.2179 -0.5883
21433SOL    HW267320   8.628   6.358   0.751  0.1427  0.6095 -0.7374
21434SOL     OW67321   3.417   5.270   8.450 -0.0239 -0.5547 -0.1661
21434SOL    HW167322   3.449   5.219   8.525  2.1237 -0.2061 -0.7957
21434SOL    HW267323   3.413   5.207   8.378  2.3772  0.0557 -0.8777
21435SOL     OW67324   0.500   6.568   2.469  0.4949 -0.5786  0.6231
21435SOL    HW167325   0.447   6.491   2.491 -1.0150  0.5350  1.0046
21435SOL    HW267326   0.588   6.533   2.453 -0.2497 -2.4317  0.3818
21436SOL     OW67327   6.750   3.563   6.999 -0.0443  0.3177  0.0050
21436SOL    HW167328   6.664   3.543   7.037 -0.3091  1.1160 -0.1733
21436SOL    HW267329   6.807   3.574   7.074  0.0749 -0.9341  0.1176
21437SOL     OW67330   4.633   7.746   0.053 -0.1935  0.0463  0.1828
21437SOL    HW167331   4.545   7.740   0.088 -0.1446  1.3630  0.5613
21437SOL    HW267332   4.622   7.742  -0.042 -0.5150 -1.3045  0.2673
21438SOL     OW67333   3.429   5.240   0.297  0.5184 -0.0930 -0.2691
21438SOL    HW167334   3.499   5.301   0.276 -0.5381  1.1637 -0.2589
21438SOL    HW267335   3.471   5.171   0.348  1.4113  1.5905  1.3487
21439SOL     OW67336   6.757   8.492   1.744 -0.5533 -0.0738  0.2168
21439SOL    HW167337   6.784   8.408   1.782  0.3377 -0.9122 -2.1153
21439SOL    HW267338   6.698   8.467   1.672  0.2856  1.2421 -0.9625
21440SOL     OW67339   9.441   0.792   8.715 -0.1897  0.4636  0.4079
21440SOL    HW167340   9.477   0.706   8.695 -0.8799 -0.4497  2.8835
21440SOL    HW267341   9.499   0.854   8.669  1.6370 -1.1956  0.4082
21441SOL     OW67342   6.560   6.392   7.193 -0.1962  0.1087 -0.0810
21441SOL    HW167343   6.640   6.354   7.157  0.0484 -0.5527  1.1370
21441SOL    HW267344   6.559   6.482   7.161  1.5150  0.4019  0.6642
21442SOL     OW67345   3.956   2.624   6.712 -0.2427 -0.4045 -0.5144
21442SOL    HW167346   3.967   2.568   6.788  0.8219  1.1406  0.4959
21442SOL    HW267347   3.899   2.694   6.742  0.2651  0.2676 -1.1025
21443SOL     OW67348   1.391   4.880   1.898 -0.2282  0.0713  0.8257
21443SOL    HW167349   1.306   4.842   1.921 -0.5691  1.2572  1.5990
21443SOL    HW267350   1.400   4.863   1.804 -0.2474 -2.1113  1.1952
21444SOL     OW67351   1.257   0.963   0.918  0.2179  0.4163 -0.0927
21444SOL    HW167352   1.304   0.948   1.001  1.5102  1.1501 -0.6648
21444SOL    HW267353   1.205   1.042   0.935  0.4319  0.5300  0.0525
21445SOL     OW67354   6.457   1.093   0.133  0.0761  0.4811 -0.0668
21445SOL    HW167355   6.362   1.095   0.135 -0.0234 -2.3460 -0.6265
21445SOL    HW267356   6.480   1.125   0.046 -0.4649 -0.7597 -0.6818
21446SOL     OW67357   4.542   0.863   0.068 -0.6104 -0.3116 -0.0896
21446SOL    HW167358   4.520   0.951   0.037 -0.8002 -1.0068 -1.9422
21446SOL    HW267359   4.497   0.857   0.153  1.3979  2.2460  1.2352
21447SOL     OW67360   7.670   1.568   7.935 -0.3140 -0.2381  0.6282
21447SOL    HW167361   7.669   1.565   8.031  0.2951 -0.0206  0.6421
21447SOL    HW267362   7.588   1.611   7.911 -0.3738 -0.1133  1.0576
21448SOL     OW67363   8.428   3.989   9.282  0.1666 -0.2055  0.1960
21448SOL    HW167364   8.438   3.932   9.206 -1.6475 -0.0392 -0.1724
21448SOL    HW267365   8.382   3.936   9.347 -2.0879  1.0154 -0.3763
21449SOL     OW67366   5.125   1.259   3.965 -0.2258  0.0476  0.1667
21449SOL    HW167367   5.066   1.324   3.927  0.3389  0.7402  0.4688
21449SOL    HW267368   5.084   1.174   3.943  0.3629  0.3848 -2.4726
21450SOL     OW67369   1.718   4.571   2.544 -0.0003  0.1754  0.3699
21450SOL    HW167370   1.781   4.633   2.507 -0.6044 -0.3941 -1.6659
21450SOL    HW267371   1.718   4.591   2.638  1.3872  1.8199  0.0566
21451SOL     OW67372   0.390   1.841   0.941 -0.1570 -1.0035  0.1330
21451SOL    HW167373   0.382   1.778   0.869  1.2646 -1.5423  0.4271
21451SOL    HW267374   0.408   1.787   1.018  2.1639 -0.2121  0.1917
21452SOL     OW67375   8.675   6.744   7.096  0.0651  0.8322 -0.1679
21452SOL    HW167376   8.609   6.789   7.148  0.7160  0.1142  1.3200
21452SOL    HW267377   8.756   6.791   7.114  0.1000  1.2679 -1.4256
21453SOL     OW67378   8.610   0.492   0.180  0.8648  0.0528  0.2152
21453SOL    HW167379   8.629   0.408   0.222 -5.1523 -1.8079 -0.1685
21453SOL    HW267380   8.635   0.479   0.089 -3.0566 -2.7725 -0.6116
21454SOL     OW67381   7.437   7.061   0.877 -0.6906  0.7982 -0.1005
21454SOL    HW167382   7.440   7.146   0.833  0.2378  1.6331  1.5400
21454SOL    HW267383   7.469   7.079   0.965 -0.2781 -1.3072  0.1877
21455SOL     OW67384   0.866   0.095   2.109 -0.4314  0.0916 -0.7067
21455SOL    HW167385   0.909   0.144   2.038  0.5515  0.7363  0.3184
21455SOL    HW267386   0.898   0.006   2.099 -0.9126  0.0056 -1.5574
21456SOL     OW67387   8.662   3.762   9.353 -0.3382 -0.7227  0.2011
21456SOL    HW167388   8.685   3.772   9.261  0.5498 -0.9702  0.3952
21456SOL    HW267389   8.616   3.678   9.358  3.0604 -2.6358  0.6155
21457SOL     OW67390   6.428   2.721   8.080  0.0372 -0.0381 -0.1413
21457SOL    HW167391   6.417   2.778   8.004  3.7986 -2.4012 -2.6684
21457SOL    HW267392   6.473   2.775   8.144 -1.2552  1.3732 -0.4061
21458SOL     OW67393   9.333   2.260   5.266  0.1323  0.1214 -0.2057
21458SOL    HW167394   9.314   2.213   5.347  1.0064 -2.6501 -1.5288
21458SOL    HW267395   9.382   2.197   5.213  0.3139  2.1578 -2.5583
21459SOL     OW67396   6.842   4.972   0.277  0.1891 -0.4907  0.0152
21459SOL    HW167397   6.899   4.969   0.200 -0.0201 -0.1230 -0.1555
21459SOL    HW267398   6.865   5.054   0.320  0.8370 -1.0584  0.7560
21460SOL     OW67399   6.584   7.125   4.297 -0.4225 -0.3787  0.3211
21460SOL    HW167400   6.517   7.061   4.322 -0.3441 -1.6601 -2.5400
21460SOL    HW267401   6.537   7.208   4.294 -1.3979 -0.9148  0.3921
21461SOL     OW67402   7.473   1.498   1.149  0.0958  0.2411 -0.1472
21461SOL    HW167403   7.435   1.497   1.237 -0.1714  2.5665 -0.2055
21461SOL    HW267404   7.532   1.573   1.149  0.9938 -0.4329 -1.5985
21462SOL     OW67405   8.599   3.575   1.092  0.3298 -0.3513 -0.3018
21462SOL    HW167406   8.640   3.489   1.086  0.2442 -0.5570  1.7838
21462SOL    HW267407   8.628   3.610   1.177 -2.3067  0.2708  0.3861
21463SOL     OW67408   5.109   0.883   6.009  0.5141  0.2236 -0.0762
21463SOL    HW167409   5.174   0.923   6.066 -0.4494 -0.3959  1.5116
21463SOL    HW267410   5.053   0.832   6.068 -0.6668 -0.2492 -1.5458
21464SOL     OW67411   8.659   8.205   0.895  0.1692  0.6302  0.2251
21464SOL    HW167412   8.713   8.144   0.844  0.3425  0.9953 -0.0274
21464SOL    HW267413   8.718   8.237   0.964  0.2024  0.8342  0.1024
21465SOL     OW67414   4.835   0.440   8.778 -0.0954  0.2133  0.0337
21465SOL    HW167415   4.806   0.503   8.712 -0.3378  1.1531  1.0242
21465SOL    HW267416   4.824   0.486   8.861  0.7500 -0.7568  0.6889
21466SOL     OW67417   8.512   7.707   7.010 -0.1848 -0.1126  0.5857
21466SOL    HW167418   8.476   7.618   7.009 -0.3206 -0.0658  1.0178
21466SOL    HW267419   8.604   7.696   6.987 -0.3771 -0.2774 -0.1275
21467SOL     OW67420   2.233   4.469   4.868 -0.3983  0.2982 -0.1937
21467SOL    HW167421   2.235   4.380   4.903 -2.2437 -0.5520 -2.1077
21467SOL    HW267422   2.296   4.468   4.797  1.6130  1.3450  1.5352
21468SOL     OW67423   6.463   4.121   3.218  0.2829 -0.2343 -0.0982
21468SOL    HW167424   6.389   4.155   3.268  0.0697  0.1568 -0.6732
21468SOL    HW267425   6.427   4.102   3.132  0.5632 -1.2586 -0.0024
21469SOL     OW67426   8.749   0.618   9.063  0.2331  0.1464  0.3074
21469SOL    HW167427   8.734   0.709   9.089 -1.7016  0.1923 -0.9230
21469SOL    HW267428   8.822   0.622   9.001 -1.3962  1.1249 -1.5483
21470SOL     OW67429   0.109   0.749   6.304  0.1421  0.4369  0.0913
21470SOL    HW167430   0.202   0.731   6.291  0.6445  1.7438  1.6567
21470SOL    HW267431   0.090   0.715   6.391 -0.8540  0.1353 -0.2457
21471SOL     OW67432   0.060   6.296   1.087 -0.1956 -0.5137  0.0453
21471SOL    HW167433   0.065   6.223   1.149 -1.6403  0.3856  1.2622
21471SOL    HW267434   0.014   6.365   1.135  2.0236  1.5637 -0.7498
21472SOL     OW67435   7.815   4.660   7.270 -0.4171  0.1840 -0.2670
21472SOL    HW167436   7.753   4.726   7.299 -0.9072 -0.0932 -0.6720
21472SOL    HW267437   7.811   4.664   7.174  2.2494  2.1132 -0.3636
21473SOL     OW67438   6.308   0.436   8.770 -0.1170  0.1692 -0.1826
21473SOL    HW167439   6.237   0.498   8.756 -0.0137  0.0788 -1.1733
21473SOL    HW267440   6.320   0.434   8.865 -0.7290  0.9755 -0.0804
21474SOL     OW67441   8.197   4.631   3.282 -0.3704 -0.0566  0.5660
21474SOL    HW167442   8.132   4.640   3.212 -1.7228 -3.9904  1.1563
21474SOL    HW267443   8.152   4.579   3.349  2.4578 -0.4257  2.2428
21475SOL     OW67444   9.173   0.993   4.423 -0.8283 -0.1725 -0.2602
21475SOL    HW167445   9.137   0.989   4.512  2.6810  0.6502  1.3038
21475SOL    HW267446   9.212   1.081   4.417  0.5060 -0.8482 -1.9680
21476SOL     OW67447   2.536   0.923   1.669 -0.0998 -0.0303 -0.1001
21476SOL    HW167448   2.557   0.834   1.642 -0.4982 -0.6340  1.5055
21476SOL    HW267449   2.601   0.978   1.625  1.1474 -1.2859  0.1655
21477SOL     OW67450   4.955   4.035   7.287  0.8020 -0.3342 -0.2219
21477SOL    HW167451   4.913   4.078   7.361 -0.6074  0.0346 -1.1959
21477SOL    HW267452   4.939   3.942   7.300  0.3839 -0.2541 -0.1584
21478SOL     OW67453   8.735   6.609   2.788  0.2081  0.4988 -0.2994
21478SOL    HW167454   8.644   6.638   2.793 -0.7092 -2.0637 -1.3667
21478SOL    HW267455   8.755   6.576   2.875 -1.1941 -2.5368 -1.0642
21479SOL     OW67456   6.608   3.128   2.273  0.9362 -0.4612  0.4125
21479SOL    HW167457   6.565   3.165   2.350 -0.7162 -0.6035 -0.4193
21479SOL    HW267458   6.701   3.122   2.297  0.3074 -1.2967  2.6739
21480SOL     OW67459   6.122   4.638   3.191 -0.1895 -0.4390  0.3660
21480SOL    HW167460   6.216   4.650   3.204 -0.0239 -1.1987 -0.1268
21480SOL    HW267461   6.096   4.574   3.257  0.0527 -1.8681 -0.8992
21481SOL     OW67462   9.099   2.834   0.277 -0.6843  0.1348  0.4436
21481SOL    HW167463   9.169   2.899   0.275 -0.6913  0.2145  2.2759
21481SOL    HW267464   9.084   2.817   0.370 -2.3023 -0.7475  0.0441
21482SOL     OW67465   2.959   9.316   0.618 -0.0313  0.5943 -0.6047
21482SOL    HW167466   2.863   9.320   0.618 -0.1140 -0.6728  1.1577
21482SOL    HW267467   2.980   9.261   0.543 -0.5782  2.3437 -2.0708
21483SOL     OW67468   7.707   6.008   8.993  0.1084  0.3123  0.8698
21483SOL    HW167469   7.711   6.029   8.899  0.2924 -1.1132  0.5401
21483SOL    HW267470   7.795   6.028   9.026  0.0988  0.6390  0.7031
21484SOL     OW67471   4.894   5.051   6.893 -0.2125  0.0183  0.0785
21484SOL    HW167472   4.824   5.003   6.849 -0.6471  2.7680 -2.3608
21484SOL    HW267473   4.974   5.025   6.847 -0.4286  1.4862 -1.1403
21485SOL     OW67474   0.131   5.838   1.841  0.3142  0.1362 -0.1031
21485SOL    HW167475   0.140   5.743   1.848  0.0392  0.0257 -1.0829
21485SOL    HW267476   0.216   5.872   1.867  0.2050 -0.3419  0.9014
21486SOL     OW67477   4.847   1.004   5.183  0.3919 -0.2092  0.4289
21486SOL    HW167478   4.924   1.014   5.238  1.9465 -1.2613 -1.4575
21486SOL    HW267479   4.810   0.919   5.207 -0.0211  0.1761  1.1494
21487SOL     OW67480   7.462   6.429   7.235  0.2354  0.3730  0.0554
21487SOL    HW167481   7.408   6.445   7.157  0.1565  0.2245  0.0808
21487SOL    HW267482   7.414   6.363   7.285 -0.2807  1.2893  0.7885
21488SOL     OW67483   8.807   8.204   7.576 -0.2019 -0.1686 -0.0149
21488SOL    HW167484   8.868   8.196   7.650 -0.2563 -0.3696  0.0079
21488SOL    HW267485   8.777   8.114   7.560 -3.0443  0.3222  2.0991
21489SOL     OW67486   2.574   3.737   2.658 -0.0487  0.0998 -0.2193
21489SOL    HW167487   2.602   3.671   2.722  0.1428  0.3542 -0.0357
21489SOL    HW267488   2.643   3.804   2.662 -0.5952  0.6544  0.1062
21490SOL     OW67489   1.691   7.080   7.547  0.1696  0.1693 -0.0451
21490SOL    HW167490   1.771   7.132   7.538 -0.3652  1.3716  1.8345
21490SOL    HW267491   1.623   7.132   7.506  0.2672 -0.6698 -1.2854
21491SOL     OW67492   6.149   4.264   1.624  0.0633  0.0481 -0.6489
21491SOL    HW167493   6.211   4.210   1.573  0.3023  0.3676 -0.6988
21491SOL    HW267494   6.171   4.246   1.715  2.0409  2.2054 -0.6522
21492SOL     OW67495   8.635   6.000   6.733 -0.0468 -0.8601 -0.5515
21492SOL    HW167496   8.686   5.947   6.795 -1.1571 -0.4128  0.7598
21492SOL    HW267497   8.701   6.045   6.680  0.9176 -1.4517  0.1260
21493SOL     OW67498   7.954   1.491   2.579 -0.2644 -0.1669 -0.4674
21493SOL    HW167499   8.000   1.414   2.611  0.5161  0.6476  0.4180
21493SOL    HW267500   7.977   1.560   2.641 -1.1438  0.7194 -1.1094
21494SOL     OW67501   7.353   4.408   9.232 -0.4306  0.0490 -0.0961
21494SOL    HW167502   7.363   4.501   9.256 -0.6207 -0.3405  1.5371
21494SOL    HW267503   7.417   4.363   9.286 -0.7120 -0.8397 -0.5060
21495SOL     OW67504   4.317   5.558   5.423  0.1872  0.1145 -0.0681
21495SOL    HW167505   4.349   5.640   5.385  2.3514 -1.3825 -1.6000
21495SOL    HW267506   4.396   5.507   5.442 -1.1336 -2.5230 -1.2542
21496SOL     OW67507   7.691   3.431   8.375  0.1275 -0.3020  0.1182
21496SOL    HW167508   7.624   3.429   8.307 -0.4149 -1.3789  0.6656
21496SOL    HW267509   7.642   3.434   8.458  0.7550 -0.2497  0.4939
21497SOL     OW67510   4.620   0.886   3.422 -0.1727  0.2460 -0.1102
21497SOL    HW167511   4.658   0.963   3.465 -0.7532  0.9259 -0.7876
21497SOL    HW267512   4.671   0.877   3.342 -0.4185  0.2099 -0.2606
21498SOL     OW67513   0.573   0.499   5.564 -0.2299 -0.0588  0.0272
21498SOL    HW167514   0.664   0.497   5.592 -0.0879 -2.2257 -0.5277
21498SOL    HW267515   0.557   0.591   5.541  2.0116  0.2005 -0.5871
21499SOL     OW67516   2.684   0.338   0.507 -0.2074  0.8037  0.5333
21499SOL    HW167517   2.743   0.291   0.565 -0.3386 -1.3748 -1.0610
21499SOL    HW267518   2.663   0.276   0.438 -3.5737  1.8586  0.5134
21500SOL     OW67519   0.218   8.916   3.613 -0.1665 -0.2264  0.2163
21500SOL    HW167520   0.286   8.913   3.681  0.7944 -0.7042 -0.7371
21500SOL    HW267521   0.242   8.845   3.554 -0.3665  0.8725 -1.2011
21501SOL     OW67522   0.906   0.839   8.235  0.0240  0.3309  0.0003
21501SOL    HW167523   0.994   0.814   8.264  0.1478  1.4344  0.6116
21501SOL    HW267524   0.862   0.866   8.316 -0.8711 -0.1891 -0.3071
21502SOL     OW67525   5.126   8.471   2.209  0.1639 -0.1095  0.0034
21502SOL    HW167526   5.185   8.399   2.187  0.3103 -0.1956  0.6860
21502SOL    HW267527   5.077   8.440   2.285  0.2074  0.4964  0.2834
21503SOL     OW67528   6.192   6.292   4.640 -0.4984 -0.1982  0.1216
21503SOL    HW167529   6.234   6.347   4.706 -0.8562  0.5588 -0.2771
21503SOL    HW267530   6.143   6.353   4.585  0.2012 -0.7576 -1.1499
21504SOL     OW67531   3.466   4.429   5.034  0.1386  0.4399 -0.5007
21504SOL    HW167532   3.459   4.504   5.092  2.9402  0.9904 -0.8089
21504SOL    HW267533   3.515   4.364   5.084  0.3758 -0.0322 -1.3302
21505SOL     OW67534   4.282   3.073   9.002  0.1697  0.2859  0.4835
21505SOL    HW167535   4.285   3.073   8.906  0.9231  1.6885  0.4996
21505SOL    HW267536   4.355   3.129   9.029  0.5769 -0.9005  1.9061
21506SOL     OW67537   5.698   1.648   7.282 -0.5697  0.4497 -0.3494
21506SOL    HW167538   5.739   1.732   7.301  1.4839 -0.6656  0.3896
21506SOL    HW267539   5.613   1.652   7.324  1.3355  0.4770  3.6934
21507SOL     OW67540   8.622   9.158   6.039 -0.8448  0.2378  0.5154
21507SOL    HW167541   8.583   9.208   5.968 -0.6612  2.0768  1.6873
21507SOL    HW267542   8.556   9.159   6.108 -0.7048 -0.8818  0.6765
21508SOL     OW67543   4.424   1.358   2.405  0.2935  0.3472 -0.1975
21508SOL    HW167544   4.412   1.406   2.487  0.6489 -0.3042  0.2384
21508SOL    HW267545   4.417   1.425   2.337 -2.0277  0.5953  0.2396
21509SOL     OW67546   5.399   6.648   1.404 -0.5394 -0.8627  0.7472
21509SOL    HW167547   5.369   6.593   1.331  0.5571  0.6904 -0.9340
21509SOL    HW267548   5.428   6.729   1.362  1.2957 -0.4166  2.7875
21510SOL     OW67549   0.401   6.948   4.875 -0.2375  0.0946  0.5752
21510SOL    HW167550   0.397   7.020   4.939 -2.6648  1.6676 -1.2551
21510SOL    HW267551   0.310   6.922   4.863  0.2784 -0.8014 -1.5262
21511SOL     OW67552   4.945   3.523   3.741  0.0165 -0.1670 -0.0400
21511SOL    HW167553   5.032   3.561   3.727  0.1304 -0.3232  0.2534
21511SOL    HW267554   4.959   3.454   3.805 -0.3756  0.0042  0.2255
21512SOL     OW67555   6.582   1.498   1.822  0.4591 -0.1834  0.4300
21512SOL    HW167556   6.514   1.565   1.829 -0.8202 -1.4119  0.0654
21512SOL    HW267557   6.613   1.505   1.731  1.2839  0.7947  0.7724
21513SOL     OW67558   4.092   4.958   0.741 -0.0747  0.4273 -0.0516
21513SOL    HW167559   4.163   4.901   0.709 -0.2059  0.2246  0.0189
21513SOL    HW267560   4.031   4.964   0.667  1.2016  2.5865 -1.0052
21514SOL     OW67561   0.335   6.687   4.199 -0.1536 -0.0317 -0.1457
21514SOL    HW167562   0.265   6.690   4.133 -0.8732  1.3865  0.6477
21514SOL    HW267563   0.341   6.777   4.231  0.3475 -0.6457  1.5512
21515SOL     OW67564   2.546   8.882   0.017  0.0195 -0.2525  0.3740
21515SOL    HW167565   2.523   8.796  -0.016 -1.0002  0.0517  0.2552
21515SOL    HW267566   2.639   8.891  -0.000  0.6807 -2.3004  2.5545
21516SOL     OW67567   4.487   6.410   7.572 -0.1389  0.2950 -0.5103
21516SOL    HW167568   4.473   6.371   7.486  0.4035 -1.3390  0.1251
21516SOL    HW267569   4.578   6.440   7.570  0.3887 -1.2425  0.0656
21517SOL     OW67570   2.589   8.529   9.431 -0.2966  0.4695 -0.3511
21517SOL    HW167571   2.567   8.570   9.348 -2.2283 -0.9816 -0.5906
21517SOL    HW267572   2.505   8.501   9.468  0.5054  1.2799  2.1994
21518SOL     OW67573   8.265   2.713   5.933 -0.1114  0.0966  0.1346
21518SOL    HW167574   8.300   2.779   5.874  0.4674  1.7312  2.2164
21518SOL    HW267575   8.171   2.712   5.916  0.0239  0.6874 -0.6459
21519SOL     OW67576   5.657   4.878   6.600 -0.6177  0.3383 -0.3295
21519SOL    HW167577   5.664   4.943   6.530  0.0936 -0.1238 -0.6896
21519SOL    HW267578   5.669   4.929   6.680 -0.3607  0.7001 -0.5946
21520SOL     OW67579   0.171   0.955   8.563  0.6298  0.2495  0.4061
21520SOL    HW167580   0.215   0.874   8.535  0.4868  0.0834  0.6597
21520SOL    HW267581   0.237   1.023   8.553  0.3699  0.3188 -1.0447
21521SOL     OW67582   4.817   0.880   3.837  0.3825 -0.1303 -0.4877
21521SOL    HW167583   4.752   0.870   3.907  1.4139 -1.0118  0.3726
21521SOL    HW267584   4.790   0.818   3.770 -0.9528  1.1447 -1.1415
21522SOL     OW67585   0.966   0.269   5.216 -0.3223  0.0880  0.2639
21522SOL    HW167586   0.923   0.214   5.151  0.8843  0.2397 -0.6554
21522SOL    HW267587   0.969   0.215   5.295 -0.3044 -0.6874 -0.2668
21523SOL     OW67588   7.168   3.178   1.502  0.4680  0.1612  0.2675
21523SOL    HW167589   7.130   3.264   1.480  0.9810  0.5967  1.0830
21523SOL    HW267590   7.130   3.119   1.437 -1.2923  0.6738  0.7955
21524SOL     OW67591   5.657   2.940   1.541 -0.1536 -0.0429  0.2073
21524SOL    HW167592   5.581   2.921   1.597 -0.3209 -1.0648 -0.3646
21524SOL    HW267593   5.722   2.978   1.601 -1.0765  0.7583  0.7155
21525SOL     OW67594   1.247   3.813   4.617 -0.0634 -0.6165  0.1576
21525SOL    HW167595   1.183   3.823   4.547  1.2197  1.8963 -0.7274
21525SOL    HW267596   1.195   3.813   4.697 -1.3164 -0.5070 -0.6388
21526SOL     OW67597   2.556   0.596   5.688 -0.3719  0.3442 -0.2234
21526SOL    HW167598   2.589   0.527   5.630  2.4982  0.7067  0.8852
21526SOL    HW267599   2.513   0.549   5.760  0.0906 -0.2499 -0.3313
21527SOL     OW67600   6.283   5.432   6.895  0.3263  0.1184 -0.5439
21527SOL    HW167601   6.347   5.402   6.829  0.9441 -0.4530  0.3068
21527SOL    HW267602   6.298   5.526   6.902 -0.5388  0.3883 -2.0745
21528SOL     OW67603   2.887   5.527   6.824  0.2851  0.5396  0.2877
21528SOL    HW167604   2.952   5.490   6.884 -1.4749 -1.4381  1.0436
21528SOL    HW267605   2.852   5.603   6.871  1.1712  0.8905  0.3925
21529SOL     OW67606   1.411   8.220   6.056 -0.0519  0.1254 -0.1259
21529SOL    HW167607   1.477   8.232   6.124  2.0738 -0.3411 -2.0532
21529SOL    HW267608   1.407   8.125   6.042 -0.5555  0.2040 -0.5641
21530SOL     OW67609   5.992   3.524   6.291 -0.4424  0.1027  0.1735
21530SOL    HW167610   5.914   3.539   6.237 -0.5054  0.3898  0.3431
21530SOL    HW267611   5.992   3.596   6.354  0.4685  0.6039 -0.4024
21531SOL     OW67612   7.626   6.832   1.449 -0.6543  0.0509 -0.0682
21531SOL    HW167613   7.546   6.782   1.437  1.5024 -3.7834  0.7046
21531SOL    HW267614   7.676   6.817   1.368  1.3055 -1.5767  1.4039
21532SOL     OW67615   1.578   1.563   3.198 -0.5152 -0.2892 -0.4032
21532SOL    HW167616   1.579   1.473   3.167 -1.7338  0.1382 -1.7059
21532SOL    HW267617   1.656   1.603   3.160 -0.4854 -0.5323 -0.5954
21533SOL     OW67618   3.964   8.930   4.761  0.6971  0.6450 -0.1374
21533SOL    HW167619   3.960   8.944   4.855 -2.2465  2.6637 -0.5168
21533SOL    HW267620   3.923   8.844   4.747 -0.8798  1.3399  0.2183
21534SOL     OW67621   1.596   9.058   4.744  0.8334 -0.1664  0.0988
21534SOL    HW167622   1.526   9.022   4.797  1.0347 -2.4356 -1.0784
21534SOL    HW267623   1.631   9.131   4.795 -1.0003 -0.3279  1.6217
21535SOL     OW67624   4.816   5.078   2.384 -0.0432 -0.1604 -0.2040
21535SOL    HW167625   4.831   5.072   2.289  2.1346 -1.0420  0.1625
21535SOL    HW267626   4.846   5.166   2.407  0.6226 -0.4027 -0.1395
21536SOL     OW67627   5.371   4.978   1.120  0.0997 -0.0766  0.0949
21536SOL    HW167628   5.403   5.065   1.146  1.0874 -0.8877  1.6202
21536SOL    HW267629   5.450   4.924   1.116 -0.3115 -0.5714 -2.3264
21537SOL     OW67630   5.028   8.886   7.314  0.0726  0.0339 -0.0358
21537SOL    HW167631   4.966   8.956   7.293 -1.8966 -0.9860  2.1471
21537SOL    HW267632   4.973   8.810   7.332  2.0545 -1.3188  0.5024
21538SOL     OW67633   3.886   4.909   9.413 -0.0816  0.0453  0.0749
21538SOL    HW167634   3.940   4.837   9.382 -2.5318 -1.2353 -1.3250
21538SOL    HW267635   3.877   4.894   9.507 -0.0939 -1.1371 -0.1098
21539SOL     OW67636   2.244   0.035   3.691  0.1923 -0.5883  0.3971
21539SOL    HW167637   2.188   0.087   3.633 -0.7832 -1.4746  0.5231
21539SOL    HW267638   2.182  -0.011   3.748  1.1437  0.5632  2.4138
21540SOL     OW67639   6.014   1.321   0.120  0.2255  0.2065 -0.4238
21540SOL    HW167640   5.931   1.305   0.165  1.0231 -1.0070  0.6488
21540SOL    HW267641   5.989   1.353   0.034 -1.3960 -1.5589 -0.6363
21541SOL     OW67642   4.125   8.471   5.534 -0.2957 -0.0108 -0.0606
21541SOL    HW167643   4.063   8.482   5.462  1.8514 -0.5967 -2.0677
21541SOL    HW267644   4.210   8.495   5.496  0.8184  0.0428  2.3978
21542SOL     OW67645   6.397   5.175   0.771 -0.1862 -0.1967  0.0787
21542SOL    HW167646   6.395   5.079   0.777 -2.2163 -0.3087 -1.7264
21542SOL    HW267647   6.392   5.193   0.677 -1.0251  1.6763  0.4672
21543SOL     OW67648   4.699   3.241   3.451  0.5343 -0.4086  0.2342
21543SOL    HW167649   4.639   3.167   3.450  1.0946 -0.9347  3.1666
21543SOL    HW267650   4.768   3.217   3.388 -0.9666 -0.8886 -1.2578
21544SOL     OW67651   1.715   3.082   0.331  0.2919  0.4334  0.4551
21544SOL    HW167652   1.634   3.069   0.283  1.0491  2.0800 -1.3405
21544SOL    HW267653   1.728   3.000   0.379 -1.7171 -0.3420 -0.2829
21545SOL     OW67654   3.245   1.183   3.166 -0.3310 -0.1857 -0.7736
21545SOL    HW167655   3.204   1.145   3.088  0.8951  1.1598 -2.1118
21545SOL    HW267656   3.188   1.255   3.192  1.0429  1.6116 -2.5647
21546SOL     OW67657   5.688   7.711   6.749 -1.2792  0.0375 -0.2293
21546SOL    HW167658   5.704   7.644   6.815 -0.2329  1.0333  0.5498
21546SOL    HW267659   5.688   7.793   6.799  1.4965  1.0042 -1.7314
21547SOL     OW67660   5.603   8.348   4.495  0.0925 -0.7100  0.5259
21547SOL    HW167661   5.696   8.368   4.509  0.4445 -1.9746  0.1150
21547SOL    HW267662   5.595   8.343   4.399 -0.3554 -0.7790  0.5690
21548SOL     OW67663   6.668   8.656   7.430 -0.2640  0.8730  0.4093
21548SOL    HW167664   6.758   8.639   7.458  0.4514  1.3002 -1.5946
21548SOL    HW267665   6.626   8.692   7.509  0.6674 -1.4459  2.0273
21549SOL     OW67666   3.468   3.158   7.905  0.1451  0.5515  0.2804
21549SOL    HW167667   3.550   3.109   7.900 -0.2939 -0.0965 -0.8416
21549SOL    HW267668   3.491   3.246   7.876  0.8980  0.9768  2.1111
21550SOL     OW67669   8.575   1.078   4.569  0.3008 -0.0184  0.1966
21550SOL    HW167670   8.574   1.100   4.476 -1.1499 -0.2002  0.1535
21550SOL    HW267671   8.648   1.018   4.580  0.8971  0.5430 -0.6989
21551SOL     OW67672   4.496   4.308   7.298  0.0471 -0.1785 -0.1653
21551SOL    HW167673   4.465   4.393   7.329 -0.7850 -1.3557  2.3773
21551SOL    HW267674   4.415   4.260   7.277  0.5340 -0.0954 -2.3711
21552SOL     OW67675   6.061   6.994   6.477  0.3360 -0.0823  0.3669
21552SOL    HW167676   6.039   6.974   6.568  0.0109  0.1438  0.3388
21552SOL    HW267677   6.146   7.038   6.482  0.4886 -0.4007  0.5302
21553SOL     OW67678   2.656   2.484   0.922  0.2149  0.5359  0.2587
21553SOL    HW167679   2.697   2.570   0.918 -0.0394  0.5686 -3.5157
21553SOL    HW267680   2.573   2.499   0.967  0.2756  2.2231 -0.1782
21554SOL     OW67681   8.623   2.403   4.865 -0.1935 -0.4324 -0.5075
21554SOL    HW167682   8.677   2.483   4.864 -2.0765  0.8802  0.4507
21554SOL    HW267683   8.575   2.406   4.782 -0.0221 -0.7389 -0.6170
21555SOL     OW67684   3.727   0.357   8.861 -0.0009  0.4703  0.6002
21555SOL    HW167685   3.767   0.329   8.943 -0.9662  1.0470  1.2743
21555SOL    HW267686   3.688   0.276   8.825  0.0910  0.2978  0.8897
21556SOL     OW67687   2.190   7.165   8.818 -0.4645 -0.3148 -0.2601
21556SOL    HW167688   2.146   7.170   8.733  0.5793 -0.8290 -0.8291
21556SOL    HW267689   2.128   7.207   8.878 -1.2430 -0.0059 -1.2488
21557SOL     OW67690   6.306   8.777   6.555 -0.1999  0.1439 -0.3108
21557SOL    HW167691   6.282   8.763   6.647 -0.9712 -0.3718 -0.5859
21557SOL    HW267692   6.229   8.821   6.517 -0.1311 -0.2053 -0.8533
21558SOL     OW67693   0.044   8.767   6.127  0.3189  0.5896 -0.1613
21558SOL    HW167694   0.019   8.856   6.152  0.0855  0.6554 -0.6237
21558SOL    HW267695   0.067   8.724   6.209 -0.0503  0.9281  0.1175
21559SOL     OW67696   1.768   6.804   0.089  0.2764 -0.0622  0.3844
21559SOL    HW167697   1.727   6.725   0.123  1.4905 -0.5233  0.8176
21559SOL    HW267698   1.854   6.807   0.131  0.9794  0.4937 -1.0327
21560SOL     OW67699   6.032   1.975   3.744  0.6193  0.0374  0.1126
21560SOL    HW167700   6.031   2.038   3.672 -2.3661 -0.3294 -0.2706
21560SOL    HW267701   5.953   1.922   3.729  0.1672 -0.3098  3.4384
21561SOL     OW67702   7.172   4.743   5.370  0.1380  0.0185 -0.2859
21561SOL    HW167703   7.231   4.702   5.433 -1.3002 -0.0946  1.0162
21561SOL    HW267704   7.090   4.753   5.418 -0.4375  1.5842 -1.5857
21562SOL     OW67705   7.164   5.901   9.420 -0.0507  0.0954 -0.0295
21562SOL    HW167706   7.197   5.830   9.475  1.6614 -0.3058 -1.5540
21562SOL    HW267707   7.082   5.928   9.463  1.3645 -0.0206  2.8732
21563SOL     OW67708   2.361   6.100   3.321 -0.3543  0.1440  0.4558
21563SOL    HW167709   2.374   6.007   3.303 -1.8197 -0.2116  1.2125
21563SOL    HW267710   2.299   6.129   3.254 -0.9252  0.2751  1.0437
21564SOL     OW67711   8.057   0.663   1.420 -0.1044 -0.3831 -0.1733
21564SOL    HW167712   8.110   0.645   1.342 -0.6453 -1.6008 -0.2650
21564SOL    HW267713   8.118   0.657   1.493  0.4018  0.7313 -0.4924
21565SOL     OW67714   5.989   5.680   2.721 -0.0419 -0.0645  1.0560
21565SOL    HW167715   6.019   5.602   2.768 -1.2486 -0.3253  1.3907
21565SOL    HW267716   6.054   5.747   2.742  1.5754 -1.2253 -0.0363
21566SOL     OW67717   8.184   1.026   2.859 -0.1880 -0.0841  0.5567
21566SOL    HW167718   8.116   1.091   2.874  0.6552  0.5396  1.6920
21566SOL    HW267719   8.263   1.077   2.843  0.2024 -0.8174  0.1102
21567SOL     OW67720   5.984   2.266   3.625  0.1050 -0.6206 -0.2472
21567SOL    HW167721   5.922   2.238   3.558  0.9743 -0.2889 -1.2133
21567SOL    HW267722   5.934   2.324   3.682 -0.6854 -1.0288 -0.5148
21568SOL     OW67723   8.913   8.717   0.818 -0.1608  0.2858  0.1814
21568SOL    HW167724   8.853   8.785   0.848  0.3273  1.1226 -0.7403
21568SOL    HW267725   8.999   8.746   0.849  0.2199  0.7014 -1.2646
21569SOL     OW67726   6.326   5.301   7.298 -0.4132 -0.4158 -0.1929
21569SOL    HW167727   6.258   5.360   7.263 -1.8113 -1.4939  0.6567
21569SOL    HW267728   6.280   5.248   7.363  1.7471  0.2962  1.9633
21570SOL     OW67729   6.753   4.622   1.960 -0.4277 -0.5845  0.7754
21570SOL    HW167730   6.671   4.666   1.937  0.3458  0.5721  0.1692
21570SOL    HW267731   6.782   4.667   2.040  0.5973  0.3344 -0.0965
21571SOL     OW67732   9.069   3.477   2.861 -0.0349 -0.1736  0.4298
21571SOL    HW167733   9.110   3.431   2.788 -1.4068  1.1523 -1.2055
21571SOL    HW267734   9.141   3.521   2.905  1.1422 -2.8154  1.2924
21572SOL     OW67735   4.734   3.470   1.986  0.2253 -0.2583 -1.2006
21572SOL    HW167736   4.733   3.522   2.066 -0.5978 -1.1563 -0.6100
21572SOL    HW267737   4.825   3.473   1.956  0.9032 -1.2327  0.6612
21573SOL     OW67738   1.835   4.149   9.422 -0.4516 -0.1577  0.0739
21573SOL    HW167739   1.899   4.078   9.436 -1.3677 -1.0547 -0.1942
21573SOL    HW267740   1.887   4.229   9.425  0.3319 -0.7156  2.2709
21574SOL     OW67741   1.184   8.076   3.814 -0.2485 -0.0859 -0.4383
21574SOL    HW167742   1.097   8.039   3.829  0.3264 -1.3486 -0.1160
21574SOL    HW267743   1.232   8.008   3.768  1.7337 -0.9735  2.7279
21575SOL     OW67744   0.254   7.628   0.851  0.4439  0.1476  0.3184
21575SOL    HW167745   0.216   7.715   0.859  1.2938  0.5839 -0.3092
21575SOL    HW267746   0.286   7.624   0.761  1.7979 -0.2350  0.8034
21576SOL     OW67747   1.287   6.045   2.322 -0.2182 -0.3596 -0.0223
21576SOL    HW167748   1.293   6.073   2.230 -0.4733 -0.7648 -0.1652
21576SOL    HW267749   1.195   6.022   2.333 -0.4130  0.6883  0.6319
21577SOL     OW67750   8.524   0.479   7.888  0.3812 -0.2494  0.0357
21577SOL    HW167751   8.576   0.554   7.858  1.2242 -0.3963  1.0737
21577SOL    HW267752   8.567   0.403   7.849  0.1942 -0.2702 -0.1256
21578SOL     OW67753   8.486   1.335   1.194 -0.2501 -0.1776 -0.3618
21578SOL    HW167754   8.422   1.400   1.167 -0.0335  0.0202 -0.4040
21578SOL    HW267755   8.490   1.273   1.122  0.1796  0.2398 -0.7039
21579SOL     OW67756   2.769   4.804   6.543 -0.1243 -0.5129  0.0638
21579SOL    HW167757   2.728   4.753   6.474 -0.8019 -1.8350  1.4085
21579SOL    HW267758   2.862   4.807   6.520 -0.3387 -1.0000 -0.8637
21580SOL     OW67759   4.297   5.300   5.534 -0.5686  0.1992 -0.3359
21580SOL    HW167760   4.301   5.392   5.507  0.4024 -0.0240 -0.9549
21580SOL    HW267761   4.387   5.277   5.555 -0.5868 -1.0031 -1.5208
21581SOL     OW67762   9.279   8.734   0.130 -0.1583 -0.0775  0.5633
21581SOL    HW167763   9.342   8.806   0.124  1.5255 -1.5123  0.5428
21581SOL    HW267764   9.250   8.736   0.221  0.8882 -0.1768  0.9123
21582SOL     OW67765   8.906   8.014   2.612  0.1844 -0.1272  0.0179
21582SOL    HW167766   8.935   7.957   2.542  0.1112 -0.2164  0.0608
21582SOL    HW267767   8.811   8.003   2.616  0.2677 -0.6865  0.6212
21583SOL     OW67768   2.474   2.467   4.731 -0.0317  0.4176 -0.0895
21583SOL    HW167769   2.388   2.507   4.721  0.4843  0.7656 -3.4346
21583SOL    HW267770   2.471   2.387   4.679  2.2067  1.3282 -1.7071
21584SOL     OW67771   3.482   6.658   8.973 -0.2402 -0.2661  0.1092
21584SOL    HW167772   3.441   6.574   8.994 -1.4120  0.1146 -0.6096
21584SOL    HW267773   3.429   6.693   8.901  1.2035  0.3571 -0.6700
21585SOL     OW67774   7.987   0.424   5.792  0.4538  0.0884 -0.0058
21585SOL    HW167775   8.011   0.515   5.777  0.4182 -0.1222 -1.4028
21585SOL    HW267776   7.907   0.411   5.741 -1.3210  0.1151  2.6690
21586SOL     OW67777   2.668   7.470   7.545  0.3708 -0.5786 -0.2284
21586SOL    HW167778   2.722   7.518   7.609  0.4793 -0.0423 -0.7186
21586SOL    HW267779   2.667   7.380   7.578 -3.1546  0.4934  2.9623
21587SOL     OW67780   7.543   3.361   1.902  0.0890  0.3600 -0.4467
21587SOL    HW167781   7.448   3.366   1.898  0.1158  2.2622  0.4285
21587SOL    HW267782   7.563   3.362   1.996  0.9826  0.6913 -0.6307
21588SOL     OW67783   2.797   6.946   5.049  0.7504 -0.1387  0.1053
21588SOL    HW167784   2.753   7.027   5.070 -0.8439 -0.9643 -0.0069
21588SOL    HW267785   2.848   6.925   5.128  2.5423  1.8225 -0.4792
21589SOL     OW67786   3.191   0.903   7.701  0.0192  0.0399 -0.1927
21589SOL    HW167787   3.160   0.842   7.768 -1.3337 -0.8598 -1.5851
21589SOL    HW267788   3.233   0.847   7.636  0.3137  0.7760 -0.6347
21590SOL     OW67789   7.032   8.860   1.186  0.1518  0.2823 -0.1761
21590SOL    HW167790   7.083   8.805   1.245  0.4520  0.6999 -0.0499
21590SOL    HW267791   7.054   8.949   1.210 -1.8697  0.4966  0.9595
21591SOL     OW67792   4.399   4.578   5.210  0.4861 -0.0524  0.7013
21591SOL    HW167793   4.486   4.538   5.221  0.5604  0.0714  0.5796
21591SOL    HW267794   4.352   4.518   5.152  0.2970 -0.4041  1.2159
21592SOL     OW67795   3.744   1.327   0.644 -0.4151 -0.1795 -0.1069
21592SOL    HW167796   3.714   1.305   0.556  0.4848  2.1102 -1.0132
21592SOL    HW267797   3.676   1.385   0.679  0.3508  0.7739 -0.1771
21593SOL     OW67798   6.507   5.162   6.462  0.0813  0.5309 -0.0871
21593SOL    HW167799   6.598   5.148   6.490  0.2315  0.2171 -0.7120
21593SOL    HW267800   6.512   5.162   6.366 -0.7664 -0.7349 -0.1343
21594SOL     OW67801   2.259   1.476   0.844 -0.1963  0.8470 -0.2683
21594SOL    HW167802   2.248   1.571   0.834  1.1785  0.9615 -0.7489
21594SOL    HW267803   2.338   1.466   0.897 -2.1286  0.0288  2.5564
21595SOL     OW67804   4.004   5.390   8.192 -0.4369 -0.2367 -0.0887
21595SOL    HW167805   4.084   5.347   8.222 -0.9622 -0.3894  1.1352
21595SOL    HW267806   4.034   5.466   8.143  0.4605 -0.0783  0.6919
21596SOL     OW67807   8.264   4.373   8.543 -0.0466  0.2818 -0.2211
21596SOL    HW167808   8.335   4.434   8.564  0.6790 -0.2655 -1.0563
21596SOL    HW267809   8.193   4.429   8.512  0.4609  0.7341 -0.5775
21597SOL     OW67810   1.030   0.506   0.730 -0.3285  0.3476 -0.1623
21597SOL    HW167811   0.978   0.507   0.650 -0.9009  1.1044  0.2054
21597SOL    HW267812   1.095   0.576   0.718  1.7768 -1.7356 -1.3512
21598SOL     OW67813   6.018   9.391   8.711  0.2576 -0.2185  0.5614
21598SOL    HW167814   6.033   9.357   8.799 -2.5910 -0.2619  1.0578
21598SOL    HW267815   6.009   9.486   8.722  0.5606 -0.1398  0.1979
21599SOL     OW67816   1.762   6.313   3.046  0.0754  0.1843  0.2994
21599SOL    HW167817   1.713   6.299   3.128 -0.7314  1.3966  0.0311
21599SOL    HW267818   1.854   6.310   3.072 -0.1767  0.3025  1.2136
21600SOL     OW67819   1.920   4.705   0.438  0.2808 -1.1067 -0.3866
21600SOL    HW167820   1.936   4.796   0.460  1.2721 -1.4516  0.3682
21600SOL    HW267821   2.001   4.675   0.397  0.8604 -2.2738  1.4938
21601SOL     OW67822   3.050   4.738   2.129 -0.8899  0.1508  0.2441
21601SOL    HW167823   3.057   4.805   2.197  1.2870 -1.4632  1.6639
21601SOL    HW267824   3.021   4.660   2.176  1.3271 -1.1774 -0.5501
21602SOL     OW67825   2.203   6.659   2.591 -0.6657  0.0728 -0.5298
21602SOL    HW167826   2.296   6.643   2.572 -0.9783 -1.6282 -0.7292
21602SOL    HW267827   2.202   6.694   2.680  0.0521 -1.5310  0.1219
21603SOL     OW67828   0.132   0.229   9.317  0.6348  0.2895  0.2920
21603SOL    HW167829   0.081   0.305   9.347 -0.8721  0.3189 -2.1978
21603SOL    HW267830   0.068   0.157   9.314  1.4462 -0.4307  0.1048
21604SOL     OW67831   9.383   0.967   2.818  0.0760 -0.4362 -0.3558
21604SOL    HW167832   9.334   1.044   2.848 -1.4485 -2.0062  1.3427
21604SOL    HW267833   9.468   0.974   2.862  0.1559  0.5687 -0.6563
21605SOL     OW67834   3.369   2.752   6.179 -0.9971  0.2685 -0.0594
21605SOL    HW167835   3.354   2.843   6.155  4.1146  1.1301 -0.5148
21605SOL    HW267836   3.335   2.701   6.105 -0.1688  2.0414 -1.6812
21606SOL     OW67837   6.323   7.672   6.280 -0.0534 -0.2687 -0.0609
21606SOL    HW167838   6.290   7.646   6.366 -0.5763  0.2936 -0.0945
21606SOL    HW267839   6.417   7.688   6.295 -0.2284  0.2647  0.5029
21607SOL     OW67840   0.744   0.571   2.724 -1.0208  0.1132  0.1712
21607SOL    HW167841   0.652   0.592   2.709 -0.3807  1.3459 -2.3639
21607SOL    HW267842   0.773   0.634   2.790 -1.5371  0.9971 -0.4360
21608SOL     OW67843   2.639   1.317   1.338  0.4673 -0.8984  0.4334
21608SOL    HW167844   2.672   1.277   1.257  1.7445 -0.0845  0.5386
21608SOL    HW267845   2.714   1.364   1.374 -0.5040  0.0280  1.2920
21609SOL     OW67846   2.261   7.089   2.100 -0.8725 -0.0982  1.0090
21609SOL    HW167847   2.264   7.071   2.006 -1.1872 -0.6423  1.0960
21609SOL    HW267848   2.280   7.182   2.108  0.8207 -0.3844  0.5363
21610SOL     OW67849   5.801   3.297   8.348  0.0642  0.0044  0.2211
21610SOL    HW167850   5.876   3.238   8.359 -0.1610 -0.4198 -0.5447
21610SOL    HW267851   5.759   3.297   8.434  0.0261 -1.0064  0.2131
21611SOL     OW67852   7.038   1.659   2.647 -0.0210  0.4805 -0.1774
21611SOL    HW167853   7.058   1.717   2.721 -2.9938  0.0543  1.0266
21611SOL    HW267854   7.045   1.570   2.683 -2.6070  0.2886 -0.0291
21612SOL     OW67855   8.804   5.436   5.089  0.4718 -0.0609  0.4575
21612SOL    HW167856   8.864   5.492   5.040  0.7877 -1.3659 -0.7094
21612SOL    HW267857   8.828   5.347   5.062 -1.0636 -0.6673  1.0418
21613SOL     OW67858   7.753   2.645   8.624  0.2026 -0.1200  0.1595
21613SOL    HW167859   7.711   2.703   8.687  1.7368 -0.0099  1.0850
21613SOL    HW267860   7.720   2.558   8.647 -0.6128  0.1322 -0.0237
21614SOL     OW67861   5.331   4.364   4.060  0.0659 -0.1506 -0.2060
21614SOL    HW167862   5.357   4.297   4.124  0.0842 -0.8914 -0.9793
21614SOL    HW267863   5.276   4.317   3.998  1.6887  0.1128 -1.8730
21615SOL     OW67864   7.365   8.725   3.463 -0.0749  0.0418  0.0663
21615SOL    HW167865   7.309   8.782   3.410 -1.2846 -1.1498  0.0156
21615SOL    HW267866   7.453   8.761   3.453 -0.3689  0.1875 -2.2846
21616SOL     OW67867   3.430   5.106   6.143 -0.2199  0.4064  0.4765
21616SOL    HW167868   3.355   5.046   6.132 -0.6059  0.7350  1.2495
21616SOL    HW267869   3.450   5.101   6.236  2.1330 -1.3324 -0.0885
21617SOL     OW67870   4.967   0.927   4.676  0.6644  0.3960  0.1668
21617SOL    HW167871   4.940   0.859   4.739  1.6863 -0.4050 -0.2456
21617SOL    HW267872   4.900   0.995   4.684 -0.5391 -0.7951  0.3711
21618SOL     OW67873   6.333   4.064   3.983 -0.0187 -0.0311  0.1202
21618SOL    HW167874   6.382   4.128   4.035  0.3312  0.3243 -0.6463
21618SOL    HW267875   6.370   3.980   4.009  1.7374  0.3054 -1.2312
21619SOL     OW67876   3.248   0.825   0.917 -0.3448  0.2390 -0.3985
21619SOL    HW167877   3.275   0.785   1.000  1.1421  0.5748 -0.7153
21619SOL    HW267878   3.231   0.751   0.859 -0.4952  0.0204 -0.0783
21620SOL     OW67879   3.682   8.403   0.616 -0.0320 -0.1148 -0.1641
21620SOL    HW167880   3.626   8.332   0.585 -0.7138  0.4058 -0.1279
21620SOL    HW267881   3.738   8.362   0.683 -1.2545 -0.3450  0.7301
21621SOL     OW67882   6.825   5.878   3.851 -0.2306 -0.0201  0.2336
21621SOL    HW167883   6.917   5.874   3.823 -0.0674  1.4650  0.5318
21621SOL    HW267884   6.829   5.899   3.944 -0.8879  0.6395  0.1119
21622SOL     OW67885   6.237   7.406   3.293 -0.4270  0.0547  0.0418
21622SOL    HW167886   6.274   7.484   3.253  0.3657 -0.6724 -0.6681
21622SOL    HW267887   6.268   7.408   3.384  1.4894 -0.6037 -0.5747
21623SOL     OW67888   0.751   4.333   7.678 -0.4731 -0.2953  0.2436
21623SOL    HW167889   0.658   4.325   7.658 -0.3916  1.4217 -0.9729
21623SOL    HW267890   0.777   4.418   7.640  1.7487 -1.0932 -0.1276
21624SOL     OW67891   5.852   2.861   1.370  0.2118  0.1516  0.2539
21624SOL    HW167892   5.772   2.876   1.420  0.2692 -0.4713  0.5334
21624SOL    HW267893   5.906   2.938   1.387 -0.4347  0.7060 -0.1554
21625SOL     OW67894   4.765   1.917   0.980 -0.0377  0.5722 -0.4111
21625SOL    HW167895   4.683   1.913   1.030 -0.2007 -2.2971 -0.8390
21625SOL    HW267896   4.811   1.837   1.002  1.4587  0.8912 -2.2339
21626SOL     OW67897   3.394   2.295   7.972 -0.1903  0.6296 -0.5814
21626SOL    HW167898   3.365   2.236   8.041  2.0959  1.3444  1.0496
21626SOL    HW267899   3.341   2.271   7.896 -2.5419 -0.3832  1.3038
21627SOL     OW67900   6.129   2.626   5.750 -0.0303 -0.8517 -0.3610
21627SOL    HW167901   6.100   2.544   5.710 -0.6741 -1.2443  0.8778
21627SOL    HW267902   6.152   2.601   5.840  1.7630 -0.0683 -0.5885
21628SOL     OW67903   5.975   1.888   5.591 -0.1150  0.3494  0.4011
21628SOL    HW167904   5.979   1.946   5.515  0.2348 -0.5839 -0.2989
21628SOL    HW267905   5.964   1.800   5.554  1.8790 -0.3310  1.3572
21629SOL     OW67906   8.791   9.413   1.006 -0.7568  0.1097  0.1570
21629SOL    HW167907   8.846   9.485   0.975 -1.1561  0.1797 -0.3948
21629SOL    HW267908   8.802   9.413   1.101 -0.0368  0.3121  0.0749
21630SOL     OW67909   0.965   9.106   5.595 -0.2194  0.4758 -0.3346
21630SOL    HW167910   0.909   9.029   5.605 -0.0695  0.1941 -1.6739
21630SOL    HW267911   1.051   9.077   5.625 -0.1245  0.0797 -0.9958
21631SOL     OW67912   2.408   7.061   4.005  0.1480  0.4161  0.6727
21631SOL    HW167913   2.418   7.120   4.080 -0.4627  1.2104  0.1320
21631SOL    HW267914   2.459   7.103   3.935  3.0687 -1.7341  1.4171
21632SOL     OW67915   5.503   1.948   3.797 -0.2018 -0.3288  0.1770
21632SOL    HW167916   5.448   1.996   3.734 -0.3334 -0.0751  0.4866
21632SOL    HW267917   5.494   1.856   3.771 -1.0900 -0.3300  0.4649
21633SOL     OW67918   5.836   3.705   0.164  0.3325  0.0761  0.2733
21633SOL    HW167919   5.838   3.800   0.158  2.0745  0.0260 -0.0735
21633SOL    HW267920   5.799   3.676   0.081  1.1327  0.3930 -0.1958
21634SOL     OW67921   3.770   9.183   0.761 -0.9519 -1.2133 -0.0306
21634SOL    HW167922   3.771   9.217   0.851 -0.2722 -0.1559 -0.4229
21634SOL    HW267923   3.748   9.091   0.770 -0.8966 -1.1122  1.2299
21635SOL     OW67924   0.171   5.735   0.591 -0.0203 -0.4510 -0.2385
21635SOL    HW167925   0.244   5.786   0.555  0.3640 -0.3546  0.6454
21635SOL    HW267926   0.192   5.644   0.570  0.2785 -0.4091 -0.1277
21636SOL     OW67927   1.334   5.860   6.830 -0.5778 -0.3238  0.0070
21636SOL    HW167928   1.424   5.830   6.834 -0.4518 -0.2387 -1.7037
21636SOL    HW267929   1.339   5.949   6.795 -1.2252  0.2321  1.2997
21637SOL     OW67930   4.001   2.587   0.020 -0.2960  0.1285 -0.1621
21637SOL    HW167931   4.011   2.578   0.114  0.3659 -0.2392 -0.2637
21637SOL    HW267932   4.018   2.680   0.003  0.4620  0.0192 -0.0219
21638SOL     OW67933   8.752   1.363   0.828  0.1875 -0.2492 -0.4459
21638SOL    HW167934   8.732   1.445   0.783  0.4119 -0.0641 -0.2101
21638SOL    HW267935   8.787   1.390   0.913  0.5995 -0.5793 -0.5100
21639SOL     OW67936   4.094   7.361   0.714  1.1050  0.6381 -0.2807
21639SOL    HW167937   4.080   7.418   0.639  0.8549  1.0832  0.1009
21639SOL    HW267938   4.022   7.382   0.774  0.1605 -1.0981 -0.7594
21640SOL     OW67939   3.966   3.431   2.081  0.1898  0.1293  0.6760
21640SOL    HW167940   4.025   3.366   2.041 -1.1945 -0.2395 -0.8282
21640SOL    HW267941   3.997   3.439   2.171  1.9086 -0.8039  0.1947
21641SOL     OW67942   8.093   4.501   0.771  0.2966  0.7232  0.1583
21641SOL    HW167943   8.111   4.543   0.855  0.0163 -1.5331  1.3861
21641SOL    HW267944   8.159   4.536   0.712  0.5976  2.2193  1.3531
21642SOL     OW67945   2.324   3.891   5.380 -0.6373  0.6764 -0.2436
21642SOL    HW167946   2.393   3.878   5.314  0.3029 -0.6835  0.9706
21642SOL    HW267947   2.368   3.876   5.463 -2.3460  0.1195  0.5746
21643SOL     OW67948   4.765   2.824   8.687  0.1593 -0.2564  0.0011
21643SOL    HW167949   4.754   2.918   8.704  0.4400 -0.3526  0.7653
21643SOL    HW267950   4.857   2.806   8.709  0.3060 -0.5649 -0.8622
21644SOL     OW67951   3.811   1.530   7.640 -0.1816 -0.3892 -0.4685
21644SOL    HW167952   3.776   1.465   7.701  0.3064  0.2981  0.5649
21644SOL    HW267953   3.899   1.549   7.673 -0.8968  1.9846  0.2273
21645SOL     OW67954   3.432   8.586   1.380 -0.3177 -0.4396  0.2708
21645SOL    HW167955   3.526   8.572   1.391 -0.2304 -1.0519 -1.1806
21645SOL    HW267956   3.391   8.519   1.435  0.0683  0.5735  1.8354
21646SOL     OW67957   1.854   8.961   0.525 -0.5554 -0.1924 -0.0912
21646SOL    HW167958   1.905   9.020   0.469  1.8323 -0.3895  1.7486
21646SOL    HW267959   1.786   9.016   0.562 -0.5631  0.5519 -1.1722
21647SOL     OW67960   6.158   1.123   4.464 -0.0515 -0.6707 -0.2677
21647SOL    HW167961   6.178   1.079   4.547  2.7585  0.0537 -0.4949
21647SOL    HW267962   6.119   1.055   4.409 -0.6862 -1.4991  1.1903
21648SOL     OW67963   1.978   2.691   5.557 -0.7547 -0.4902  0.4068
21648SOL    HW167964   2.060   2.738   5.542 -1.1740 -0.1324 -0.8944
21648SOL    HW267965   1.913   2.760   5.574 -1.1555 -0.6434 -0.4463
21649SOL     OW67966   2.270   5.355   3.274  0.4799 -0.1242 -0.3822
21649SOL    HW167967   2.229   5.283   3.322  0.4817  0.4133  0.4315
21649SOL    HW267968   2.308   5.314   3.197  0.9022 -1.0761  0.3233
21650SOL     OW67969   6.862   0.901   3.084 -0.4135  0.4055 -0.1445
21650SOL    HW167970   6.856   0.888   3.179 -1.5242  0.9174 -0.1357
21650SOL    HW267971   6.887   0.993   3.074  1.3460 -0.0772 -0.3247
21651SOL     OW67972   5.116   5.174   6.100  0.6434  0.3137  0.3412
21651SOL    HW167973   5.140   5.238   6.033  1.1513 -0.0471  0.1682
21651SOL    HW267974   5.150   5.210   6.182 -0.3387  0.9505  0.4658
21652SOL     OW67975   3.267   3.593   7.076 -0.1021  0.2520 -0.4952
21652SOL    HW167976   3.327   3.613   7.148  0.2909  0.5524 -0.9007
21652SOL    HW267977   3.227   3.510   7.100 -2.5293  1.9784  1.7290
21653SOL     OW67978   6.092   0.966   9.361 -0.1785 -0.1053  0.1037
21653SOL    HW167979   6.096   0.970   9.265 -1.0377  0.1237  0.0657
21653SOL    HW267980   6.099   1.057   9.389  2.3355 -0.3544  0.3859
21654SOL     OW67981   8.500   2.343   0.666 -0.0960 -0.3997  0.1862
21654SOL    HW167982   8.484   2.396   0.588  3.9992 -0.4597 -0.8315
21654SOL    HW267983   8.448   2.264   0.652 -1.2208  0.5919 -1.3813
21655SOL     OW67984   3.089   9.275   8.507  0.3664 -0.3309  0.5014
21655SOL    HW167985   3.072   9.312   8.420 -0.0800  1.4369  1.3157
21655SOL    HW267986   3.173   9.230   8.498  1.7570  2.2931 -0.1355
21656SOL     OW67987   1.820   2.063   5.687 -0.2229 -0.2080 -0.0426
21656SOL    HW167988   1.738   2.058   5.736 -0.5087 -0.4924 -0.5398
21656SOL    HW267989   1.794   2.099   5.602  0.1114 -0.6560 -0.3313
21657SOL     OW67990   8.244   5.832   5.817 -0.1673  0.7850  0.4092
21657SOL    HW167991   8.310   5.875   5.871  0.2657  1.4214 -0.5974
21657SOL    HW267992   8.214   5.758   5.869  0.1065  1.4834  1.5890
21658SOL     OW67993   8.646   2.646   6.002 -0.1179  0.2804 -0.1370
21658SOL    HW167994   8.567   2.592   6.012  1.2650 -1.4481  1.9486
21658SOL    HW267995   8.615   2.735   6.019 -1.6770 -0.3465  0.4913
21659SOL     OW67996   1.628   8.785   1.495 -0.1102 -0.4647  0.4492
21659SOL    HW167997   1.631   8.702   1.542  0.4218  0.0026  1.2571
21659SOL    HW267998   1.719   8.807   1.478 -0.0687  1.2917  2.6751
21660SOL     OW67999   5.777   4.335   3.049 -0.3794 -0.2374  0.1854
21660SOL    HW168000   5.812   4.246   3.040  1.1020  0.4506 -0.9853
21660SOL    HW268001   5.699   4.336   2.993 -0.1290 -0.6723 -0.1747
21661SOL     OW68002   3.074   0.515   9.066  0.2830  0.0672 -0.0356
21661SOL    HW168003   2.987   0.521   9.105 -0.1070  0.7237 -0.9696
21661SOL    HW268004   3.120   0.452   9.120  0.2956  2.1267  2.4888
21662SOL     OW68005   4.991   2.001   0.600 -0.1006  0.0136  0.4026
21662SOL    HW168006   4.977   2.095   0.612 -1.0399  0.0296 -0.7974
21662SOL    HW268007   5.038   1.974   0.679 -0.9905  1.2320  1.3591
21663SOL     OW68008   4.264   6.532   5.874  0.3494  0.1140 -0.2313
21663SOL    HW168009   4.266   6.556   5.782  1.9589 -1.8635 -0.7577
21663SOL    HW268010   4.210   6.453   5.877  0.7047 -0.1130  0.4198
21664SOL     OW68011   0.382   4.269   4.845 -0.3072 -0.0776 -0.7045
21664SOL    HW168012   0.325   4.237   4.915 -2.6514  1.2434 -1.9766
21664SOL    HW268013   0.461   4.298   4.891 -0.7091 -1.6754  1.1106
21665SOL     OW68014   0.596   3.655   4.504  0.3382  0.3507 -0.2947
21665SOL    HW168015   0.534   3.682   4.437 -0.6395  3.3664  1.7034
21665SOL    HW268016   0.674   3.709   4.489 -0.1449  1.5636  1.3302
21666SOL     OW68017   0.117   4.308   3.300 -0.7623 -0.7453  0.1336
21666SOL    HW168018   0.172   4.315   3.377  0.2341 -1.8638 -0.4669
21666SOL    HW268019   0.168   4.348   3.230 -0.1320 -2.9118 -0.6983
21667SOL     OW68020   6.958   3.108   3.835  0.1299 -0.7817 -0.0847
21667SOL    HW168021   6.868   3.088   3.807  0.2684 -0.5406 -0.7136
21667SOL    HW268022   6.952   3.195   3.874  0.3294 -0.2069 -1.3236
21668SOL     OW68023   7.027   6.753   8.277 -0.1655 -0.1785  0.0748
21668SOL    HW168024   7.090   6.803   8.225 -0.5368  1.0799  0.8075
21668SOL    HW268025   7.034   6.664   8.245  1.3544  0.1277 -0.4620
21669SOL     OW68026   4.919   3.170   0.342  0.1270 -0.0317 -0.0777
21669SOL    HW168027   4.989   3.127   0.294  0.6174 -0.1184  0.7038
21669SOL    HW268028   4.962   3.211   0.417 -0.6684 -0.2001  0.4862
21670SOL     OW68029   8.021   8.551   0.051 -0.1167  0.1465 -0.3994
21670SOL    HW168030   8.115   8.563   0.034 -0.0196 -0.0139  0.0094
21670SOL    HW268031   8.014   8.554   0.146 -0.5185  0.0861 -0.4282
21671SOL     OW68032   0.386   7.291   4.128 -0.5208 -0.6264 -0.1422
21671SOL    HW168033   0.466   7.291   4.181 -0.4577 -3.8036 -0.1046
21671SOL    HW268034   0.318   7.321   4.187  0.3730  0.6922  0.2515
21672SOL     OW68035   7.589   3.897   9.045 -0.0085  0.2265  0.4385
21672SOL    HW168036   7.502   3.870   9.014  0.9232 -0.8379 -1.3289
21672SOL    HW268037   7.573   3.977   9.095 -1.8061  0.9818 -1.3039
21673SOL     OW68038   1.676   8.775   6.162  0.1998 -0.9004 -0.5108
21673SOL    HW168039   1.647   8.816   6.244 -0.2780  1.0149 -1.5955
21673SOL    HW268040   1.768   8.755   6.176 -0.0876 -1.3371  0.7881
21674SOL     OW68041   1.512   0.113   6.912  0.0072 -0.1608 -0.6670
21674SOL    HW168042   1.501   0.026   6.876 -1.2049 -0.9404  1.5153
21674SOL    HW268043   1.431   0.131   6.959  0.9028  1.4556  0.3329
21675SOL     OW68044   3.907   1.813   6.402  0.7243 -0.3259 -0.3713
21675SOL    HW168045   3.900   1.813   6.307  1.3151 -2.1247 -0.4352
21675SOL    HW268046   3.962   1.737   6.422  1.2903  0.5147  1.3549
21676SOL     OW68047   2.562   9.213   4.910 -0.3206  0.2156  0.6471
21676SOL    HW168048   2.623   9.209   4.837 -1.7877 -1.5760 -0.5347
21676SOL    HW268049   2.490   9.267   4.877 -0.0822  1.0460  1.4782
21677SOL     OW68050   5.367   3.414   2.245 -0.7663 -0.2183 -0.7606
21677SOL    HW168051   5.397   3.491   2.293  0.0315 -1.2104  0.3672
21677SOL    HW268052   5.447   3.364   2.229 -1.5344 -1.8949  0.4834
21678SOL     OW68053   8.880   3.997   2.744 -0.8607  0.0682  0.0390
21678SOL    HW168054   8.922   4.013   2.828 -0.0270 -0.4683 -0.2649
21678SOL    HW268055   8.801   3.947   2.765  0.1175 -1.3644  0.3781
21679SOL     OW68056   7.182   3.139   2.790  0.3169  0.1529 -0.2906
21679SOL    HW168057   7.194   3.139   2.695 -2.4191 -0.0667 -0.6814
21679SOL    HW268058   7.132   3.059   2.808  0.5302  0.3613  1.2969
21680SOL     OW68059   1.425   0.631   5.427 -0.2738  0.0233 -0.2182
21680SOL    HW168060   1.383   0.667   5.349 -0.1394 -0.3018 -0.4459
21680SOL    HW268061   1.359   0.574   5.466  0.0979 -0.8415 -0.8263
21681SOL     OW68062   0.284   2.036   4.762 -0.5218  0.1481 -0.3397
21681SOL    HW168063   0.262   2.124   4.793 -1.5246  0.2483 -1.3286
21681SOL    HW268064   0.205   1.985   4.776 -0.0817 -0.4975 -0.1837
21682SOL     OW68065   4.951   8.711   7.991  0.5255  0.2731  0.6199
21682SOL    HW168066   5.040   8.698   8.026 -0.0773  1.0807  2.5142
21682SOL    HW268067   4.948   8.803   7.965  0.1844  0.2920  0.7221
21683SOL     OW68068   0.626   9.052   8.198  0.6524  0.2214  0.0703
21683SOL    HW168069   0.617   8.957   8.205 -1.8149  0.5457  2.1408
21683SOL    HW268070   0.680   9.065   8.121  0.6903 -2.8533 -0.5046
21684SOL     OW68071   6.903   4.730   0.449  0.0672  0.2928 -0.1419
21684SOL    HW168072   6.903   4.811   0.399 -0.1791 -0.6475 -1.7118
21684SOL    HW268073   6.996   4.707   0.456  0.0137 -0.3317 -1.4430
21685SOL     OW68074   5.350   3.860   1.282  0.3848  0.0709 -0.1877
21685SOL    HW168075   5.353   3.874   1.376 -3.7185  3.2657 -0.3951
21685SOL    HW268076   5.335   3.766   1.272  0.6449 -0.2687  2.3384
21686SOL     OW68077   0.662   7.558   5.704 -0.2811 -0.0403  0.0234
21686SOL    HW168078   0.742   7.539   5.754 -0.1138 -0.8554 -0.5324
21686SOL    HW268079   0.620   7.473   5.695 -0.0319  0.0102 -1.6788
21687SOL     OW68080   2.902   1.732   4.233  0.4550  0.1034 -0.0739
21687SOL    HW168081   2.930   1.823   4.235  0.3673  0.1642 -1.0032
21687SOL    HW268082   2.881   1.710   4.324  0.4571  1.0149  0.1463
21688SOL     OW68083   2.053   1.764   0.302  0.5862  0.2444 -0.4580
21688SOL    HW168084   2.043   1.809   0.386  0.8367  0.2894 -0.4498
21688SOL    HW268085   2.136   1.798   0.268  0.7191 -0.1284 -0.5052
21689SOL     OW68086   5.048   0.138   8.827 -0.3305  0.6345 -0.0202
21689SOL    HW168087   5.110   0.200   8.790  0.1205 -0.0460 -0.4235
21689SOL    HW268088   5.062   0.143   8.922  1.2053 -0.3889 -0.1750
21690SOL     OW68089   3.931   0.168   2.781  0.6653 -0.1855  0.0581
21690SOL    HW168090   3.911   0.243   2.725  0.5236  0.3371  0.7874
21690SOL    HW268091   4.019   0.142   2.757  1.0527  0.7783  0.4027
21691SOL     OW68092   0.282   1.200   5.749  0.0014  0.4724  0.0076
21691SOL    HW168093   0.254   1.248   5.827 -0.3379  0.6304 -0.2094
21691SOL    HW268094   0.203   1.156   5.717  0.2587 -0.0452  0.0691
21692SOL     OW68095   1.223   1.384   5.692 -0.2822 -0.5282  0.8302
21692SOL    HW168096   1.128   1.385   5.709 -0.3307 -0.2927  0.5694
21692SOL    HW268097   1.229   1.371   5.597 -0.0712  0.2341  0.7355
21693SOL     OW68098   1.695   1.280   3.463 -0.3531  0.1717 -0.1540
21693SOL    HW168099   1.669   1.359   3.510 -1.2703  0.1595 -0.6346
21693SOL    HW268100   1.767   1.243   3.515 -0.7934  0.6117  0.7687
21694SOL     OW68101   4.866   7.739   6.129  0.6268  0.4232  0.4044
21694SOL    HW168102   4.785   7.694   6.103  0.6316 -0.1912  1.4388
21694SOL    HW268103   4.883   7.708   6.218  1.4106  1.3912  0.5938
21695SOL     OW68104   6.976   0.263   4.331 -0.3131  0.8901  0.1182
21695SOL    HW168105   6.960   0.246   4.238  0.2391  0.6161  0.0737
21695SOL    HW268106   6.889   0.281   4.367 -0.9060 -1.9606  0.1711
21696SOL     OW68107   6.220   7.245   4.791  0.0207  0.0911  0.1911
21696SOL    HW168108   6.263   7.330   4.798 -2.5764  1.4078  1.1534
21696SOL    HW268109   6.252   7.195   4.865 -0.1715  1.1079  0.9856
21697SOL     OW68110   0.028   4.062   3.193  0.1570 -0.1143 -0.4963
21697SOL    HW168111   0.011   4.142   3.244  0.4267 -0.3506 -0.0379
21697SOL    HW268112  -0.028   3.996   3.234 -2.2764  0.4950 -2.6501
21698SOL     OW68113   5.360   4.177   0.539  0.3433  0.2133 -0.4071
21698SOL    HW168114   5.346   4.087   0.568 -1.8391  0.2159 -1.3276
21698SOL    HW268115   5.372   4.227   0.619 -2.7134 -0.2357  0.4002
21699SOL     OW68116   8.405   5.808   2.321 -0.6593 -0.8392  0.1578
21699SOL    HW168117   8.442   5.773   2.403  1.5752  2.0810  0.4949
21699SOL    HW268118   8.396   5.902   2.337 -4.1905 -0.8040 -1.5414
21700SOL     OW68119   4.488   5.842   1.204  0.3055  0.6928  0.4661
21700SOL    HW168120   4.576   5.834   1.241 -0.2550  2.1999  2.1817
21700SOL    HW268121   4.436   5.778   1.252  0.2758  0.3926  0.0370
21701SOL     OW68122   7.240   4.426   2.101 -0.3719 -0.2870 -0.0587
21701SOL    HW168123   7.188   4.457   2.027  0.1599  2.8798  0.8287
21701SOL    HW268124   7.189   4.354   2.139 -0.9660 -1.5220 -3.0605
21702SOL     OW68125   0.142   2.914   7.285 -0.1142  0.1850  0.1581
21702SOL    HW168126   0.108   2.832   7.322 -0.0935 -0.0809 -0.4052
21702SOL    HW268127   0.066   2.954   7.242 -0.0743  0.3548  0.2469
21703SOL     OW68128   0.583   2.895   6.251  0.4318  0.2929 -0.1153
21703SOL    HW168129   0.552   2.829   6.313  2.2342  0.9942  1.5848
21703SOL    HW268130   0.564   2.978   6.293 -1.4505  0.8990 -2.0650
21704SOL     OW68131   5.950   7.868   3.351 -0.2426 -0.3393  0.1257
21704SOL    HW168132   5.999   7.918   3.285  0.4036 -1.2194 -0.0877
21704SOL    HW268133   5.885   7.928   3.384  0.9616  0.8572  0.3597
21705SOL     OW68134   8.660   7.555   3.240 -0.0787 -0.2967 -0.3759
21705SOL    HW168135   8.640   7.555   3.333 -0.4604  0.1870 -0.4547
21705SOL    HW268136   8.635   7.468   3.209 -0.2605 -0.3414 -0.0965
21706SOL     OW68137   5.895   6.007   3.877 -0.1549 -0.4039 -0.1861
21706SOL    HW168138   5.896   6.045   3.965  0.0889  0.1430 -0.4184
21706SOL    HW268139   5.826   6.055   3.831 -1.3773 -1.7901  0.1765
21707SOL     OW68140   1.202   1.371   1.429  0.4336 -0.2459  0.7318
21707SOL    HW168141   1.107   1.376   1.440  0.5590  0.8512  1.5158
21707SOL    HW268142   1.220   1.426   1.352  0.5451  0.6470  1.3803
21708SOL     OW68143   0.882   7.525   3.693 -0.4040  0.2772  0.6577
21708SOL    HW168144   0.939   7.562   3.761  0.6180 -0.8112  0.4157
21708SOL    HW268145   0.918   7.437   3.677 -1.7553 -0.1724  0.0235
21709SOL     OW68146   7.312   3.067   0.974  0.4172 -0.1279  0.5173
21709SOL    HW168147   7.281   3.156   0.957 -0.1811 -0.1849  1.2691
21709SOL    HW268148   7.407   3.075   0.976  0.3598  0.5174  0.6955
21710SOL     OW68149   1.191   4.641   5.030  0.1985  0.4994 -0.4740
21710SOL    HW168150   1.199   4.561   4.977  1.2399 -0.7541  1.4883
21710SOL    HW268151   1.256   4.701   4.992  0.6414 -0.2225 -0.8721
21711SOL     OW68152   6.167   3.832   8.446  0.2869 -0.4933  0.4342
21711SOL    HW168153   6.118   3.897   8.496  0.4462  1.0578 -1.3922
21711SOL    HW268154   6.207   3.776   8.513 -0.2387  0.9867  2.0208
21712SOL     OW68155   8.708   1.408   0.454 -0.0244 -0.3327 -0.0026
21712SOL    HW168156   8.715   1.441   0.544 -1.9731 -0.2519  0.1439
21712SOL    HW268157   8.739   1.318   0.460 -1.1243 -0.6616  0.9805
21713SOL     OW68158   7.446   3.928   4.541 -0.0919  0.2519  0.2405
21713SOL    HW168159   7.448   4.024   4.534  1.2925  0.2988  1.2749
21713SOL    HW268160   7.496   3.898   4.465  0.1250  0.3495  0.3473
21714SOL     OW68161   4.460   4.706   0.091  0.4072  0.4372  0.2426
21714SOL    HW168162   4.369   4.687   0.111  0.1833  0.2531 -0.9265
21714SOL    HW268163   4.507   4.628   0.122  0.2925  0.9053  1.6515
21715SOL     OW68164   5.171   7.489   6.650 -0.1682  0.0964 -0.5956
21715SOL    HW168165   5.158   7.412   6.705  2.0431 -0.0933 -0.2662
21715SOL    HW268166   5.165   7.563   6.710 -0.2279  0.0505 -0.5447
21716SOL     OW68167   0.917   2.041   0.273 -0.4913 -0.0309  0.6242
21716SOL    HW168168   0.945   2.010   0.359 -1.1154  0.1184  0.8855
21716SOL    HW268169   0.973   2.116   0.255  0.1060 -0.4842  0.5918
21717SOL     OW68170   6.477   8.680   5.434 -0.0461 -0.4752 -0.2162
21717SOL    HW168171   6.523   8.684   5.350 -0.3200 -1.0943 -0.4019
21717SOL    HW268172   6.437   8.593   5.435  0.3761 -0.6598  0.7807
21718SOL     OW68173   0.534   7.668   3.110  0.2252  0.5468 -0.5270
21718SOL    HW168174   0.567   7.757   3.102 -2.6929  1.6955 -0.4892
21718SOL    HW268175   0.531   7.652   3.204  1.1730  0.2364 -0.5481
21719SOL     OW68176   2.831   4.086   8.920  0.8204 -0.4557 -0.1301
21719SOL    HW168177   2.801   4.030   8.992  1.4942 -1.4229 -0.5977
21719SOL    HW268178   2.923   4.062   8.908  1.3537  1.3245  0.1994
21720SOL     OW68179   5.869   4.745   2.857 -0.2712  0.6500  0.3545
21720SOL    HW168180   5.839   4.711   2.941  1.8183 -0.6432  0.6122
21720SOL    HW268181   5.789   4.772   2.812 -1.7460 -1.8259  1.3908
21721SOL     OW68182   7.187   4.445   0.921 -0.0296 -0.3730 -0.3533
21721SOL    HW168183   7.099   4.408   0.907  0.3636 -1.3115 -0.3643
21721SOL    HW268184   7.170   4.535   0.951 -0.9656 -0.1216 -1.5999
21722SOL     OW68185   4.633   7.473   7.845 -0.3160 -0.0420 -0.1236
21722SOL    HW168186   4.698   7.543   7.855  0.5183 -0.8358  0.0163
21722SOL    HW268187   4.590   7.493   7.762 -1.1837  1.5447  0.6933
21723SOL     OW68188   9.165   1.753   8.226  0.1511  0.8027 -0.4442
21723SOL    HW168189   9.249   1.732   8.185 -0.0072  1.0477 -0.9063
21723SOL    HW268190   9.126   1.668   8.246  0.6284  0.6878  0.0301
21724SOL     OW68191   7.391   3.803   0.319  0.3332 -0.1066 -0.5862
21724SOL    HW168192   7.425   3.785   0.407  0.7822 -1.3845 -1.0115
21724SOL    HW268193   7.468   3.827   0.268  0.1109  0.3638 -0.7074
21725SOL     OW68194   0.052   6.259   2.899 -0.4079  0.1721  0.1909
21725SOL    HW168195  -0.033   6.279   2.936 -0.5025 -1.7817  1.1023
21725SOL    HW268196   0.039   6.179   2.848  1.0229 -0.6469  1.0428
21726SOL     OW68197   7.528   6.787   4.820 -0.3527  0.2221 -0.3712
21726SOL    HW168198   7.489   6.760   4.904 -1.2845  2.4179 -0.0609
21726SOL    HW268199   7.595   6.850   4.844 -0.3440  0.5495 -1.2605
21727SOL     OW68200   8.589   6.323   5.700 -0.3819 -0.5165  0.1808
21727SOL    HW168201   8.580   6.404   5.749  0.2552 -1.4668  1.9035
21727SOL    HW268202   8.631   6.262   5.761 -0.2832 -1.9557 -1.2833
21728SOL     OW68203   4.870   0.928   4.205 -0.2651 -0.2581 -0.3341
21728SOL    HW168204   4.952   0.915   4.253 -0.7439 -1.7487  0.0908
21728SOL    HW268205   4.818   0.985   4.260 -0.1119 -0.5383  0.0999
21729SOL     OW68206   4.972   8.060   2.760  0.1935  0.4109 -0.0923
21729SOL    HW168207   4.905   8.005   2.799  0.3637  0.7218  0.6406
21729SOL    HW268208   4.949   8.149   2.787  2.4166  0.2673  2.4421
21730SOL     OW68209   3.734   0.796   6.919 -0.4603 -0.2419  0.6000
21730SOL    HW168210   3.707   0.842   6.839 -1.7964  0.4489  1.4401
21730SOL    HW268211   3.670   0.725   6.928 -1.1917  0.5801  1.8716
21731SOL     OW68212   0.270   4.552   6.780 -0.2025  0.1071  0.0312
21731SOL    HW168213   0.283   4.608   6.704 -0.4798  0.5523  0.3134
21731SOL    HW268214   0.210   4.484   6.749  0.0987 -0.0167 -0.2947
21732SOL     OW68215   5.906   6.737   2.966  0.1314 -0.0528 -0.3908
21732SOL    HW168216   5.939   6.799   3.032  0.1284 -0.2383 -0.2143
21732SOL    HW268217   5.978   6.677   2.952 -0.6935 -1.4964  1.2646
21733SOL     OW68218   7.437   4.289   6.831  0.3690 -0.6923 -0.2192
21733SOL    HW168219   7.509   4.339   6.792 -2.4078  1.6597 -2.5749
21733SOL    HW268220   7.432   4.209   6.779  0.7165 -0.4542 -0.6214
21734SOL     OW68221   7.819   0.792   4.936  0.0978 -0.0395  0.1663
21734SOL    HW168222   7.899   0.844   4.934  0.4349 -0.5710 -0.3813
21734SOL    HW268223   7.766   0.831   5.005  0.4516  0.8848 -0.0775
21735SOL     OW68224   1.561   6.751   7.331  0.7279  0.0151 -0.6033
21735SOL    HW168225   1.490   6.815   7.337 -0.6280 -1.1168 -3.4402
21735SOL    HW268226   1.604   6.753   7.416 -1.2620  2.4091  0.3777
21736SOL     OW68227   1.578   2.648   7.501  0.2861  0.1339 -0.3361
21736SOL    HW168228   1.663   2.617   7.471  1.6449  1.8880  1.5217
21736SOL    HW268229   1.540   2.573   7.547  1.8312  0.0363  0.8062
21737SOL     OW68230   4.927   6.757   2.473  0.4966 -0.1712  0.3638
21737SOL    HW168231   4.918   6.664   2.495  2.9279 -0.1582  1.5407
21737SOL    HW268232   4.893   6.764   2.384 -1.2457 -1.8655  0.8602
21738SOL     OW68233   6.970   8.954   7.024 -0.0089 -0.0517  0.2413
21738SOL    HW168234   6.983   8.949   7.119 -1.9051  0.1516  0.5380
21738SOL    HW268235   6.892   8.901   7.008 -0.1830  0.5915 -1.0905
21739SOL     OW68236   2.140   9.406   8.809 -0.5684  0.7065 -0.1437
21739SOL    HW168237   2.108   9.477   8.754 -1.0842  1.3250  0.9386
21739SOL    HW268238   2.227   9.385   8.773 -0.5577  1.6488 -0.6867
21740SOL     OW68239   4.817   0.889   2.641  0.2793 -0.2537  0.4908
21740SOL    HW168240   4.751   0.843   2.588  1.9586 -1.9486 -0.1959
21740SOL    HW268241   4.785   0.980   2.645 -2.1780 -1.0678  0.3524
21741SOL     OW68242   9.394   6.028   2.279 -0.0396 -0.3199 -0.0586
21741SOL    HW168243   9.319   5.972   2.293  1.2297 -2.1109 -0.2704
21741SOL    HW268244   9.427   6.004   2.192  1.7928 -0.7976  0.7443
21742SOL     OW68245   3.769   6.362   5.385  0.4783  0.2275  0.4079
21742SOL    HW168246   3.862   6.367   5.361  0.2288 -0.3332 -0.6759
21742SOL    HW268247   3.770   6.324   5.473  1.3094  0.9341  0.7222
21743SOL     OW68248   4.323   5.204   1.829  0.2043  0.6677  0.0802
21743SOL    HW168249   4.386   5.242   1.890 -0.0211 -0.0436  0.7664
21743SOL    HW268250   4.286   5.129   1.876 -1.4621  1.3212 -0.1340
21744SOL     OW68251   2.730   1.665   8.373  0.5382 -0.0630 -0.3807
21744SOL    HW168252   2.717   1.619   8.456  1.8098 -0.7743 -0.5578
21744SOL    HW268253   2.659   1.729   8.370 -0.0228 -0.5983  0.8591
21745SOL     OW68254   8.359   2.801   7.437 -0.3645 -0.2834 -0.0099
21745SOL    HW168255   8.271   2.829   7.461  0.1746  0.9054  0.6478
21745SOL    HW268256   8.414   2.828   7.511  0.3028 -2.5384  0.3734
21746SOL     OW68257   2.993   2.262   8.779 -0.1597  0.0722  0.6848
21746SOL    HW168258   2.913   2.292   8.736  0.5981  2.9179  1.1183
21746SOL    HW268259   2.967   2.248   8.870 -0.8553 -2.1205  0.1816
21747SOL     OW68260   5.178   6.274   0.171  0.3234 -0.1874  0.1661
21747SOL    HW168261   5.265   6.236   0.182 -0.1083 -1.7190 -1.3944
21747SOL    HW268262   5.177   6.304   0.080 -0.6444  0.2144  0.3048
21748SOL     OW68263   2.095   3.685   7.124  0.6507  0.0624  0.0652
21748SOL    HW168264   2.143   3.753   7.077  0.9371 -0.3375 -0.2147
21748SOL    HW268265   2.162   3.625   7.155  0.4305  0.1227  0.6632
21749SOL     OW68266   0.817   7.226   0.418  0.0636 -0.1681 -0.1378
21749SOL    HW168267   0.811   7.212   0.513 -0.2395 -0.7301 -0.2400
21749SOL    HW268268   0.816   7.322   0.408 -1.0086 -0.1255  0.3517
21750SOL     OW68269   3.256   8.500   4.706  0.0138  0.1447  0.3341
21750SOL    HW168270   3.270   8.443   4.781  0.9529  0.6266  0.5352
21750SOL    HW268271   3.312   8.464   4.638  1.0563  1.1436  0.6416
21751SOL     OW68272   4.339   0.248   0.022  0.1421  0.1468 -0.1478
21751SOL    HW168273   4.353   0.332  -0.022  0.4679  1.7137  2.8089
21751SOL    HW268274   4.375   0.183  -0.038  1.4884  2.2771 -1.7195
21752SOL     OW68275   6.978   6.859   0.913  0.3767  0.2528 -0.1151
21752SOL    HW168276   6.909   6.804   0.951 -0.3066 -0.0325 -1.7074
21752SOL    HW268277   7.059   6.816   0.938 -0.1544 -1.5328 -1.3704
21753SOL     OW68278   2.177   1.086   4.031  0.0166 -0.1983 -0.2497
21753SOL    HW168279   2.140   0.998   4.038  0.7025 -0.4729 -0.0383
21753SOL    HW268280   2.153   1.115   3.943  0.9889 -1.1514 -0.8401
21754SOL     OW68281   7.482   5.613   2.135  0.7169  0.0582 -0.8374
21754SOL    HW168282   7.442   5.571   2.212 -0.3439  3.6922  0.6967
21754SOL    HW268283   7.411   5.665   2.097  1.6530 -0.4950 -3.4406
21755SOL     OW68284   2.612   4.607   9.234  0.3014  0.5195 -0.1222
21755SOL    HW168285   2.524   4.608   9.196  0.2415 -0.5913 -0.0328
21755SOL    HW268286   2.613   4.529   9.290  1.1742  0.8110  0.2813
21756SOL     OW68287   6.239   5.260   2.928  0.9147 -0.0660 -0.0115
21756SOL    HW168288   6.227   5.218   3.014  0.5315  3.1870  1.6039
21756SOL    HW268289   6.332   5.282   2.925  1.3014 -1.7586 -1.2428
21757SOL     OW68290   0.573   4.990   4.109  0.7527  0.0080 -0.0073
21757SOL    HW168291   0.633   4.995   4.035 -1.9496  1.8752 -2.2238
21757SOL    HW268292   0.500   4.937   4.076 -0.3605  0.6418  1.4133
21758SOL     OW68293   1.421   4.869   5.677 -0.0083  0.0107  0.3554
21758SOL    HW168294   1.360   4.819   5.622 -0.7877 -1.2987  2.3498
21758SOL    HW268295   1.366   4.935   5.719  0.6039  1.0694 -0.4718
21759SOL     OW68296   2.825   5.996   7.937  0.0648  0.2594 -0.1411
21759SOL    HW168297   2.796   5.905   7.935  0.9727 -0.0225 -1.2978
21759SOL    HW268298   2.868   6.005   8.022  2.4508 -1.2148 -1.1240
21760SOL     OW68299   3.478   8.879   2.648  0.6614  0.4879  0.1536
21760SOL    HW168300   3.388   8.881   2.616  0.6323 -0.3740  0.1683
21760SOL    HW268301   3.520   8.955   2.608  0.8326 -0.9381 -2.5086
21761SOL     OW68302   8.167   8.558   3.822  0.2524  0.3806 -0.2492
21761SOL    HW168303   8.163   8.507   3.903  0.3243  0.9880  0.1330
21761SOL    HW268304   8.260   8.578   3.811  0.2578  0.1929 -0.5509
21762SOL     OW68305   4.154   2.669   2.305  0.5308 -0.7594  0.0780
21762SOL    HW168306   4.184   2.609   2.237 -1.2554 -0.7356 -0.7747
21762SOL    HW268307   4.066   2.637   2.328 -0.3380  1.3485 -0.1809
21763SOL     OW68308   8.828   7.880   6.997  0.1990 -0.3227  0.0554
21763SOL    HW168309   8.769   7.823   6.947 -0.7691  0.0768  0.7183
21763SOL    HW268310   8.858   7.825   7.070  2.2253 -1.1522 -1.3608
21764SOL     OW68311   0.096   7.649   6.253  0.2212  0.0421 -0.1288
21764SOL    HW168312   0.184   7.642   6.215  0.1479  2.0495 -0.7118
21764SOL    HW268313   0.060   7.729   6.216 -1.9479 -0.8568 -0.0393
21765SOL     OW68314   0.714   9.362   3.358  0.8164 -0.5125 -0.5951
21765SOL    HW168315   0.798   9.342   3.317  0.6165  1.0088 -1.7760
21765SOL    HW268316   0.650   9.346   3.289  0.3175  0.3492 -0.3333
21766SOL     OW68317   8.156   5.837   1.494  0.2871 -0.1015 -0.3055
21766SOL    HW168318   8.116   5.867   1.576  1.1835  0.6902 -0.1557
21766SOL    HW268319   8.250   5.838   1.511  0.4270 -1.0074 -0.9887
21767SOL     OW68320   0.487   9.012   0.605 -0.2833  0.1677  0.4073
21767SOL    HW168321   0.494   8.967   0.690 -0.5403 -1.5674 -0.4635
21767SOL    HW268322   0.515   8.946   0.541  2.3636  2.2680 -0.6630
21768SOL     OW68323   0.975   6.798   0.451 -0.1572 -0.0556 -0.1772
21768SOL    HW168324   0.991   6.863   0.382  1.1961  0.8254  0.9227
21768SOL    HW268325   0.994   6.845   0.532 -1.7182 -1.0820  0.8001
21769SOL     OW68326   0.238   8.493   8.043  0.0835 -0.6866 -0.6913
21769SOL    HW168327   0.233   8.398   8.055  1.0668 -1.0562 -3.0529
21769SOL    HW268328   0.146   8.521   8.039 -0.2230 -1.4218  0.5826
21770SOL     OW68329   3.131   3.407   1.748  0.2065  0.0706  0.3850
21770SOL    HW168330   3.166   3.319   1.765  0.0150  0.2193  1.5331
21770SOL    HW268331   3.036   3.396   1.750  0.1832  0.2747  0.3766
21771SOL     OW68332   5.109   6.390   2.240  0.2238 -0.1273  0.3322
21771SOL    HW168333   5.134   6.368   2.330  1.4904  0.8207  0.2249
21771SOL    HW268334   5.189   6.380   2.189 -0.1387  0.7323 -0.4305
21772SOL     OW68335   7.005   9.396   5.696 -0.8154  0.2293  0.3332
21772SOL    HW168336   7.027   9.334   5.766  1.5734  1.2954  0.5652
21772SOL    HW268337   7.083   9.400   5.642 -1.8217  1.2094 -1.0818
21773SOL     OW68338   8.922   9.432   4.602 -0.6289 -0.1418 -0.1082
21773SOL    HW168339   8.932   9.525   4.619  0.1917 -0.4727  1.2415
21773SOL    HW268340   8.973   9.389   4.670 -3.4374 -1.6570  1.1069
21774SOL     OW68341   0.534   6.842   3.688 -0.1216  0.4270  0.0993
21774SOL    HW168342   0.448   6.832   3.729  0.4641 -2.5036  0.7313
21774SOL    HW268343   0.590   6.875   3.758 -0.3873  0.8732  0.1038
21775SOL     OW68344   1.244   1.372   3.436 -0.6708 -0.6260  0.3128
21775SOL    HW168345   1.280   1.313   3.370 -0.7639 -0.1903 -0.1353
21775SOL    HW268346   1.179   1.424   3.389 -0.0408  0.3655  0.5043
21776SOL     OW68347   0.290   5.327   2.561 -0.9600 -0.3124 -0.9725
21776SOL    HW168348   0.224   5.341   2.628  0.3680  2.7214 -0.2000
21776SOL    HW268349   0.242   5.333   2.478 -1.7935  0.9975 -0.4071
21777SOL     OW68350   8.632   0.440   9.367 -0.4251 -0.0182  0.2650
21777SOL    HW168351   8.555   0.424   9.313  0.1062  0.7787 -0.7541
21777SOL    HW268352   8.679   0.510   9.322 -0.0175  0.7352  1.8137
21778SOL     OW68353   3.437   0.976   7.139 -0.1416 -0.2769 -0.4619
21778SOL    HW168354   3.362   0.986   7.197  0.4127 -0.5075  0.3109
21778SOL    HW268355   3.432   0.885   7.109  0.2892 -0.5487  0.2597
21779SOL     OW68356   5.625   2.912   7.529 -0.0514 -0.0300 -0.3409
21779SOL    HW168357   5.656   2.939   7.442  1.0045 -0.6101 -0.1609
21779SOL    HW268358   5.573   2.985   7.561  0.5766  0.6818 -0.9526
21780SOL     OW68359   7.887   3.422   5.947 -0.5943  0.2173 -0.4086
21780SOL    HW168360   7.964   3.364   5.952  0.0416  1.1685  1.6833
21780SOL    HW268361   7.812   3.362   5.948  0.0649 -0.6103  1.3606
21781SOL     OW68362   5.705   3.268   4.225 -0.4315  0.0254  0.1979
21781SOL    HW168363   5.646   3.288   4.297 -1.1570  3.1360 -1.1459
21781SOL    HW268364   5.657   3.295   4.147  1.7564  0.2192 -1.1333
21782SOL     OW68365   5.902   8.912   7.931 -0.3020 -0.2951  0.0982
21782SOL    HW168366   5.993   8.904   7.961 -0.5258 -0.1713  0.8258
21782SOL    HW268367   5.858   8.958   8.002 -0.1488  2.8466 -1.7576
21783SOL     OW68368   0.567   1.398   7.029 -0.2877 -0.0538  0.0574
21783SOL    HW168369   0.518   1.344   7.092 -0.7271  0.7650  0.4193
21783SOL    HW268370   0.613   1.462   7.083  0.9248 -0.6022 -0.3071
21784SOL     OW68371   4.823   0.734   5.230 -0.4402 -0.1222  0.3161
21784SOL    HW168372   4.917   0.721   5.240 -0.3501  0.4614  0.2504
21784SOL    HW268373   4.784   0.654   5.265  0.1422 -1.1620 -1.3963
21785SOL     OW68374   4.585   4.531   6.861 -0.0693  0.0017 -0.0479
21785SOL    HW168375   4.522   4.459   6.873 -0.3999  0.3879  0.5542
21785SOL    HW268376   4.658   4.509   6.917 -0.5940  0.6225  0.8923
21786SOL     OW68377   7.305   6.139   6.791  0.4453 -0.9053  0.4724
21786SOL    HW168378   7.369   6.209   6.780 -1.2752  0.5780 -0.3702
21786SOL    HW268379   7.259   6.161   6.872 -2.6485  1.1277 -1.7043
21787SOL     OW68380   9.049   8.391   4.902  0.2433  0.0583 -0.6532
21787SOL    HW168381   9.071   8.485   4.904 -0.2456  0.1816 -1.0180
21787SOL    HW268382   9.133   8.347   4.919  0.9016  0.5194 -2.5543
21788SOL     OW68383   5.217   7.951   3.894  0.1723  0.1436 -0.2516
21788SOL    HW168384   5.173   8.027   3.930 -2.9697 -1.5785 -0.2267
21788SOL    HW268385   5.223   7.969   3.800  0.8460  1.0835 -0.0276
21789SOL     OW68386   9.279   0.296   6.402  0.7129  0.1436 -0.7004
21789SOL    HW168387   9.239   0.368   6.450  1.2734 -0.4335  0.6558
21789SOL    HW268388   9.373   0.304   6.420  0.6035 -2.0560  1.0881
21790SOL     OW68389   7.598   2.173   9.327 -0.0508  0.2247 -0.9484
21790SOL    HW168390   7.576   2.139   9.414 -1.1494 -0.6583 -1.5608
21790SOL    HW268391   7.687   2.208   9.337 -0.2509  0.3286  0.5799
21791SOL     OW68392   7.066   5.078   9.200  0.9381  0.4862  0.4429
21791SOL    HW168393   7.098   5.097   9.112  0.2111  2.0510  0.5012
21791SOL    HW268394   7.053   4.983   9.201 -0.5615  0.6462 -1.6418
21792SOL     OW68395   0.773   4.468   2.962  0.1176 -0.1075  0.0291
21792SOL    HW168396   0.819   4.416   2.897  0.4676 -0.1343  0.2943
21792SOL    HW268397   0.706   4.409   2.996 -0.9111  0.3267 -1.2222
21793SOL     OW68398   1.601   1.026   6.339  0.9293  0.3885  0.0692
21793SOL    HW168399   1.609   1.100   6.278  0.5150  0.0603 -0.3834
21793SOL    HW268400   1.681   1.030   6.391  1.4934  0.4101 -0.7849
21794SOL     OW68401   5.307   6.089   2.157 -0.4638 -0.6361  0.4863
21794SOL    HW168402   5.217   6.103   2.128 -0.1729  1.6302  0.5449
21794SOL    HW268403   5.356   6.076   2.075 -0.7545 -1.2756  0.4146
21795SOL     OW68404   4.795   0.233   1.181  0.4376  0.1908  0.1518
21795SOL    HW168405   4.762   0.300   1.242  1.4114 -0.7548  1.7393
21795SOL    HW268406   4.715   0.195   1.144 -0.2419 -0.2998  2.0275
21796SOL     OW68407   2.112   6.427   0.819 -0.5137  0.0595  0.0133
21796SOL    HW168408   2.108   6.407   0.912 -2.3481  0.1542 -0.0357
21796SOL    HW268409   2.168   6.505   0.813  0.5516 -0.6280  0.9050
21797SOL     OW68410   6.147   1.799   4.473 -0.0988  0.4802 -0.5363
21797SOL    HW168411   6.179   1.846   4.396  2.5739 -1.2968 -0.5763
21797SOL    HW268412   6.129   1.710   4.442  1.5982 -0.4267  0.9611
21798SOL     OW68413   3.210   5.510   2.022  0.1755 -0.8024  0.0779
21798SOL    HW168414   3.227   5.516   2.116 -0.4914 -2.7469  0.3365
21798SOL    HW268415   3.118   5.487   2.015 -0.2699  1.1908 -1.1293
21799SOL     OW68416   7.987   2.150   6.692  0.4667 -0.3079  0.2794
21799SOL    HW168417   8.075   2.141   6.655  0.2459 -0.6713 -0.1503
21799SOL    HW268418   7.975   2.071   6.744  0.5156 -0.1094  0.5927
21800SOL     OW68419   0.595   3.346   2.700  0.5136  0.1701 -0.1185
21800SOL    HW168420   0.590   3.401   2.622  1.3095  0.7021  0.1865
21800SOL    HW268421   0.685   3.312   2.699 -0.0255 -1.2466 -0.3827
21801SOL     OW68422   8.333   1.099   7.970 -0.0154  0.2976 -1.2725
21801SOL    HW168423   8.243   1.108   7.939 -0.0570  0.4081 -1.1244
21801SOL    HW268424   8.351   1.006   7.966 -0.9395 -0.0062  0.9128
21802SOL     OW68425   8.095   2.315   5.402  0.0417  0.6582 -0.3850
21802SOL    HW168426   8.186   2.303   5.429  0.1381  0.9379 -0.5890
21802SOL    HW268427   8.082   2.252   5.331 -0.5223 -0.8469  1.0199
21803SOL     OW68428   2.200   5.733   0.738  0.2806  0.0217  0.6621
21803SOL    HW168429   2.273   5.691   0.784  0.7110 -0.0217 -0.0536
21803SOL    HW268430   2.127   5.730   0.801  0.3403 -1.6883  0.6778
21804SOL     OW68431   4.480   8.828   5.731  0.0516  0.6462  0.1814
21804SOL    HW168432   4.393   8.854   5.760 -0.5555  0.4630 -1.4685
21804SOL    HW268433   4.528   8.811   5.813 -1.0826  1.9146  1.1235
21805SOL     OW68434   5.873   4.946   0.518 -0.2760 -0.4126  0.2399
21805SOL    HW168435   5.871   4.982   0.429 -0.5358 -0.8200  0.0766
21805SOL    HW268436   5.860   5.021   0.575  0.9767  0.0136 -0.0256
21806SOL     OW68437   2.640   0.911   9.071 -0.1578  0.2815 -0.1190
21806SOL    HW168438   2.689   0.984   9.031 -0.2208  0.2190 -0.3076
21806SOL    HW268439   2.694   0.886   9.147  0.4855 -0.2818 -0.7567
21807SOL     OW68440   7.883   2.966   6.964  0.8844  0.0757  0.2940
21807SOL    HW168441   7.854   2.951   6.874 -0.0280 -0.1407  0.6221
21807SOL    HW268442   7.929   3.050   6.961 -0.4313  0.7951 -0.0848
21808SOL     OW68443   6.445   8.082   3.683  0.1560  0.3578  0.7744
21808SOL    HW168444   6.394   8.140   3.739 -0.9726 -0.5805  0.7603
21808SOL    HW268445   6.521   8.133   3.656  0.0051  1.2607  2.0561
21809SOL     OW68446   2.891   4.706   4.106  0.2731  1.1106  0.4673
21809SOL    HW168447   2.974   4.664   4.081 -0.5119 -0.0648 -0.2556
21809SOL    HW268448   2.898   4.721   4.200 -0.5394 -3.3878  1.3778
21810SOL     OW68449   5.704   3.318   9.315  0.4027  0.0243 -0.1581
21810SOL    HW168450   5.795   3.317   9.286  0.2085  0.7132 -0.8208
21810SOL    HW268451   5.676   3.409   9.303  0.1105  0.1727  1.5876
21811SOL     OW68452   6.190   3.064   6.284 -0.1981  0.3546 -0.1556
21811SOL    HW168453   6.114   3.117   6.262 -0.3756  0.0346 -0.3112
21811SOL    HW268454   6.255   3.127   6.316 -0.2738  0.7057 -0.7023
21812SOL     OW68455   3.572   3.285   2.638 -0.2257 -0.3302  0.3815
21812SOL    HW168456   3.500   3.343   2.662  0.4540  0.4314  0.6036
21812SOL    HW268457   3.626   3.337   2.578 -0.1040 -1.0531 -0.1384
21813SOL     OW68458   5.931   4.603   4.480 -0.0782  0.4116  0.5084
21813SOL    HW168459   5.900   4.558   4.559 -1.0232  1.4700  0.7511
21813SOL    HW268460   5.885   4.558   4.409 -0.4272  0.4792  0.6858
21814SOL     OW68461   0.189   0.580   1.583 -0.5897 -0.2259  0.1304
21814SOL    HW168462   0.181   0.668   1.546 -0.6347  0.4383  1.6976
21814SOL    HW268463   0.105   0.538   1.564  0.1445 -0.6183 -2.3607
21815SOL     OW68464   4.966   0.028   0.189  0.0422 -0.1930 -0.4213
21815SOL    HW168465   4.953   0.118   0.156 -0.6358 -0.7254 -1.6508
21815SOL    HW268466   4.966   0.038   0.284  1.7593  1.3563 -0.5489
21816SOL     OW68467   6.756   5.784   1.618  0.5506  0.3764  0.4848
21816SOL    HW168468   6.827   5.757   1.677  1.1428 -0.0026 -0.3915
21816SOL    HW268469   6.730   5.705   1.572  0.2076  0.7019  0.1086
21817SOL     OW68470   3.518   4.804   5.037  0.5580 -0.0390  0.4424
21817SOL    HW168471   3.613   4.812   5.029  0.6182 -1.3292 -0.3340
21817SOL    HW268472   3.498   4.831   5.126  1.5422  1.2320  0.2810
21818SOL     OW68473   1.886   8.861   5.001 -0.0929  0.0389  0.1578
21818SOL    HW168474   1.933   8.853   4.918  0.0750 -2.9153  0.4775
21818SOL    HW268475   1.799   8.826   4.983  0.1235 -1.1537  1.3472
21819SOL     OW68476   7.215   5.154   2.050 -0.0394  0.3673  0.1991
21819SOL    HW168477   7.227   5.062   2.025  1.2669  1.0124 -1.6890
21819SOL    HW268478   7.231   5.156   2.144  0.3996 -1.2557  0.1681
21820SOL     OW68479   6.928   0.655   7.386  0.2934 -0.4540  0.4844
21820SOL    HW168480   7.013   0.695   7.401 -0.0514  0.6361 -0.3863
21820SOL    HW268481   6.865   0.714   7.427 -0.1632 -0.4962 -0.1369
21821SOL     OW68482   4.056   1.268   2.488 -0.8165  0.2742 -0.1426
21821SOL    HW168483   3.998   1.309   2.423 -2.2003  0.1612  1.0102
21821SOL    HW268484   4.059   1.331   2.560 -1.0884 -0.6031  0.6469
21822SOL     OW68485   2.047   1.595   3.727  0.1930 -0.3506 -0.0553
21822SOL    HW168486   2.010   1.653   3.661 -1.5340 -1.1034  0.2354
21822SOL    HW268487   2.115   1.647   3.770  1.1493  0.2396 -2.2197
21823SOL     OW68488   3.120   4.915   9.211  0.3101 -0.0724  0.2937
21823SOL    HW168489   3.172   4.843   9.177  1.1053  0.4266  0.4388
21823SOL    HW268490   3.140   4.989   9.153  2.7023  1.1528  2.5612
21824SOL     OW68491   4.120   5.073   4.004  0.4417 -0.1818  0.0706
21824SOL    HW168492   4.182   5.022   3.951 -1.1105 -1.3321 -0.6476
21824SOL    HW268493   4.100   5.016   4.078  1.8153  1.0212  1.4260
21825SOL     OW68494   8.807   7.215   0.735  0.7200 -0.3786 -0.3507
21825SOL    HW168495   8.858   7.159   0.793  1.7307 -0.2521 -1.1040
21825SOL    HW268496   8.726   7.232   0.783  0.7025 -1.9024  0.1706
21826SOL     OW68497   8.709   3.842   8.836  0.0041 -0.4085  0.4262
21826SOL    HW168498   8.688   3.750   8.848  0.1850 -0.4859  0.1681
21826SOL    HW268499   8.791   3.841   8.786 -0.4049 -0.1115 -0.2632
21827SOL     OW68500   9.115   2.014   8.077 -0.4279  0.1045  0.0145
21827SOL    HW168501   9.086   1.963   8.001 -0.8414 -0.8259  0.7886
21827SOL    HW268502   9.130   1.948   8.145 -2.0311  1.1298  1.3693
21828SOL     OW68503   2.763   1.443   4.441 -0.1673 -0.2770  0.2295
21828SOL    HW168504   2.802   1.362   4.475  0.9483  0.2017  0.0811
21828SOL    HW268505   2.680   1.414   4.402 -0.2200 -1.2137  0.9971
21829SOL     OW68506   0.991   7.980   5.481  0.5093  0.2111  0.5560
21829SOL    HW168507   1.010   7.950   5.570  0.5144  1.8010  1.1119
21829SOL    HW268508   0.896   7.995   5.481  0.7027  1.4488  0.6882
21830SOL     OW68509   7.203   3.582   2.547  0.0149  0.6362 -0.6134
21830SOL    HW168510   7.160   3.588   2.632  0.5612  0.6507 -0.3300
21830SOL    HW268511   7.192   3.490   2.521 -0.3869  0.6951 -0.6542
21831SOL     OW68512   1.278   7.661   6.768 -0.2964  0.0536  0.1558
21831SOL    HW168513   1.272   7.644   6.674 -0.4692 -1.4454  0.4317
21831SOL    HW268514   1.347   7.726   6.776 -0.5208  0.4445 -1.0437
21832SOL     OW68515   2.474   1.576   6.104 -0.6603 -0.3772 -0.0185
21832SOL    HW168516   2.522   1.500   6.137 -2.0477 -1.3280 -0.1524
21832SOL    HW268517   2.515   1.595   6.019  3.4285  2.5367  2.4270
21833SOL     OW68518   6.881   6.151   5.425 -0.0103 -0.4088  1.1524
21833SOL    HW168519   6.929   6.113   5.499 -1.1249 -0.7516  1.7038
21833SOL    HW268520   6.841   6.230   5.461 -1.3665 -1.0992  1.1825
21834SOL     OW68521   7.824   2.232   3.966  0.2326 -0.0030 -0.2426
21834SOL    HW168522   7.882   2.162   3.995 -0.6486 -1.1192 -1.1043
21834SOL    HW268523   7.785   2.199   3.885 -0.3388  1.4093 -0.5591
21835SOL     OW68524   1.406   0.182   2.190  0.3392  0.1629 -0.0545
21835SOL    HW168525   1.423   0.231   2.110  2.2631  0.4673  0.5075
21835SOL    HW268526   1.338   0.233   2.235  1.3791  1.6300 -0.1015
21836SOL     OW68527   0.600   8.145   4.473  0.2321 -0.0803  0.0597
21836SOL    HW168528   0.542   8.219   4.491 -0.3054 -0.0144 -1.8336
21836SOL    HW268529   0.600   8.094   4.554 -1.8120  0.3645  0.3708
21837SOL     OW68530   1.851   9.353   8.413 -0.0266  0.3111 -0.4426
21837SOL    HW168531   1.849   9.266   8.453 -0.1448 -0.5689 -2.2682
21837SOL    HW268532   1.781   9.402   8.457  0.7733 -0.1607  1.3632
21838SOL     OW68533   5.838   0.072   6.191  0.0311 -0.2220 -0.9334
21838SOL    HW168534   5.802   0.119   6.265  0.6362 -0.5055 -0.4501
21838SOL    HW268535   5.780   0.093   6.118  0.3753  1.3714 -0.7631
21839SOL     OW68536   7.048   6.060   6.632  0.4652  0.1718  0.2380
21839SOL    HW168537   7.132   6.035   6.670  0.2701  0.0021  0.5684
21839SOL    HW268538   6.983   6.020   6.690  0.1589  0.1776 -0.0966
21840SOL     OW68539   6.932   6.386   0.578  0.3244 -0.0049  0.6541
21840SOL    HW168540   6.932   6.417   0.488 -0.7414 -1.9232 -0.0421
21840SOL    HW268541   6.894   6.458   0.629 -0.1916  0.6104 -0.5991
21841SOL     OW68542   6.266   3.984   6.433  0.1278 -0.0809  0.0911
21841SOL    HW168543   6.266   3.974   6.528  0.3489 -0.0743  0.0916
21841SOL    HW268544   6.337   3.928   6.403 -0.2389 -0.4389 -0.1081
21842SOL     OW68545   7.137   5.777   7.599 -0.5196 -0.2015  0.3111
21842SOL    HW168546   7.133   5.865   7.637 -0.5781 -1.3118  2.9849
21842SOL    HW268547   7.229   5.764   7.578 -0.6429  0.8183 -0.9772
21843SOL     OW68548   4.102   3.913   6.916 -0.2502  0.5029  0.4608
21843SOL    HW168549   4.029   3.872   6.870 -0.6133  1.1158  0.4790
21843SOL    HW268550   4.155   3.840   6.947  0.3178  0.0940 -1.4277
21844SOL     OW68551   5.616   7.734   4.930  1.0314 -0.0612 -0.3807
21844SOL    HW168552   5.535   7.766   4.968  1.0796 -1.0780  0.6185
21844SOL    HW268553   5.592   7.651   4.887  1.5870 -0.5066  0.1582
21845SOL     OW68554   2.989   4.339   0.037  0.2354 -0.0638 -1.2203
21845SOL    HW168555   2.983   4.246   0.016  2.7264 -0.2399 -1.2340
21845SOL    HW268556   3.068   4.347   0.090 -0.7855  1.8252  0.1071
21846SOL     OW68557   4.740   0.344   3.249 -0.1172 -0.3345 -0.2341
21846SOL    HW168558   4.737   0.385   3.336 -0.3571 -0.7373 -0.0508
21846SOL    HW268559   4.833   0.341   3.227 -0.1625  1.1976 -0.6771
21847SOL     OW68560   1.791   0.959   7.056  0.3503  0.4810  0.2024
21847SOL    HW168561   1.856   0.890   7.070 -0.1828 -0.4900 -1.9445
21847SOL    HW268562   1.741   0.930   6.980 -0.2751  2.9622 -0.3743
21848SOL     OW68563   1.410   0.131   7.957 -0.1229  0.4813 -0.3102
21848SOL    HW168564   1.494   0.147   7.915  1.0150  2.4179  2.5704
21848SOL    HW268565   1.363   0.214   7.951 -0.8521  0.1208  0.2827
21849SOL     OW68566   0.437   5.497   3.093  0.2685  0.0655 -0.2259
21849SOL    HW168567   0.489   5.577   3.089  1.0924 -0.4668 -0.3340
21849SOL    HW268568   0.447   5.465   3.182 -0.4878  0.3562 -0.0306
21850SOL     OW68569   0.230   5.265   8.490  0.2100  0.3890  0.0812
21850SOL    HW168570   0.156   5.205   8.485  0.8656 -0.5608  1.4226
21850SOL    HW268571   0.190   5.352   8.500 -0.7355  0.0508 -0.7187
21851SOL     OW68572   5.622   3.501   3.105 -0.3720  0.2135 -0.0532
21851SOL    HW168573   5.717   3.489   3.106 -0.5922 -1.7247 -0.2364
21851SOL    HW268574   5.587   3.416   3.132 -2.0833  0.5084 -1.2549
21852SOL     OW68575   7.164   5.887   6.986 -0.3837 -0.1374  0.1650
21852SOL    HW168576   7.194   5.976   7.004  0.8724 -0.5812  0.2701
21852SOL    HW268577   7.096   5.871   7.052 -0.2305  0.5381  0.4905
21853SOL     OW68578   2.913   9.000   6.183  0.9537  0.0078  0.7149
21853SOL    HW168579   2.983   8.983   6.246 -0.3237 -1.4730  1.7780
21853SOL    HW268580   2.832   8.991   6.234 -0.0728 -0.2246 -0.9151
21854SOL     OW68581   4.694   4.215   4.138  0.1406  0.4666 -0.6524
21854SOL    HW168582   4.706   4.149   4.070 -0.9476  0.5832 -0.9788
21854SOL    HW268583   4.675   4.164   4.218  2.0217  0.3127 -0.2960
21855SOL     OW68584   2.324   2.444   5.609  0.0960 -0.7180  0.4554
21855SOL    HW168585   2.347   2.424   5.519 -1.0600  2.0075 -0.4918
21855SOL    HW268586   2.405   2.475   5.649 -0.2554  1.9290 -0.8153
21856SOL     OW68587   1.408   0.927   1.137  0.2882  0.2026 -0.1209
21856SOL    HW168588   1.494   0.946   1.174 -0.2572 -1.0566  1.8598
21856SOL    HW268589   1.347   0.938   1.209 -1.0914 -0.0203 -1.2241
21857SOL     OW68590   8.635   2.107   1.619  0.0124 -0.0565 -0.3787
21857SOL    HW168591   8.679   2.055   1.687 -0.7408 -0.5009 -0.2243
21857SOL    HW268592   8.555   2.057   1.600 -0.8302  1.1616 -0.0686
21858SOL     OW68593   8.806   6.666   0.968 -0.0727  0.4695  0.0998
21858SOL    HW168594   8.856   6.700   1.042  1.0961  0.1064 -0.5029
21858SOL    HW268595   8.836   6.575   0.958 -0.8614  0.2438 -0.2610
21859SOL     OW68596   5.275   5.772   1.400  0.0361  0.4370 -0.3039
21859SOL    HW168597   5.338   5.723   1.346 -0.6366  0.7495 -1.4000
21859SOL    HW268598   5.328   5.810   1.470  0.6658 -1.3958  0.2618
21860SOL     OW68599   5.199   0.564   7.384 -0.2415 -0.6878  0.1821
21860SOL    HW168600   5.245   0.504   7.325 -0.4752 -0.4261 -0.2671
21860SOL    HW268601   5.108   0.561   7.355  0.1524  1.7600 -1.4371
21861SOL     OW68602   8.675   0.087   9.266  0.5871 -0.3886 -0.5187
21861SOL    HW168603   8.603   0.143   9.295 -0.4808 -1.3386 -1.2893
21861SOL    HW268604   8.634   0.002   9.250  2.2704 -1.5173  1.0314
21862SOL     OW68605   3.777   6.068   2.128 -0.5090  0.3994  0.3179
21862SOL    HW168606   3.691   6.025   2.132 -0.4656 -0.0773 -2.5121
21862SOL    HW268607   3.836   6.011   2.177 -0.7478 -2.0543 -2.1536
21863SOL     OW68608   3.107   0.568   7.362 -0.8093 -0.0367 -0.4983
21863SOL    HW168609   3.194   0.608   7.367 -1.2757  0.7623  1.6950
21863SOL    HW268610   3.055   0.629   7.310 -0.3755  0.0188 -0.8743
21864SOL     OW68611   1.716   0.789   0.934 -0.1504 -0.1368  0.4854
21864SOL    HW168612   1.786   0.822   0.990  1.3578 -0.8745 -0.9142
21864SOL    HW268613   1.694   0.703   0.972  1.1070 -0.7878 -0.2322
21865SOL     OW68614   6.658   1.661   0.008  0.1523  0.3448  0.1016
21865SOL    HW168615   6.711   1.582   0.015  1.1167  0.8369 -1.2707
21865SOL    HW268616   6.629   1.662  -0.083 -0.0444  1.4471  0.1689
21866SOL     OW68617   5.422   2.743   1.213 -0.1249 -0.1048  1.0808
21866SOL    HW168618   5.433   2.827   1.256 -0.9761  0.9938 -0.8069
21866SOL    HW268619   5.374   2.689   1.277 -3.1558  2.1364  0.8031
21867SOL     OW68620   8.863   2.772   7.869  0.6098 -0.2095  0.1187
21867SOL    HW168621   8.899   2.683   7.877  0.2125 -0.3200  0.7723
21867SOL    HW268622   8.859   2.804   7.959  0.5407  0.3908 -0.0976
21868SOL     OW68623   7.286   8.198   7.710 -0.1714 -0.2598  0.0333
21868SOL    HW168624   7.336   8.266   7.756 -2.7618  1.9586 -0.2908
21868SOL    HW268625   7.342   8.121   7.712  2.0388  1.3418  2.1417
21869SOL     OW68626   2.072   6.969   5.097 -0.5762  0.2846  0.9233
21869SOL    HW168627   2.136   6.945   5.030  0.1573  0.5537  1.5258
21869SOL    HW268628   1.989   6.978   5.049 -0.3271 -0.8249  0.2681
21870SOL     OW68629   0.826   1.992   2.596 -0.0155 -0.2370 -0.5093
21870SOL    HW168630   0.860   1.924   2.653 -0.6032 -0.0046  0.1274
21870SOL    HW268631   0.903   2.044   2.572  0.2760 -0.5046 -0.1586
21871SOL     OW68632   9.103   7.101   6.015  0.3491 -0.4294  0.6127
21871SOL    HW168633   9.084   7.008   6.029 -1.3857 -0.2796 -0.5755
21871SOL    HW268634   9.040   7.148   6.069  0.6660  0.0515  0.5673
21872SOL     OW68635   7.834   4.755   8.602  0.1287 -0.0147 -0.4632
21872SOL    HW168636   7.827   4.660   8.614 -0.0237 -0.0575 -0.9053
21872SOL    HW268637   7.879   4.765   8.518  2.0796  0.2795  0.5704
21873SOL     OW68638   1.181   0.471   5.222  0.9840  0.1690 -0.1625
21873SOL    HW168639   1.189   0.493   5.315 -2.1556  1.3942 -0.1095
21873SOL    HW268640   1.142   0.383   5.222 -1.4888  1.2360 -0.2685
21874SOL     OW68641   0.733   7.473   8.486 -0.1229 -0.2996 -0.3106
21874SOL    HW168642   0.681   7.503   8.412 -0.4198  0.4284  0.1900
21874SOL    HW268643   0.704   7.382   8.500  0.0813 -0.5081 -1.2038
21875SOL     OW68644   1.468   2.896   2.805  0.3459 -0.3754 -0.2045
21875SOL    HW168645   1.487   2.898   2.712 -0.5080 -0.2108 -0.3814
21875SOL    HW268646   1.553   2.882   2.847  0.7171 -0.5408 -1.0065
21876SOL     OW68647   8.367   8.887   7.662  0.4966 -0.6314  0.0684
21876SOL    HW168648   8.355   8.971   7.617  0.9336 -0.2636  0.6319
21876SOL    HW268649   8.321   8.898   7.745 -0.9541 -1.5769 -0.5848
21877SOL     OW68650   8.401   5.397   0.699  0.1716 -0.2086 -0.4118
21877SOL    HW168651   8.368   5.468   0.644 -0.5759 -0.1989  0.0383
21877SOL    HW268652   8.392   5.430   0.789  1.7451 -0.0642 -0.2881
21878SOL     OW68653   6.038   1.906   7.070 -0.3414  0.1669 -0.4108
21878SOL    HW168654   6.082   1.825   7.095 -1.8974 -0.5274  0.1701
21878SOL    HW268655   6.108   1.964   7.042  1.2238 -0.0484  2.7812
21879SOL     OW68656   8.619   8.541   8.506 -0.3923 -0.8747 -0.3567
21879SOL    HW168657   8.534   8.584   8.510 -0.5754 -1.2412 -0.3577
21879SOL    HW268658   8.641   8.521   8.597  0.8082  1.4005 -0.0845
21880SOL     OW68659   1.577   5.492   3.041 -0.3281  0.2141  0.2249
21880SOL    HW168660   1.623   5.456   3.116  1.3272 -0.7583 -1.2023
21880SOL    HW268661   1.605   5.583   3.037  0.0271  0.1159  0.4587
21881SOL     OW68662   5.488   2.361   6.545  0.0868  0.5757  0.5185
21881SOL    HW168663   5.510   2.423   6.475  0.8712 -0.8317 -0.5123
21881SOL    HW268664   5.396   2.341   6.532  0.5126 -0.5459 -0.8181
21882SOL     OW68665   7.816   0.412   2.804 -0.0079  0.1098 -0.0589
21882SOL    HW168666   7.869   0.365   2.868  0.1715  1.2634  0.6517
21882SOL    HW268667   7.803   0.349   2.733  0.2857 -0.9824  0.8435
21883SOL     OW68668   6.120   0.309   8.981  0.0727  0.0286  0.1782
21883SOL    HW168669   6.080   0.395   8.986 -0.3498 -0.0944 -0.8935
21883SOL    HW268670   6.087   0.263   9.059 -0.0250  0.6958  0.5324
21884SOL     OW68671   3.096   8.725   1.584  0.5078 -0.3602 -0.4149
21884SOL    HW168672   3.127   8.750   1.671  1.4800  1.3050 -1.1962
21884SOL    HW268673   3.002   8.738   1.587  0.8315  2.2635 -0.3783
21885SOL     OW68674   2.605   6.449   6.983 -0.2435 -0.4155  0.0405
21885SOL    HW168675   2.545   6.414   7.049  1.4706 -0.3416  1.6799
21885SOL    HW268676   2.597   6.544   6.990  0.3375 -0.3994  0.5367
21886SOL     OW68677   0.791   2.988   6.805 -0.1503  0.1304  0.6964
21886SOL    HW168678   0.802   3.079   6.835  0.6783  0.4415 -0.5041
21886SOL    HW268679   0.872   2.944   6.832  1.6343  0.9719 -2.9861
21887SOL     OW68680   4.177   5.058   1.452 -0.1204  0.2878 -0.4063
21887SOL    HW168681   4.085   5.073   1.472 -0.0150 -2.0202  2.1831
21887SOL    HW268682   4.207   4.999   1.521  2.8043 -0.5875 -2.3171
21888SOL     OW68683   3.250   6.233   1.183  0.0291 -0.5068  0.1320
21888SOL    HW168684   3.303   6.153   1.174  0.4130 -0.0422 -1.7442
21888SOL    HW268685   3.215   6.249   1.096  0.4252  1.7193  0.3614
21889SOL     OW68686   6.709   0.338   2.845 -0.3654 -0.1968 -0.2852
21889SOL    HW168687   6.793   0.325   2.802  1.0145  1.9208  1.6526
21889SOL    HW268688   6.707   0.273   2.916 -0.0892  0.1469  0.0395
21890SOL     OW68689   1.137   4.627   6.333 -0.2959  0.2557 -0.0881
21890SOL    HW168690   1.214   4.591   6.376  0.7616  1.5071 -0.8847
21890SOL    HW268691   1.147   4.722   6.341 -2.0134  0.4402  0.2327
21891SOL     OW68692   0.482   5.252   2.963  0.1248  0.6205 -0.1159
21891SOL    HW168693   0.482   5.332   3.014  2.0374 -0.1208  1.0863
21891SOL    HW268694   0.482   5.281   2.872  0.3577  1.9632  0.3109
21892SOL     OW68695   9.270   8.681   0.646  0.3429 -0.1251 -0.2639
21892SOL    HW168696   9.364   8.698   0.641  0.6772 -1.4226  1.2489
21892SOL    HW268697   9.242   8.723   0.727 -0.1992 -0.5561 -0.2246
21893SOL     OW68698   5.207   5.208   0.792 -0.3684 -0.0627 -0.1777
21893SOL    HW168699   5.277   5.257   0.836  2.1409 -2.5877 -1.2095
21893SOL    HW268700   5.203   5.245   0.704  0.2462 -0.4409 -0.3695
21894SOL     OW68701   7.866   0.443   4.533  0.7456 -0.3030  0.0215
21894SOL    HW168702   7.909   0.392   4.602  0.3332 -1.8273 -0.8333
21894SOL    HW268703   7.877   0.391   4.454  1.7094  1.6964 -1.2026
21895SOL     OW68704   5.082   1.919   0.305 -0.2921  0.5447 -0.4547
21895SOL    HW168705   5.066   1.984   0.374  0.4111 -0.1373  0.3638
21895SOL    HW268706   5.177   1.922   0.292 -0.0599 -1.3215  0.6127
21896SOL     OW68707   2.329   1.641   7.904  0.1249  0.5719 -0.1655
21896SOL    HW168708   2.386   1.624   7.978  1.7458  2.1854 -1.0252
21896SOL    HW268709   2.381   1.615   7.827 -0.8506  0.6554 -0.8661
21897SOL     OW68710   3.395   4.232   5.350  0.1274  0.0220 -0.0165
21897SOL    HW168711   3.345   4.233   5.432 -0.8518 -0.2147 -0.6003
21897SOL    HW268712   3.331   4.252   5.282  0.6386 -1.2250 -0.8832
21898SOL     OW68713   9.242   5.097   4.114  0.1104  0.3092 -0.0521
21898SOL    HW168714   9.228   5.086   4.020  1.8204 -0.6236 -0.2140
21898SOL    HW268715   9.156   5.083   4.153 -0.7758  1.4732 -1.5279
21899SOL     OW68716   5.671   3.854   0.902  0.6436 -0.1790 -0.2619
21899SOL    HW168717   5.669   3.937   0.854  1.4225  0.4994  0.8536
21899SOL    HW268718   5.590   3.853   0.952  0.6528 -0.0686 -0.2451
21900SOL     OW68719   0.318   7.034   9.172 -0.2304  0.0720 -0.3589
21900SOL    HW168720   0.348   6.944   9.158 -0.1051 -0.0977  0.9188
21900SOL    HW268721   0.358   7.084   9.101 -0.7391 -0.9707 -1.3997
21901SOL     OW68722   3.478   3.700   6.814 -0.3982  0.2270  0.2991
21901SOL    HW168723   3.468   3.777   6.871  1.4543  0.0214  0.9277
21901SOL    HW268724   3.502   3.629   6.874 -2.1449 -0.8893 -0.2732
21902SOL     OW68725   0.167   8.768   3.209 -0.3535 -0.0356 -0.1893
21902SOL    HW168726   0.196   8.712   3.137 -0.8077  0.3508 -0.6753
21902SOL    HW268727   0.170   8.857   3.173 -2.3900 -0.0032 -0.3333
21903SOL     OW68728   9.385   3.678   0.492 -0.2234 -0.1191  0.7543
21903SOL    HW168729   9.469   3.682   0.445 -1.3843  2.1307 -1.1723
21903SOL    HW268730   9.389   3.751   0.554 -1.1455  0.5554  0.0159
21904SOL     OW68731   1.604   6.465   1.233 -0.3231 -0.0777 -0.2503
21904SOL    HW168732   1.595   6.514   1.151  3.1773  0.0753 -0.6272
21904SOL    HW268733   1.609   6.532   1.300  1.5286 -0.0098 -0.4448
21905SOL     OW68734   7.943   0.638   4.149 -0.4980 -0.2579 -0.3648
21905SOL    HW168735   7.907   0.693   4.079 -1.8810  1.8748  1.9101
21905SOL    HW268736   7.902   0.552   4.136 -0.8267  0.1394 -2.0937
21906SOL     OW68737   5.055   6.915   7.220 -0.6286  0.7581  0.2545
21906SOL    HW168738   5.137   6.864   7.216 -0.6133  0.7397  0.8496
21906SOL    HW268739   5.002   6.869   7.285 -0.6378  1.4719  0.7507
21907SOL     OW68740   1.138   5.283   9.420 -0.2747  0.3175  0.0524
21907SOL    HW168741   1.161   5.199   9.380 -0.5421  0.8054 -1.1474
21907SOL    HW268742   1.173   5.277   9.509 -0.8585 -1.3087  0.1911
21908SOL     OW68743   1.970   3.951   9.240  0.0443  0.2893  0.0471
21908SOL    HW168744   2.065   3.955   9.225  0.0884  0.0881  0.2611
21908SOL    HW268745   1.934   4.021   9.186  0.1769 -0.5953 -1.1966
21909SOL     OW68746   3.477   5.894   4.839 -0.2714  0.0614 -0.4201
21909SOL    HW168747   3.541   5.847   4.787 -0.5564  0.5814 -1.2450
21909SOL    HW268748   3.394   5.882   4.794 -0.9408 -1.3458  1.1195
21910SOL     OW68749   8.616   1.610   0.755 -0.5120  0.0319 -0.2632
21910SOL    HW168750   8.543   1.637   0.811 -0.8396 -0.9838 -0.1884
21910SOL    HW268751   8.675   1.684   0.755 -1.8566  1.1278 -0.8453
21911SOL     OW68752   8.820   4.427   0.451 -0.1923  0.3729  0.1977
21911SOL    HW168753   8.751   4.369   0.418 -0.3514 -0.1139  1.3521
21911SOL    HW268754   8.830   4.494   0.384  0.5497 -1.4357 -1.5369
21912SOL     OW68755   3.534   6.284   1.649  0.0519 -0.6913 -0.2363
21912SOL    HW168756   3.573   6.353   1.596 -0.2696 -0.8244 -0.6466
21912SOL    HW268757   3.441   6.283   1.623 -0.0860 -0.8192  0.2561
21913SOL     OW68758   8.495   4.945   5.216  0.8443 -0.2280  0.1095
21913SOL    HW168759   8.464   4.885   5.284  0.7108  1.9126  1.9906
21913SOL    HW268760   8.587   4.960   5.239  1.3244 -0.9841 -1.3009
21914SOL     OW68761   6.626   2.869   0.541  0.0148  0.1962  0.2699
21914SOL    HW168762   6.543   2.844   0.581 -0.3643  0.6081 -0.2391
21914SOL    HW268763   6.692   2.814   0.584 -0.9457 -2.6145 -1.7088
21915SOL     OW68764   3.902   4.158   3.186  0.3907  0.1462  0.4050
21915SOL    HW168765   3.861   4.095   3.246  1.2640 -1.1362 -0.3111
21915SOL    HW268766   3.832   4.221   3.165 -0.4492 -0.4796  1.2776
21916SOL     OW68767   4.838   4.685   4.232  0.2681 -0.3369 -0.2255
21916SOL    HW168768   4.893   4.763   4.242 -2.1868  1.4904 -0.8274
21916SOL    HW268769   4.752   4.711   4.264 -0.2300 -3.2810  1.0458
21917SOL     OW68770   6.504   8.521   1.609 -0.1417 -0.0849 -0.1722
21917SOL    HW168771   6.485   8.613   1.623 -0.6177  0.1604 -2.3449
21917SOL    HW268772   6.421   8.482   1.584  0.2532 -0.9102 -0.2252
21918SOL     OW68773   6.959   7.884   2.408 -0.2134  0.2185  1.0568
21918SOL    HW168774   6.940   7.970   2.447  1.1192  1.3397 -0.6900
21918SOL    HW268775   7.054   7.876   2.415 -0.1501 -0.3401 -0.3640
21919SOL     OW68776   4.209   8.356   6.661 -0.5295  0.0910  0.0432
21919SOL    HW168777   4.221   8.386   6.751 -1.9836 -0.6229  0.4957
21919SOL    HW268778   4.241   8.428   6.607  2.1529 -0.2558  1.1288
21920SOL     OW68779   3.445   9.062   4.604 -0.4934  0.0868  0.3914
21920SOL    HW168780   3.486   9.082   4.520  0.0538 -1.6425  0.2337
21920SOL    HW268781   3.485   9.124   4.665  2.4711 -1.6120  0.2603
21921SOL     OW68782   6.424   2.555   8.347 -0.0470 -0.8573 -0.3018
21921SOL    HW168783   6.337   2.548   8.309  0.4056  0.0714 -1.5398
21921SOL    HW268784   6.467   2.623   8.296  0.5194  0.5736  1.9805
21922SOL     OW68785   6.226   8.850   6.809  0.1505  0.1056 -0.1076
21922SOL    HW168786   6.150   8.903   6.785  0.1728 -0.0370 -0.5012
21922SOL    HW268787   6.219   8.839   6.904 -1.3513 -1.4750 -0.3547
21923SOL     OW68788   8.120   6.523   2.310 -0.6171  0.1819 -0.2072
21923SOL    HW168789   8.140   6.612   2.279 -0.2506  0.7810  1.6847
21923SOL    HW268790   8.196   6.471   2.283  0.5909  1.1015  1.3606
21924SOL     OW68791   7.839   9.139   3.474 -0.3555  0.3527  0.1568
21924SOL    HW168792   7.861   9.056   3.517  0.4856  0.0775 -0.7893
21924SOL    HW268793   7.821   9.199   3.547 -2.0051 -0.9164  0.8301
21925SOL     OW68794   2.545   2.532   8.659 -0.0023  0.6018  0.1240
21925SOL    HW168795   2.574   2.610   8.707 -0.9155  2.1129 -1.6956
21925SOL    HW268796   2.560   2.555   8.567  0.7089 -1.8028 -0.3813
21926SOL     OW68797   5.626   4.991   4.908  0.1145 -0.4088  0.5007
21926SOL    HW168798   5.604   4.985   5.001  0.7568  0.7726  0.7439
21926SOL    HW268799   5.642   5.084   4.893 -0.5662 -0.5007 -0.9333
21927SOL     OW68800   4.307   5.158   3.775 -0.2673  0.2089 -0.1591
21927SOL    HW168801   4.251   5.218   3.824  1.1207  0.7220  0.8209
21927SOL    HW268802   4.250   5.122   3.707 -1.6090  1.2058  0.4243
21928SOL     OW68803   0.374   4.183   5.542  0.7711  0.1454 -0.0129
21928SOL    HW168804   0.299   4.144   5.587  0.2929  1.0796  0.0211
21928SOL    HW268805   0.450   4.156   5.593  0.5525 -1.5588 -0.5568
21929SOL     OW68806   6.344   0.435   8.416 -0.4161 -0.0464  0.0289
21929SOL    HW168807   6.267   0.472   8.460 -1.5712 -2.9582  0.5330
21929SOL    HW268808   6.393   0.391   8.485  1.6370  1.5500 -0.3386
21930SOL     OW68809   5.912   9.322   6.784  0.1752  0.4381  0.6180
21930SOL    HW168810   5.841   9.291   6.840  0.0945  1.3689  1.0352
21930SOL    HW268811   5.874   9.327   6.696  0.1612 -0.5372  0.5697
21931SOL     OW68812   1.324   5.306   3.160  0.0357  0.1326  0.7629
21931SOL    HW168813   1.393   5.239   3.158  1.1385  1.2415  1.1422
21931SOL    HW268814   1.338   5.357   3.080 -0.5468  0.1639  0.6817
21932SOL     OW68815   1.282   4.706   1.303 -0.0171 -0.0968 -0.4277
21932SOL    HW168816   1.249   4.619   1.279 -0.9976 -0.0111  0.5930
21932SOL    HW268817   1.222   4.737   1.371  1.3520  0.6535  0.4545
21933SOL     OW68818   5.607   8.007   5.892  0.5106  0.1780  0.4866
21933SOL    HW168819   5.521   8.048   5.879 -0.0803 -0.9256  0.8300
21933SOL    HW268820   5.654   8.069   5.949 -0.3427  0.4160  0.9533
21934SOL     OW68821   3.972   8.648   4.388 -0.2624  0.2099 -0.0197
21934SOL    HW168822   4.039   8.702   4.430 -1.2784  1.6912 -0.2599
21934SOL    HW268823   3.890   8.697   4.401 -0.6985  0.4091 -3.1601
21935SOL     OW68824   7.914   9.360   2.911 -0.2819  0.2004  0.1189
21935SOL    HW168825   7.841   9.411   2.874 -0.1907 -1.7655 -2.9595
21935SOL    HW268826   7.901   9.271   2.878  1.7202 -0.9317  2.2101
21936SOL     OW68827   3.489   8.833   5.863 -0.4196  0.1874  0.0991
21936SOL    HW168828   3.557   8.851   5.929 -0.4694  1.5581 -0.2140
21936SOL    HW268829   3.451   8.750   5.891  0.3567  0.1636  1.1406
21937SOL     OW68830   8.148   4.163   8.170  0.2651 -0.3541  0.7130
21937SOL    HW168831   8.088   4.094   8.144 -0.5401 -0.2760  2.2557
21937SOL    HW268832   8.153   4.155   8.266 -0.9233  2.5689  1.0712
21938SOL     OW68833   8.670   3.758   4.735 -0.0559  0.0462  0.1180
21938SOL    HW168834   8.748   3.770   4.680  0.4426 -0.7567  0.6354
21938SOL    HW268835   8.597   3.757   4.673  0.4556 -0.3423 -0.4807
21939SOL     OW68836   3.373   8.730   0.060 -0.3066 -0.4710  0.1157
21939SOL    HW168837   3.411   8.649   0.094 -1.1414 -1.0435 -0.3139
21939SOL    HW268838   3.381   8.722  -0.035 -2.8499 -1.2713 -0.0610
21940SOL     OW68839   2.635   2.296   7.172 -0.1063  0.9321  0.9155
21940SOL    HW168840   2.596   2.383   7.172 -0.3826  0.8066  1.6318
21940SOL    HW268841   2.695   2.296   7.246  0.4823  0.7694  0.4485
21941SOL     OW68842   6.220   3.924   7.383  0.2074 -0.1888  0.3871
21941SOL    HW168843   6.182   3.934   7.296  1.0844 -0.7976 -0.0705
21941SOL    HW268844   6.279   3.999   7.393 -2.0954  1.5113  1.6343
21942SOL     OW68845   5.362   5.320   5.329  0.3221 -0.3147 -0.5019
21942SOL    HW168846   5.313   5.246   5.365 -0.2031  0.1067 -0.3274
21942SOL    HW268847   5.454   5.301   5.347 -0.0145  0.6219  2.5059
21943SOL     OW68848   6.494   7.229   0.960 -0.0617 -0.7957 -0.2229
21943SOL    HW168849   6.574   7.261   1.003 -0.6075  1.2620 -0.6555
21943SOL    HW268850   6.468   7.152   1.010  0.9344 -0.1400  1.3376
21944SOL     OW68851   3.892   7.440   0.880  0.1046 -0.6931  0.1518
21944SOL    HW168852   3.820   7.400   0.929 -1.2628 -0.4924 -1.6289
21944SOL    HW268853   3.869   7.533   0.876 -0.5406 -0.9194 -2.0286
21945SOL     OW68854   2.100   1.799   4.129 -0.1806 -0.1710 -0.0297
21945SOL    HW168855   2.061   1.776   4.213 -1.3160 -1.8664 -0.9904
21945SOL    HW268856   2.120   1.892   4.136 -0.4837 -0.2361  2.0170
21946SOL     OW68857   5.363   6.417   2.158  0.0435  0.0926 -0.1379
21946SOL    HW168858   5.436   6.471   2.126  1.9523 -1.5428  1.3394
21946SOL    HW268859   5.402   6.359   2.223 -2.8548  0.0867  1.7117
21947SOL     OW68860   7.574   5.823   6.816  0.4893  0.1876  0.1594
21947SOL    HW168861   7.537   5.735   6.814 -0.0622  0.4313 -1.1478
21947SOL    HW268862   7.539   5.862   6.896 -0.3263 -0.3439  0.0693
21948SOL     OW68863   3.699   5.550   3.950  0.4323  0.3244  0.1264
21948SOL    HW168864   3.659   5.464   3.965  1.5117  0.0426  1.4872
21948SOL    HW268865   3.668   5.576   3.864 -1.3452 -0.6426  0.4442
21949SOL     OW68866   9.137   3.044   5.559  0.0698 -0.2552  0.3049
21949SOL    HW168867   9.190   3.055   5.481 -0.9892  0.1557 -0.3590
21949SOL    HW268868   9.100   3.130   5.577 -1.0384 -0.7128  0.2801
21950SOL     OW68869   7.127   4.723   1.040 -0.2099  0.5179  0.0853
21950SOL    HW168870   7.068   4.791   1.071 -1.6039 -0.3789 -0.5383
21950SOL    HW268871   7.141   4.667   1.117 -1.9401 -0.4929 -0.3104
21951SOL     OW68872   6.362   7.073   1.141  0.6417  0.0221 -0.0966
21951SOL    HW168873   6.316   6.992   1.164 -0.7562  0.4562 -1.3496
21951SOL    HW268874   6.340   7.134   1.212  0.7707 -0.3368  0.2528
21952SOL     OW68875   6.255   9.259   6.769  0.5754  0.5463  0.1530
21952SOL    HW168876   6.309   9.224   6.840 -0.2891 -1.6238 -0.2376
21952SOL    HW268877   6.191   9.315   6.813  0.3992 -0.3495  1.0563
21953SOL     OW68878   7.767   4.666   0.235 -0.0510  0.2275  0.1704
21953SOL    HW168879   7.749   4.609   0.160 -1.3569  0.4834  0.2934
21953SOL    HW268880   7.734   4.752   0.209  2.7353  1.2081 -0.3900
21954SOL     OW68881   4.645   6.817   8.134 -0.2214 -0.1095 -0.2911
21954SOL    HW168882   4.605   6.828   8.221  0.9837  0.3279  0.2285
21954SOL    HW268883   4.692   6.734   8.139  0.4677  0.2751 -0.2645
21955SOL     OW68884   6.023   0.203   4.387  0.5431 -0.3763 -0.3220
21955SOL    HW168885   5.981   0.218   4.471 -0.0693 -0.4767 -0.6111
21955SOL    HW268886   6.048   0.291   4.357 -0.8883 -0.1596 -0.8944
21956SOL     OW68887   5.030   1.078   0.867 -0.4330  0.6120 -0.5712
21956SOL    HW168888   4.972   1.068   0.791 -0.0958  0.0027 -0.7466
21956SOL    HW268889   5.039   1.173   0.877 -1.7730  0.7218 -0.3039
21957SOL     OW68890   1.366   7.192   7.519  0.0872  0.7357 -0.4094
21957SOL    HW168891   1.396   7.122   7.576  0.0136 -1.3070 -2.7920
21957SOL    HW268892   1.280   7.217   7.554  0.0480 -0.4791  0.3774
21958SOL     OW68893   6.750   1.942   1.746 -0.0599 -0.3001 -0.0860
21958SOL    HW168894   6.770   2.000   1.673 -2.3145 -0.4178 -0.8093
21958SOL    HW268895   6.655   1.940   1.751 -0.0114  1.3589  4.1728
21959SOL     OW68896   9.076   3.603   8.628  0.2228  0.1512 -0.2544
21959SOL    HW168897   8.992   3.628   8.589  0.6605  0.5467 -0.9723
21959SOL    HW268898   9.053   3.552   8.705 -0.6778  0.2571 -0.4464
21960SOL     OW68899   8.345   1.442   8.213  0.3874  0.2888  0.5589
21960SOL    HW168900   8.377   1.352   8.204  1.6874  0.8307 -0.4350
21960SOL    HW268901   8.259   1.433   8.253  0.5276 -1.3954  0.5240
21961SOL     OW68902   0.987   2.074   8.978 -0.1394  0.1972 -0.5457
21961SOL    HW168903   1.014   2.118   9.059 -3.1102 -0.0552  0.6445
21961SOL    HW268904   1.027   1.987   8.983  1.3838  0.8777 -0.3744
21962SOL     OW68905   0.340   0.417   7.903 -0.1959  0.1785  0.3937
21962SOL    HW168906   0.251   0.398   7.933 -0.4039  0.0059 -0.3251
21962SOL    HW268907   0.391   0.424   7.984 -1.2182  2.1586  0.8965
21963SOL     OW68908   3.604   3.858   9.067  0.5148 -0.0785  0.0530
21963SOL    HW168909   3.584   3.884   9.157  1.2118  0.8467 -0.0549
21963SOL    HW268910   3.633   3.767   9.074  0.5426 -0.0218  0.7563
21964SOL     OW68911   7.645   2.649   8.302  0.0477  0.0122  0.4113
21964SOL    HW168912   7.552   2.638   8.282 -0.3556  2.1828  0.9554
21964SOL    HW268913   7.651   2.637   8.396  0.4032 -0.6869  0.2972
21965SOL     OW68914   2.146   4.161   0.652 -0.2143 -0.3378 -0.1286
21965SOL    HW168915   2.136   4.198   0.740 -0.8870 -0.9884  0.0743
21965SOL    HW268916   2.213   4.216   0.611  0.3937 -0.2694  0.9215
21966SOL     OW68917   6.382   6.947   2.321  0.3732  0.5297 -0.0900
21966SOL    HW168918   6.306   6.961   2.265 -0.9292  0.9734  1.7230
21966SOL    HW268919   6.428   7.031   2.320  1.1358  0.1109 -1.5833
21967SOL     OW68920   2.937   2.362   6.758 -0.2854 -0.7188 -0.1301
21967SOL    HW168921   2.934   2.417   6.836 -0.8072  0.5977 -1.0731
21967SOL    HW268922   3.022   2.381   6.718 -0.4495 -0.6105 -0.4339
21968SOL     OW68923   8.037   8.125   8.579  0.2395  0.2173 -0.4621
21968SOL    HW168924   8.004   8.204   8.536 -0.8193  0.0607  0.0316
21968SOL    HW268925   8.091   8.082   8.513  1.4637  1.7501 -0.4845
21969SOL     OW68926   6.329   0.900   5.174  0.0420  0.3525 -0.0850
21969SOL    HW168927   6.303   0.826   5.120 -0.3370  0.8116 -0.5380
21969SOL    HW268928   6.249   0.950   5.187 -0.1172 -0.4102  1.9434
21970SOL     OW68929   8.378   0.170   9.140 -0.3977  0.6933  0.5470
21970SOL    HW168930   8.294   0.125   9.147 -0.2646  0.3666  0.0991
21970SOL    HW268931   8.440   0.111   9.181 -0.1104  0.1478 -0.6513
21971SOL     OW68932   2.288   8.664   1.037  0.1098  0.1165 -0.0805
21971SOL    HW168933   2.205   8.683   1.081 -0.5444  0.1140 -1.2814
21971SOL    HW268934   2.344   8.628   1.106 -0.1695  2.0794  1.2124
21972SOL     OW68935   0.024   4.943   3.251 -0.6799  0.2349  0.1573
21972SOL    HW168936  -0.068   4.923   3.265 -0.6926 -0.0968 -0.3571
21972SOL    HW268937   0.034   4.946   3.155 -0.0187 -0.4107  0.1985
21973SOL     OW68938   3.943   3.400   4.754  0.4273 -0.3127  0.2584
21973SOL    HW168939   3.929   3.445   4.671 -0.9968 -0.4521  0.4117
21973SOL    HW268940   3.881   3.327   4.752 -0.9775  0.7960  2.2692
21974SOL     OW68941   8.332   2.799   6.755  0.2419  0.3725  0.2089
21974SOL    HW168942   8.263   2.733   6.749  0.6406 -0.0849  0.5188
21974SOL    HW268943   8.397   2.759   6.812  1.5126  0.1140 -1.3735
21975SOL     OW68944   3.970   1.194   4.278 -0.0473  0.0430  0.2689
21975SOL    HW168945   3.908   1.243   4.224  0.5850  1.2433  0.6181
21975SOL    HW268946   4.031   1.260   4.312  1.0772 -1.0355  0.4050
21976SOL     OW68947   7.342   5.958   7.783 -0.3295 -0.1234  0.1736
21976SOL    HW168948   7.394   6.037   7.797 -0.2062  0.1356 -1.6295
21976SOL    HW268949   7.406   5.890   7.766 -0.5577  0.5844 -3.9704
21977SOL     OW68950   6.006   0.347   8.247  0.5586 -0.1685 -0.0208
21977SOL    HW168951   6.083   0.401   8.227  0.1642  0.4879  0.1896
21977SOL    HW268952   5.933   0.409   8.245 -0.4225 -1.3514 -3.4211
21978SOL     OW68953   2.450   5.166   4.169 -0.0668  0.2217  0.0800
21978SOL    HW168954   2.394   5.208   4.105  0.6176 -0.5901 -1.0765
21978SOL    HW268955   2.403   5.086   4.193  1.1203 -1.0673 -1.7891
21979SOL     OW68956   8.809   2.887   3.278 -0.0557  0.1410  0.0997
21979SOL    HW168957   8.720   2.866   3.249 -0.9324  1.6588  1.6079
21979SOL    HW268958   8.854   2.915   3.198 -0.3474 -2.4700 -1.0088
21980SOL     OW68959   8.402   6.118   6.208  0.3428 -0.1909 -0.5971
21980SOL    HW168960   8.449   6.155   6.283 -0.1049 -0.3294 -0.2444
21980SOL    HW268961   8.390   6.026   6.230 -3.0012  0.4963  0.8597
21981SOL     OW68962   5.700   1.753   4.030 -0.0609 -0.5487  0.2196
21981SOL    HW168963   5.764   1.707   4.085  0.8034  0.2027 -0.1441
21981SOL    HW268964   5.631   1.780   4.091  0.2597 -0.8426  0.7168
21982SOL     OW68965   0.236   4.859   0.968  0.4669 -0.0290 -0.0692
21982SOL    HW168966   0.141   4.855   0.958  0.1309  1.4511  2.1426
21982SOL    HW268967   0.270   4.794   0.906 -1.9346 -0.0208 -1.4177
21983SOL     OW68968   5.772   1.014   7.909 -0.0452 -0.5048 -0.7387
21983SOL    HW168969   5.795   1.065   7.831 -0.6058  1.0906  0.1170
21983SOL    HW268970   5.693   0.966   7.884 -0.6155  0.5249 -0.9321
21984SOL     OW68971   9.282   3.702   9.101 -0.2180  0.2370  0.1197
21984SOL    HW168972   9.282   3.627   9.042 -1.5142 -0.5931  1.1490
21984SOL    HW268973   9.210   3.757   9.069 -0.5243  0.0897  0.5638
21985SOL     OW68974   0.293   3.138   1.286 -0.4068 -0.8764 -0.1796
21985SOL    HW168975   0.384   3.141   1.257  0.5549 -0.2072  2.7753
21985SOL    HW268976   0.291   3.071   1.354 -1.5506  0.8174  1.5265
21986SOL     OW68977   8.362   5.224   0.115 -0.2143  0.5535 -0.0791
21986SOL    HW168978   8.337   5.133   0.134  1.9878 -0.2731 -0.9501
21986SOL    HW268979   8.436   5.216   0.055  0.9247  2.9345  0.9526
21987SOL     OW68980   8.530   8.685   5.875 -0.2302 -0.3426  0.4051
21987SOL    HW168981   8.552   8.644   5.958 -1.1652 -2.0150 -0.1286
21987SOL    HW268982   8.608   8.734   5.850 -0.2060  0.7715  2.5962
21988SOL     OW68983   6.677   4.712   5.138  0.0224  0.0151 -0.1580
21988SOL    HW168984   6.603   4.698   5.197  0.8650 -1.5768  0.5670
21988SOL    HW268985   6.692   4.626   5.098 -0.5556  1.0740 -2.7376
21989SOL     OW68986   7.548   1.411   2.701 -0.0204 -0.5744 -0.6215
21989SOL    HW168987   7.517   1.429   2.613 -0.8278 -0.2152 -0.2701
21989SOL    HW268988   7.531   1.317   2.714  3.5666 -1.5042 -2.2051
21990SOL     OW68989   0.176   0.213   6.782  0.1873 -0.1293  0.3189
21990SOL    HW168990   0.258   0.263   6.779  0.2368 -0.1892  0.6398
21990SOL    HW268991   0.112   0.270   6.740  0.1145  0.4481  1.2194
21991SOL     OW68992   5.856   4.598   5.681 -0.2159  0.8401 -0.0640
21991SOL    HW168993   5.780   4.655   5.688  0.8463  2.4856 -1.4213
21991SOL    HW268994   5.820   4.512   5.664 -1.7946  1.4053  0.2998
21992SOL     OW68995   5.316   9.078   1.448  0.2325 -0.0737  0.4912
21992SOL    HW168996   5.281   9.127   1.374  0.3092  1.9032  1.7224
21992SOL    HW268997   5.271   9.115   1.524  1.3852 -0.9030  1.5963
21993SOL     OW68998   2.525   4.181   4.458  0.0848 -0.4845  0.1000
21993SOL    HW168999   2.620   4.179   4.469  0.3271 -0.8555 -1.9152
21993SOL    HW269000   2.504   4.274   4.456  0.0646 -0.3743  3.0288
21994SOL     OW69001   3.500   8.668   3.363  0.7043  0.1344  0.3818
21994SOL    HW169002   3.583   8.633   3.329  0.5132  0.6501 -0.6353
21994SOL    HW269003   3.445   8.679   3.285  0.1028  0.9309  0.9152
21995SOL     OW69004   4.993   5.158   6.473 -0.0624  0.6370  0.0234
21995SOL    HW169005   5.015   5.142   6.565 -1.7855  0.2493  0.3775
21995SOL    HW269006   4.953   5.245   6.474 -2.1167 -0.2982 -0.0189
21996SOL     OW69007   3.308   5.801   5.468 -0.1353 -0.2339 -0.0279
21996SOL    HW169008   3.330   5.817   5.559  0.4355  1.4129 -0.4351
21996SOL    HW269009   3.391   5.810   5.421 -0.4000 -1.1890 -0.6970
21997SOL     OW69010   1.699   5.075   0.714  0.1362 -0.0734  0.0871
21997SOL    HW169011   1.638   5.085   0.788 -0.9617 -0.9860 -0.6901
21997SOL    HW269012   1.715   5.165   0.685  1.2519  0.3602  1.9692
21998SOL     OW69013   5.994   0.179   3.430 -0.4308  0.1989  0.0431
21998SOL    HW169014   6.040   0.195   3.513 -0.6118  0.5158  0.0819
21998SOL    HW269015   5.907   0.151   3.457 -0.1461 -0.7920 -0.0229
21999SOL     OW69016   1.340   4.904   7.153  0.2208  0.4565  0.2054
21999SOL    HW169017   1.247   4.919   7.168  0.5687  0.9923  1.9385
21999SOL    HW269018   1.355   4.934   7.063 -1.2630  0.3465 -0.1047
22000SOL     OW69019   1.053   1.586   2.280  0.3045  0.5288 -0.0759
22000SOL    HW169020   0.979   1.614   2.333  0.8548  0.9715  0.4755
22000SOL    HW269021   1.081   1.665   2.233 -0.2461  0.1162 -1.1150
22001SOL     OW69022   0.670   1.319   3.865  0.2589 -0.1892 -0.7384
22001SOL    HW169023   0.647   1.240   3.816 -1.0169  0.0195 -0.5097
22001SOL    HW269024   0.587   1.349   3.902  0.9286  0.5919  0.1704
22002SOL     OW69025   3.819   5.239   1.729 -0.3305  0.0532 -0.6748
22002SOL    HW169026   3.893   5.280   1.775 -1.2559  0.3065  0.5968
22002SOL    HW269027   3.835   5.145   1.739  1.4724  0.0425 -3.0862
22003SOL     OW69028   6.600   0.250   8.072  0.1852 -0.2994  0.3174
22003SOL    HW169029   6.538   0.319   8.094  1.1974  0.8423 -0.3846
22003SOL    HW269030   6.551   0.191   8.015 -0.3758  0.3959  0.0762
22004SOL     OW69031   1.056   7.259   1.710  0.2148 -0.4566  0.0896
22004SOL    HW169032   0.997   7.326   1.677 -0.3132 -0.7589  0.4110
22004SOL    HW269033   1.026   7.178   1.669 -0.7928 -0.9277  1.7282
22005SOL     OW69034   4.101   2.714   3.662  0.3717 -0.0239  0.5048
22005SOL    HW169035   4.034   2.776   3.634  0.6635  0.5954  1.1752
22005SOL    HW269036   4.053   2.632   3.674 -0.2888  0.4411  1.0874
22006SOL     OW69037   3.957   3.360   0.623 -0.2186 -0.1013  0.9277
22006SOL    HW169038   3.950   3.428   0.691 -0.8008  0.2660  0.5061
22006SOL    HW269039   4.002   3.404   0.551 -0.1378 -0.3165  0.8485
22007SOL     OW69040   8.817   0.052   3.694  0.3090  0.3976 -0.1070
22007SOL    HW169041   8.737   0.011   3.728 -0.0653  0.9132 -0.3688
22007SOL    HW269042   8.800   0.146   3.701  1.0623  0.5110  0.2339
22008SOL     OW69043   1.370   7.647   8.904 -0.2537  0.5116 -0.5198
22008SOL    HW169044   1.301   7.604   8.852 -1.2718  1.0754  0.3308
22008SOL    HW269045   1.339   7.640   8.994  0.9557  0.5294 -0.0963
22009SOL     OW69046   0.697   1.144   0.007 -0.4496  1.1881 -0.6457
22009SOL    HW169047   0.646   1.079  -0.041 -0.0261 -0.6120  1.2796
22009SOL    HW269048   0.787   1.111   0.005 -0.4710  0.9238  1.6020
22010SOL     OW69049   3.674   4.968   0.962  0.1749  0.0290 -0.5557
22010SOL    HW169050   3.705   4.883   0.992 -0.6099 -0.0367  0.0829
22010SOL    HW269051   3.585   4.974   0.995 -0.3186  0.4400 -1.9058
22011SOL     OW69052   1.045   5.009   5.556 -0.1370 -0.1230  0.0825
22011SOL    HW169053   1.014   5.078   5.614  0.6375 -0.0800  0.4466
22011SOL    HW269054   1.140   5.008   5.568  0.1493  0.6190 -1.9923
22012SOL     OW69055   9.395   3.797   4.234 -0.3549  0.3609 -0.0364
22012SOL    HW169056   9.360   3.841   4.156  1.5611  0.5603 -0.8165
22012SOL    HW269057   9.470   3.850   4.260  1.1973 -1.6910 -0.2008
22013SOL     OW69058   5.349   4.645   5.851 -0.2639 -0.0945 -0.1746
22013SOL    HW169059   5.329   4.558   5.884  2.3351 -0.9319 -0.7418
22013SOL    HW269060   5.341   4.702   5.928 -0.6460 -1.0338  0.4929
22014SOL     OW69061   8.149   8.644   3.190  0.0129  0.6297  0.1171
22014SOL    HW169062   8.180   8.574   3.249 -0.4388 -0.9254 -1.4590
22014SOL    HW269063   8.230   8.681   3.153  0.1890 -0.8970 -1.1032
22015SOL     OW69064   1.577   1.570   2.112 -0.1467 -0.6356  0.5921
22015SOL    HW169065   1.487   1.544   2.096 -0.7881  1.3720  0.8010
22015SOL    HW269066   1.628   1.526   2.044 -1.1849 -2.2688  0.8580
22016SOL     OW69067   9.080   1.219   7.583  0.1877  0.6486  0.4870
22016SOL    HW169068   9.109   1.142   7.633 -0.2456  1.0682  1.4006
22016SOL    HW269069   9.119   1.293   7.630  1.5267  0.9347 -1.0285
22017SOL     OW69070   0.961   1.733   2.647  0.3994  0.7188  0.1700
22017SOL    HW169071   1.037   1.790   2.637  2.0264 -1.0583  2.0871
22017SOL    HW269072   0.982   1.677   2.722 -2.4789 -0.3128  0.2718
22018SOL     OW69073   2.668   4.492   1.079  0.0278 -0.1096  0.1896
22018SOL    HW169074   2.664   4.584   1.054  1.0014 -0.0607  0.1668
22018SOL    HW269075   2.693   4.447   0.998  0.1749 -0.3153  0.3507
22019SOL     OW69076   1.468   8.207   7.584  0.1811  0.3269  0.3235
22019SOL    HW169077   1.489   8.249   7.667  1.3872 -2.4716  1.4958
22019SOL    HW269078   1.393   8.150   7.604  1.2500 -1.2910 -0.1789
22020SOL     OW69079   7.294   4.065   5.643 -0.3406  0.2127  0.4610
22020SOL    HW169080   7.238   4.130   5.601  1.1116  1.1072 -0.1049
22020SOL    HW269081   7.291   3.989   5.584 -2.8122 -0.6475  1.6065
22021SOL     OW69082   7.900   6.050   3.555 -0.3258 -0.0263  0.1069
22021SOL    HW169083   7.971   6.042   3.618 -1.0413  1.7860  1.2010
22021SOL    HW269084   7.922   5.989   3.485  0.4310 -2.1442  2.1514
22022SOL     OW69085   2.736   2.303   8.659  0.3731 -0.0806 -0.9708
22022SOL    HW169086   2.691   2.387   8.659  2.2897  1.0183  1.9061
22022SOL    HW269087   2.669   2.240   8.634 -1.2432  2.1898 -2.5972
22023SOL     OW69088   8.240   4.123   6.660  0.4557 -0.2018  0.6335
22023SOL    HW169089   8.262   4.084   6.744  0.8845  1.0492  1.1196
22023SOL    HW269090   8.273   4.213   6.666  0.6814 -0.1629 -0.9453
22024SOL     OW69091   5.422   8.829   1.716  0.4818  0.1345 -0.1634
22024SOL    HW169092   5.501   8.863   1.672  1.4482 -2.2224 -0.3460
22024SOL    HW269093   5.349   8.865   1.665  1.4861  0.7136 -1.2252
22025SOL     OW69094   6.919   5.362   4.346  0.5520 -0.0963  0.0351
22025SOL    HW169095   6.837   5.393   4.308  0.5964 -0.7100 -0.5651
22025SOL    HW269096   6.943   5.287   4.293  0.8848 -0.6492  0.9535
22026SOL     OW69097   1.009   6.046   6.642 -0.3525 -0.5182  0.4283
22026SOL    HW169098   1.000   6.134   6.606  1.4079 -0.3767  0.2974
22026SOL    HW269099   0.977   5.988   6.572  2.4193 -0.2091 -1.1558
22027SOL     OW69100   4.309   5.536   4.465  0.1522 -0.0310  0.4066
22027SOL    HW169101   4.376   5.565   4.403  1.9003 -1.2158  1.6803
22027SOL    HW269102   4.254   5.614   4.480  1.2686  0.9720 -0.6262
22028SOL     OW69103   5.031   1.651   5.319  0.2306  0.1403  0.4492
22028SOL    HW169104   4.973   1.595   5.370 -1.0674 -0.0915 -1.2235
22028SOL    HW269105   5.088   1.590   5.272  0.3952  0.2959  0.4458
22029SOL     OW69106   8.862   2.886   4.258  0.3602 -0.5507  0.2436
22029SOL    HW169107   8.784   2.884   4.203 -0.7696 -0.3284  1.7777
22029SOL    HW269108   8.876   2.794   4.282  3.1609 -1.1921 -3.4847
22030SOL     OW69109   0.284   3.297   3.175 -0.7648 -0.1026 -0.2469
22030SOL    HW169110   0.193   3.270   3.183 -0.8655  0.6633  1.3571
22030SOL    HW269111   0.282   3.374   3.117 -1.1918  0.2407  0.2274
22031SOL     OW69112   6.543   3.829   0.520  0.1907 -0.7218  0.1105
22031SOL    HW169113   6.601   3.892   0.477 -0.0631  1.7427  3.1606
22031SOL    HW269114   6.456   3.865   0.509 -0.3490 -2.3107 -0.9654
22032SOL     OW69115   5.024   9.434   4.661  0.1630  0.2663  0.9411
22032SOL    HW169116   5.093   9.367   4.658 -0.5247 -0.4393  0.8223
22032SOL    HW269117   4.963   9.402   4.727 -0.5214  0.4396  0.3959
22033SOL     OW69118   2.897   6.567   8.237 -0.0586  0.4521 -0.2392
22033SOL    HW169119   2.879   6.633   8.169 -0.9134 -0.1283 -0.5822
22033SOL    HW269120   2.991   6.572   8.250  0.2399 -0.0126 -2.0833
22034SOL     OW69121   0.697   6.487   6.495 -0.1325  0.1087  0.2840
22034SOL    HW169122   0.667   6.469   6.406 -0.1140 -0.3439  0.3707
22034SOL    HW269123   0.643   6.431   6.550  0.6171 -0.4416  0.4677
22035SOL     OW69124   4.928   8.078   5.007  0.2691 -0.6271  0.3341
22035SOL    HW169125   4.960   8.134   4.936  0.6017  0.8355  1.6126
22035SOL    HW269126   4.944   7.989   4.976  0.9574 -0.0011 -1.1714
22036SOL     OW69127   5.182   0.398   2.680  0.1021 -0.3925  0.6779
22036SOL    HW169128   5.100   0.349   2.687  0.0677 -0.7089 -1.7239
22036SOL    HW269129   5.156   0.490   2.687 -0.6286 -0.4305 -1.3215
22037SOL     OW69130   3.806   4.849   6.954 -0.1249  0.5515 -0.0519
22037SOL    HW169131   3.872   4.815   7.014  0.5640  3.3224  0.8161
22037SOL    HW269132   3.849   4.924   6.911 -1.9481  1.0301 -1.0771
22038SOL     OW69133   0.610   7.525   7.171 -0.2126  0.1522 -0.4504
22038SOL    HW169134   0.608   7.436   7.138  0.8262  0.0057 -0.1373
22038SOL    HW269135   0.548   7.573   7.115 -0.5169 -0.6752 -0.8366
22039SOL     OW69136   9.219   0.669   3.505  0.2099 -0.0706 -0.2961
22039SOL    HW169137   9.214   0.644   3.413  1.0761 -1.4405  0.0104
22039SOL    HW269138   9.313   0.674   3.523  0.0832 -1.7597  0.9943
22040SOL     OW69139   0.552   1.424   8.853  0.6099  0.2296  0.1324
22040SOL    HW169140   0.528   1.512   8.881  0.0818  0.2269 -0.3078
22040SOL    HW269141   0.495   1.366   8.904  2.0597  0.0547  1.6089
22041SOL     OW69142   1.123   6.000   1.340  0.1697  0.0597  0.4362
22041SOL    HW169143   1.034   5.994   1.308  0.4365  0.5315 -0.3987
22041SOL    HW269144   1.165   6.066   1.284  0.8606  0.2967  1.2145
22042SOL     OW69145   4.733   6.273   2.894  0.3289 -0.1175 -0.2018
22042SOL    HW169146   4.729   6.192   2.943  1.4521  0.3084  0.6187
22042SOL    HW269147   4.661   6.326   2.928 -1.1737 -1.2186 -1.5969
22043SOL     OW69148   7.475   1.142   2.426  0.0087 -0.1464  0.0659
22043SOL    HW169149   7.397   1.182   2.387  0.9712  2.3641  0.6204
22043SOL    HW269150   7.541   1.145   2.357  0.0489 -0.9021  0.0691
22044SOL     OW69151   7.970   1.014   8.551  0.0335  0.2232  0.1616
22044SOL    HW169152   7.981   0.926   8.515 -2.9119 -0.0616 -0.1673
22044SOL    HW269153   7.950   1.069   8.475  0.7814  0.9744  0.4982
22045SOL     OW69154   5.535   4.077   8.918  0.1711  0.0205 -0.4628
22045SOL    HW169155   5.447   4.112   8.931 -0.0828 -0.6166 -0.4379
22045SOL    HW269156   5.552   4.025   8.997  0.8711  0.7669 -0.1224
22046SOL     OW69157   4.073   3.051   0.260  0.2711 -0.4509 -0.3367
22046SOL    HW169158   4.084   3.087   0.173 -0.6413 -0.5928 -0.5126
22046SOL    HW269159   4.149   3.083   0.309  0.5805 -0.0536 -1.0672
22047SOL     OW69160   3.871   5.151   0.996  0.5237  0.7221 -0.5846
22047SOL    HW169161   3.825   5.221   0.948 -0.4622  0.8741  0.5579
22047SOL    HW269162   3.824   5.071   0.972 -0.6391  0.9314  0.9150
22048SOL     OW69163   7.260   2.854   5.632 -0.0365 -0.1727  0.0507
22048SOL    HW169164   7.265   2.869   5.727 -0.4599 -0.3949  0.1096
22048SOL    HW269165   7.325   2.786   5.615  0.6161  0.4332  0.0536
22049SOL     OW69166   6.589   1.515   5.173  0.1652 -0.1677  0.1948
22049SOL    HW169167   6.583   1.611   5.179 -0.9145 -0.1912 -0.4161
22049SOL    HW269168   6.535   1.492   5.097  2.6401 -1.0362 -1.3720
22050SOL     OW69169   7.706   7.381   3.658  0.0130  0.2048  0.1455
22050SOL    HW169170   7.676   7.306   3.710 -0.7041 -0.2747 -0.9334
22050SOL    HW269171   7.777   7.346   3.604 -0.4333  0.2610 -0.4785
22051SOL     OW69172   0.761   0.948   8.744  0.4561  0.3069  0.1088
22051SOL    HW169173   0.818   1.000   8.800 -0.1829 -0.3375  1.3805
22051SOL    HW269174   0.808   0.866   8.731 -0.0064 -0.0833  0.8580
22052SOL     OW69175   5.899   6.317   1.743  0.0382 -0.0842  0.6220
22052SOL    HW169176   5.972   6.307   1.681  1.4329  0.5753  2.1386
22052SOL    HW269177   5.887   6.412   1.750 -0.6119 -0.1797  0.8011
22053SOL     OW69178   7.609   2.262   3.412  0.2051 -0.1034  0.0647
22053SOL    HW169179   7.644   2.222   3.491  0.4718 -0.1191 -0.0613
22053SOL    HW269180   7.642   2.352   3.414 -0.9423  0.3092  0.6894
22054SOL     OW69181   1.337   1.943   8.634 -0.5892  0.3808  0.1232
22054SOL    HW169182   1.428   1.950   8.665 -1.0268  2.1449  1.0919
22054SOL    HW269183   1.291   1.897   8.704 -0.5727  0.0782 -0.0677
22055SOL     OW69184   0.045   7.786   3.707  0.4175 -0.5843  0.1413
22055SOL    HW169185   0.136   7.772   3.732  0.9593  0.5974 -1.1656
22055SOL    HW269186   0.049   7.828   3.622 -1.3089  1.1285  0.8679
22056SOL     OW69187   7.000   1.099   0.723 -0.1970 -0.0140  0.3719
22056SOL    HW169188   6.917   1.065   0.687 -0.4705 -0.1232  1.0973
22056SOL    HW269189   7.064   1.083   0.654 -1.0120  1.1232 -0.6660
22057SOL     OW69190   1.415   5.880   8.960  0.2818  0.1920  0.3110
22057SOL    HW169191   1.439   5.949   8.897  3.2319 -0.3984  0.7122
22057SOL    HW269192   1.437   5.917   9.045  0.9848 -0.8678  0.5976
22058SOL     OW69193   3.992   7.688   1.064 -0.5327  0.0765 -0.1135
22058SOL    HW169194   4.059   7.748   1.030 -1.1731  0.1299 -1.2965
22058SOL    HW269195   4.027   7.601   1.045 -0.4046  0.0913  0.0487
22059SOL     OW69196   8.120   6.954   0.315 -0.2172  0.0844 -0.4596
22059SOL    HW169197   8.077   6.869   0.321 -0.3749  0.2031  0.0565
22059SOL    HW269198   8.209   6.934   0.284 -0.1969 -0.2786 -0.1621
22060SOL     OW69199   0.052   6.084   5.659  0.2601  0.6468 -0.6254
22060SOL    HW169200   0.134   6.126   5.687  0.1940 -0.4681  1.3580
22060SOL    HW269201   0.028   6.129   5.578  1.9919  2.0670 -0.3806
22061SOL     OW69202   9.232   8.245   4.402 -0.0438 -0.6050 -0.1602
22061SOL    HW169203   9.180   8.165   4.411  0.8495 -1.0622  1.1862
22061SOL    HW269204   9.317   8.215   4.368  0.4005 -0.2759  0.6444
22062SOL     OW69205   7.072   0.652   0.138  0.1256 -0.1533 -0.7168
22062SOL    HW169206   7.009   0.666   0.210  0.2549  1.3610 -0.8712
22062SOL    HW269207   7.079   0.738   0.096  3.0849 -0.0383 -0.0732
22063SOL     OW69208   3.384   3.976   8.154 -0.3199 -0.4313  0.0936
22063SOL    HW169209   3.434   3.945   8.079 -0.4644 -1.2336  0.3313
22063SOL    HW269210   3.413   3.922   8.227  2.1697  2.4580  1.3353
22064SOL     OW69211   9.079   0.833   7.868 -0.2412  0.0518  0.2503
22064SOL    HW169212   9.105   0.920   7.840 -0.3112  0.5636  1.7602
22064SOL    HW269213   9.097   0.831   7.962  0.1656 -1.7090  0.1466
22065SOL     OW69214   0.728   1.215   2.633  0.4007 -0.2895 -0.2558
22065SOL    HW169215   0.749   1.269   2.557  0.0257  0.1815 -0.0206
22065SOL    HW269216   0.720   1.126   2.597  0.3966 -0.0950 -0.7340
22066SOL     OW69217   1.555   2.784   8.973  0.6721 -0.3285  0.0560
22066SOL    HW169218   1.468   2.808   9.005 -0.9008 -2.7657 -2.2172
22066SOL    HW269219   1.563   2.830   8.890  1.5418 -0.1723  0.2217
22067SOL     OW69220   0.287   5.331   8.043  0.0060 -0.2010 -0.1275
22067SOL    HW169221   0.212   5.274   8.031 -0.7302  0.8170 -0.4674
22067SOL    HW269222   0.256   5.418   8.017  1.4181  0.1581 -0.6612
22068SOL     OW69223   8.742   2.693   1.007 -0.0878 -0.9876 -0.1164
22068SOL    HW169224   8.784   2.609   1.023 -0.3122 -1.4863 -1.9610
22068SOL    HW269225   8.805   2.758   1.036  0.4226 -1.7796  0.5654
22069SOL     OW69226   1.438   6.672   7.660  0.4394  0.6843  0.2817
22069SOL    HW169227   1.432   6.682   7.755 -0.7679 -2.2381  0.5606
22069SOL    HW269228   1.485   6.589   7.647 -1.4878 -0.1865 -1.6061
22070SOL     OW69229   6.619   5.487   6.431  0.5235 -0.3530  0.7079
22070SOL    HW169230   6.628   5.454   6.520  1.0717 -1.1661  0.3583
22070SOL    HW269231   6.696   5.454   6.385  0.5927  0.6348  0.1085
22071SOL     OW69232   8.433   8.887   1.644 -0.0084  0.1684  0.0684
22071SOL    HW169233   8.375   8.815   1.620  0.3617 -0.0680 -0.1225
22071SOL    HW269234   8.476   8.911   1.563  2.1269 -1.4152  0.6629
22072SOL     OW69235   6.562   2.253   1.243 -0.4547 -0.0569  0.5086
22072SOL    HW169236   6.657   2.259   1.255 -0.6680  1.9247  1.4224
22072SOL    HW269237   6.546   2.299   1.161 -0.6801  0.1116  0.6476
22073SOL     OW69238   1.833   7.592   3.255  0.2720 -0.2497  0.0390
22073SOL    HW169239   1.767   7.660   3.268  1.2749  0.6459  0.5714
22073SOL    HW269240   1.821   7.564   3.164 -1.3260 -0.6367  0.3461
22074SOL     OW69241   6.840   4.503   6.683 -0.0924 -0.4120  0.2165
22074SOL    HW169242   6.885   4.482   6.765 -1.0013  1.2676  1.1699
22074SOL    HW269243   6.747   4.496   6.703 -0.3528  1.2205 -0.3096
22075SOL     OW69244   7.219   5.418   0.073 -0.5954  0.5134  0.1950
22075SOL    HW169245   7.206   5.332   0.113 -1.6749  1.2553  1.4740
22075SOL    HW269246   7.314   5.427   0.069 -0.4649 -0.3099  1.0207
22076SOL     OW69247   0.627   0.032   4.180  0.4899  0.0176  0.3146
22076SOL    HW169248   0.560   0.097   4.159  0.9720 -0.1835 -1.9542
22076SOL    HW269249   0.579  -0.038   4.225 -0.4529  0.8223  0.5738
22077SOL     OW69250   4.631   5.000   5.832  0.1920 -0.7974  0.6316
22077SOL    HW169251   4.599   5.085   5.862  1.8870 -0.2366  0.9301
22077SOL    HW269252   4.575   4.977   5.758 -0.7740  0.2128  1.0422
22078SOL     OW69253   3.191   2.800   7.100 -0.5620  0.5990  0.1564
22078SOL    HW169254   3.276   2.756   7.105 -0.9799 -0.1624  0.7349
22078SOL    HW269255   3.191   2.861   7.174 -0.0168  1.5235 -0.5942
22079SOL     OW69256   2.985   7.301   7.638 -0.3502  0.5638 -0.2278
22079SOL    HW169257   2.900   7.265   7.663  0.0332 -0.6172 -0.5783
22079SOL    HW269258   2.975   7.321   7.545 -0.3931  0.8588 -0.1583
22080SOL     OW69259   7.791   2.791   7.902 -0.0969 -0.9259 -0.2553
22080SOL    HW169260   7.778   2.804   7.996  0.6691 -0.7937 -0.1696
22080SOL    HW269261   7.718   2.838   7.861 -0.1029 -0.4974  0.2484
22081SOL     OW69262   6.601   2.687   4.618 -0.4628  0.1615 -0.5323
22081SOL    HW169263   6.538   2.658   4.553 -0.3085 -1.2128 -0.0948
22081SOL    HW269264   6.648   2.607   4.643 -0.3856  0.6921  1.1065
22082SOL     OW69265   6.784   7.976   1.780  0.4768 -0.1058 -0.2641
22082SOL    HW169266   6.749   8.013   1.699 -1.2187  0.0216  0.4914
22082SOL    HW269267   6.716   7.915   1.808  0.5942  0.5904  1.5781
22083SOL     OW69268   4.960   1.297   3.049 -0.2147  0.2856  0.3340
22083SOL    HW169269   4.946   1.285   3.143  1.1560  2.6647  0.8842
22083SOL    HW269270   4.871   1.302   3.012 -0.7691  0.7772  1.6979
22084SOL     OW69271   6.500   6.383   2.340 -0.0391  0.0253  0.1110
22084SOL    HW169272   6.549   6.367   2.420 -1.3003 -0.9032  0.7124
22084SOL    HW269273   6.529   6.315   2.279 -2.1124 -1.8508  1.1749
22085SOL     OW69274   1.980   7.750   6.916 -0.3812 -0.6215 -0.1064
22085SOL    HW169275   1.925   7.794   6.981 -1.9197 -1.1356 -1.0299
22085SOL    HW269276   2.069   7.769   6.943 -1.0118  0.0374  1.5631
22086SOL     OW69277   7.233   0.285   5.487 -0.2967  0.4108  0.2042
22086SOL    HW169278   7.301   0.218   5.486  0.2920  0.9915  0.7358
22086SOL    HW269279   7.276   0.362   5.523 -0.7242  1.3489 -1.2467
22087SOL     OW69280   1.244   3.530   7.926 -0.0346  0.1087 -0.4295
22087SOL    HW169281   1.183   3.548   7.854 -0.2054 -0.5994 -0.4622
22087SOL    HW269282   1.266   3.438   7.917  1.2660  0.4147 -0.5845
22088SOL     OW69283   5.560   8.623   1.314 -0.1256  0.2541 -0.0362
22088SOL    HW169284   5.499   8.568   1.265  0.0594  2.1110 -2.4417
22088SOL    HW269285   5.519   8.710   1.314  0.7746  0.6898  1.5126
22089SOL     OW69286   5.836   5.157   3.908 -0.2727 -0.5266 -0.1354
22089SOL    HW169287   5.829   5.136   3.815 -0.3628 -1.6500  0.1175
22089SOL    HW269288   5.930   5.153   3.927 -0.0224  1.8924 -0.6549
22090SOL     OW69289   9.433   4.118   6.355  0.0717  0.0902  0.4058
22090SOL    HW169290   9.369   4.133   6.425  0.1573  1.4239  0.2240
22090SOL    HW269291   9.493   4.053   6.391 -1.9398 -1.9724  0.1988
22091SOL     OW69292   2.643   7.235   7.704  0.4785 -0.7583 -0.7259
22091SOL    HW169293   2.697   7.186   7.643  1.0559  1.0434 -1.6960
22091SOL    HW269294   2.633   7.178   7.780  1.5612 -2.1369 -1.6218
22092SOL     OW69295   2.978   4.201   5.073  0.1909 -0.2391  0.2876
22092SOL    HW169296   2.999   4.288   5.106  3.2142 -0.5417 -0.6338
22092SOL    HW269297   2.942   4.216   4.986 -1.5847  0.2083  1.0938
22093SOL     OW69298   3.254   4.363   0.182 -0.3321 -0.3682  0.2927
22093SOL    HW169299   3.301   4.292   0.226  0.9539  0.2578 -0.0503
22093SOL    HW269300   3.308   4.440   0.197 -1.1934  0.3356 -0.2249
22094SOL     OW69301   3.792   4.467   0.232 -0.4057  0.2065 -0.1065
22094SOL    HW169302   3.736   4.497   0.161 -1.2264  0.2283  0.5369
22094SOL    HW269303   3.783   4.535   0.299 -1.0000 -0.6582  0.7015
22095SOL     OW69304   6.520   5.274   7.822 -0.1110 -0.1626  0.0376
22095SOL    HW169305   6.430   5.305   7.816 -0.4810 -0.8939  1.5018
22095SOL    HW269306   6.519   5.188   7.779 -0.3159 -0.5348  0.7655
22096SOL     OW69307   0.092   2.385   6.773  0.0248 -0.0519 -0.3002
22096SOL    HW169308   0.079   2.361   6.681  1.0301 -0.0817 -0.4402
22096SOL    HW269309   0.079   2.480   6.775 -0.0436 -0.0567 -0.4688
22097SOL     OW69310   8.789   4.371   5.016 -0.2790  0.6270  0.5678
22097SOL    HW169311   8.739   4.452   5.027 -1.2886 -0.0643  1.0695
22097SOL    HW269312   8.862   4.380   5.078 -1.7023  0.1231  2.3640
22098SOL     OW69313   3.287   9.128   4.127  0.0983 -0.1098 -0.1518
22098SOL    HW169314   3.346   9.201   4.146 -1.3711  1.2978 -0.9977
22098SOL    HW269315   3.287   9.121   4.032 -0.1355 -0.9224 -0.0960
22099SOL     OW69316   0.647   8.305   8.114 -0.3150  0.0793  0.2481
22099SOL    HW169317   0.664   8.322   8.206 -0.1113 -1.1315  0.4430
22099SOL    HW269318   0.592   8.378   8.086  0.7279  1.1752  0.9798
22100SOL     OW69319   0.618   3.122   1.188 -0.4095 -0.2440  0.6505
22100SOL    HW169320   0.566   3.164   1.120 -0.8836 -2.6220 -0.5217
22100SOL    HW269321   0.700   3.099   1.146 -0.6155 -1.5221  0.9196
22101SOL     OW69322   2.212   6.424   8.787  0.9086  0.1494 -0.2024
22101SOL    HW169323   2.160   6.387   8.859 -0.0239  1.1747 -0.3382
22101SOL    HW269324   2.271   6.486   8.829  1.3243 -0.2694 -0.1658
22102SOL     OW69325   3.494   0.360   2.909  0.6726  0.3655 -0.4928
22102SOL    HW169326   3.518   0.281   2.861 -0.0612 -1.1816  1.5827
22102SOL    HW269327   3.399   0.355   2.917  0.7706  0.5970  1.0322
22103SOL     OW69328   4.793   2.387   4.073  0.5555  0.0660  0.4196
22103SOL    HW169329   4.760   2.324   4.009 -0.0776  0.8671 -0.0583
22103SOL    HW269330   4.887   2.388   4.061  0.8135 -2.3610  1.8782
22104SOL     OW69331   3.739   3.914   1.363  0.3005 -0.0170  0.5345
22104SOL    HW169332   3.822   3.875   1.389  0.4740 -0.5514 -0.7739
22104SOL    HW269333   3.698   3.941   1.445  1.2282 -0.8259  1.2736
22105SOL     OW69334   0.541   0.602   0.330  0.5183 -0.1134  0.2114
22105SOL    HW169335   0.622   0.621   0.378  1.4256 -0.3782 -1.1961
22105SOL    HW269336   0.547   0.508   0.310  0.4054  0.1069 -0.8728
22106SOL     OW69337   8.486   3.773   8.003 -0.3352  0.1897 -0.8849
22106SOL    HW169338   8.574   3.759   8.037  0.3251  2.6185 -1.4593
22106SOL    HW269339   8.459   3.688   7.970  1.3293 -0.8493  0.3658
22107SOL     OW69340   3.285   7.551   8.359  0.7394  0.0137 -0.3688
22107SOL    HW169341   3.229   7.495   8.304  0.5421  0.9120 -1.0878
22107SOL    HW269342   3.225   7.616   8.396  0.8584 -0.6542  1.0061
22108SOL     OW69343   5.425   2.796   6.362  0.0390  0.2344  0.2784
22108SOL    HW169344   5.361   2.726   6.347  1.1791 -0.4302 -1.6608
22108SOL    HW269345   5.419   2.850   6.284  2.2101 -0.1258 -0.1585
22109SOL     OW69346   8.484   7.738   5.156  0.2993 -0.5758 -0.4450
22109SOL    HW169347   8.567   7.691   5.154  0.3400 -0.5484  0.4047
22109SOL    HW269348   8.417   7.670   5.157  0.3685 -0.6436  1.4240
22110SOL     OW69349   5.347   8.974   4.156 -0.4804 -0.5463 -0.0697
22110SOL    HW169350   5.261   8.941   4.182 -0.3156  0.5749  1.9233
22110SOL    HW269351   5.350   9.063   4.189  1.2581 -0.3992 -0.5780
22111SOL     OW69352   0.845   2.166   5.747 -0.2193 -0.3394 -0.2195
22111SOL    HW169353   0.930   2.184   5.787 -0.5020 -1.3030  0.8568
22111SOL    HW269354   0.782   2.208   5.805 -0.5376 -0.4443 -0.4895
22112SOL     OW69355   0.196   0.924   1.797 -0.3324 -0.3529  0.1846
22112SOL    HW169356   0.217   0.851   1.855  2.6869 -0.1724 -0.5764
22112SOL    HW269357   0.102   0.938   1.808 -0.1223 -1.2975  3.8945
22113SOL     OW69358   4.865   2.956   0.536 -0.1172 -0.1930 -0.3283
22113SOL    HW169359   4.860   3.015   0.461 -1.4598 -0.7141 -0.6551
22113SOL    HW269360   4.803   2.886   0.516  0.5477 -1.0728  0.6255
22114SOL     OW69361   6.258   9.425   5.045  0.2865 -0.0473  0.3205
22114SOL    HW169362   6.247   9.461   5.134  1.9056 -0.6644  0.7859
22114SOL    HW269363   6.331   9.475   5.008  0.6369 -0.8686 -0.0967
22115SOL     OW69364   3.288   8.754   3.507  0.3172 -0.2776  0.5106
22115SOL    HW169365   3.358   8.693   3.483  1.8217  1.2394  0.9435
22115SOL    HW269366   3.277   8.808   3.429  0.0348 -0.1299  0.6550
22116SOL     OW69367   4.824   3.932   8.993  0.4804 -0.2224  0.7903
22116SOL    HW169368   4.844   3.848   9.034 -0.7519 -0.5039  0.8519
22116SOL    HW269369   4.882   3.995   9.036  0.8731 -0.9232  1.2827
22117SOL     OW69370   0.051   5.185   8.066  0.1430  0.1749 -0.1857
22117SOL    HW169371  -0.006   5.108   8.071  1.1904 -0.7236 -1.5128
22117SOL    HW269372  -0.006   5.255   8.034 -0.0514 -0.9246 -2.3485
22118SOL     OW69373   2.605   1.432   6.827 -0.4024  0.4898 -0.8050
22118SOL    HW169374   2.544   1.481   6.772 -0.8778  0.5083 -0.2637
22118SOL    HW269375   2.562   1.427   6.912  0.2675  0.3388 -0.4715
22119SOL     OW69376   2.299   0.263   4.798  0.8196 -0.2555  0.2146
22119SOL    HW169377   2.363   0.292   4.733  1.5645  0.3024  1.1801
22119SOL    HW269378   2.276   0.342   4.846  2.1708 -1.0850  2.2684
22120SOL     OW69379   5.453   7.675   5.186  0.3316 -0.0343  0.0117
22120SOL    HW169380   5.436   7.587   5.218  1.3735 -0.3825 -0.3865
22120SOL    HW269381   5.376   7.698   5.135 -0.0859 -0.5836  0.3939
22121SOL     OW69382   3.670   1.455   3.712 -0.2164 -0.0599 -0.3387
22121SOL    HW169383   3.650   1.361   3.715 -0.1304 -0.0673  0.0166
22121SOL    HW269384   3.733   1.464   3.640  2.2002 -0.7342  1.6460
22122SOL     OW69385   3.822   3.327   1.452 -0.2937  0.0134  0.1092
22122SOL    HW169386   3.865   3.383   1.516 -1.1436 -0.3069  0.9816
22122SOL    HW269387   3.843   3.366   1.367 -0.4308  1.3419  0.6725
22123SOL     OW69388   8.149   3.349   3.284  0.7975 -0.5779 -0.0835
22123SOL    HW169389   8.091   3.397   3.225  0.7228 -1.3167 -0.6119
22123SOL    HW269390   8.230   3.338   3.235  1.0169 -0.4846  0.2541
22124SOL     OW69391   8.957   8.564   6.411 -0.4888  0.1611  0.0229
22124SOL    HW169392   8.930   8.512   6.486  0.6853  0.4438  0.6579
22124SOL    HW269393   9.038   8.523   6.381  0.2360  1.3716  0.2840
22125SOL     OW69394   7.775   3.397   1.226 -0.0012 -0.1205  0.0200
22125SOL    HW169395   7.786   3.303   1.241 -0.7284 -0.2119 -0.0013
22125SOL    HW269396   7.753   3.404   1.133 -2.1370 -0.1244  0.5050
22126SOL     OW69397   9.154   1.537   5.373 -0.0414  0.3914  0.2752
22126SOL    HW169398   9.211   1.611   5.396  1.0391  1.1063 -4.2273
22126SOL    HW269399   9.068   1.562   5.407  0.9211  2.3723  1.3772
22127SOL     OW69400   6.752   0.323   7.108  0.4319  0.4075 -0.5372
22127SOL    HW169401   6.747   0.234   7.142  2.3565  1.0635  1.6175
22127SOL    HW269402   6.676   0.367   7.147  1.2978  0.5297  1.0748
22128SOL     OW69403   0.649   0.355   6.313 -0.0178 -0.1756 -0.4279
22128SOL    HW169404   0.678   0.301   6.386 -0.7576 -0.8237 -0.6146
22128SOL    HW269405   0.727   0.405   6.288  0.4325 -0.5043  0.3107
22129SOL     OW69406   1.151   6.831   2.469  0.2519  0.4465  0.0010
22129SOL    HW169407   1.104   6.904   2.429 -0.8742  0.9157  2.0691
22129SOL    HW269408   1.082   6.769   2.495  1.1545 -1.0953 -1.2009
22130SOL     OW69409   6.737   5.808   2.564 -0.3903  0.1165 -0.5031
22130SOL    HW169410   6.751   5.752   2.488 -0.8503 -1.3618  0.4983
22130SOL    HW269411   6.648   5.840   2.555 -0.4940 -0.1743 -0.4998
22131SOL     OW69412   2.960   4.309   7.198 -0.1495  0.0397 -0.1757
22131SOL    HW169413   2.918   4.372   7.139 -0.5198 -0.5257 -0.5177
22131SOL    HW269414   2.888   4.261   7.237  0.0799  0.6581  1.0291
22132SOL     OW69415   6.709   6.589   1.793 -0.1606  0.5784 -0.0367
22132SOL    HW169416   6.744   6.500   1.786 -1.3248  0.0591  0.5003
22132SOL    HW269417   6.615   6.577   1.778 -0.0729  1.9793 -1.8956
22133SOL     OW69418   5.411   4.773   6.078 -0.1409 -0.3429 -0.1369
22133SOL    HW169419   5.419   4.853   6.130 -1.4720 -1.2550  1.5578
22133SOL    HW269420   5.486   4.719   6.106 -0.5685 -0.6243  0.4909
22134SOL     OW69421   7.605   1.394   0.340 -0.1657 -0.1479  0.4947
22134SOL    HW169422   7.597   1.316   0.395 -2.0230  0.5732  1.2681
22134SOL    HW269423   7.693   1.427   0.358 -0.5337 -0.2669  2.5525
22135SOL     OW69424   1.950   9.199   3.076  0.3100 -0.5612 -0.0246
22135SOL    HW169425   1.980   9.152   2.998  0.3378 -2.4597  1.0912
22135SOL    HW269426   1.976   9.142   3.149  0.5843  1.3438  1.3930
22136SOL     OW69427   2.922   1.395   1.632 -0.1248  0.0204  0.3693
22136SOL    HW169428   3.013   1.419   1.618 -0.9008  1.8110 -1.9089
22136SOL    HW269429   2.925   1.304   1.663  2.3561 -0.2572 -0.6051
22137SOL     OW69430   1.871   4.961   0.540  0.3132  0.3471 -0.3641
22137SOL    HW169431   1.815   4.987   0.466  1.1560  0.9633 -0.7959
22137SOL    HW269432   1.813   4.963   0.616  0.1006  2.4459 -0.5596
22138SOL     OW69433   8.302   6.106   8.548  0.1057  0.4634 -0.4894
22138SOL    HW169434   8.366   6.036   8.541 -1.0893 -0.7526  0.5639
22138SOL    HW269435   8.230   6.069   8.599 -2.0018  1.3646 -2.6528
22139SOL     OW69436   8.349   1.625   4.512  0.2782 -0.1137 -0.5521
22139SOL    HW169437   8.350   1.715   4.482 -0.7380 -0.1953 -0.8551
22139SOL    HW269438   8.338   1.573   4.433 -2.0701 -0.3450 -0.1216
22140SOL     OW69439   7.446   5.508   6.173 -0.1131  0.2064 -0.0363
22140SOL    HW169440   7.489   5.561   6.106 -1.6395 -0.2033 -1.3717
22140SOL    HW269441   7.494   5.527   6.253  2.3277  0.0264 -1.4009
22141SOL     OW69442   4.637   8.859   5.449  0.6368 -0.8483  0.6353
22141SOL    HW169443   4.693   8.832   5.522  1.1405 -1.4260  0.0402
22141SOL    HW269444   4.553   8.881   5.490  1.2574 -0.1111  1.5152
22142SOL     OW69445   4.640   3.078   1.801  0.1266 -0.1263  0.2132
22142SOL    HW169446   4.728   3.083   1.838  0.5256 -0.1137 -0.7282
22142SOL    HW269447   4.591   3.026   1.865  0.4279  1.0946  1.4573
22143SOL     OW69448   0.763   6.959   8.369  0.4152 -0.7180  0.1731
22143SOL    HW169449   0.753   7.024   8.439  1.8426 -0.8108  0.4638
22143SOL    HW269450   0.729   7.003   8.291  0.7558  0.1343  0.5027
22144SOL     OW69451   5.286   2.254   3.186  0.4792 -0.6842  0.2443
22144SOL    HW169452   5.275   2.348   3.201  2.2591 -0.4139  0.0201
22144SOL    HW269453   5.228   2.212   3.250 -0.6156  0.5686  0.0767
22145SOL     OW69454   8.787   5.869   0.635  0.4174 -0.1323 -0.3096
22145SOL    HW169455   8.732   5.947   0.628  0.9015  0.2247 -0.1468
22145SOL    HW269456   8.875   5.899   0.614  0.3350 -0.9905 -1.9633
22146SOL     OW69457   8.009   3.243   0.766 -0.7100 -0.4214 -0.4417
22146SOL    HW169458   8.072   3.277   0.703  0.5478 -1.6721  0.1026
22146SOL    HW269459   7.926   3.284   0.742  0.4936  2.0075 -0.5571
22147SOL     OW69460   4.044   6.002   4.188  0.1774  0.0983  0.2224
22147SOL    HW169461   4.005   6.082   4.154  0.5556 -0.2568 -1.0826
22147SOL    HW269462   4.125   6.030   4.229  0.3962  0.3622 -0.3916
22148SOL     OW69463   2.585   8.715   4.308  0.2232 -0.3411  0.2883
22148SOL    HW169464   2.619   8.699   4.220 -0.3325 -1.2829  0.2360
22148SOL    HW269465   2.659   8.696   4.366  0.1077 -1.3340  0.1146
22149SOL     OW69466   3.281   7.947   0.854  0.0116 -0.6067  0.3426
22149SOL    HW169467   3.328   8.015   0.903  0.3738 -0.2625 -0.4855
22149SOL    HW269468   3.213   7.916   0.915  0.6001 -0.3324  1.1419
22150SOL     OW69469   1.679   4.368   6.900  0.6603  0.2183 -0.1996
22150SOL    HW169470   1.710   4.323   6.979 -2.0072 -1.0738  0.1648
22150SOL    HW269471   1.617   4.433   6.933  0.0469  0.1262 -1.1798
22151SOL     OW69472   1.256   0.889   0.369  0.6728 -0.5231  0.1907
22151SOL    HW169473   1.297   0.969   0.336  1.9436 -1.0729  0.4366
22151SOL    HW269474   1.289   0.879   0.458 -0.4087 -0.6849  0.5773
22152SOL     OW69475   4.068   2.262   2.040 -0.4183  0.2660 -0.3941
22152SOL    HW169476   4.109   2.334   2.089 -0.8332 -0.3613  0.8857
22152SOL    HW269477   4.047   2.300   1.954  0.3678  1.3565 -0.1096
22153SOL     OW69478   2.564   8.975   1.026  0.2596 -0.3070  0.0541
22153SOL    HW169479   2.469   8.966   1.020  0.3103  0.8308 -3.4985
22153SOL    HW269480   2.597   8.886   1.031 -0.8971 -0.7962 -0.8095
22154SOL     OW69481   0.372   5.732   9.046 -0.3939  0.0508  0.0011
22154SOL    HW169482   0.407   5.736   9.135  2.0387 -0.2788 -0.8806
22154SOL    HW269483   0.377   5.640   9.022 -0.4012  0.2287 -0.7029
22155SOL     OW69484   6.905   6.382   2.855 -0.6146  0.5762  0.4631
22155SOL    HW169485   6.829   6.337   2.817 -0.9383  0.7280  0.9206
22155SOL    HW269486   6.887   6.383   2.949  0.1075  0.3364  0.6074
22156SOL     OW69487   5.636   2.032   4.320  0.8509  0.2654  0.6074
22156SOL    HW169488   5.717   2.069   4.354  0.1375  1.1171  1.4297
22156SOL    HW269489   5.597   2.103   4.268  0.3199  0.0797  0.7475
22157SOL     OW69490   1.431   1.354   1.083 -0.3370 -0.1180 -0.1322
22157SOL    HW169491   1.507   1.359   1.025 -1.2604  0.7077 -1.2942
22157SOL    HW269492   1.360   1.323   1.027 -1.5637  1.9691  0.2197
22158SOL     OW69493   3.837   1.995   3.836  0.2344  0.8891  1.0423
22158SOL    HW169494   3.746   1.973   3.816  0.3110  2.2134 -0.9032
22158SOL    HW269495   3.860   1.940   3.911 -1.9767  0.1138  1.1607
22159SOL     OW69496   3.235   4.049   9.138 -0.3504  0.2985  0.0543
22159SOL    HW169497   3.289   4.009   9.070 -1.3241  1.9990 -1.7834
22159SOL    HW269498   3.230   4.141   9.113 -0.8317  0.9396  2.3989
22160SOL     OW69499   5.604   0.415   6.088  0.5086  0.3531 -0.2610
22160SOL    HW169500   5.698   0.428   6.102  0.4164  0.2662  0.4428
22160SOL    HW269501   5.572   0.382   6.171  0.2482 -1.7609 -1.1739
22161SOL     OW69502   4.776   0.811   0.767  0.5395 -0.4314 -0.3538
22161SOL    HW169503   4.787   0.766   0.684 -0.1135  0.1118 -0.7424
22161SOL    HW269504   4.692   0.779   0.800  1.4150 -1.6558  0.7401
22162SOL     OW69505   2.705   8.675   3.743  0.5337  0.4063  0.0543
22162SOL    HW169506   2.715   8.760   3.785  1.9053 -1.3990  3.5829
22162SOL    HW269507   2.794   8.648   3.721  0.1210 -0.2339 -0.8521
22163SOL     OW69508   0.977   7.042   2.375 -0.2127  0.0829 -0.0132
22163SOL    HW169509   0.985   7.089   2.458  1.6950  0.0847 -0.1819
22163SOL    HW269510   0.893   6.997   2.382 -0.9146  1.4966  1.1795
22164SOL     OW69511   2.651   8.590   8.750 -0.6635 -0.2961 -0.4823
22164SOL    HW169512   2.674   8.497   8.759  0.9146  0.0804 -0.5290
22164SOL    HW269513   2.732   8.633   8.724 -1.3422  1.1357 -0.3038
22165SOL     OW69514   5.424   9.008   8.070  0.1434  0.2954  0.4827
22165SOL    HW169515   5.495   8.998   8.007  0.9912 -0.1431  1.4800
22165SOL    HW269516   5.387   9.094   8.052  1.1867  0.6874  0.2086
22166SOL     OW69517   2.025   8.062   6.148  0.2975 -0.5096  0.3784
22166SOL    HW169518   2.110   8.017   6.151  0.1443 -0.6864  2.6785
22166SOL    HW269519   2.047   8.154   6.139  0.7467 -0.5045  1.5185
22167SOL     OW69520   3.926   8.801   2.501  0.2277 -0.3599 -0.1038
22167SOL    HW169521   3.885   8.805   2.588  0.6753 -0.3490  0.1074
22167SOL    HW269522   3.858   8.766   2.444 -1.1154  2.5060 -0.3650
22168SOL     OW69523   0.689   2.175   0.270  0.0970  0.0504 -0.0653
22168SOL    HW169524   0.688   2.221   0.186  1.6452  1.8139  0.8337
22168SOL    HW269525   0.767   2.119   0.265 -0.0985 -0.2239 -0.0113
22169SOL     OW69526   4.207   5.415   3.942 -0.4042  0.2671  0.9860
22169SOL    HW169527   4.294   5.420   3.981 -0.2357  0.8350  0.5294
22169SOL    HW269528   4.219   5.441   3.851 -0.9917  0.0031  0.8277
22170SOL     OW69529   5.099   6.147   5.479 -0.1141  0.1122 -0.1437
22170SOL    HW169530   5.052   6.193   5.410 -0.3746 -0.2431 -0.2044
22170SOL    HW269531   5.191   6.172   5.467 -0.0511 -0.5421 -1.0919
22171SOL     OW69532   1.123   4.725   9.043 -0.3242  0.0696  0.6871
22171SOL    HW169533   1.117   4.679   9.126 -2.0641  0.4609  0.8135
22171SOL    HW269534   1.032   4.741   9.018  0.1692  0.0998 -1.2116
22172SOL     OW69535   0.842   3.911   8.580 -0.1988  0.4089 -0.0587
22172SOL    HW169536   0.808   3.998   8.562  0.9078  1.0044  0.6852
22172SOL    HW269537   0.766   3.861   8.610 -0.9679  0.9129 -1.1620
22173SOL     OW69538   0.606   1.378   0.566 -0.1674 -0.2611 -0.4995
22173SOL    HW169539   0.603   1.454   0.508  0.8618  2.4939  2.8550
22173SOL    HW269540   0.515   1.350   0.573 -0.8410  1.8111 -0.4342
22174SOL     OW69541   0.325   5.230   6.449  0.3320 -0.1710  0.0904
22174SOL    HW169542   0.238   5.241   6.410  0.5308  0.2112 -0.2578
22174SOL    HW269543   0.330   5.137   6.470 -0.1102 -0.2230 -0.0139
22175SOL     OW69544   4.251   7.913   3.672 -0.5322 -0.5827 -0.3772
22175SOL    HW169545   4.233   7.928   3.765 -2.1386  2.5954 -1.1511
22175SOL    HW269546   4.346   7.915   3.665 -0.3527 -1.9155  1.3410
22176SOL     OW69547   3.161   8.385   6.422  0.1232  0.3244  0.1426
22176SOL    HW169548   3.124   8.310   6.375 -0.0169  1.9120 -2.4134
22176SOL    HW269549   3.109   8.392   6.502  0.2459 -2.3717  0.4851
22177SOL     OW69550   5.206   8.999   7.734 -0.0873  0.9730  0.1067
22177SOL    HW169551   5.133   9.016   7.794 -2.9402 -1.2693 -2.5407
22177SOL    HW269552   5.269   8.950   7.785 -2.1561 -0.3366  1.4809
22178SOL     OW69553   2.393   7.009   4.675 -0.1184  0.4543 -0.2859
22178SOL    HW169554   2.468   6.950   4.670 -0.5358  0.0431 -2.1254
22178SOL    HW269555   2.428   7.095   4.652 -0.0762  0.3757 -0.5184
22179SOL     OW69556   7.239   4.665   4.551  0.2452 -0.2291 -0.2669
22179SOL    HW169557   7.146   4.642   4.543  0.4530 -1.8915  1.7039
22179SOL    HW269558   7.246   4.705   4.638  1.2626  0.5780 -0.7106
22180SOL     OW69559   8.562   7.806   1.789  0.4584 -0.3360 -0.3545
22180SOL    HW169560   8.486   7.864   1.785  0.2276 -0.5989  0.1676
22180SOL    HW269561   8.527   7.719   1.769  0.9873 -0.1437 -2.2093
22181SOL     OW69562   5.984   4.962   7.394 -0.0369  0.2405  0.2211
22181SOL    HW169563   5.889   4.958   7.389 -0.0235  0.4695 -0.2637
22181SOL    HW269564   6.013   4.874   7.370 -0.0489  0.8005 -1.9686
22182SOL     OW69565   3.549   8.043   0.392 -0.0588  0.0083 -0.2909
22182SOL    HW169566   3.560   8.091   0.474 -1.1143 -0.3560  0.0757
22182SOL    HW269567   3.477   8.088   0.347 -1.0442 -1.2027  0.0422
22183SOL     OW69568   0.388   2.506   5.815  0.4175 -0.0741  0.0845
22183SOL    HW169569   0.319   2.545   5.761  0.1004 -0.3074  0.3163
22183SOL    HW269570   0.453   2.575   5.825 -0.1238  0.3833  0.4650
22184SOL     OW69571   6.547   1.079   1.952  0.3476 -0.0864  0.4808
22184SOL    HW169572   6.485   1.086   2.025 -0.2003 -0.1872  0.0240
22184SOL    HW269573   6.548   0.985   1.931 -0.2774  0.0835 -0.3176
22185SOL     OW69574   5.149   2.865   2.531 -0.0355 -0.5023 -0.2946
22185SOL    HW169575   5.241   2.843   2.512  0.2269  0.2272  0.0771
22185SOL    HW269576   5.155   2.935   2.597 -0.8519 -0.2003 -0.5375
22186SOL     OW69577   3.421   2.935   0.861  0.4511  0.2038  0.7158
22186SOL    HW169578   3.495   2.957   0.804  1.8250  0.8517  2.7014
22186SOL    HW269579   3.344   2.955   0.808  1.6804  0.5530 -1.0077
22187SOL     OW69580   4.969   1.290   0.015  0.4944  0.0821 -0.4165
22187SOL    HW169581   5.005   1.339  -0.059  1.6829  0.9424  0.7126
22187SOL    HW269582   4.997   1.200  -0.000  1.9246  0.5027 -0.2933
22188SOL     OW69583   4.175   2.536   5.478  0.2294  0.7415 -0.3385
22188SOL    HW169584   4.141   2.447   5.477  1.2682  0.3342 -0.1837
22188SOL    HW269585   4.098   2.591   5.465 -0.3063 -0.2105 -1.3712
22189SOL     OW69586   3.472   1.789   5.837  0.1855  0.2344  0.3855
22189SOL    HW169587   3.446   1.788   5.745  1.5160  1.2779 -0.0109
22189SOL    HW269588   3.390   1.789   5.885 -0.5215  0.0779 -0.8042
22190SOL     OW69589   2.810   3.728   3.999  0.4157  0.5101  0.2376
22190SOL    HW169590   2.877   3.726   3.930  1.1843  1.6931  0.9292
22190SOL    HW269591   2.809   3.819   4.029 -0.8657  0.3025  0.8717
22191SOL     OW69592   2.668   2.457   3.029 -0.1023 -0.6959 -0.1664
22191SOL    HW169593   2.725   2.380   3.037 -1.8026 -2.0427 -0.7667
22191SOL    HW269594   2.595   2.427   2.975 -1.1547  1.1460  0.2070
22192SOL     OW69595   3.931   7.906   5.338 -0.7131  0.4600  0.6020
22192SOL    HW169596   3.898   7.996   5.340 -1.2893  0.2560  0.3139
22192SOL    HW269597   3.896   7.869   5.257 -0.8563 -0.1620  0.9376
22193SOL     OW69598   8.039   7.368   8.322  0.3578  0.0772  0.4187
22193SOL    HW169599   7.978   7.399   8.255  0.1159  0.9878  1.0373
22193SOL    HW269600   8.125   7.374   8.281  0.3296  1.7121  0.5427
22194SOL     OW69601   9.439   5.270   1.605  0.1825  0.0947  0.2325
22194SOL    HW169602   9.531   5.247   1.619 -0.1334 -1.2822  0.1316
22194SOL    HW269603   9.393   5.186   1.606 -1.1125  0.7908  0.5625
22195SOL     OW69604   8.347   3.610   1.222 -0.5828  0.1234  0.0297
22195SOL    HW169605   8.411   3.654   1.166 -0.3703 -0.8847 -0.5378
22195SOL    HW269606   8.400   3.553   1.278 -0.9897 -0.7734 -0.4964
22196SOL     OW69607   7.423   0.685   3.429  0.0311 -0.1956  0.1045
22196SOL    HW169608   7.457   0.692   3.340 -2.1501  1.1623 -0.6823
22196SOL    HW269609   7.344   0.630   3.420  1.4517 -2.5832  1.7198
22197SOL     OW69610   1.258   8.031   2.200 -0.1122  0.2305  0.5152
22197SOL    HW169611   1.206   8.102   2.239 -2.5028 -0.7724 -0.8204
22197SOL    HW269612   1.286   7.979   2.276 -2.3862 -0.1184  1.1539
22198SOL     OW69613   3.586   1.969   3.700 -0.0024  0.0688  0.0433
22198SOL    HW169614   3.589   1.882   3.660  1.9766  0.2753 -0.2934
22198SOL    HW269615   3.508   2.010   3.661 -1.5264 -1.8904  0.9649
22199SOL     OW69616   1.620   2.660   7.064 -0.0813  0.5267 -0.3929
22199SOL    HW169617   1.686   2.715   7.022 -1.0900  0.5786 -1.9448
22199SOL    HW269618   1.562   2.721   7.108  0.1236  0.5607 -0.1682
22200SOL     OW69619   4.212   4.296   9.316  0.0602 -0.0021 -0.2608
22200SOL    HW169620   4.306   4.284   9.304  0.1641  2.0414 -1.6339
22200SOL    HW269621   4.203   4.326   9.407  0.5009 -2.2805  0.5737
22201SOL     OW69622   7.945   7.945   3.203 -0.1016 -0.0553  0.2264
22201SOL    HW169623   7.888   8.013   3.168 -0.6164 -1.2629 -1.3264
22201SOL    HW269624   7.984   7.985   3.281 -1.8998  1.3196  0.4736
22202SOL     OW69625   8.537   5.182   4.187 -0.1459  0.1721 -0.3032
22202SOL    HW169626   8.596   5.195   4.262 -1.5157  3.9067  0.2250
22202SOL    HW269627   8.449   5.184   4.225 -0.7467 -2.3692 -1.4810
22203SOL     OW69628   0.773   5.261   8.576 -0.3222  0.4149 -0.2928
22203SOL    HW169629   0.677   5.265   8.568 -0.0148  1.3426 -4.5399
22203SOL    HW269630   0.804   5.338   8.529  2.5380  1.0793  2.4840
22204SOL     OW69631   1.005   8.486   4.054 -0.2008 -0.0378  0.2265
22204SOL    HW169632   1.057   8.559   4.088 -1.5766  1.1579 -0.1719
22204SOL    HW269633   0.943   8.467   4.125 -0.3112 -0.3609  0.0439
22205SOL     OW69634   9.057   3.292   4.237  0.7932  0.2849 -0.0200
22205SOL    HW169635   8.962   3.303   4.233  0.7096  0.0151  1.0623
22205SOL    HW269636   9.079   3.312   4.328  1.8706  1.0757 -0.4460
22206SOL     OW69637   6.295   2.126   8.442 -0.9419 -0.2194  0.6805
22206SOL    HW169638   6.214   2.079   8.458 -0.7047 -0.9077 -0.1021
22206SOL    HW269639   6.309   2.119   8.348 -0.8236  1.2915  0.5703
22207SOL     OW69640   5.907   8.163   1.744  0.2594  0.0284 -0.6942
22207SOL    HW169641   5.996   8.143   1.772 -0.5646 -1.5452  0.9306
22207SOL    HW269642   5.895   8.256   1.764  0.7714 -0.3105  1.2405
22208SOL     OW69643   4.545   3.358   8.632 -0.7999  0.3344  0.0631
22208SOL    HW169644   4.604   3.365   8.707 -0.9892  0.1313  0.2334
22208SOL    HW269645   4.523   3.448   8.611 -1.3065  0.3679  0.7050
22209SOL     OW69646   8.068   4.928   3.655 -0.0095 -0.1007 -0.3767
22209SOL    HW169647   7.973   4.940   3.662 -0.1338  0.2769 -2.3092
22209SOL    HW269648   8.103   4.979   3.727 -1.3547 -1.9606  1.6510
22210SOL     OW69649   2.332   8.267   7.295 -0.0994 -0.4256 -0.1445
22210SOL    HW169650   2.396   8.334   7.271 -0.3899  0.3103  1.1039
22210SOL    HW269651   2.323   8.213   7.217  3.0808 -1.3567  0.0471
22211SOL     OW69652   8.615   4.215   2.109 -0.4709  0.2830 -0.5644
22211SOL    HW169653   8.658   4.196   2.192  0.0340  1.0829 -0.6414
22211SOL    HW269654   8.666   4.167   2.043 -0.0938  0.6964 -0.5731
22212SOL     OW69655   4.922   0.589   2.438  0.3830 -0.2157  0.5674
22212SOL    HW169656   4.980   0.659   2.410 -0.9939  0.9643  0.6323
22212SOL    HW269657   4.881   0.621   2.519 -0.4197 -0.9962  0.4880
22213SOL     OW69658   6.696   0.524   0.130 -0.2173 -0.2643 -0.6757
22213SOL    HW169659   6.713   0.565   0.045 -2.5740  2.8045  0.2845
22213SOL    HW269660   6.611   0.557   0.157  0.1903 -1.6948  2.6202
22214SOL     OW69661   9.418   6.034   1.179 -0.1786  0.2254  0.2105
22214SOL    HW169662   9.382   6.027   1.267  1.8624 -0.1901  1.0225
22214SOL    HW269663   9.501   5.986   1.182  0.1725  0.6592 -1.7817
22215SOL     OW69664   3.735   5.337   7.416  0.3814 -0.2597 -0.0557
22215SOL    HW169665   3.813   5.391   7.430  0.7079 -0.2676 -1.8434
22215SOL    HW269666   3.685   5.383   7.349 -0.0704 -1.4284 -0.5308
22216SOL     OW69667   8.825   2.538   2.385  0.2118 -0.0354 -0.3806
22216SOL    HW169668   8.903   2.540   2.440  0.3869  2.3029 -0.6585
22216SOL    HW269669   8.764   2.480   2.431  0.6870  1.1475  1.7830
22217SOL     OW69670   4.867   8.848   1.323 -0.0809 -0.3048  0.0529
22217SOL    HW169671   4.800   8.780   1.329 -0.7038  0.2903 -0.1767
22217SOL    HW269672   4.875   8.883   1.412 -1.1251  0.6314 -0.2163
22218SOL     OW69673   9.126   1.867   4.755 -0.4065  0.5865 -0.2419
22218SOL    HW169674   9.032   1.855   4.743 -0.4073 -1.0645  1.2396
22218SOL    HW269675   9.139   1.857   4.850  1.2961  0.4788 -0.4787
22219SOL     OW69676   0.123   5.885   5.365 -0.8840  0.1414  0.2238
22219SOL    HW169677   0.073   5.830   5.305  0.4385 -1.3437  0.4214
22219SOL    HW269678   0.058   5.926   5.421 -1.8891 -2.1101  0.7736
22220SOL     OW69679   2.400   7.548   7.467  0.2786  0.2382 -0.0016
22220SOL    HW169680   2.481   7.577   7.426  0.9635 -0.2303  1.0088
22220SOL    HW269681   2.417   7.457   7.493 -0.0482  0.5992  1.5264
22221SOL     OW69682   8.910   6.732   3.870 -0.2295 -0.7647 -0.3427
22221SOL    HW169683   8.842   6.685   3.919 -1.4752  1.1280 -0.1769
22221SOL    HW269684   8.959   6.779   3.938 -1.3031  1.0321 -0.7629
22222SOL     OW69685   8.961   4.740   1.194 -0.2815 -0.0320 -0.0594
22222SOL    HW169686   9.019   4.785   1.255  0.7586  0.2356 -1.2252
22222SOL    HW269687   8.996   4.651   1.189 -0.4774 -0.1055 -0.1150
22223SOL     OW69688   6.921   3.127   2.640  0.6071  0.1239  0.2085
22223SOL    HW169689   6.965   3.069   2.702 -0.3003 -1.1051 -0.2725
22223SOL    HW269690   6.992   3.162   2.586  1.0087 -2.0816 -0.7593
22224SOL     OW69691   4.932   7.257   5.294 -0.1389  0.6217  0.1009
22224SOL    HW169692   4.875   7.304   5.233 -0.1016  2.2710  1.2801
22224SOL    HW269693   5.006   7.316   5.308 -0.1242  0.2472  1.6847
22225SOL     OW69694   1.788   1.401   9.353 -0.3862 -0.1174 -0.0729
22225SOL    HW169695   1.765   1.408   9.445 -1.0687  0.6055 -0.2993
22225SOL    HW269696   1.779   1.490   9.318  2.7987  0.2336 -0.1634
22226SOL     OW69697   2.338   3.379   2.762  0.4363  0.1302  0.2952
22226SOL    HW169698   2.369   3.448   2.820  0.9909 -0.9922  1.3667
22226SOL    HW269699   2.256   3.413   2.726  1.1178  1.6785  0.1474
22227SOL     OW69700   6.755   4.770   8.268 -0.3529 -0.2535  0.3988
22227SOL    HW169701   6.778   4.712   8.341  0.4019  0.5896  0.8291
22227SOL    HW269702   6.752   4.857   8.306  1.0794  0.3347 -0.7921
22228SOL     OW69703   1.258   7.382   0.983  0.4922  0.0154  0.2108
22228SOL    HW169704   1.185   7.427   1.025  2.2093  2.1511  1.0035
22228SOL    HW269705   1.281   7.438   0.909  0.3856 -1.4121 -0.9260
22229SOL     OW69706   5.556   3.376   0.632  0.1736  1.0997  0.2309
22229SOL    HW169707   5.500   3.392   0.707 -1.7670  0.0389 -0.9252
22229SOL    HW269708   5.584   3.285   0.642 -0.1944  0.9124 -0.3580
22230SOL     OW69709   0.900   4.662   3.823 -0.2860 -0.0014 -0.1756
22230SOL    HW169710   0.924   4.667   3.731 -1.6408 -0.5323 -0.5661
22230SOL    HW269711   0.810   4.630   3.823 -0.4388  0.3812  1.3160
22231SOL     OW69712   8.031   8.665   0.573 -0.2527 -0.2848 -0.5490
22231SOL    HW169713   8.023   8.618   0.490 -1.5639  2.8709 -2.3197
22231SOL    HW269714   8.125   8.667   0.591  0.3150  1.0524 -3.2967
22232SOL     OW69715   1.209   4.081   3.579  0.0615 -0.2242  0.5365
22232SOL    HW169716   1.275   4.085   3.510 -0.0462 -0.2097  0.4350
22232SOL    HW269717   1.260   4.081   3.661  0.1938 -0.3716  0.4553
22233SOL     OW69718   6.442   6.445   4.898 -0.7092  0.8647 -0.1393
22233SOL    HW169719   6.386   6.512   4.938  0.2080  0.7196  1.4329
22233SOL    HW269720   6.487   6.490   4.827  1.8225  2.6543  2.4830
22234SOL     OW69721   0.288   4.382   6.140 -0.5493 -0.2106  0.5995
22234SOL    HW169722   0.246   4.347   6.219 -1.6073 -0.1502  0.0669
22234SOL    HW269723   0.377   4.405   6.169 -0.2600 -2.0779  1.2774
22235SOL     OW69724   1.086   7.233   7.637  0.0521  0.3182  0.0737
22235SOL    HW169725   1.003   7.217   7.591  1.1969  0.0158 -1.9419
22235SOL    HW269726   1.092   7.161   7.700 -0.6675 -0.3416 -0.5904
22236SOL     OW69727   3.179   8.868   4.029 -0.0173 -0.4372  0.1695
22236SOL    HW169728   3.119   8.919   3.976 -0.1224  0.1202  0.8108
22236SOL    HW269729   3.266   8.898   4.001 -0.0746 -0.0475  0.3978
22237SOL     OW69730   6.008   3.277   8.696 -0.5399 -0.1305  0.3851
22237SOL    HW169731   6.047   3.359   8.667 -0.0796 -1.2429 -2.3484
22237SOL    HW269732   6.070   3.242   8.759  0.7561  0.2029 -0.6785
22238SOL     OW69733   2.913   8.829   1.386  0.1450  0.0061  0.2719
22238SOL    HW169734   2.954   8.817   1.301 -0.8685 -1.9360  0.0407
22238SOL    HW269735   2.838   8.770   1.386 -0.9083  1.2794  1.8478
22239SOL     OW69736   8.424   2.471   0.198 -0.5474 -0.3371 -0.6525
22239SOL    HW169737   8.469   2.391   0.172 -3.2492 -1.7886 -1.0244
22239SOL    HW269738   8.345   2.473   0.144 -2.5276  0.4713  2.1565
22240SOL     OW69739   1.184   8.379   7.420 -0.3745 -0.0344 -0.2197
22240SOL    HW169740   1.145   8.292   7.430 -1.1097  0.2693 -0.3917
22240SOL    HW269741   1.157   8.427   7.498  1.6844 -0.5666  0.8512
22241SOL     OW69742   5.617   3.820   1.753  0.3606  0.0180  0.5958
22241SOL    HW169743   5.688   3.783   1.700 -0.4125 -0.9100  0.2021
22241SOL    HW269744   5.618   3.770   1.834  0.6939  0.5695  0.9384
22242SOL     OW69745   0.499   3.686   5.482 -0.4965 -0.0987 -0.1475
22242SOL    HW169746   0.457   3.664   5.565  1.1094 -0.1784  0.6651
22242SOL    HW269747   0.548   3.607   5.458 -0.5542  0.0937 -0.9264
22243SOL     OW69748   3.975   1.230   0.293 -0.0070 -0.4249 -0.1706
22243SOL    HW169749   3.880   1.221   0.294 -0.1580  0.7065 -1.6576
22243SOL    HW269750   3.996   1.285   0.368 -0.7443  0.9628 -0.9547
22244SOL     OW69751   7.931   5.243   4.426  0.0888  0.1627 -0.1486
22244SOL    HW169752   8.001   5.297   4.461 -0.3326  0.0709  0.8564
22244SOL    HW269753   7.850   5.285   4.455 -0.3063  0.6544 -1.8661
22245SOL     OW69754   8.793   9.284   1.553 -0.6986 -0.2641 -0.4319
22245SOL    HW169755   8.829   9.196   1.562 -1.6323 -0.5547  0.6305
22245SOL    HW269756   8.698   9.271   1.553 -0.8242  0.5885 -2.1403
22246SOL     OW69757   2.444   1.313   7.803 -0.1875 -0.2933  0.5459
22246SOL    HW169758   2.460   1.343   7.892 -0.9193 -1.4768  1.0911
22246SOL    HW269759   2.372   1.251   7.811 -0.6619  0.0437 -0.9577
22247SOL     OW69760   1.464   6.179   4.038  0.0009  0.0254  0.1454
22247SOL    HW169761   1.448   6.164   4.131  0.7875 -0.2969  0.2338
22247SOL    HW269762   1.538   6.123   4.017  1.6472  2.1858 -0.0018
22248SOL     OW69763   5.771   8.582   6.707  0.4928  0.4231  0.1277
22248SOL    HW169764   5.864   8.563   6.706  0.7395  1.5593  0.3831
22248SOL    HW269765   5.730   8.507   6.663  1.4490 -0.4260  0.6672
22249SOL     OW69766   1.562   4.799   6.208  0.0620 -0.1828 -0.1330
22249SOL    HW169767   1.554   4.846   6.125 -0.9362  3.1467  1.7458
22249SOL    HW269768   1.513   4.718   6.194 -1.2816  0.9488 -2.3573
22250SOL     OW69769   1.766   4.550   4.613  0.2459  0.4181 -0.5282
22250SOL    HW169770   1.804   4.553   4.525 -0.7468  0.5766 -0.9642
22250SOL    HW269771   1.832   4.592   4.669  0.4693  1.1972 -1.3595
22251SOL     OW69772   1.726   6.083   3.464 -0.2516 -0.1058  1.0062
22251SOL    HW169773   1.795   6.018   3.477 -0.7941 -0.6426  1.2470
22251SOL    HW269774   1.647   6.042   3.501 -1.4878 -0.9935 -2.4143
22252SOL     OW69775   4.005   2.790   3.269  0.1441 -0.1809 -0.1164
22252SOL    HW169776   3.942   2.856   3.241 -0.9456 -0.4283  1.6704
22252SOL    HW269777   4.051   2.829   3.343  2.2163  0.0450 -1.4913
22253SOL     OW69778   0.230   9.408   0.220 -0.1486 -0.7198  0.5844
22253SOL    HW169779   0.166   9.479   0.211 -0.4542 -1.2603 -1.8088
22253SOL    HW269780   0.213   9.372   0.307 -3.1985 -0.9315 -0.0420
22254SOL     OW69781   1.921   5.460   7.902  0.3207 -0.7455 -0.2056
22254SOL    HW169782   1.858   5.413   7.957 -0.5508  1.2630  0.5231
22254SOL    HW269783   1.979   5.391   7.869 -1.3621 -2.4417  0.2790
22255SOL     OW69784   8.509   8.542   3.520 -0.0357  0.0739 -0.5144
22255SOL    HW169785   8.525   8.570   3.611 -0.5494  2.5498 -1.1542
22255SOL    HW269786   8.569   8.468   3.508  1.1633  0.6770  1.3731
22256SOL     OW69787   3.191   9.431   2.752  0.1992 -0.4247 -0.1527
22256SOL    HW169788   3.107   9.435   2.707  1.2476  0.0861 -2.1438
22256SOL    HW269789   3.244   9.370   2.700  2.0909  1.6730 -0.7634
22257SOL     OW69790   0.432   1.644   8.082  0.5544 -0.7729  0.8355
22257SOL    HW169791   0.399   1.722   8.126  1.0931  0.7481 -1.4046
22257SOL    HW269792   0.367   1.576   8.101 -1.9414  1.2090 -0.4074
22258SOL     OW69793   4.969   8.397   7.728 -0.1144 -0.4650 -0.2370
22258SOL    HW169794   5.042   8.396   7.665  2.0777 -0.1623  2.2016
22258SOL    HW269795   4.964   8.487   7.758 -0.0474 -0.9325  1.2145
22259SOL     OW69796   7.564   9.176   0.892  0.5364 -0.5287 -0.4903
22259SOL    HW169797   7.612   9.199   0.972 -1.1888  0.0211  0.4089
22259SOL    HW269798   7.504   9.106   0.920 -0.4945  0.0754 -1.1719
22260SOL     OW69799   7.772   4.726   5.054 -0.2824  1.0649  0.0529
22260SOL    HW169800   7.848   4.760   5.007  0.1460  0.3249  0.2077
22260SOL    HW269801   7.698   4.776   5.020  0.0617  0.7380 -1.1835
22261SOL     OW69802   4.650   4.447   5.216 -0.5992  0.0889 -0.4216
22261SOL    HW169803   4.646   4.426   5.123  2.5593  1.1313 -0.8470
22261SOL    HW269804   4.662   4.363   5.260  1.7301 -0.0672 -1.2944
22262SOL     OW69805   1.148   1.836   7.383  0.5772 -0.4912 -0.1140
22262SOL    HW169806   1.125   1.925   7.356 -1.2726 -0.7970  0.4010
22262SOL    HW269807   1.208   1.849   7.456 -0.3454  0.3516  0.5108
22263SOL     OW69808   0.164   6.855   6.109 -0.2548 -0.5980  0.3413
22263SOL    HW169809   0.169   6.887   6.199  1.0884 -0.4290  0.2125
22263SOL    HW269810   0.234   6.901   6.063 -1.8075  0.3666 -1.1348
22264SOL     OW69811   6.581   0.796   1.823 -0.2310 -0.0922  0.0191
22264SOL    HW169812   6.501   0.846   1.804 -0.1495 -0.1587 -0.5272
22264SOL    HW269813   6.558   0.706   1.803 -0.2275 -0.2078  0.5368
22265SOL     OW69814   0.589   2.524   3.721  0.2253  0.1947 -0.2564
22265SOL    HW169815   0.536   2.595   3.757  0.4341 -0.4151  1.2849
22265SOL    HW269816   0.677   2.540   3.756  0.5950  0.0032 -1.0912
22266SOL     OW69817   7.282   7.553   2.598 -0.0665 -0.2487  0.0762
22266SOL    HW169818   7.328   7.484   2.549 -0.8034  0.0182 -0.9921
22266SOL    HW269819   7.293   7.528   2.690  3.2582  0.4317 -0.0604
22267SOL     OW69820   6.829   8.000   2.036 -0.2772 -0.1466  0.5010
22267SOL    HW169821   6.845   7.979   1.944  1.5195  1.0492  0.5124
22267SOL    HW269822   6.917   8.005   2.075 -0.8031  2.9046  1.4476
22268SOL     OW69823   7.358   0.612   0.576 -0.3790  0.5117 -0.0256
22268SOL    HW169824   7.330   0.553   0.507  1.0754 -1.5695  1.0930
22268SOL    HW269825   7.302   0.590   0.651 -0.4114  1.1489  0.1369
22269SOL     OW69826   1.619   7.614   7.851 -0.1345  0.1332  0.0311
22269SOL    HW169827   1.581   7.552   7.789 -1.3168  0.0068  0.8457
22269SOL    HW269828   1.713   7.612   7.833 -0.2380 -1.3408 -0.4551
22270SOL     OW69829   2.210   8.236   1.806 -0.5464 -0.0724  0.5250
22270SOL    HW169830   2.269   8.173   1.765 -0.6864  0.5228 -0.5903
22270SOL    HW269831   2.254   8.320   1.796 -0.7888  0.1379  1.2018
22271SOL     OW69832   5.196   7.139   4.241 -0.6531 -0.3784  0.5826
22271SOL    HW169833   5.157   7.207   4.185  1.0047 -1.1487 -1.5602
22271SOL    HW269834   5.198   7.061   4.186  1.7406 -0.9547  1.4345
22272SOL     OW69835   2.811   4.349   8.977 -0.7294 -0.3842 -0.3749
22272SOL    HW169836   2.793   4.255   8.975  1.3415 -0.8043 -0.9817
22272SOL    HW269837   2.907   4.355   8.970 -0.4439  1.6284  3.6693
22273SOL     OW69838   7.584   9.416   6.273  0.4011  0.1856 -0.3133
22273SOL    HW169839   7.665   9.462   6.293 -0.2777  1.0054  0.6384
22273SOL    HW269840   7.515   9.475   6.305 -0.4350 -2.5200  3.2100
22274SOL     OW69841   2.707   6.319   6.349  0.4032 -0.3704  0.5013
22274SOL    HW169842   2.613   6.338   6.347  0.1806 -1.0997  2.8565
22274SOL    HW269843   2.715   6.239   6.296 -0.4975 -1.0101  1.3001
22275SOL     OW69844   5.533   0.625   1.557 -0.1936  0.8871  0.3034
22275SOL    HW169845   5.600   0.581   1.503 -1.7846  0.2420 -1.1923
22275SOL    HW269846   5.465   0.559   1.569 -1.8002  2.3548 -0.4579
22276SOL     OW69847   0.779   0.017   2.953  0.2497  0.5458 -0.0116
22276SOL    HW169848   0.768   0.109   2.929 -0.1117  0.9195  1.5112
22276SOL    HW269849   0.755   0.013   3.046  1.4183 -0.8652  0.2601
22277SOL     OW69850   3.175   1.318   5.595  0.1131 -0.0222 -0.0807
22277SOL    HW169851   3.087   1.331   5.632 -0.4335  0.2074 -1.4045
22277SOL    HW269852   3.234   1.324   5.669 -0.8878  1.1567  0.6329
22278SOL     OW69853   8.143   1.423   3.099 -0.0948 -0.2624 -0.1989
22278SOL    HW169854   8.156   1.494   3.162 -1.7396  1.8493 -2.1828
22278SOL    HW269855   8.232   1.395   3.076  0.5662  1.1231  0.5904
22279SOL     OW69856   6.594   8.729   3.719 -0.2839  0.2772  0.5534
22279SOL    HW169857   6.600   8.720   3.624  0.6813  0.7887  0.5528
22279SOL    HW269858   6.675   8.690   3.751 -0.3847  0.5479  1.1330
22280SOL     OW69859   6.087   7.828   7.575  0.1614  0.4416  0.1597
22280SOL    HW169860   6.014   7.815   7.635 -0.5183 -0.0047 -0.7615
22280SOL    HW269861   6.123   7.914   7.599 -1.3458  1.1630 -0.1091
22281SOL     OW69862   1.583   4.365   4.074 -0.2960  0.0022  0.3058
22281SOL    HW169863   1.664   4.318   4.095 -2.2444 -3.0820  1.3099
22281SOL    HW269864   1.554   4.400   4.158 -0.1048  0.9733 -0.0277
22282SOL     OW69865   0.312   8.807   9.215  0.2254  0.1383 -0.3330
22282SOL    HW169866   0.242   8.767   9.164 -0.9660  0.5911  0.8918
22282SOL    HW269867   0.340   8.882   9.163 -2.1585  1.6198  0.3954
22283SOL     OW69868   5.306   8.269   1.318 -0.3764 -0.2140 -0.0401
22283SOL    HW169869   5.316   8.175   1.302  1.6653 -0.1896  0.8735
22283SOL    HW269870   5.355   8.311   1.248  1.2321  0.0776  1.2264
22284SOL     OW69871   6.429   4.903   2.018  0.0350 -0.3973 -0.6052
22284SOL    HW169872   6.507   4.913   1.963  0.7184  1.3593  0.6470
22284SOL    HW269873   6.455   4.842   2.087  0.1829 -0.0856 -0.3873
22285SOL     OW69874   3.807   3.843   0.948 -0.4311  0.2854 -0.2446
22285SOL    HW169875   3.826   3.931   0.979 -1.6714  0.8627 -1.1111
22285SOL    HW269876   3.738   3.854   0.884 -0.3678 -1.2889 -0.6082
22286SOL     OW69877   7.008   7.645   1.220  0.2633 -0.2228  0.0598
22286SOL    HW169878   7.090   7.633   1.269 -0.0926 -1.8939  0.2824
22286SOL    HW269879   6.939   7.638   1.286 -0.0849  0.6650 -0.2060
22287SOL     OW69880   5.460   0.242   5.421  0.6300 -0.0767  0.1748
22287SOL    HW169881   5.512   0.320   5.400  0.8570  0.1056  1.3772
22287SOL    HW269882   5.371   0.276   5.434  0.3062 -0.3078 -1.2860
22288SOL     OW69883   1.107   2.477   3.759  0.0676  0.4666  0.3245
22288SOL    HW169884   1.189   2.508   3.797  0.2677 -0.4767  0.6901
22288SOL    HW269885   1.097   2.389   3.795 -0.4496  0.0956 -0.7243
22289SOL     OW69886   8.670   4.419   8.069  0.2714  0.0935  0.1751
22289SOL    HW169887   8.629   4.428   7.983  0.0637  1.1331  0.3748
22289SOL    HW269888   8.612   4.466   8.129  0.1020 -1.1183  0.9911
22290SOL     OW69889   9.343   0.683   5.455  0.1436  0.4711 -0.6935
22290SOL    HW169890   9.366   0.681   5.548 -1.6475 -0.6416 -0.2485
22290SOL    HW269891   9.264   0.738   5.451 -0.4812 -0.4634 -1.3660
22291SOL     OW69892   7.667   8.932   6.963 -0.0664  0.2603  0.0424
22291SOL    HW169893   7.720   9.001   6.923 -0.3206  1.1948  1.3053
22291SOL    HW269894   7.708   8.851   6.933  1.0913  0.9643 -0.3310
22292SOL     OW69895   6.928   1.105   2.347 -0.0267 -0.5643 -0.1350
22292SOL    HW169896   7.010   1.061   2.324 -0.6575 -1.1143 -1.3806
22292SOL    HW269897   6.911   1.164   2.274 -1.0641 -0.9224 -0.1969
22293SOL     OW69898   8.332   8.353   8.375  0.0467 -0.1400  0.3100
22293SOL    HW169899   8.377   8.272   8.399  1.6422  0.9769  1.1843
22293SOL    HW269900   8.267   8.326   8.311  0.9015 -2.0379  0.2022
22294SOL     OW69901   8.470   3.218   2.110  0.2661 -0.4903  0.1465
22294SOL    HW169902   8.426   3.221   2.195  0.3943 -1.1720  0.2366
22294SOL    HW269903   8.400   3.199   2.047  0.1346  0.2376  0.0731
22295SOL     OW69904   2.610   4.163   7.984  0.1218 -0.1844  0.2183
22295SOL    HW169905   2.615   4.258   7.993  0.6455 -0.0407 -1.4141
22295SOL    HW269906   2.519   4.146   7.961  0.3451  0.0817 -0.9385
22296SOL     OW69907   8.748   3.744   7.513 -0.0963  0.1374 -0.1325
22296SOL    HW169908   8.661   3.754   7.475 -0.3959 -1.0455  0.2227
22296SOL    HW269909   8.784   3.666   7.470  0.1128 -0.3798  0.9630
22297SOL     OW69910   4.203   7.737   6.194  0.1602 -0.0075 -0.4789
22297SOL    HW169911   4.119   7.766   6.159 -0.3209 -3.4737 -2.3811
22297SOL    HW269912   4.191   7.741   6.289 -0.8038  3.1095 -0.6599
22298SOL     OW69913   3.926   0.215   7.297  0.1289 -0.8722 -0.3236
22298SOL    HW169914   3.930   0.193   7.390  1.9214 -2.2168 -0.6956
22298SOL    HW269915   3.871   0.146   7.259  0.9443 -1.4077 -0.5483
22299SOL     OW69916   2.594   0.544   0.789 -0.3938  0.6873 -0.1454
22299SOL    HW169917   2.640   0.577   0.711  1.7005  1.1741  1.2538
22299SOL    HW269918   2.514   0.504   0.754  0.9883 -0.0307 -2.6512
22300SOL     OW69919   6.979   4.265   8.402 -0.7200  0.2668  0.7299
22300SOL    HW169920   6.931   4.311   8.332 -0.1134  0.4038  0.3986
22300SOL    HW269921   7.009   4.184   8.361 -0.3488  0.3540  0.8284
22301SOL     OW69922   8.366   4.973   8.389 -0.1787 -0.1396 -0.3279
22301SOL    HW169923   8.460   4.957   8.388  0.3310  2.6146  0.4624
22301SOL    HW269924   8.344   4.996   8.298  0.7976  3.7346  0.3358
22302SOL     OW69925   4.630   3.706   3.802  0.0201 -0.4829 -0.2690
22302SOL    HW169926   4.582   3.658   3.735  1.8113 -1.2063 -1.0675
22302SOL    HW269927   4.646   3.642   3.872  0.3121 -0.4022 -0.2588
22303SOL     OW69928   3.991   1.772   9.119 -0.7119 -0.0386 -0.1821
22303SOL    HW169929   4.035   1.826   9.185 -0.1570  0.6742 -1.1202
22303SOL    HW269930   3.901   1.803   9.119 -0.8487 -0.4347  0.6477
22304SOL     OW69931   6.703   2.716   7.180  0.4943 -0.4188  0.0519
22304SOL    HW169932   6.641   2.787   7.196 -2.2778 -2.4710 -0.9811
22304SOL    HW269933   6.721   2.721   7.086  1.4609 -0.1624  0.2517
22305SOL     OW69934   6.744   4.259   4.950  0.1029  0.1860  0.1715
22305SOL    HW169935   6.705   4.333   4.997  0.0918  0.8937 -0.9325
22305SOL    HW269936   6.838   4.265   4.969  0.0318  0.1681  0.5237
22306SOL     OW69937   6.710   8.815   9.431  0.1859  0.2877  0.1512
22306SOL    HW169938   6.773   8.847   9.495 -0.1811  1.1560  0.0840
22306SOL    HW269939   6.740   8.726   9.411  0.7503  0.2924  0.9372
22307SOL     OW69940   4.029   5.896   3.478  0.6723  0.2854 -0.4101
22307SOL    HW169941   3.977   5.976   3.487 -0.3944 -0.5506  0.7895
22307SOL    HW269942   4.022   5.852   3.562  0.2088 -1.7287 -1.4785
22308SOL     OW69943   7.604   0.312   6.339 -0.4631 -0.0805 -0.1974
22308SOL    HW169944   7.688   0.308   6.294  0.0820  3.4816  0.3994
22308SOL    HW269945   7.539   0.314   6.269 -0.0026 -1.1717 -0.6743
22309SOL     OW69946   4.615   2.349   5.781 -0.4909  0.0405  0.3947
22309SOL    HW169947   4.523   2.325   5.773  0.2554 -2.5443 -1.0145
22309SOL    HW269948   4.645   2.307   5.861 -0.3404  0.2371  0.4443
22310SOL     OW69949   5.818   9.340   1.820 -0.0800 -0.0187  0.0388
22310SOL    HW169950   5.836   9.407   1.886 -2.6363 -0.7704  1.5563
22310SOL    HW269951   5.784   9.388   1.745  3.0983  0.8718 -0.9230
22311SOL     OW69952   3.270   7.486   5.040 -0.3229 -0.3324  0.6822
22311SOL    HW169953   3.352   7.530   5.063  0.1477 -0.4488 -0.7271
22311SOL    HW269954   3.297   7.408   4.992 -1.2712 -0.2130 -0.0562
22312SOL     OW69955   5.957   9.275   7.554  0.2360  0.4261  0.6375
22312SOL    HW169956   5.930   9.192   7.515 -1.7750  1.0609  0.6430
22312SOL    HW269957   6.037   9.254   7.602 -0.9847 -1.8089  1.7611
22313SOL     OW69958   3.805   3.627   3.512 -0.0350  0.4766 -0.5129
22313SOL    HW169959   3.823   3.715   3.543 -1.3341  0.9389 -1.0291
22313SOL    HW269960   3.749   3.589   3.580  1.2561 -0.2776  0.1496
22314SOL     OW69961   1.057   6.142   0.625  0.6756 -0.4557 -0.4892
22314SOL    HW169962   0.964   6.137   0.602  0.5374  1.0493 -0.2886
22314SOL    HW269963   1.059   6.128   0.720  0.5158  0.7565 -0.2943
22315SOL     OW69964   7.451   7.815   5.567 -0.3603 -0.2429 -0.4126
22315SOL    HW169965   7.362   7.793   5.538  0.5296 -1.4021 -2.2974
22315SOL    HW269966   7.499   7.732   5.564  1.2917  0.7275 -1.2205
22316SOL     OW69967   6.753   7.316   0.314 -0.1614  0.2809  0.2292
22316SOL    HW169968   6.686   7.311   0.247 -0.3068 -0.9310  0.4556
22316SOL    HW269969   6.834   7.332   0.266 -0.8126  3.5595  0.0680
22317SOL     OW69970   3.037   0.740   1.781  0.2627 -0.3371  0.2889
22317SOL    HW169971   3.070   0.789   1.857  1.7342 -0.6558 -0.1210
22317SOL    HW269972   3.085   0.777   1.707  0.5924 -1.6499 -0.1598
22318SOL     OW69973   1.405   7.929   4.324  0.1033  0.0150 -0.1290
22318SOL    HW169974   1.427   8.022   4.315 -0.2911 -0.0214 -1.6092
22318SOL    HW269975   1.386   7.918   4.417 -0.5616  1.5896 -0.0520
22319SOL     OW69976   4.045   2.330   3.141 -0.0308  0.5057 -0.2747
22319SOL    HW169977   4.018   2.401   3.199  0.6319 -0.2844  1.0162
22319SOL    HW269978   4.138   2.318   3.159 -0.2678 -1.1032 -0.0328
22320SOL     OW69979   0.774   7.834   4.835  0.2315  0.4963  0.1685
22320SOL    HW169980   0.775   7.782   4.915 -0.6609 -0.7061 -0.5894
22320SOL    HW269981   0.793   7.772   4.765 -0.9274  1.1516 -0.7533
22321SOL     OW69982   8.282   1.174   5.497  0.3601 -0.0922  0.1144
22321SOL    HW169983   8.296   1.082   5.472  1.7540  0.2835 -0.4862
22321SOL    HW269984   8.211   1.203   5.440 -0.4175 -0.9291  0.6352
22322SOL     OW69985   5.518   6.087   5.292  0.3713  0.4301  0.0776
22322SOL    HW169986   5.439   6.142   5.291  0.8330  1.1189  0.5613
22322SOL    HW269987   5.550   6.095   5.382  0.1662 -1.0361  0.2829
22323SOL     OW69988   2.858   1.717   4.510  0.1316 -0.2966 -0.2741
22323SOL    HW169989   2.933   1.685   4.561  0.1498 -1.1157 -0.8046
22323SOL    HW269990   2.801   1.641   4.500 -0.5064  0.1880 -0.3499
22324SOL     OW69991   7.203   6.013   5.136 -0.2493  0.1395  0.4086
22324SOL    HW169992   7.203   5.921   5.163  0.0602  0.3409  1.0981
22324SOL    HW269993   7.261   6.056   5.198 -1.2021  0.9950  0.7256
22325SOL     OW69994   6.916   4.930   8.823 -0.4483 -0.0601 -0.2651
22325SOL    HW169995   6.981   4.981   8.871 -0.9683  0.4343 -0.0856
22325SOL    HW269996   6.912   4.971   8.737 -1.3991  0.6613  0.1185
22326SOL     OW69997   4.363   6.384   6.255  0.0133 -0.1513 -0.1329
22326SOL    HW169998   4.401   6.405   6.169  2.0839  2.2745  1.2978
22326SOL    HW269999   4.431   6.332   6.298  0.2034  1.0446  1.0524
22327SOL     OW70000   5.484   4.749   0.430 -0.2115  0.0607 -0.1166
22327SOL    HW170001   5.453   4.787   0.347  1.3020  1.5695 -0.0271
22327SOL    HW270002   5.574   4.724   0.412 -0.5062 -1.4801  0.5022
22328SOL     OW70003   8.376   0.005   1.903  0.1879 -0.5366  0.1760
22328SOL    HW170004   8.363  -0.052   1.980  0.1226 -0.2789  0.3556
22328SOL    HW270005   8.373  -0.055   1.829 -4.1726 -0.3143  0.0143
22329SOL     OW70006   0.765   1.533   8.447 -0.0283  0.0696 -0.0427
22329SOL    HW170007   0.743   1.500   8.534 -0.6044  0.2230 -0.1322
22329SOL    HW270008   0.861   1.542   8.449  0.1085 -1.2492  0.1100
22330SOL     OW70009   6.268   4.638   5.850  0.0504 -0.1140  0.5105
22330SOL    HW170010   6.253   4.561   5.795 -0.0329  0.5661 -0.4260
22330SOL    HW270011   6.280   4.710   5.788 -0.1045  0.6713  1.3810
22331SOL     OW70012   8.299   2.227   8.679 -0.2724  0.4945  0.2346
22331SOL    HW170013   8.359   2.257   8.610 -0.8483 -0.0540 -0.5167
22331SOL    HW270014   8.220   2.202   8.632 -1.0715  1.1461  1.2203
22332SOL     OW70015   5.114   7.070   4.653  0.3400  0.3447 -0.0743
22332SOL    HW170016   5.065   7.072   4.571 -1.4453  1.2547  0.9581
22332SOL    HW270017   5.046   7.059   4.720  1.6363  0.9255  1.3609
22333SOL     OW70018   0.187   5.548   3.030 -0.1352  0.2452 -0.3242
22333SOL    HW170019   0.276   5.550   3.064 -0.6266 -0.4290  1.0623
22333SOL    HW270020   0.188   5.480   2.963  0.9248  1.7956 -1.9151
22334SOL     OW70021   4.155   0.715   2.328 -0.2985 -0.1671  0.4285
22334SOL    HW170022   4.117   0.798   2.300  1.4304  0.5816  0.2100
22334SOL    HW270023   4.110   0.694   2.410 -0.8960  0.8804  0.3703
22335SOL     OW70024   4.084   0.223   7.569 -0.2347  0.4414  0.2774
22335SOL    HW170025   4.082   0.308   7.614  1.2005  1.8111 -2.0695
22335SOL    HW270026   4.168   0.185   7.593  0.1622  0.7906 -0.5311
22336SOL     OW70027   3.842   5.123   3.546  0.0181 -0.2665  1.1431
22336SOL    HW170028   3.768   5.066   3.526  0.4228 -0.5111  0.2978
22336SOL    HW270029   3.860   5.169   3.463 -1.0648  1.9763  2.1157
22337SOL     OW70030   3.427   0.537   4.392 -0.0505 -0.0851  0.1672
22337SOL    HW170031   3.479   0.485   4.331 -1.0910  0.1072 -0.8953
22337SOL    HW270032   3.338   0.533   4.358 -0.6965 -0.1947  1.8286
22338SOL     OW70033   9.000   2.547   1.995  0.0489 -0.4087 -0.0024
22338SOL    HW170034   8.916   2.507   2.018 -0.1236 -0.1785 -0.2327
22338SOL    HW270035   8.985   2.641   2.007  0.5284 -0.4254  0.7926
22339SOL     OW70036   4.719   0.460   4.152  0.2115  0.6655  0.0001
22339SOL    HW170037   4.704   0.549   4.183 -0.5188  0.2143  0.9810
22339SOL    HW270038   4.644   0.440   4.097  1.5851  1.5220 -2.2422
22340SOL     OW70039   0.341   3.922   0.023  0.1905 -0.0413  0.0448
22340SOL    HW170040   0.248   3.926   0.043  0.5011  1.6054  1.2610
22340SOL    HW270041   0.384   3.967   0.097  1.8998 -0.3151 -0.7467
22341SOL     OW70042   0.320   8.585   2.450 -0.2630 -0.0198 -0.4871
22341SOL    HW170043   0.359   8.629   2.374 -0.1078  0.4789 -0.1254
22341SOL    HW270044   0.279   8.656   2.500 -0.0152 -0.2936  0.1037
22342SOL     OW70045   0.818   4.410   1.275  0.1084 -0.1842  0.3374
22342SOL    HW170046   0.856   4.467   1.341 -0.9361  0.7908  0.1195
22342SOL    HW270047   0.825   4.459   1.193 -0.2551 -0.6067  0.0455
22343SOL     OW70048   7.080   7.003   6.249  0.1725 -0.1087  0.1865
22343SOL    HW170049   7.077   6.939   6.178  0.7040  0.1447 -0.0721
22343SOL    HW270050   7.153   7.060   6.226 -0.0748  0.3758  0.5976
22344SOL     OW70051   1.949   7.804   5.151 -0.4130  0.0583 -0.0977
22344SOL    HW170052   1.878   7.840   5.204  0.9024  1.4608  0.7646
22344SOL    HW270053   1.913   7.800   5.063 -0.8927  2.7679 -0.0745
22345SOL     OW70054   8.996   0.452   3.530  0.7368  0.0937  0.1528
22345SOL    HW170055   9.052   0.529   3.517 -0.1060  0.6258 -0.3818
22345SOL    HW270056   9.046   0.380   3.492  1.0428  0.5722 -0.3662
22346SOL     OW70057   0.203   0.471   7.539 -0.0096  0.9205 -0.2405
22346SOL    HW170058   0.151   0.394   7.518  0.5680  0.6269 -0.6260
22346SOL    HW270059   0.184   0.533   7.468  1.6906  0.0527 -1.4995
22347SOL     OW70060   8.342   8.812   6.127  0.4482  0.5787  0.0890
22347SOL    HW170061   8.285   8.793   6.053 -0.2566 -2.4385  1.2942
22347SOL    HW270062   8.309   8.893   6.164 -1.4786  0.2014 -0.7634
22348SOL     OW70063   3.435   1.589   8.588  0.4426 -0.3859  0.1245
22348SOL    HW170064   3.528   1.579   8.570  1.1426 -1.4188  3.7865
22348SOL    HW270065   3.393   1.516   8.543  1.6023 -0.7566 -0.3563
22349SOL     OW70066   4.967   7.158   2.213 -0.1494 -0.3142  0.1379
22349SOL    HW170067   4.937   7.148   2.123 -1.6972 -0.6476  0.6663
22349SOL    HW270068   4.888   7.182   2.262  0.7590  0.3095  1.3323
22350SOL     OW70069   7.893   2.472   8.976 -0.0977 -0.4751 -0.3321
22350SOL    HW170070   7.938   2.557   8.975 -0.1651 -0.4423 -1.5561
22350SOL    HW270071   7.815   2.487   9.030  1.3994 -0.5609  1.8724
22351SOL     OW70072   7.476   5.897   5.067 -0.5811 -0.1183  0.7700
22351SOL    HW170073   7.388   5.933   5.072 -0.4213  0.4147 -0.0770
22351SOL    HW270074   7.531   5.957   5.117 -0.4583  0.3548  0.0737
22352SOL     OW70075   3.191   5.741   2.745 -0.1325  0.3150  0.2234
22352SOL    HW170076   3.253   5.791   2.693  0.3203 -0.1554  0.3097
22352SOL    HW270077   3.159   5.803   2.811  0.6348  0.4060  0.5064
22353SOL     OW70078   3.954   1.005   7.379 -0.3224  0.2177 -0.4409
22353SOL    HW170079   3.887   1.058   7.422  0.2414  0.9725 -0.4956
22353SOL    HW270080   4.033   1.020   7.430 -0.3098 -1.1113 -0.0356
22354SOL     OW70081   0.468   6.566   1.825  0.1809 -0.0236 -0.2491
22354SOL    HW170082   0.454   6.487   1.878 -2.5699 -0.5104 -1.6591
22354SOL    HW270083   0.481   6.636   1.890  0.3694 -1.2235  1.0315
22355SOL     OW70084   8.696   4.737   4.779 -0.6435 -0.1218  0.2108
22355SOL    HW170085   8.765   4.742   4.845  1.4667 -2.9225 -1.6602
22355SOL    HW270086   8.676   4.829   4.759  2.0821  0.7792  1.2727
22356SOL     OW70087   8.096   5.331   0.768  0.0445  0.3360  0.0801
22356SOL    HW170088   8.108   5.296   0.680 -0.3311 -0.2474  0.2564
22356SOL    HW270089   8.060   5.419   0.754  2.8587  1.4878 -0.4181
22357SOL     OW70090   2.864   8.830   0.834 -0.3704 -0.7370  0.8203
22357SOL    HW170091   2.847   8.818   0.927  0.1937 -0.0912  1.0147
22357SOL    HW270092   2.913   8.913   0.830 -1.6171 -0.0345 -0.1663
22358SOL     OW70093   7.694   7.134   0.645  0.2276  0.2333 -0.2791
22358SOL    HW170094   7.747   7.214   0.646 -1.6489  1.5008 -0.3914
22358SOL    HW270095   7.716   7.093   0.561  1.5428  0.3691 -0.0202
22359SOL     OW70096   5.892   3.587   8.430 -0.5064  0.4780  0.1890
22359SOL    HW170097   5.826   3.518   8.440 -0.4204  0.1944 -1.0253
22359SOL    HW270098   5.935   3.566   8.346  1.2840  0.5034  1.0699
22360SOL     OW70099   8.899   0.647   7.166  0.6390 -0.1331 -0.2443
22360SOL    HW170100   8.918   0.602   7.249  0.5335 -1.6719 -1.0275
22360SOL    HW270101   8.819   0.604   7.134  1.1138 -0.0791 -1.5109
22361SOL     OW70102   9.297   5.100   0.974  0.7406  0.3152  0.3066
22361SOL    HW170103   9.360   5.161   0.936  0.4621  1.5016  1.6718
22361SOL    HW270104   9.284   5.132   1.063 -0.0959 -1.2372  0.7636
22362SOL     OW70105   6.939   2.359   0.607 -0.4785 -0.5774  0.1682
22362SOL    HW170106   6.875   2.427   0.624  1.8794  1.5470  0.8587
22362SOL    HW270107   6.941   2.307   0.687 -1.7512 -1.0567 -0.0942
22363SOL     OW70108   7.435   1.613   0.306  0.0690 -0.1099  0.1205
22363SOL    HW170109   7.500   1.543   0.298 -0.8712 -1.1862  1.6044
22363SOL    HW270110   7.400   1.603   0.394 -1.7347  0.7988 -0.4700
22364SOL     OW70111   2.619   0.036   8.183 -0.1775  0.2578  0.2721
22364SOL    HW170112   2.625  -0.057   8.207  1.4000  0.6689  1.5817
22364SOL    HW270113   2.687   0.048   8.117 -1.4233  0.1545 -1.0447
22365SOL     OW70114   0.460   5.142   8.212  0.2873  0.6176 -0.4632
22365SOL    HW170115   0.407   5.064   8.192  0.4407  0.3796  0.0485
22365SOL    HW270116   0.412   5.214   8.171 -0.2710  0.3634 -0.2636
22366SOL     OW70117   8.383   5.866   4.177 -0.1240  0.2795 -0.2518
22366SOL    HW170118   8.448   5.797   4.169  0.5056  0.8829 -0.4207
22366SOL    HW270119   8.370   5.876   4.272  0.2290  0.3455 -0.2108
22367SOL     OW70120   7.129   5.283   8.655  0.5604  0.5675  0.3630
22367SOL    HW170121   7.189   5.217   8.620 -0.0495  0.0928  0.2146
22367SOL    HW270122   7.162   5.366   8.621  0.9429  0.2742  0.0220
22368SOL     OW70123   3.124   8.488   0.945  0.1202 -0.0118 -0.1226
22368SOL    HW170124   3.139   8.512   1.037 -0.3128 -0.4568  0.0657
22368SOL    HW270125   3.195   8.531   0.897  0.8165 -0.4408  0.5183
22369SOL     OW70126   6.901   6.396   6.037 -0.1908  0.4016 -0.1249
22369SOL    HW170127   6.970   6.355   6.089  0.6843  0.6713 -1.0645
22369SOL    HW270128   6.825   6.338   6.048  0.8679 -1.1809 -0.9975
22370SOL     OW70129   3.457   1.365   5.691  0.0978  0.5721 -0.3808
22370SOL    HW170130   3.487   1.313   5.616  0.4314 -1.8858  1.4003
22370SOL    HW270131   3.513   1.443   5.690  0.2217  0.4815 -2.5547
22371SOL     OW70132   6.274   5.863   6.590 -0.4805 -0.1428 -0.2036
22371SOL    HW170133   6.329   5.789   6.617 -0.5338  0.0709  0.4983
22371SOL    HW270134   6.271   5.920   6.667  0.4061  1.1100 -1.0665
22372SOL     OW70135   0.915   5.324   0.689 -0.5711  0.1608  0.9423
22372SOL    HW170136   0.979   5.253   0.698 -0.9479 -0.5636 -1.5999
22372SOL    HW270137   0.968   5.403   0.679 -0.0434 -0.3469 -0.4448
22373SOL     OW70138   0.195   7.208   8.512 -0.1693 -0.2777 -0.2000
22373SOL    HW170139   0.167   7.132   8.461 -0.8927  0.4350 -0.8643
22373SOL    HW270140   0.165   7.189   8.601 -0.4818 -0.7079 -0.3941
22374SOL     OW70141   7.539   0.268   7.184 -0.0935 -0.1968  0.5057
22374SOL    HW170142   7.612   0.207   7.169  0.0341  0.4368 -1.6657
22374SOL    HW270143   7.576   0.338   7.237  0.1353 -1.2742  1.7919
22375SOL     OW70144   6.906   5.252   1.287 -0.0910  0.4454  0.0230
22375SOL    HW170145   6.819   5.217   1.266 -1.1706  3.3447 -0.6385
22375SOL    HW270146   6.917   5.235   1.380 -1.7234  0.7071  0.2853
22376SOL     OW70147   4.647   7.986   5.221  0.4741  0.4769  0.5100
22376SOL    HW170148   4.561   7.946   5.238  0.7107 -0.4724 -0.5055
22376SOL    HW270149   4.710   7.917   5.243  0.8333 -0.4815 -3.1930
22377SOL     OW70150   5.316   1.171   5.879  0.0481  0.4895 -0.4418
22377SOL    HW170151   5.383   1.117   5.837 -0.2822  0.2423 -0.6533
22377SOL    HW270152   5.249   1.182   5.813 -0.8148 -0.5164  0.2585
22378SOL     OW70153   3.852   5.891   4.557  0.3947  0.1981  0.0439
22378SOL    HW170154   3.881   5.847   4.476  2.1351  2.0227 -0.3545
22378SOL    HW270155   3.785   5.952   4.528 -2.2734 -2.3414  0.6449
22379SOL     OW70156   1.779   4.986   8.914  0.0701  0.8244 -0.6057
22379SOL    HW170157   1.700   4.950   8.954  0.9843  0.9673  1.3917
22379SOL    HW270158   1.772   5.081   8.927 -0.9069  1.1564 -3.2247
22380SOL     OW70159   5.018   7.454   6.332  0.9978  0.2636  0.2815
22380SOL    HW170160   4.999   7.546   6.346  0.0408  0.0464  0.4424
22380SOL    HW270161   5.004   7.441   6.238  1.4769  0.3576  0.1953
22381SOL     OW70162   0.069   2.327   8.903 -0.3430  0.0194 -0.0029
22381SOL    HW170163   0.047   2.398   8.842 -0.7699  1.5265  1.8218
22381SOL    HW270164   0.164   2.332   8.913 -0.4027  0.5643  0.3528
22382SOL     OW70165   0.609   4.657   3.103  0.3071  0.4587 -0.4976
22382SOL    HW170166   0.667   4.592   3.065 -0.5671 -0.1842 -0.7464
22382SOL    HW270167   0.542   4.672   3.036  1.4646  2.9318 -1.1922
22383SOL     OW70168   2.946   9.378   3.189  0.1966  0.0417 -0.0452
22383SOL    HW170169   2.911   9.379   3.100  0.3655  2.1239 -0.1000
22383SOL    HW270170   2.875   9.340   3.242 -1.2643  2.0223 -0.5232
22384SOL     OW70171   9.287   4.104   0.511 -0.5001  0.2354  0.0629
22384SOL    HW170172   9.297   4.011   0.531 -1.7676 -0.2282 -1.3882
22384SOL    HW270173   9.240   4.106   0.428  2.2730  2.1242 -1.5435
22385SOL     OW70174   7.521   5.202   1.196  0.6243 -0.2151 -0.2476
22385SOL    HW170175   7.606   5.246   1.198  0.2184  0.5397  2.7331
22385SOL    HW270176   7.458   5.271   1.216 -0.4240 -1.3066  0.2930
22386SOL     OW70177   6.645   5.408   0.488  0.2193  0.2856 -0.9056
22386SOL    HW170178   6.570   5.460   0.517  0.8822  0.8001 -0.0932
22386SOL    HW270179   6.662   5.348   0.560  0.2982 -0.1378 -1.2794
22387SOL     OW70180   9.245   0.155   2.829 -0.2309 -0.6486  0.0493
22387SOL    HW170181   9.152   0.134   2.817 -0.7188  1.6283 -0.3732
22387SOL    HW270182   9.246   0.213   2.905  0.8976 -0.9505  0.2721
22388SOL     OW70183   3.543   5.833   5.301  0.3260  0.0994  0.0051
22388SOL    HW170184   3.539   5.808   5.209 -0.2301  0.2192 -0.0072
22388SOL    HW270185   3.583   5.920   5.301  0.1002  0.2045 -0.1462
22389SOL     OW70186   5.197   0.270   0.039  0.6801 -0.0255  0.0745
22389SOL    HW170187   5.270   0.278  -0.023 -0.8564 -0.3400 -1.8043
22389SOL    HW270188   5.121   0.249  -0.015 -0.8838  0.5831  1.9746
22390SOL     OW70189   2.897   3.564   6.182  0.5864  0.3973  0.0201
22390SOL    HW170190   2.872   3.621   6.255 -0.1200 -0.6144  0.5822
22390SOL    HW270191   2.992   3.575   6.175  0.6672  0.4628  1.1300
22391SOL     OW70192   5.396   1.660   6.043  0.2925 -0.3895  1.1320
22391SOL    HW170193   5.394   1.572   6.004 -2.6764 -1.3364  3.2476
22391SOL    HW270194   5.310   1.697   6.025  1.5112  2.1626  0.2660
22392SOL     OW70195   4.838   3.156   3.245  0.2573  0.3620 -0.7451
22392SOL    HW170196   4.889   3.081   3.277 -1.5901 -0.8503 -0.6127
22392SOL    HW270197   4.857   3.159   3.151  0.5997 -0.0565 -0.6951
22393SOL     OW70198   7.872   3.368   8.805 -0.5112 -0.7420 -0.6361
22393SOL    HW170199   7.824   3.286   8.817 -0.9153 -0.5194 -0.7209
22393SOL    HW270200   7.805   3.432   8.781 -0.5991  0.2343  2.0485
22394SOL     OW70201   8.687   1.629   8.845 -0.0059  0.7144  0.0726
22394SOL    HW170202   8.777   1.628   8.879  0.2540 -0.5082 -0.6264
22394SOL    HW270203   8.632   1.646   8.921  0.8009  1.2931  0.5386
22395SOL     OW70204   5.199   4.176   7.936 -0.3539 -0.1904  0.1300
22395SOL    HW170205   5.155   4.178   7.851 -0.1111  0.3232  0.0170
22395SOL    HW270206   5.159   4.101   7.982 -0.2059 -0.7070 -0.5828
22396SOL     OW70207   4.408   3.809   3.322  0.2361  0.0226  0.1746
22396SOL    HW170208   4.327   3.856   3.344  1.6920  2.2349  0.9752
22396SOL    HW270209   4.383   3.752   3.250 -2.2130  0.1533  0.8663
22397SOL     OW70210   0.790   2.599   3.022  0.4121 -0.2185  0.1119
22397SOL    HW170211   0.860   2.657   2.993  0.2315 -0.0613 -0.0108
22397SOL    HW270212   0.726   2.601   2.951 -0.7471  1.3459  1.1603
22398SOL     OW70213   3.528   1.300   4.449 -0.2281  0.0608 -0.1639
22398SOL    HW170214   3.519   1.380   4.500  1.0656  0.5547 -0.6806
22398SOL    HW270215   3.590   1.247   4.498 -1.6841 -0.9668  0.5795
22399SOL     OW70216   8.558   1.689   1.421  0.4257 -0.4968 -0.2435
22399SOL    HW170217   8.638   1.735   1.396 -0.1047 -0.5470 -2.0753
22399SOL    HW270218   8.494   1.758   1.436  0.1948 -0.5578 -0.9667
22400SOL     OW70219   3.819   2.359   8.221  0.0429 -0.2877 -0.0847
22400SOL    HW170220   3.794   2.333   8.309  1.4102 -1.3496  0.0100
22400SOL    HW270221   3.870   2.285   8.188  2.3125  1.4318 -0.5674
22401SOL     OW70222   0.995   8.978   5.030  0.1459 -0.2020  0.5735
22401SOL    HW170223   1.020   9.060   4.986 -2.3834  0.6440  0.6081
22401SOL    HW270224   1.031   8.987   5.118  3.5810 -1.0554 -0.6739
22402SOL     OW70225   1.595   2.110   1.729  0.7225  0.4264  0.2368
22402SOL    HW170226   1.608   2.130   1.822  1.2942 -0.0707  0.2708
22402SOL    HW270227   1.634   2.185   1.683 -1.3203  1.6354  0.4038
22403SOL     OW70228   8.056   2.787   6.432  0.1224 -0.1621  0.1298
22403SOL    HW170229   8.066   2.796   6.338 -0.8415 -0.0084  0.0381
22403SOL    HW270230   8.061   2.693   6.448  0.3852 -0.1813 -0.0600
22404SOL     OW70231   7.126   8.834   8.424  0.2123 -0.1693  0.3542
22404SOL    HW170232   7.043   8.849   8.468  0.3259  0.6301  0.2959
22404SOL    HW270233   7.182   8.796   8.491  0.2714  0.7087  0.8082
22405SOL     OW70234   2.260   2.781   9.373  0.3200  0.1256 -0.0453
22405SOL    HW170235   2.350   2.782   9.405 -0.0499  0.7595  1.0034
22405SOL    HW270236   2.265   2.817   9.285  1.0257  0.5947  0.1858
22406SOL     OW70237   2.876   2.010   5.612  0.0956  0.0351 -0.9264
22406SOL    HW170238   2.950   1.994   5.671 -0.1666  3.0816  0.3138
22406SOL    HW270239   2.799   1.994   5.666 -0.1457  0.4929 -1.1357
22407SOL     OW70240   0.448   5.990   5.782  1.2713 -0.2803  0.4853
22407SOL    HW170241   0.440   5.905   5.738  2.9144 -2.1049  3.5676
22407SOL    HW270242   0.537   6.018   5.763  0.2444  1.5866 -1.8334
22408SOL     OW70243   3.191   0.579   4.297  0.5598 -0.3309 -0.0212
22408SOL    HW170244   3.096   0.573   4.299  0.5010  0.4725 -0.4867
22408SOL    HW270245   3.210   0.672   4.305  1.3054 -0.4708 -0.0868
22409SOL     OW70246   8.634   6.085   8.431 -0.4979  0.3129  0.4998
22409SOL    HW170247   8.612   5.999   8.469 -0.2527  0.4409  0.9359
22409SOL    HW270248   8.648   6.141   8.507 -1.3744  0.9243  0.2143
22410SOL     OW70249   8.015   5.031   7.768 -0.0339 -0.6601  0.0238
22410SOL    HW170250   7.935   5.016   7.718 -1.1392  1.6219  1.0473
22410SOL    HW270251   8.060   5.101   7.722 -0.2298  0.2894  1.2490
22411SOL     OW70252   7.697   2.728   0.637 -0.1253  0.6379 -0.2138
22411SOL    HW170253   7.791   2.712   0.638 -0.1570  0.4602  1.4848
22411SOL    HW270254   7.685   2.803   0.695 -1.2311 -0.5408  1.0943
22412SOL     OW70255   2.537   7.825   6.844 -0.3696  0.6999  0.5891
22412SOL    HW170256   2.482   7.803   6.769  0.9702  0.9851 -0.5026
22412SOL    HW270257   2.486   7.891   6.892 -1.1471  0.6684 -0.1790
22413SOL     OW70258   3.921   4.638   2.260 -0.0033 -0.1250  0.3795
22413SOL    HW170259   3.919   4.598   2.172 -0.2327 -1.4651  0.9770
22413SOL    HW270260   4.014   4.639   2.283  0.0463  0.1207  0.1743
22414SOL     OW70261   1.634   5.366   4.144 -0.2686  0.3907 -0.4347
22414SOL    HW170262   1.581   5.444   4.161 -1.8642 -0.8364  0.3884
22414SOL    HW270263   1.701   5.395   4.082 -1.4674  2.1394 -0.9366
22415SOL     OW70264   3.394   6.711   8.566 -1.1882  0.2178  0.3554
22415SOL    HW170265   3.428   6.717   8.477  0.1987  0.3533  0.8779
22415SOL    HW270266   3.406   6.799   8.602 -0.0580 -0.2970  1.2642
22416SOL     OW70267   6.963   2.834   1.031  0.0996 -0.3338 -0.4823
22416SOL    HW170268   6.984   2.915   0.983 -1.8123 -0.1042 -0.9818
22416SOL    HW270269   6.970   2.765   0.965 -0.5672 -0.2746 -0.6157
22417SOL     OW70270   5.828   7.181   2.747 -0.2917  0.7955 -0.1577
22417SOL    HW170271   5.789   7.136   2.821  0.1273  1.8544  0.7147
22417SOL    HW270272   5.753   7.215   2.697 -0.5390  1.1699  0.4671
22418SOL     OW70273   8.275   5.775   2.647 -0.5477 -0.0486  0.9466
22418SOL    HW170274   8.298   5.867   2.638 -1.8626  0.3666  1.6106
22418SOL    HW270275   8.353   5.727   2.619  0.2510  1.2667  0.8933
22419SOL     OW70276   6.787   6.945   0.679  0.0922  0.5108 -0.3805
22419SOL    HW170277   6.726   7.017   0.697 -0.2335 -0.0281  0.7334
22419SOL    HW270278   6.853   6.951   0.749 -0.9238 -1.3404  0.7760
22420SOL     OW70279   6.255   3.896   6.804 -0.3055 -0.3546  0.6081
22420SOL    HW170280   6.344   3.883   6.773 -0.3812 -0.7394  0.5498
22420SOL    HW270281   6.241   3.991   6.799 -0.0019 -0.3242  0.3466
22421SOL     OW70282   2.265   2.704   6.774  0.1714 -0.1626 -0.6096
22421SOL    HW170283   2.356   2.684   6.754  0.3221 -0.8779  0.7460
22421SOL    HW270284   2.265   2.797   6.797  0.5120 -0.1042 -0.8344
22422SOL     OW70285   9.122   1.434   1.967  0.0798  0.7121  0.4119
22422SOL    HW170286   9.166   1.375   2.029 -1.0225 -0.0545  0.4768
22422SOL    HW270287   9.116   1.517   2.014  0.0612  0.3851  0.9994
22423SOL     OW70288   5.015   2.198   5.930 -0.2399  0.0639  0.9403
22423SOL    HW170289   4.997   2.128   5.993  1.0872 -0.3017  0.9207
22423SOL    HW270290   4.965   2.273   5.963 -0.8751 -0.5975  1.5049
22424SOL     OW70291   8.240   4.112   4.955 -0.4988 -0.9220  0.3403
22424SOL    HW170292   8.315   4.105   4.895 -0.8038 -0.3719 -0.1085
22424SOL    HW270293   8.172   4.059   4.914 -0.8251 -0.2561  0.0117
22425SOL     OW70294   3.452   2.174   7.270  0.5607  0.0490  0.4917
22425SOL    HW170295   3.495   2.089   7.267 -0.1881 -0.3518  0.9620
22425SOL    HW270296   3.521   2.237   7.247  0.9156 -0.7486 -0.6796
22426SOL     OW70297   6.054   3.661   7.148  0.3928 -0.2266 -0.0254
22426SOL    HW170298   6.148   3.669   7.166  0.2245 -0.7495  1.0919
22426SOL    HW270299   6.042   3.570   7.121  0.5130  0.3405 -2.0912
22427SOL     OW70300   5.472   3.209   4.827  0.2670  0.0924 -0.1194
22427SOL    HW170301   5.514   3.199   4.913  1.1196 -0.5281 -0.5929
22427SOL    HW270302   5.429   3.125   4.812 -1.5441  0.8846  0.5607
22428SOL     OW70303   4.591   2.176   9.308  0.1134  0.4320  0.1087
22428SOL    HW170304   4.600   2.248   9.371  0.4684  0.5297 -0.0495
22428SOL    HW270305   4.605   2.217   9.223  1.2732  0.0111  0.0855
22429SOL     OW70306   1.271   0.092   7.659 -0.1828  0.2875  0.4162
22429SOL    HW170307   1.179   0.093   7.686  0.3861 -0.5514  2.5196
22429SOL    HW270308   1.275   0.026   7.590 -1.2349  0.6632 -0.0221
22430SOL     OW70309   2.079   6.965   6.316  0.1594  0.2889 -0.3770
22430SOL    HW170310   2.104   6.875   6.340 -0.5566  0.3348  0.5831
22430SOL    HW270311   2.018   6.954   6.243  0.9040  0.0522 -0.9732
22431SOL     OW70312   5.453   4.447   3.679  0.1326 -0.3201  0.3167
22431SOL    HW170313   5.404   4.369   3.707 -0.5008 -0.2405 -0.5285
22431SOL    HW270314   5.433   4.454   3.586  0.3943  0.7159  0.3412
22432SOL     OW70315   1.102   0.191   7.405 -0.2164 -0.2136  0.0459
22432SOL    HW170316   1.044   0.135   7.353 -1.2979 -1.4584  2.4693
22432SOL    HW270317   1.160   0.129   7.450  1.2692  0.8801 -0.3509
22433SOL     OW70318   5.474   7.266   2.165  0.2181 -0.0506  0.1968
22433SOL    HW170319   5.436   7.284   2.250  0.0132  0.0058  0.0931
22433SOL    HW270320   5.527   7.343   2.144  2.4317 -1.1646  1.4702
22434SOL     OW70321   2.549   8.374   7.924 -0.0738 -0.2715  0.3722
22434SOL    HW170322   2.467   8.380   7.875  0.1293 -1.2813 -0.1153
22434SOL    HW270323   2.523   8.345   8.011 -0.0772 -2.4201 -0.3238
22435SOL     OW70324   2.664   5.929   3.999  0.1089 -0.1405 -0.0312
22435SOL    HW170325   2.680   5.969   4.085  0.4791  0.0268 -0.1795
22435SOL    HW270326   2.721   5.852   3.998  1.3955  0.7950 -0.8051
22436SOL     OW70327   6.542   0.113   3.600 -0.3080 -0.2930  0.3619
22436SOL    HW170328   6.517   0.022   3.616 -3.2140  0.2430 -0.6810
22436SOL    HW270329   6.603   0.109   3.527  0.9941 -1.5345  1.5095
22437SOL     OW70330   7.283   1.045   2.071  0.0208 -0.3584  0.4407
22437SOL    HW170331   7.206   0.988   2.067 -0.0756 -0.1997 -0.0238
22437SOL    HW270332   7.356   0.988   2.047  0.0111 -0.4476  0.6247
22438SOL     OW70333   9.419   7.415   7.436  0.0386 -0.2827 -0.1843
22438SOL    HW170334   9.425   7.461   7.520  0.7675 -1.7656  0.5975
22438SOL    HW270335   9.485   7.456   7.381  1.8486 -1.4732  1.0511
22439SOL     OW70336   3.507   3.189   6.279 -0.1772  0.1643  0.1813
22439SOL    HW170337   3.514   3.162   6.371 -1.7582  2.1682  0.9178
22439SOL    HW270338   3.580   3.249   6.266  0.7005 -0.9580 -0.2165
22440SOL     OW70339   0.332   9.059   8.028  0.3493  0.1590 -0.1729
22440SOL    HW170340   0.382   9.100   8.099  0.3159  0.0877 -0.1087
22440SOL    HW270341   0.241   9.061   8.057  0.3943 -0.3069 -0.0030
22441SOL     OW70342   1.718   8.515   4.358  0.2812 -0.2138 -0.0629
22441SOL    HW170343   1.700   8.609   4.353  0.0035 -0.1430  2.0193
22441SOL    HW270344   1.811   8.509   4.376  0.3795 -0.3587 -0.6031
22442SOL     OW70345   3.950   8.264   6.635  0.1572  0.2031  0.0194
22442SOL    HW170346   4.041   8.292   6.646  0.4837 -0.3724 -1.1499
22442SOL    HW270347   3.955   8.187   6.580 -1.1319  0.8852 -1.0885
22443SOL     OW70348   1.998   6.294   0.169 -0.6445  0.4598  0.7965
22443SOL    HW170349   2.028   6.224   0.111  1.3892  0.8551  1.3305
22443SOL    HW270350   1.991   6.371   0.112  2.1884  1.0630  1.1610
22444SOL     OW70351   5.979   0.810   4.748  0.2408 -0.0286 -0.1689
22444SOL    HW170352   5.955   0.724   4.782  1.2264 -0.6086 -0.9295
22444SOL    HW270353   5.913   0.829   4.682  0.2887 -0.4083 -0.3262
22445SOL     OW70354   1.774   8.907   1.772  0.6065 -0.0907  0.6822
22445SOL    HW170355   1.730   8.971   1.716  2.6010  0.1164 -0.6666
22445SOL    HW270356   1.819   8.959   1.838 -2.2987 -0.3552  2.9878
22446SOL     OW70357   9.089   0.856   3.743  0.4882 -0.1078 -0.1711
22446SOL    HW170358   9.064   0.927   3.802  0.0972 -1.0064  0.7707
22446SOL    HW270359   9.133   0.899   3.670  1.3381  1.0000  0.9683
22447SOL     OW70360   0.758   8.245   0.577  0.6858 -0.6203  0.5697
22447SOL    HW170361   0.828   8.184   0.557  0.4462 -1.0982  1.1483
22447SOL    HW270362   0.744   8.235   0.672  1.4074  1.1423  0.8869
22448SOL     OW70363   0.385   3.355   0.097  0.0456 -0.8034 -0.0343
22448SOL    HW170364   0.413   3.335   0.186  0.1036 -0.3378  0.0534
22448SOL    HW270365   0.455   3.409   0.061 -0.5199 -0.0109  0.0348
22449SOL     OW70366   7.967   3.955   8.125 -0.4335 -0.4068  0.0990
22449SOL    HW170367   7.995   3.879   8.175 -1.5099  0.4294  2.0114
22449SOL    HW270368   7.873   3.944   8.115 -0.3779 -0.0446 -0.8756
22450SOL     OW70369   7.150   8.326   6.432  0.5319  0.3095 -0.1205
22450SOL    HW170370   7.134   8.233   6.444  0.4496  0.3022 -0.2887
22450SOL    HW270371   7.204   8.330   6.352 -2.0740  0.6220 -1.9150
22451SOL     OW70372   2.612   6.823   2.173  0.6266 -0.3684  0.1035
22451SOL    HW170373   2.608   6.736   2.132  0.5345  0.7116 -2.2693
22451SOL    HW270374   2.523   6.839   2.204  0.6951 -1.1997  0.7385
22452SOL     OW70375   0.389   0.271   2.822  0.0148  0.2943  0.1826
22452SOL    HW170376   0.299   0.262   2.791  0.3765 -2.1610 -0.2772
22452SOL    HW270377   0.440   0.215   2.764  1.5985  0.4161  1.4217
22453SOL     OW70378   0.589   5.347   4.134  0.6251 -0.4798  0.2220
22453SOL    HW170379   0.665   5.299   4.100  1.7634  1.3422  0.1430
22453SOL    HW270380   0.626   5.410   4.196 -0.9040 -0.0776  0.7512
22454SOL     OW70381   1.316   2.859   9.070  0.5776  0.0694  0.3766
22454SOL    HW170382   1.341   2.938   9.118  0.9708 -0.0502  0.3665
22454SOL    HW270383   1.224   2.873   9.048  0.6068  0.4625  0.5009
22455SOL     OW70384   8.060   5.091   8.587 -0.5326  0.2597 -0.2868
22455SOL    HW170385   8.051   5.141   8.506 -0.3813 -0.0790 -0.5087
22455SOL    HW270386   8.086   5.004   8.559 -0.7239  0.0746  0.1095
22456SOL     OW70387   2.446   3.599   2.897  0.1243  0.0123  0.4139
22456SOL    HW170388   2.534   3.621   2.926  0.3785  0.0680 -0.3854
22456SOL    HW270389   2.394   3.677   2.918  0.4983  0.4068 -0.1194
22457SOL     OW70390   5.165   3.051   2.154  0.3187 -0.1510 -0.7677
22457SOL    HW170391   5.182   3.118   2.089  0.4786  0.2980 -0.2664
22457SOL    HW270392   5.131   3.099   2.230  1.0347 -0.5595 -0.1783
22458SOL     OW70393   5.330   2.965   5.855 -0.1300 -0.2356 -0.5354
22458SOL    HW170394   5.385   3.025   5.805 -0.0494  0.6929  0.6545
22458SOL    HW270395   5.245   2.968   5.811 -0.9321  2.8231  1.0374
22459SOL     OW70396   4.888   1.779   1.799 -1.0818  0.0721 -0.4437
22459SOL    HW170397   4.870   1.864   1.758 -1.2300  0.7002  0.9128
22459SOL    HW270398   4.817   1.767   1.863  0.4136  0.1521  1.2528
22460SOL     OW70399   5.338   1.408   6.574  0.0203  0.4797 -0.5361
22460SOL    HW170400   5.430   1.429   6.589 -0.3947 -0.2994  3.6540
22460SOL    HW270401   5.292   1.492   6.582  0.0286  0.3617  0.9916
22461SOL     OW70402   0.514   5.575   2.218 -0.1541  0.2593  0.4015
22461SOL    HW170403   0.491   5.515   2.290 -1.1061  1.0111  0.7471
22461SOL    HW270404   0.608   5.587   2.226 -0.1051 -0.4220  0.9393
22462SOL     OW70405   1.651   4.864   3.646  0.0383 -0.2050 -0.0092
22462SOL    HW170406   1.689   4.943   3.684 -0.0808  0.1347 -0.5976
22462SOL    HW270407   1.716   4.796   3.664  1.8625  0.7350 -2.6541
22463SOL     OW70408   1.562   5.626   9.103 -0.0190  0.1657  0.3177
22463SOL    HW170409   1.547   5.683   9.178 -2.6956 -0.7804  0.5771
22463SOL    HW270410   1.623   5.560   9.136  1.3834  1.6141  0.6644
22464SOL     OW70411   4.994   3.915   5.373 -0.0676 -0.0635  0.1486
22464SOL    HW170412   5.057   3.983   5.399 -0.1606  0.4591 -0.9538
22464SOL    HW270413   4.919   3.928   5.431 -0.4034  1.2773 -0.5632
22465SOL     OW70414   3.993   1.252   3.641 -0.5199 -0.7471  0.0432
22465SOL    HW170415   3.982   1.200   3.561  0.0026 -0.9019  0.0673
22465SOL    HW270416   4.086   1.275   3.642 -0.5554 -0.6105  0.5233
22466SOL     OW70417   4.138   0.659   0.010 -0.6042 -0.1172 -0.1748
22466SOL    HW170418   4.129   0.629  -0.080 -1.4299 -2.5324  0.6783
22466SOL    HW270419   4.090   0.742   0.012  0.3899  0.5551 -2.1956
22467SOL     OW70420   2.786   5.385   3.506 -0.7010 -0.2243  0.4307
22467SOL    HW170421   2.828   5.353   3.586  1.3564 -0.6945 -0.8008
22467SOL    HW270422   2.822   5.472   3.492 -1.5275  0.1102  0.3429
22468SOL     OW70423   0.006   4.833   8.937  0.1375 -0.0289  0.5680
22468SOL    HW170424  -0.076   4.789   8.957 -0.6176 -0.8342 -3.6592
22468SOL    HW270425   0.072   4.763   8.940  0.0679 -0.0928  0.5876
22469SOL     OW70426   2.326   8.352   3.078 -0.2813 -0.2757 -0.2724
22469SOL    HW170427   2.412   8.321   3.105 -0.3858  0.0635  0.4643
22469SOL    HW270428   2.285   8.384   3.159 -1.2641 -0.8339 -0.5325
22470SOL     OW70429   2.410   5.568   0.919 -0.9097  0.3405 -0.1932
22470SOL    HW170430   2.448   5.541   0.836 -0.2572  1.4639 -0.2792
22470SOL    HW270431   2.459   5.519   0.985 -0.7716  0.1709 -0.4212
22471SOL     OW70432   1.110   5.099   7.104  0.5341  0.2222 -0.0199
22471SOL    HW170433   1.128   5.062   7.018 -0.9042  1.3709 -0.8647
22471SOL    HW270434   1.022   5.068   7.125  0.7548  0.2076  0.8836
22472SOL     OW70435   6.551   8.629   2.739  0.0820  0.1300 -0.2187
22472SOL    HW170436   6.623   8.670   2.691  1.1822  0.1271  1.3819
22472SOL    HW270437   6.476   8.688   2.726  0.3213  0.0389 -2.0424
22473SOL     OW70438   4.367   1.625   0.480  0.3145  0.2861  0.0406
22473SOL    HW170439   4.387   1.718   0.490 -0.1901  0.5601 -1.4597
22473SOL    HW270440   4.439   1.590   0.427  0.8643 -0.3313  1.1712
22474SOL     OW70441   5.046   1.014   3.897  0.0141 -0.0301  0.1949
22474SOL    HW170442   5.083   0.988   3.813  0.1315 -2.8768  1.0693
22474SOL    HW270443   4.957   0.979   3.896  0.0875 -0.2750  1.3353
22475SOL     OW70444   5.811   6.359   2.015 -0.7085  0.4351  0.0349
22475SOL    HW170445   5.853   6.323   1.936 -1.1511 -0.4316  0.1912
22475SOL    HW270446   5.878   6.352   2.083 -0.4255  0.9155 -0.1859
22476SOL     OW70447   0.179   5.029   8.853  0.3682  0.2844 -0.4789
22476SOL    HW170448   0.130   5.111   8.849  0.0865  0.4537  4.2301
22476SOL    HW270449   0.116   4.966   8.887  1.6634 -1.0326 -0.5135
22477SOL     OW70450   9.098   6.636   1.119  0.4584 -0.2883 -0.2030
22477SOL    HW170451   9.044   6.647   1.197  1.6936  0.5416  0.5554
22477SOL    HW270452   9.124   6.725   1.094  1.2388 -0.6514 -0.7220
22478SOL     OW70453   0.307   7.497   0.545  0.7676 -0.0520  0.4856
22478SOL    HW170454   0.354   7.417   0.522  1.5453  0.2633  0.9596
22478SOL    HW270455   0.361   7.567   0.509  1.7392  0.4183  2.7813
22479SOL     OW70456   3.477   5.105   7.041  0.3174 -0.1965 -0.6425
22479SOL    HW170457   3.503   5.150   6.960  1.6366 -0.4883 -0.3893
22479SOL    HW270458   3.559   5.093   7.089 -0.3085 -1.0548  0.2232
22480SOL     OW70459   3.762   2.337   0.970 -0.4519 -0.2015  0.0151
22480SOL    HW170460   3.810   2.419   0.982 -1.2343  0.2345  0.2179
22480SOL    HW270461   3.671   2.359   0.993 -0.4721 -1.3979  1.1757
22481SOL     OW70462   3.517   3.699   7.246  0.2738 -0.4947  0.9182
22481SOL    HW170463   3.453   3.679   7.315  0.2329  0.9982  1.3297
22481SOL    HW270464   3.544   3.789   7.264  0.0849  0.0044 -1.1573
22482SOL     OW70465   8.826   2.631   4.050  0.5316  0.1150  0.0362
22482SOL    HW170466   8.826   2.645   4.145  0.7483 -0.4197  0.1145
22482SOL    HW270467   8.919   2.624   4.027  0.4949  0.6368 -0.2748
22483SOL     OW70468   3.887   1.516   9.324  0.0175  0.0226 -0.4835
22483SOL    HW170469   3.923   1.552   9.406 -0.1205  0.1342 -0.4721
22483SOL    HW270470   3.944   1.552   9.256 -0.2470  0.4338 -0.4889
22484SOL     OW70471   7.058   5.481   9.299 -0.0183  0.4326 -0.1014
22484SOL    HW170472   7.025   5.394   9.274  1.2004 -0.2819  0.7493
22484SOL    HW270473   7.105   5.466   9.381  3.8858  1.1133 -2.1328
22485SOL     OW70474   5.850   1.703   0.081  0.2215  0.1965 -0.2483
22485SOL    HW170475   5.943   1.712   0.104 -0.1354  1.6549  0.6377
22485SOL    HW270476   5.826   1.788   0.044 -0.2924 -0.7807 -2.2434
22486SOL     OW70477   8.936   1.328   6.352 -0.0158  0.3341 -0.1126
22486SOL    HW170478   8.962   1.348   6.262  0.4988  1.6109  0.3034
22486SOL    HW270479   9.005   1.367   6.406  1.0471 -2.6197  0.7746
22487SOL     OW70480   4.489   3.728   8.879 -1.3613  0.1298 -0.2672
22487SOL    HW170481   4.559   3.693   8.825 -0.3729  1.4745  0.1040
22487SOL    HW270482   4.410   3.718   8.825 -0.1578  2.9971 -2.7285
22488SOL     OW70483   2.821   3.583   5.900 -0.0414 -0.2471 -0.1239
22488SOL    HW170484   2.726   3.590   5.886 -0.2589  2.4637  2.2399
22488SOL    HW270485   2.830   3.571   5.994  1.9894  0.8061 -0.1586
22489SOL     OW70486   0.170   8.269   6.640  0.0565 -0.0104  0.6958
22489SOL    HW170487   0.186   8.352   6.684  0.3892  0.5197 -0.3986
22489SOL    HW270488   0.110   8.222   6.698  0.5349  0.6394  1.7312
22490SOL     OW70489   4.467   8.704   8.954 -0.1878  0.0654 -0.5441
22490SOL    HW170490   4.513   8.782   8.983 -0.4340  0.2218 -0.5673
22490SOL    HW270491   4.531   8.634   8.961  0.0370  0.2720 -0.5302
22491SOL     OW70492   8.258   0.136   7.667 -0.0158  0.1968 -0.2281
22491SOL    HW170493   8.269   0.192   7.744 -0.4185 -1.3137  0.9371
22491SOL    HW270494   8.307   0.057   7.688 -0.2945 -0.3111 -1.4605
22492SOL     OW70495   5.761   0.104   4.298  0.5976  0.0216  0.1576
22492SOL    HW170496   5.826   0.132   4.233  0.1221 -1.5040 -1.0070
22492SOL    HW270497   5.679   0.144   4.269  0.1952 -1.4006 -0.7407
22493SOL     OW70498   0.442   5.617   1.386 -0.2521  0.1432 -0.2309
22493SOL    HW170499   0.533   5.612   1.415 -0.1618 -0.1044 -0.5486
22493SOL    HW270500   0.394   5.648   1.462  0.0935  0.2286 -0.0471
22494SOL     OW70501   4.462   5.342   0.400  0.1124  0.1486 -0.1890
22494SOL    HW170502   4.448   5.393   0.321  0.5982  1.4521  0.5472
22494SOL    HW270503   4.407   5.384   0.466  0.4607 -0.3204  0.4099
22495SOL     OW70504   9.370   2.755   8.437 -0.2984  0.0490 -0.4183
22495SOL    HW170505   9.359   2.817   8.365 -0.8185 -0.3856 -0.7148
22495SOL    HW270506   9.336   2.801   8.514 -0.4764  0.2175 -0.5975
22496SOL     OW70507   8.150   2.587   0.925  0.3554 -0.1802 -0.7764
22496SOL    HW170508   8.230   2.584   0.872  0.3609  3.2858 -1.0470
22496SOL    HW270509   8.170   2.647   0.997 -1.0367 -1.6191  0.8522
22497SOL     OW70510   0.561   2.750   3.868  0.5488 -0.0583 -0.1279
22497SOL    HW170511   0.515   2.831   3.888  2.1249  0.7367  0.4059
22497SOL    HW270512   0.647   2.761   3.910  0.9169 -1.8385 -0.3804
22498SOL     OW70513   8.386   5.162   0.578  0.3026 -0.3817  1.0253
22498SOL    HW170514   8.306   5.181   0.529 -0.1527 -1.2823  1.4230
22498SOL    HW270515   8.400   5.240   0.632  0.6629  0.5108 -0.3343
22499SOL     OW70516   8.487   3.729   7.409  0.3955  0.1338  0.2865
22499SOL    HW170517   8.517   3.645   7.374  1.3568  0.7681 -0.4557
22499SOL    HW270518   8.482   3.786   7.333  0.5410  0.9786  0.9022
22500SOL     OW70519   6.412   5.252   1.759  0.0059  0.3483 -0.0694
22500SOL    HW170520   6.338   5.229   1.816  0.6233 -0.6963  0.3150
22500SOL    HW270521   6.489   5.219   1.806  0.6996  1.2523 -0.5645
22501SOL     OW70522   2.267   5.120   0.584 -0.2754  0.3021  0.0206
22501SOL    HW170523   2.301   5.205   0.555  0.4680  0.3255  0.9349
22501SOL    HW270524   2.292   5.115   0.677  0.8131 -1.4612 -0.3385
22502SOL     OW70525   1.028   1.493   8.130 -0.0298 -0.2836 -0.2121
22502SOL    HW170526   1.004   1.400   8.126 -1.5359  0.0177  1.2890
22502SOL    HW270527   1.114   1.494   8.172 -0.6336 -0.9225  1.0791
22503SOL     OW70528   2.918   5.533   7.839 -0.5276  0.0767 -0.2833
22503SOL    HW170529   2.871   5.466   7.790 -0.5446 -0.0513 -0.0949
22503SOL    HW270530   2.969   5.483   7.903 -1.7578  0.3343  0.9025
22504SOL     OW70531   7.111   4.428   3.359  0.1582 -0.1198  0.0328
22504SOL    HW170532   7.188   4.459   3.312 -0.1556  0.5098 -0.0704
22504SOL    HW270533   7.040   4.435   3.296  0.2603 -2.0403 -0.3286
22505SOL     OW70534   1.807   3.232   3.084  0.0370 -0.7116  0.0346
22505SOL    HW170535   1.868   3.269   3.148 -1.2666 -1.0786  1.5408
22505SOL    HW270536   1.863   3.195   3.016  1.3716  3.3456 -1.1660
22506SOL     OW70537   9.272   4.946   6.210 -0.2075  0.0002 -0.0721
22506SOL    HW170538   9.191   4.900   6.233  0.3097 -1.2063 -0.6306
22506SOL    HW270539   9.340   4.902   6.260  0.1398  0.8389  0.1884
22507SOL     OW70540   6.422   1.517   1.422  0.1354 -0.4441  0.1326
22507SOL    HW170541   6.364   1.441   1.425 -0.1919 -0.2404 -0.7617
22507SOL    HW270542   6.391   1.574   1.492  0.1503 -0.9671  0.5678
22508SOL     OW70543   5.564   4.576   4.071  0.0458 -0.3853  0.2070
22508SOL    HW170544   5.542   4.653   4.124 -0.7954  0.5107 -1.3818
22508SOL    HW270545   5.496   4.512   4.091 -0.5577  0.1375 -0.1605
22509SOL     OW70546   2.924   2.700   3.733  0.2186 -0.3646  1.0120
22509SOL    HW170547   2.911   2.623   3.677 -1.3881 -0.5456  1.6324
22509SOL    HW270548   2.889   2.773   3.682  1.3518 -0.0970  0.6037
22510SOL     OW70549   1.498   4.998   7.497  0.2859  0.5786 -0.1659
22510SOL    HW170550   1.445   4.919   7.490 -0.1860  1.0619 -2.0986
22510SOL    HW270551   1.586   4.970   7.472  0.4227  0.3700  0.5180
22511SOL     OW70552   5.190   3.012   4.724 -0.3417  0.1351  0.1526
22511SOL    HW170553   5.143   2.939   4.684  2.4288 -0.7466 -1.6559
22511SOL    HW270554   5.221   2.977   4.808 -1.7600  0.3198  0.7720
22512SOL     OW70555   1.822   1.244   3.206  0.2532 -0.0369  0.3696
22512SOL    HW170556   1.747   1.281   3.159  0.1350 -1.0410 -0.2401
22512SOL    HW270557   1.788   1.222   3.293  0.1132  0.4864  0.4496
22513SOL     OW70558   0.650   0.447   4.527  0.0707 -0.0879  0.1208
22513SOL    HW170559   0.562   0.410   4.520  0.7912 -2.0249  0.7587
22513SOL    HW270560   0.681   0.453   4.437  0.2443 -1.8941  0.0408
22514SOL     OW70561   7.854   5.472   5.894  0.2580  0.0775 -0.0503
22514SOL    HW170562   7.791   5.543   5.906 -0.3116 -0.3631 -0.3438
22514SOL    HW270563   7.930   5.498   5.945 -0.8464 -0.2237  1.8162
22515SOL     OW70564   6.241   9.271   7.619  0.0837 -0.2025  0.3699
22515SOL    HW170565   6.286   9.331   7.679  0.3512 -2.4206  2.5034
22515SOL    HW270566   6.266   9.300   7.532  1.0459  2.1144  1.3895
22516SOL     OW70567   2.055   9.238   6.300  0.5967  0.5866 -0.5295
22516SOL    HW170568   1.965   9.245   6.333  0.8151 -0.6869  0.3842
22516SOL    HW270569   2.055   9.158   6.248  1.7345 -0.6888  1.3441
22517SOL     OW70570   7.796   2.832   1.784 -0.0881 -0.2999  0.2043
22517SOL    HW170571   7.747   2.858   1.706 -0.3346 -1.0307  0.1088
22517SOL    HW270572   7.739   2.768   1.828  0.6643 -0.9591  0.2339
22518SOL     OW70573   3.806   2.612   3.022 -0.0679 -0.3722  0.7818
22518SOL    HW170574   3.877   2.660   2.979  0.3133 -1.5966 -0.0046
22518SOL    HW270575   3.784   2.542   2.960 -2.5761  0.5093  0.6224
22519SOL     OW70576   0.438   3.757   2.637  0.1447  0.3370  0.7263
22519SOL    HW170577   0.379   3.685   2.659  0.4467 -0.3002 -0.5710
22519SOL    HW270578   0.517   3.741   2.689  0.4459 -0.5997 -0.0153
22520SOL     OW70579   5.342   0.120   0.209 -0.2221 -0.2958 -1.0724
22520SOL    HW170580   5.304   0.173   0.139  1.7963  1.3131 -1.0103
22520SOL    HW270581   5.286   0.136   0.285 -0.5542  0.5018 -1.4745
22521SOL     OW70582   1.170   2.353   1.938  0.4205 -0.1906 -0.1301
22521SOL    HW170583   1.146   2.261   1.940 -1.5655  0.3328  0.3283
22521SOL    HW270584   1.265   2.352   1.925  1.0425 -2.3483  3.8696
22522SOL     OW70585   3.064   9.215   3.415  0.5080 -0.0511 -0.1505
22522SOL    HW170586   3.086   9.305   3.391  0.6468  0.5185  2.0394
22522SOL    HW270587   3.144   9.165   3.395  1.2419  0.7278  0.7800
22523SOL     OW70588   4.448   6.403   6.642  0.6755  0.1475 -0.5259
22523SOL    HW170589   4.510   6.406   6.570  1.6372  1.7312  0.3304
22523SOL    HW270590   4.370   6.448   6.608  1.2234  1.1249 -0.5009
22524SOL     OW70591   5.471   1.322   1.397  0.1205 -0.2634 -0.6997
22524SOL    HW170592   5.384   1.280   1.397  0.2585 -0.5821  0.7055
22524SOL    HW270593   5.454   1.412   1.422  0.1912 -0.3534 -0.3127
22525SOL     OW70594   4.395   5.850   5.458  0.2793  0.1567  0.5749
22525SOL    HW170595   4.421   5.801   5.537  0.3797  0.3487  0.6597
22525SOL    HW270596   4.391   5.941   5.486 -3.0790 -0.1276  1.2708
22526SOL     OW70597   2.991   4.711   4.382 -0.0513  0.1127 -0.2144
22526SOL    HW170598   3.059   4.676   4.440 -1.2486  0.0093  1.1664
22526SOL    HW270599   2.973   4.798   4.416 -1.5529 -0.3708  0.2748
22527SOL     OW70600   1.247   2.687   2.451 -0.0700 -0.5127 -0.7017
22527SOL    HW170601   1.227   2.600   2.487 -0.2619 -0.2510 -0.1610
22527SOL    HW270602   1.165   2.716   2.412 -0.9872  0.8259  2.0688
22528SOL     OW70603   8.438   3.717   3.228 -0.1552 -0.1270  0.0797
22528SOL    HW170604   8.346   3.742   3.237 -0.8479 -1.7678 -2.1062
22528SOL    HW270605   8.477   3.789   3.179 -0.1229  0.8068  1.4243
22529SOL     OW70606   7.952   8.454   1.115 -0.0061  0.3215  0.3860
22529SOL    HW170607   7.986   8.428   1.030 -0.2651  1.2247 -0.0048
22529SOL    HW270608   7.969   8.548   1.120 -1.3253  0.5594  0.7051
22530SOL     OW70609   9.375   2.844   2.794 -0.2643 -0.3585 -0.7179
22530SOL    HW170610   9.443   2.783   2.821 -1.1109 -1.1747 -0.3814
22530SOL    HW270611   9.412   2.892   2.720  1.2348  0.2915  0.4312
22531SOL     OW70612   2.726   4.952   5.504  0.0887  0.6488  0.3424
22531SOL    HW170613   2.773   4.890   5.449 -0.3259  0.6996 -0.0652
22531SOL    HW270614   2.776   5.034   5.497  0.1328  0.6072  0.1784
22532SOL     OW70615   6.470   6.823   6.411 -0.4273 -0.4613  0.0957
22532SOL    HW170616   6.535   6.865   6.355  0.4699 -0.0787  1.3960
22532SOL    HW270617   6.438   6.750   6.359  1.5919 -1.1124 -0.3060
22533SOL     OW70618   5.169   5.761   6.115  0.2962 -0.3527 -0.0970
22533SOL    HW170619   5.114   5.684   6.127  1.3651 -0.9784  0.9220
22533SOL    HW270620   5.146   5.794   6.028 -0.6061 -1.4617 -0.2917
22534SOL     OW70621   6.672   8.403   6.054  0.2538  0.4111  0.5016
22534SOL    HW170622   6.704   8.398   6.145  2.7439 -0.8452 -0.3949
22534SOL    HW270623   6.655   8.312   6.030 -2.3597  0.8944  0.3073
22535SOL     OW70624   2.808   6.757   4.472  0.5551  0.3326  0.1529
22535SOL    HW170625   2.760   6.805   4.404 -0.1569 -0.4730  0.0792
22535SOL    HW270626   2.897   6.792   4.467 -0.0913  2.1158  0.5410
22536SOL     OW70627   0.988   9.326   3.247  0.2527  0.5430  0.0710
22536SOL    HW170628   1.017   9.266   3.178  0.3466 -0.0119  0.5877
22536SOL    HW270629   1.057   9.320   3.314 -0.5844 -0.0984  0.9030
22537SOL     OW70630   8.215   5.437   0.197  0.1308  0.4352  0.6780
22537SOL    HW170631   8.242   5.347   0.178 -1.7075  0.0828 -0.4565
22537SOL    HW270632   8.122   5.429   0.217 -0.0459  2.0995  0.5329
22538SOL     OW70633   3.095   5.413   9.255 -0.1785 -0.1860  0.2258
22538SOL    HW170634   3.126   5.340   9.309 -1.5281  1.2721  3.0757
22538SOL    HW270635   3.174   5.447   9.213  0.2987 -4.1173 -2.2938
22539SOL     OW70636   6.708   4.062   4.536  0.3679 -0.4061  0.0221
22539SOL    HW170637   6.747   4.150   4.539  0.0917 -0.2736 -0.1763
22539SOL    HW270638   6.703   4.035   4.627 -0.7920  0.3462  0.2002
22540SOL     OW70639   2.567   2.110   8.578  0.3683  0.2328 -0.0806
22540SOL    HW170640   2.616   2.046   8.629 -1.1845 -2.1156 -1.4231
22540SOL    HW270641   2.479   2.110   8.617 -0.6831 -1.2019 -2.3614
22541SOL     OW70642   8.717   3.696   6.064  0.1559 -0.1781 -0.0835
22541SOL    HW170643   8.638   3.684   6.012 -1.2117  1.0509  1.6358
22541SOL    HW270644   8.750   3.782   6.040  0.3380 -0.2157  0.0231
22542SOL     OW70645   7.643   9.360   5.470 -0.1359  0.2652  0.2278
22542SOL    HW170646   7.654   9.267   5.490  2.6383  0.2237 -1.3293
22542SOL    HW270647   7.637   9.364   5.375  3.1318  1.9434  0.0387
22543SOL     OW70648   3.337   8.817   8.069  0.2442  0.5624  0.2908
22543SOL    HW170649   3.415   8.829   8.123  0.9187  0.3287 -0.6253
22543SOL    HW270650   3.290   8.900   8.077 -0.0608  0.2589  1.8507
22544SOL     OW70651   1.716   6.607   5.376  0.3088  0.2809 -0.2666
22544SOL    HW170652   1.725   6.690   5.329  1.1593 -0.9907 -2.4183
22544SOL    HW270653   1.804   6.587   5.408  0.5007 -0.7041 -1.3729
22545SOL     OW70654   3.394   7.053   1.374  0.4374 -0.1884 -0.0549
22545SOL    HW170655   3.384   6.970   1.422 -0.2433 -0.7521 -1.1556
22545SOL    HW270656   3.468   7.038   1.316  1.5272  0.6387  1.0960
22546SOL     OW70657   0.354   5.684   7.522 -0.0012 -0.5270 -0.2430
22546SOL    HW170658   0.354   5.647   7.434 -0.7566  0.0005 -0.4604
22546SOL    HW270659   0.446   5.708   7.537  0.0001  0.0492 -1.1611
22547SOL     OW70660   7.616   7.130   9.443  0.5563 -0.5213 -0.4930
22547SOL    HW170661   7.570   7.082   9.512  1.6193 -0.3432  0.3487
22547SOL    HW270662   7.616   7.070   9.368  1.3234 -1.5848  0.3533
22548SOL     OW70663   3.471   8.693   4.913  0.7446 -0.4926 -0.0220
22548SOL    HW170664   3.401   8.680   4.977  0.8786  0.5934  0.3574
22548SOL    HW270665   3.491   8.787   4.918  0.4375 -0.3107 -2.0053
22549SOL     OW70666   4.672   7.735   6.553 -0.8401  0.1508  0.2806
22549SOL    HW170667   4.684   7.732   6.648 -2.6313  0.4687  0.5395
22549SOL    HW270668   4.640   7.824   6.536 -0.2649  0.1827 -0.6559
22550SOL     OW70669   3.773   7.811   0.596  0.5687  0.3360  0.1451
22550SOL    HW170670   3.783   7.825   0.690  3.0858 -0.9424  0.1139
22550SOL    HW270671   3.725   7.728   0.590  1.8917 -0.4527  0.3177
22551SOL     OW70672   8.344   8.490   4.205 -0.0035 -0.1354  0.1516
22551SOL    HW170673   8.371   8.527   4.121 -1.3290  0.9900  0.2000
22551SOL    HW270674   8.315   8.401   4.185 -1.3598  0.5083 -0.7633
22552SOL     OW70675   3.052   4.727   5.371 -0.7502  0.5149 -0.1233
22552SOL    HW170676   3.020   4.730   5.461 -1.1709  2.1206 -0.3231
22552SOL    HW270677   3.147   4.738   5.379 -0.7372  0.2297  0.1422
22553SOL     OW70678   8.069   1.186   8.810 -0.4323 -0.1196 -0.6181
22553SOL    HW170679   8.042   1.232   8.890  1.7392 -1.6989  1.0717
22553SOL    HW270680   8.102   1.255   8.753  0.8318  0.6952  1.0455
22554SOL     OW70681   4.251   1.001   2.535 -0.7125 -0.1861  0.1746
22554SOL    HW170682   4.294   1.079   2.569 -0.9196 -0.6989  1.6146
22554SOL    HW270683   4.166   0.998   2.580 -0.2169 -1.9047  1.0259
22555SOL     OW70684   7.270   6.623   1.732 -0.0190 -0.4643 -0.6208
22555SOL    HW170685   7.364   6.642   1.730 -0.4677  1.8416 -1.3230
22555SOL    HW270686   7.239   6.670   1.809 -0.6842 -0.8256 -0.6711
22556SOL     OW70687   2.419   2.067   0.260 -0.5635 -0.0678 -0.2465
22556SOL    HW170688   2.408   2.146   0.207  1.7524 -0.6164 -1.6421
22556SOL    HW270689   2.439   2.100   0.348 -1.0293  0.8839 -0.4892
22557SOL     OW70690   6.883   5.524   0.961 -0.0445 -0.1828 -0.0647
22557SOL    HW170691   6.967   5.500   1.001  0.2120 -2.0985 -1.6876
22557SOL    HW270692   6.830   5.556   1.034  2.8301  3.3058  0.6647
22558SOL     OW70693   5.697   2.442   4.811 -1.1165 -0.1320 -0.1895
22558SOL    HW170694   5.700   2.351   4.783  1.0518 -0.2687  0.4695
22558SOL    HW270695   5.710   2.492   4.730  1.5750 -0.4777  0.0125
22559SOL     OW70696   1.740   5.329   3.730 -0.2669  0.3628 -0.3078
22559SOL    HW170697   1.684   5.359   3.802  0.0445 -0.2686  0.1997
22559SOL    HW270698   1.712   5.382   3.655 -1.9220 -0.3136 -0.1939
22560SOL     OW70699   5.793   6.044   4.161 -0.0913 -0.1360 -0.4128
22560SOL    HW170700   5.834   6.011   4.241  0.3949  0.1283 -0.5499
22560SOL    HW270701   5.699   6.042   4.179  0.0875  1.4813  0.7695
22561SOL     OW70702   6.094   9.137   3.212  0.3715  0.6270 -0.3306
22561SOL    HW170703   6.005   9.174   3.212  0.4519  0.8690  1.0899
22561SOL    HW270704   6.145   9.198   3.159 -0.1803  0.8077 -0.6651
22562SOL     OW70705   3.003   4.922   2.616 -0.3343  0.0667 -0.3803
22562SOL    HW170706   3.008   4.891   2.525  1.7623  1.3545 -0.7258
22562SOL    HW270707   3.029   5.013   2.612 -2.3156  0.7573  1.2512
22563SOL     OW70708   8.761   3.040   5.431  0.4762  0.0018  0.8374
22563SOL    HW170709   8.714   3.079   5.505 -2.3074 -0.7591 -0.4663
22563SOL    HW270710   8.745   3.101   5.359  1.4723 -0.3213  0.3326
22564SOL     OW70711   6.568   6.406   6.344 -0.2516  0.3836  0.1107
22564SOL    HW170712   6.524   6.478   6.300  0.7611 -0.1920 -1.9076
22564SOL    HW270713   6.651   6.443   6.374 -0.0924  0.2781 -0.1969
22565SOL     OW70714   3.711   7.542   4.417  0.0905 -0.0306 -0.9050
22565SOL    HW170715   3.773   7.552   4.345  0.7701 -0.0201 -0.3124
22565SOL    HW270716   3.765   7.533   4.495 -0.6394 -0.7504 -0.4760
22566SOL     OW70717   0.337   5.383   3.490 -0.7721  0.4716  0.4635
22566SOL    HW170718   0.333   5.333   3.409  1.1938 -0.3494  0.8664
22566SOL    HW270719   0.306   5.323   3.558  1.4307 -0.2091  0.9204
22567SOL     OW70720   1.361   5.655   6.651 -0.2005  0.2161 -0.5830
22567SOL    HW170721   1.455   5.637   6.656 -0.5002 -1.1164  0.5865
22567SOL    HW270722   1.344   5.710   6.727 -0.6547 -0.9437  0.1689
22568SOL     OW70723   8.185   3.458   2.238 -0.6456 -0.0814 -0.8847
22568SOL    HW170724   8.189   3.365   2.215 -1.4509  0.1264 -1.8800
22568SOL    HW270725   8.197   3.459   2.333  0.7910 -1.0849 -1.0307
22569SOL     OW70726   2.603   6.404   5.053  0.2025  0.1766 -0.1355
22569SOL    HW170727   2.592   6.491   5.094  2.0244  0.6968 -0.7060
22569SOL    HW270728   2.604   6.422   4.959  2.0071 -0.2595 -0.2236
22570SOL     OW70729   1.343   3.163   9.108 -0.0244  0.4925 -0.7153
22570SOL    HW170730   1.292   3.128   9.035 -1.0166  0.9254 -0.2420
22570SOL    HW270731   1.376   3.247   9.076 -0.8695  0.9128 -0.5042
22571SOL     OW70732   0.354   9.376   5.969  0.1128 -0.2029 -0.2725
22571SOL    HW170733   0.442   9.408   5.952 -0.5372  1.3684 -0.7350
22571SOL    HW270734   0.367   9.301   6.027  1.5953  1.9643  2.3613
22572SOL     OW70735   8.339   5.296   7.851 -0.0643  0.3856  0.2028
22572SOL    HW170736   8.322   5.202   7.844 -0.5021  0.4235  0.7396
22572SOL    HW270737   8.434   5.303   7.856 -0.0660 -0.0789  0.9670
22573SOL     OW70738   0.102   4.437   4.903 -0.1447 -0.2415 -0.0498
22573SOL    HW170739   0.060   4.479   4.978  0.0464  0.3756 -0.2833
22573SOL    HW270740   0.147   4.361   4.940  0.2236  0.2408  0.5172
22574SOL     OW70741   0.677   8.792   8.276 -0.0265 -0.3304 -0.0496
22574SOL    HW170742   0.690   8.702   8.308  0.3191  0.2265  1.4123
22574SOL    HW270743   0.642   8.839   8.352  3.2635  1.6368  0.3556
22575SOL     OW70744   0.358   2.914   2.822 -0.1163 -1.0364 -0.2995
22575SOL    HW170745   0.285   2.870   2.778  1.2852 -0.9710 -2.7377
22575SOL    HW270746   0.432   2.904   2.763  1.4413  0.4429  1.3317
22576SOL     OW70747   7.649   5.891   2.657  0.1098 -0.2164 -0.0891
22576SOL    HW170748   7.629   5.948   2.583 -0.4475 -0.3923 -0.0820
22576SOL    HW270749   7.744   5.883   2.657  0.1212 -0.0871 -0.6909
22577SOL     OW70750   4.563   7.643   2.118 -0.2942 -0.3986  0.3042
22577SOL    HW170751   4.573   7.656   2.212 -0.4125  1.3911  0.1033
22577SOL    HW270752   4.613   7.716   2.079 -0.2905 -1.0883 -1.0055
22578SOL     OW70753   9.147   5.385   8.951  0.6985  0.1742  0.0028
22578SOL    HW170754   9.203   5.446   9.000 -0.1238  0.8781  0.0859
22578SOL    HW270755   9.066   5.434   8.935  0.9372 -0.0674 -2.0504
22579SOL     OW70756   3.730   9.162   3.088  0.4797 -0.1480  0.1857
22579SOL    HW170757   3.710   9.161   2.994  1.8257 -0.6629 -0.1040
22579SOL    HW270758   3.825   9.175   3.093 -0.0171  3.4382  1.5775
22580SOL     OW70759   2.407   7.084   1.054  0.0721  0.0478  0.1342
22580SOL    HW170760   2.495   7.059   1.027  0.1839  1.0429 -0.4391
22580SOL    HW270761   2.402   7.061   1.147  0.3608 -1.5600 -0.2419
22581SOL     OW70762   2.017   0.966   1.550 -0.1638 -0.6833 -0.1295
22581SOL    HW170763   1.946   0.910   1.580 -1.9491  1.3137 -0.5216
22581SOL    HW270764   2.096   0.927   1.587 -1.4119 -3.1265  0.0420
22582SOL     OW70765   3.966   0.892   2.249  0.3540  0.7396  0.2564
22582SOL    HW170766   3.943   0.926   2.335 -1.0827 -0.6255  0.4301
22582SOL    HW270767   3.885   0.896   2.198  0.5161 -0.9722 -0.1722
22583SOL     OW70768   5.715   5.337   2.650  0.0507 -0.1352  0.4395
22583SOL    HW170769   5.758   5.304   2.729 -0.4963 -3.1096 -0.4416
22583SOL    HW270770   5.787   5.353   2.588  0.1331 -2.5258 -0.1151
22584SOL     OW70771   3.201   6.696   0.992  0.8642  0.5486  0.0438
22584SOL    HW170772   3.120   6.709   1.040  0.8204 -2.4183  0.8226
22584SOL    HW270773   3.176   6.645   0.915  1.5235  2.2872 -1.3876
22585SOL     OW70774   5.033   7.795   2.168 -0.7428  0.3864  0.1301
22585SOL    HW170775   4.997   7.778   2.080  1.5081 -3.9681 -0.0316
22585SOL    HW270776   5.127   7.804   2.154 -0.5812  1.7070  1.9023
22586SOL     OW70777   0.051   3.989   4.585  0.2297 -0.4702 -0.8973
22586SOL    HW170778   0.004   3.906   4.590  0.7808 -0.7615 -0.3462
22586SOL    HW270779  -0.011   4.054   4.617 -0.1416 -0.7028 -1.1498
22587SOL     OW70780   1.941   1.402   2.015  0.0953 -0.5482  0.0754
22587SOL    HW170781   2.020   1.390   1.962 -1.2309  0.5210 -2.2180
22587SOL    HW270782   1.885   1.328   1.990 -1.1727  0.8246 -1.2716
22588SOL     OW70783   9.132   8.536   5.834 -0.5714 -0.6431 -0.0018
22588SOL    HW170784   9.172   8.605   5.888 -0.6230  0.3201 -1.1615
22588SOL    HW270785   9.202   8.474   5.818  0.0466  0.2074 -0.6670
22589SOL     OW70786   6.975   5.144   8.279  0.4007 -0.0686  0.2061
22589SOL    HW170787   7.049   5.092   8.249 -0.6382 -1.6852  0.3584
22589SOL    HW270788   6.900   5.085   8.271 -0.4121  0.5126  2.8882
22590SOL     OW70789   8.463   9.161   0.362  0.5567 -0.3094 -0.1806
22590SOL    HW170790   8.422   9.074   0.352  0.8263 -0.4304 -0.2307
22590SOL    HW270791   8.470   9.195   0.273 -2.6464  1.1966  0.0598
22591SOL     OW70792   7.283   2.878   5.277 -0.0562 -0.5173  0.6832
22591SOL    HW170793   7.272   2.877   5.372  0.3736 -1.0452  0.7282
22591SOL    HW270794   7.351   2.812   5.260  0.8704  0.5532  0.1454
22592SOL     OW70795   0.659   8.616   7.616 -0.0342  0.3874 -0.0471
22592SOL    HW170796   0.669   8.542   7.676 -0.1917  0.8791  0.5941
22592SOL    HW270797   0.747   8.630   7.581  0.2027  0.5487  0.6091
22593SOL     OW70798   5.618   0.506   0.053 -0.2651  0.5663 -0.3300
22593SOL    HW170799   5.547   0.455   0.015  0.5842 -0.0226 -1.1246
22593SOL    HW270800   5.657   0.552  -0.021  0.6781  0.2846 -0.0023
22594SOL     OW70801   2.202   5.400   7.671  0.8359 -0.2584 -0.7844
22594SOL    HW170802   2.115   5.360   7.661  0.6089  0.1447 -0.4105
22594SOL    HW270803   2.240   5.395   7.583  0.2241  0.0484 -1.0697
22595SOL     OW70804   2.162   6.193   1.856 -0.0834  0.5476  0.2559
22595SOL    HW170805   2.085   6.145   1.887 -0.5512  1.4270  0.4542
22595SOL    HW270806   2.188   6.147   1.776 -0.5076 -0.0576  0.4607
22596SOL     OW70807   6.104   5.519   3.588 -0.1077  0.2229 -0.2254
22596SOL    HW170808   6.093   5.554   3.500 -1.6079 -0.6770 -0.4200
22596SOL    HW270809   6.031   5.557   3.638 -0.3621 -0.7241  0.1468
22597SOL     OW70810   0.186   5.771   7.725  0.2658  0.1655 -0.4464
22597SOL    HW170811   0.240   5.735   7.655 -0.2630  2.6629 -2.1945
22597SOL    HW270812   0.167   5.861   7.698 -0.8061  0.8703  2.4222
22598SOL     OW70813   2.583   0.979   5.061 -0.1067  0.4732 -0.4080
22598SOL    HW170814   2.566   0.934   5.144  1.1803 -0.3986 -0.6179
22598SOL    HW270815   2.669   1.019   5.073 -0.5378  1.5624 -0.8140
22599SOL     OW70816   5.586   1.006   6.517 -0.0395  0.4298  0.6295
22599SOL    HW170817   5.621   1.048   6.438 -1.7832 -0.2898 -0.5507
22599SOL    HW270818   5.502   0.971   6.490 -0.9527  0.7138  2.9892
22600SOL     OW70819   1.366   6.738   8.592  0.2185  0.1054  0.3508
22600SOL    HW170820   1.422   6.724   8.669  1.3826  1.9227 -0.1425
22600SOL    HW270821   1.378   6.659   8.539  1.5278  0.0308  0.7344
22601SOL     OW70822   2.770   5.474   6.118  0.1112 -0.2768 -0.7067
22601SOL    HW170823   2.696   5.414   6.109 -0.8154  0.6507  0.4746
22601SOL    HW270824   2.739   5.557   6.081 -0.4401  0.8923  2.2492
22602SOL     OW70825   5.063   0.889   0.174  0.0364 -0.5452  0.5266
22602SOL    HW170826   5.025   0.818   0.225  0.4991  0.6423  2.5783
22602SOL    HW270827   5.124   0.932   0.234 -1.5260  2.6735 -0.0494
22603SOL     OW70828   2.230   6.447   8.398  0.0283  0.3602 -0.0722
22603SOL    HW170829   2.308   6.435   8.345  0.1436  0.9939 -0.0566
22603SOL    HW270830   2.175   6.506   8.347 -0.6388 -0.4406 -0.2831
22604SOL     OW70831   0.815   4.377   7.949  0.6432 -0.0417  0.1638
22604SOL    HW170832   0.881   4.444   7.931  0.6488 -0.6950 -2.4263
22604SOL    HW270833   0.757   4.379   7.873 -0.2631 -1.9057  0.7714
22605SOL     OW70834   1.619   4.582   5.824  0.7105 -0.4284  0.5735
22605SOL    HW170835   1.683   4.511   5.818  0.4344 -0.6356  0.0428
22605SOL    HW270836   1.666   4.660   5.794  0.9752 -0.4126  1.0325
22606SOL     OW70837   2.077   5.005   2.554 -0.6976 -0.1572 -0.2180
22606SOL    HW170838   2.166   4.971   2.556 -0.9479 -0.8091 -0.1225
22606SOL    HW270839   2.046   4.988   2.465 -0.5329  0.5734 -0.4184
22607SOL     OW70840   5.991   8.675   3.466  0.0840 -0.0252  0.3634
22607SOL    HW170841   5.969   8.764   3.493  2.0697  0.5299  0.1765
22607SOL    HW270842   6.086   8.670   3.472  0.1150 -1.6827 -1.0207
22608SOL     OW70843   7.268   4.082   2.899 -0.1979  0.0652 -0.0606
22608SOL    HW170844   7.280   3.993   2.866  1.3782  0.2052  0.0583
22608SOL    HW270845   7.259   4.136   2.821 -0.0581 -0.0707 -0.1721
22609SOL     OW70846   1.425   7.573   1.386  0.6236 -0.0372  0.3540
22609SOL    HW170847   1.420   7.646   1.324 -0.3827  1.0812  1.7247
22609SOL    HW270848   1.360   7.594   1.452 -0.7978 -2.9894 -0.0593
22610SOL     OW70849   0.813   5.820   3.455 -0.1488  0.3789 -0.9219
22610SOL    HW170850   0.726   5.854   3.437 -0.4272 -0.1670 -0.6394
22610SOL    HW270851   0.810   5.796   3.548  0.4111  0.6844 -0.8230
22611SOL     OW70852   3.256   9.247   0.900  0.0984 -0.0733  0.1819
22611SOL    HW170853   3.346   9.220   0.882 -0.2949 -0.1643 -1.6556
22611SOL    HW270854   3.225   9.288   0.819 -1.1086  1.0987  1.1896
22612SOL     OW70855   8.515   6.150   9.015  0.2343  0.2744 -0.2624
22612SOL    HW170856   8.444   6.214   9.006 -1.2465 -1.2494  0.3433
22612SOL    HW270857   8.595   6.203   9.015 -1.0209  2.2476  1.5922
22613SOL     OW70858   7.134   0.542   4.203 -0.0512 -0.0570  0.0632
22613SOL    HW170859   7.173   0.502   4.281 -0.0613  0.2009  0.2002
22613SOL    HW270860   7.201   0.603   4.171  1.2880 -2.5021 -1.9949
22614SOL     OW70861   3.267   7.123   4.537 -0.2907 -0.4339  0.2824
22614SOL    HW170862   3.322   7.078   4.601 -1.6860 -2.6472 -0.0061
22614SOL    HW270863   3.321   7.131   4.459  0.2370 -0.8978  0.6048
22615SOL     OW70864   5.284   8.802   7.501 -0.5862 -0.0221  0.2429
22615SOL    HW170865   5.206   8.780   7.451 -0.9027  0.9043  0.3189
22615SOL    HW270866   5.262   8.884   7.546  1.3921  1.7660 -1.9162
22616SOL     OW70867   7.671   5.755   0.210  0.3598 -0.6297  0.1609
22616SOL    HW170868   7.737   5.712   0.265 -0.2302 -0.5051  0.9725
22616SOL    HW270869   7.719   5.824   0.164  1.0465 -1.3239 -0.1803
22617SOL     OW70870   9.268   2.928   4.631 -0.2656 -0.6817 -0.5530
22617SOL    HW170871   9.357   2.913   4.664  0.5440 -0.4925 -2.5948
22617SOL    HW270872   9.212   2.915   4.708  1.4447 -1.6931  0.5683
22618SOL     OW70873   2.310   0.835   6.836 -0.0402  0.1060 -0.5168
22618SOL    HW170874   2.242   0.792   6.784 -0.3591  0.1377 -0.1329
22618SOL    HW270875   2.268   0.915   6.869  0.0248 -0.1269  0.1311
22619SOL     OW70876   3.920   8.084   1.811 -0.1010 -0.2938 -0.3422
22619SOL    HW170877   3.944   7.993   1.793  1.6836  0.1488 -0.2600
22619SOL    HW270878   3.988   8.136   1.768 -1.1907  1.0241 -0.5361
22620SOL     OW70879   7.836   6.031   3.229 -0.5508 -0.4274 -0.0518
22620SOL    HW170880   7.774   6.091   3.269  0.0314  0.6173 -0.7014
22620SOL    HW270881   7.921   6.073   3.242 -0.1380 -1.1332 -0.4728
22621SOL     OW70882   6.245   8.927   1.968  0.1854 -0.0945  0.0513
22621SOL    HW170883   6.204   8.843   1.990  1.0913 -0.6142 -0.2460
22621SOL    HW270884   6.250   8.926   1.872  0.5061  0.1513  0.0656
22622SOL     OW70885   0.484   8.688   3.099 -0.2133  0.4998  0.5459
22622SOL    HW170886   0.560   8.733   3.062  0.0516  1.7220  2.5018
22622SOL    HW270887   0.514   8.655   3.184 -0.7977 -2.2675 -0.2471
22623SOL     OW70888   3.307   6.341   2.670 -0.1841  0.1727 -0.5693
22623SOL    HW170889   3.379   6.394   2.705 -1.2200  1.6564 -0.6688
22623SOL    HW270890   3.301   6.365   2.578 -1.0610  0.3341 -0.4751
22624SOL     OW70891   0.110   4.063   0.373  0.0956  0.5001  0.3832
22624SOL    HW170892   0.029   4.094   0.413 -0.4965 -0.2917 -0.1960
22624SOL    HW270893   0.170   4.137   0.382 -0.1787  0.5213  2.2519
22625SOL     OW70894   9.352   7.995   8.028 -0.4698 -0.3228 -0.3436
22625SOL    HW170895   9.317   7.916   7.986  0.6860 -0.7961 -0.4221
22625SOL    HW270896   9.411   8.033   7.963 -2.8110  1.9472 -1.2584
22626SOL     OW70897   9.181   3.970   5.349 -0.7151 -0.6530 -0.0618
22626SOL    HW170898   9.093   3.943   5.378 -1.2295  1.3451  0.2795
22626SOL    HW270899   9.171   4.061   5.322  1.2033 -0.4861 -0.2934
22627SOL     OW70900   8.402   4.183   1.470  0.2119 -0.2750  0.1293
22627SOL    HW170901   8.423   4.261   1.419  0.9448 -0.0881  0.7129
22627SOL    HW270902   8.424   4.206   1.561 -0.3408 -0.8723  0.4254
22628SOL     OW70903   9.130   9.251   3.062 -0.0987 -0.1451 -0.6140
22628SOL    HW170904   9.164   9.182   3.005 -0.1834  0.0735 -0.9350
22628SOL    HW270905   9.036   9.238   3.061 -0.2302  0.7494 -1.7118
22629SOL     OW70906   6.289   3.893   0.499 -0.5219  0.4745 -0.6115
22629SOL    HW170907   6.251   3.805   0.496 -0.1408  0.2730  0.0720
22629SOL    HW270908   6.251   3.939   0.425 -0.3475 -0.4278 -1.2775
22630SOL     OW70909   2.356   3.284   5.635  0.4173 -0.3403  0.2962
22630SOL    HW170910   2.269   3.307   5.600  0.9598 -0.9330 -1.5340
22630SOL    HW270911   2.338   3.217   5.701 -0.5931  0.1632  0.5439
22631SOL     OW70912   1.741   3.922   3.056 -0.0426 -0.3538 -0.0597
22631SOL    HW170913   1.720   3.861   2.985  1.3000 -1.5186  0.5170
22631SOL    HW270914   1.810   3.878   3.106  0.9070  1.6059  0.4102
22632SOL     OW70915   2.505   0.948   8.258 -0.1396 -0.2129  0.3749
22632SOL    HW170916   2.520   1.041   8.241  1.6415 -0.5655 -0.0123
22632SOL    HW270917   2.530   0.904   8.177 -0.5123 -1.0779  0.7217
22633SOL     OW70918   1.280   7.096   6.579 -0.3185 -0.0738 -0.0837
22633SOL    HW170919   1.341   7.058   6.642 -0.5284 -0.8201 -0.3282
22633SOL    HW270920   1.250   7.022   6.526 -0.5571  0.4628 -0.7131
22634SOL     OW70921   7.151   4.736   3.328 -0.0961 -0.1163 -0.0906
22634SOL    HW170922   7.069   4.749   3.279 -0.8792  0.2205  1.2788
22634SOL    HW270923   7.191   4.659   3.286 -0.7259  0.1787 -1.2753
22635SOL     OW70924   3.571   2.521   5.230  0.5569  0.6519  0.2327
22635SOL    HW170925   3.610   2.608   5.243 -1.1565  1.4041  0.4430
22635SOL    HW270926   3.487   2.526   5.275 -0.4759 -0.4368 -1.5372
22636SOL     OW70927   6.105   1.572   3.581  0.0126 -0.5226  0.1677
22636SOL    HW170928   6.185   1.522   3.595 -0.7822 -1.7565  0.4012
22636SOL    HW270929   6.038   1.506   3.562 -0.6525  0.5733 -1.4774
22637SOL     OW70930   7.021   8.326   2.115  0.0343 -0.1940  0.1985
22637SOL    HW170931   7.021   8.288   2.028 -0.3982  0.0440  0.0907
22637SOL    HW270932   7.105   8.370   2.123  0.3545 -0.8050  0.1612
22638SOL     OW70933   6.366   9.163   1.358  0.1543  0.0814  0.4086
22638SOL    HW170934   6.313   9.084   1.364  0.6695 -0.2923  0.1225
22638SOL    HW270935   6.445   9.143   1.409  1.8335 -0.8653 -2.4490
22639SOL     OW70936   0.236   8.312   2.432  0.1797  0.7021 -0.0457
22639SOL    HW170937   0.222   8.302   2.526  1.5259  1.5063  0.2563
22639SOL    HW270938   0.248   8.406   2.418 -1.7684  0.7969 -1.2947
22640SOL     OW70939   4.147   0.120   4.715  0.0728  0.8731 -0.0625
22640SOL    HW170940   4.189   0.144   4.633  1.2126 -0.3329  0.1510
22640SOL    HW270941   4.217   0.124   4.780 -0.8216  1.8556  0.8703
22641SOL     OW70942   9.311   5.131   8.984 -0.4899  0.4470  0.6829
22641SOL    HW170943   9.272   5.213   9.013 -1.2080  0.6701 -0.8622
22641SOL    HW270944   9.313   5.138   8.888 -0.1077 -1.1214  0.5673
22642SOL     OW70945   0.327   3.796   7.535 -0.1853  0.3185 -0.1686
22642SOL    HW170946   0.302   3.775   7.445 -0.4506  1.4663 -0.3790
22642SOL    HW270947   0.309   3.716   7.585 -0.7824 -0.0714 -0.9973
22643SOL     OW70948   5.731   4.895   2.216 -0.5195 -0.4893  0.1192
22643SOL    HW170949   5.774   4.826   2.266 -0.0482 -0.0383  0.3439
22643SOL    HW270950   5.791   4.969   2.220 -1.3134  0.1518  0.4407
22644SOL     OW70951   0.482   2.218   3.290  0.4053  0.0164 -0.1510
22644SOL    HW170952   0.509   2.155   3.224  0.6075 -0.6892  0.6004
22644SOL    HW270953   0.423   2.170   3.348 -0.8303  0.9920 -0.5787
22645SOL     OW70954   8.671   2.031   0.018 -0.0022  0.0475  0.1031
22645SOL    HW170955   8.733   1.967   0.052 -0.5887  0.2221  1.5143
22645SOL    HW270956   8.647   1.998  -0.069  0.4367 -1.1261  0.4279
22646SOL     OW70957   4.896   2.817   0.983  0.2733 -0.1937  0.0751
22646SOL    HW170958   4.915   2.849   1.071  0.4476 -1.4290  0.4968
22646SOL    HW270959   4.937   2.881   0.924  0.1345  0.6410  0.8857
22647SOL     OW70960   0.404   2.502   2.945  0.4856 -0.4055 -0.3873
22647SOL    HW170961   0.417   2.512   3.040  2.3391 -3.7367 -0.1940
22647SOL    HW270962   0.377   2.410   2.935 -2.5260  0.6696 -2.8630
22648SOL     OW70963   7.326   2.477   0.039 -0.6599 -0.4932  0.3480
22648SOL    HW170964   7.231   2.482   0.038 -0.5850  1.2303 -1.0908
22648SOL    HW270965   7.348   2.427  -0.040 -0.2610  2.7156 -1.6675
22649SOL     OW70966   4.063   8.489   1.367 -0.2444 -0.2658 -0.4592
22649SOL    HW170967   3.979   8.472   1.409  0.8793 -0.1272  1.9419
22649SOL    HW270968   4.111   8.407   1.376  1.0371  0.6266  1.0533
22650SOL     OW70969   9.056   2.916   3.105  0.5696 -0.0410 -0.5802
22650SOL    HW170970   9.051   2.830   3.148  1.4117  1.5899  2.9496
22650SOL    HW270971   9.069   2.896   3.013  0.6610 -3.7116  0.1595
22651SOL     OW70972   5.484   4.287   5.389  0.7027  0.1654 -0.0393
22651SOL    HW170973   5.471   4.194   5.373  0.8107  0.1910 -0.2772
22651SOL    HW270974   5.478   4.296   5.484  1.4575 -0.2013  0.0509
22652SOL     OW70975   1.664   1.777   7.868 -0.0262  0.6122 -0.0798
22652SOL    HW170976   1.572   1.799   7.882 -0.1694  0.3267 -0.5697
22652SOL    HW270977   1.696   1.846   7.810 -0.1190  0.2983 -0.5006
22653SOL     OW70978   8.043   3.414   5.689 -0.3436  0.1419 -0.0352
22653SOL    HW170979   8.021   3.331   5.733 -0.3657  0.5427  0.7122
22653SOL    HW270980   8.130   3.399   5.652 -0.3670 -0.2389  0.0600
22654SOL     OW70981   5.131   0.395   6.653 -0.1657  0.3285  0.6860
22654SOL    HW170982   5.054   0.410   6.599 -0.5589 -0.8301  0.9181
22654SOL    HW270983   5.139   0.300   6.659  1.4864  0.4228  0.3676
22655SOL     OW70984   6.521   2.812   0.831 -0.2958 -0.2553  0.4528
22655SOL    HW170985   6.429   2.832   0.847 -0.1514  0.3401  0.5590
22655SOL    HW270986   6.559   2.894   0.801 -0.2536 -1.0141 -1.6722
22656SOL     OW70987   6.913   1.253   2.586  0.4621  0.2524 -0.2736
22656SOL    HW170988   6.917   1.157   2.583 -1.0427  0.1726 -0.0285
22656SOL    HW270989   6.946   1.281   2.501 -0.1626 -0.5197 -0.7721
22657SOL     OW70990   2.871   7.706   0.093 -0.0865 -0.7930  0.4706
22657SOL    HW170991   2.853   7.685   0.185 -0.7504  1.5812  0.9092
22657SOL    HW270992   2.803   7.768   0.068 -0.4317 -2.0731 -1.9283
22658SOL     OW70993   2.801   1.957   8.661 -0.2833 -0.1054 -0.4120
22658SOL    HW170994   2.893   1.967   8.683  0.2955 -1.6944 -2.0018
22658SOL    HW270995   2.798   1.958   8.565 -1.8703 -0.4377 -0.3912
22659SOL     OW70996   1.394   8.975   5.846 -0.1596 -0.1266  0.5521
22659SOL    HW170997   1.371   8.928   5.926  1.9736 -1.2266  0.5723
22659SOL    HW270998   1.442   9.052   5.876 -0.2733  0.0137  0.3743
22660SOL     OW70999   3.700   7.137   4.835 -0.8327 -0.5713 -0.1162
22660SOL    HW171000   3.781   7.088   4.818 -1.1598 -1.3648  0.5380
22660SOL    HW271001   3.728   7.214   4.884 -0.3603 -0.3228 -0.7703
22661SOL     OW71002   1.519   3.014   1.763  0.5945  0.0123 -0.0885
22661SOL    HW171003   1.582   3.084   1.747 -0.7916  1.0929 -1.0242
22661SOL    HW271004   1.463   3.014   1.685 -1.4995  0.1410  1.3472
22662SOL     OW71005   4.996   0.412   8.092 -0.0704 -0.1465  1.1211
22662SOL    HW171006   4.946   0.412   8.010  1.7542 -0.1600 -0.0140
22662SOL    HW271007   4.991   0.502   8.123  0.2306  0.1368  0.3605
22663SOL     OW71008   5.023   2.522   3.323  0.0911 -0.1108  0.4075
22663SOL    HW171009   4.973   2.531   3.242  0.1816  4.0076  0.6639
22663SOL    HW271010   4.956   2.511   3.391 -0.4577  3.1206  0.4834
22664SOL     OW71011   0.218   1.319   2.154  0.2443 -0.0669 -0.1667
22664SOL    HW171012   0.219   1.410   2.125 -0.9535 -0.0312 -0.1268
22664SOL    HW271013   0.310   1.293   2.155  0.5826  1.1020 -0.2991
22665SOL     OW71014   4.286   5.530   1.998 -0.5062  0.0913  0.3086
22665SOL    HW171015   4.320   5.517   1.909 -1.9081 -1.5432 -0.0021
22665SOL    HW271016   4.217   5.595   1.988 -1.6816 -1.1968 -0.0501
22666SOL     OW71017   5.952   1.018   6.818  0.1393  0.8978 -0.0492
22666SOL    HW171018   5.973   0.977   6.902 -1.0087  0.1315 -0.1285
22666SOL    HW271019   5.997   1.103   6.821 -0.8278  1.3868  1.8305
22667SOL     OW71020   4.590   6.088   1.983  0.2446 -0.3949 -0.0618
22667SOL    HW171021   4.532   6.061   2.054  2.8597 -0.6756  2.0563
22667SOL    HW271022   4.630   6.007   1.952  1.9192  0.1027  0.7223
22668SOL     OW71023   7.183   5.778   2.926 -0.4384  0.6757  0.3067
22668SOL    HW171024   7.242   5.774   3.001 -0.4633 -1.5712  0.2482
22668SOL    HW271025   7.239   5.803   2.852  0.1480  0.1211  0.5602
22669SOL     OW71026   3.470   1.597   1.818 -0.2114  0.0418 -0.2887
22669SOL    HW171027   3.415   1.532   1.862  0.1368  0.7456  1.2071
22669SOL    HW271028   3.560   1.565   1.829 -0.1118  0.2622 -0.4322
22670SOL     OW71029   0.207   1.021   6.503 -0.6348  0.6615  0.0931
22670SOL    HW171030   0.299   1.037   6.523  0.0732  0.0270 -2.5030
22670SOL    HW271031   0.208   0.957   6.432 -2.9776  2.5974 -1.8046
22671SOL     OW71032   3.636   7.468   1.887  0.1699  0.4584  0.1820
22671SOL    HW171033   3.696   7.393   1.892  1.6274  1.6822  1.6224
22671SOL    HW271034   3.658   7.521   1.964 -2.0608  1.4784  0.1553
22672SOL     OW71035   5.193   9.034   6.957 -0.1074 -0.3320  0.0993
22672SOL    HW171036   5.218   9.111   7.009 -0.1565 -1.1514  1.3602
22672SOL    HW271037   5.178   8.965   7.022 -3.5377 -0.4719 -0.7584
22673SOL     OW71038   9.306   8.438   1.842 -0.1273  0.0312  0.6004
22673SOL    HW171039   9.308   8.511   1.903 -2.0837  1.5972 -1.1381
22673SOL    HW271040   9.269   8.365   1.892  1.6884  0.2339  2.2992
22674SOL     OW71041   3.194   3.607   8.939  0.1024  0.3369 -0.5917
22674SOL    HW171042   3.191   3.702   8.949 -0.3082  0.0451  2.5563
22674SOL    HW271043   3.279   3.581   8.976 -1.1842 -0.7933  1.6761
22675SOL     OW71044   4.283   5.782   0.956  0.3156 -0.3663  0.4151
22675SOL    HW171045   4.364   5.824   0.985  0.4673 -0.3321 -0.0550
22675SOL    HW271046   4.213   5.837   0.993  0.5103 -0.2367  0.5882
22676SOL     OW71047   8.092   7.654   6.317  0.1831 -0.3741  0.0033
22676SOL    HW171048   8.088   7.599   6.239  0.8281 -0.4596  0.0297
22676SOL    HW271049   8.003   7.689   6.327  0.5829  1.2592 -1.9121
22677SOL     OW71050   9.117   7.937   0.283 -0.1071 -0.3958 -0.0939
22677SOL    HW171051   9.111   8.023   0.324 -1.1012  0.5003 -2.0595
22677SOL    HW271052   9.087   7.876   0.350 -1.4979  1.0248  0.6111
22678SOL     OW71053   9.002   1.279   0.631 -0.0539  0.1850 -0.0431
22678SOL    HW171054   9.012   1.338   0.706  0.8961  0.8850 -0.7070
22678SOL    HW271055   9.074   1.217   0.639  0.1681  0.3843 -0.4880
22679SOL     OW71056   0.787   0.221   5.786  0.2988 -0.6722 -0.2489
22679SOL    HW171057   0.822   0.137   5.756  1.1658 -0.1839 -0.6184
22679SOL    HW271058   0.859   0.262   5.833  0.5601  0.7590 -1.8407
22680SOL     OW71059   0.761   7.122   9.416 -0.0390  0.1598  0.0642
22680SOL    HW171060   0.709   7.169   9.481  1.3631 -0.0815  1.3801
22680SOL    HW271061   0.768   7.183   9.342 -3.7010 -0.4925 -0.9075
22681SOL     OW71062   1.723   8.138   5.972  0.4478 -0.4643  0.4355
22681SOL    HW171063   1.683   8.223   5.989  3.1617  0.8834  0.3548
22681SOL    HW271064   1.743   8.103   6.058 -1.6740 -1.5335  0.5030
22682SOL     OW71065   5.803   7.670   3.252 -0.2522 -0.1173  0.1370
22682SOL    HW171066   5.870   7.729   3.286 -0.3084 -1.2923  2.3886
22682SOL    HW271067   5.721   7.701   3.292 -0.7783  0.2614 -1.2304
22683SOL     OW71068   9.280   5.024   8.030 -0.2727  0.3782  0.0475
22683SOL    HW171069   9.209   5.089   8.028 -0.7039 -0.0956 -2.0998
22683SOL    HW271070   9.235   4.941   8.041  0.0425  0.1948 -0.0548
22684SOL     OW71071   0.347   1.839   0.242 -0.5163 -0.3437  0.0410
22684SOL    HW171072   0.359   1.798   0.327 -1.8533 -0.0040  0.3971
22684SOL    HW271073   0.336   1.766   0.181 -0.3760 -0.5655  0.2794
22685SOL     OW71074   6.601   6.392   3.546  0.5185  0.4658 -0.1467
22685SOL    HW171075   6.553   6.313   3.521  0.0324  0.8092 -0.3191
22685SOL    HW271076   6.548   6.464   3.510  1.6641  0.8133 -1.1784
22686SOL     OW71077   0.279   6.482   5.567  0.1119  0.5011 -0.4550
22686SOL    HW171078   0.360   6.433   5.553 -0.1672 -0.3989  1.0056
22686SOL    HW271079   0.306   6.573   5.567  0.9804  0.2489 -0.9604
22687SOL     OW71080   8.765   1.388   6.635 -0.0898 -0.5402 -0.4037
22687SOL    HW171081   8.758   1.294   6.651  1.9065 -0.6481 -0.0762
22687SOL    HW271082   8.777   1.426   6.722  0.1424 -0.0887 -0.6319
22688SOL     OW71083   1.618   4.395   3.561 -0.2306 -0.2183  0.2425
22688SOL    HW171084   1.558   4.376   3.489 -1.9308  1.3811  1.1747
22688SOL    HW271085   1.565   4.382   3.640  1.1805 -0.5231  1.1536
22689SOL     OW71086   5.266   1.489   3.405 -0.3281 -0.1758  0.1303
22689SOL    HW171087   5.355   1.526   3.403 -0.4909  0.3246  1.7226
22689SOL    HW271088   5.218   1.540   3.339  1.1977 -2.1865 -2.6124
22690SOL     OW71089   7.580   4.863   9.286 -0.2393 -0.6790  0.7029
22690SOL    HW171090   7.605   4.860   9.378  1.9770 -0.9956  0.1032
22690SOL    HW271091   7.555   4.954   9.271  1.3429 -0.1579  1.1344
22691SOL     OW71092   8.320   8.980   5.072 -0.4882 -0.3372 -0.4572
22691SOL    HW171093   8.374   9.056   5.094 -0.1044 -0.6485 -0.3122
22691SOL    HW271094   8.236   8.999   5.112 -0.2626 -0.1852 -0.0478
22692SOL     OW71095   3.187   8.965   0.934 -0.0083  0.1022 -0.3717
22692SOL    HW171096   3.217   8.936   0.848 -1.3127 -0.8403 -0.5325
22692SOL    HW271097   3.170   9.059   0.922  2.0112  0.4622 -0.4913
22693SOL     OW71098   7.421   9.054   2.359 -0.2045  0.1657  0.4661
22693SOL    HW171099   7.432   8.963   2.387  0.4730  0.7945  2.3615
22693SOL    HW271100   7.510   9.089   2.357 -0.6636  1.5525  2.5556
22694SOL     OW71101   3.651   0.562   7.323 -0.4475 -0.5741 -0.1406
22694SOL    HW171102   3.703   0.566   7.403 -0.9248 -1.8311  0.2612
22694SOL    HW271103   3.712   0.533   7.255  0.3611  2.1579 -0.6319
22695SOL     OW71104   1.129   2.496   4.163 -0.4545  0.0423 -0.0420
22695SOL    HW171105   1.043   2.527   4.136 -2.0096 -3.2682  0.9128
22695SOL    HW271106   1.112   2.413   4.207  3.3355 -1.1669 -0.7074
22696SOL     OW71107   6.364   9.254   2.152  0.4736 -0.1776 -0.0592
22696SOL    HW171108   6.357   9.233   2.245  0.6867  1.1460  0.2671
22696SOL    HW271109   6.289   9.211   2.112  0.4408 -0.8472  0.7074
22697SOL     OW71110   5.104   0.657   8.847  0.3111  0.2545 -0.3448
22697SOL    HW171111   5.083   0.743   8.885  1.5964  0.0395  0.9195
22697SOL    HW271112   5.166   0.677   8.777 -0.7322  0.5038 -1.2041
22698SOL     OW71113   1.390   6.295   2.893  0.7103 -0.1638  0.3340
22698SOL    HW171114   1.395   6.355   2.968 -0.1145  1.0999 -0.6089
22698SOL    HW271115   1.475   6.305   2.849  0.4096  0.6341 -0.0647
22699SOL     OW71116   0.044   1.498   3.970  0.5465 -0.1700  0.4009
22699SOL    HW171117  -0.011   1.493   3.892  0.8271  0.7639  0.1334
22699SOL    HW271118   0.010   1.575   4.018  1.9280  0.7022 -0.0080
22700SOL     OW71119   7.527   8.782   7.962  0.2957  0.2448 -0.4711
22700SOL    HW171120   7.490   8.787   7.874 -0.7241 -0.7339 -0.1041
22700SOL    HW271121   7.558   8.871   7.980  1.4976  0.2075 -2.2383
22701SOL     OW71122   3.098   1.348   0.301 -0.2763 -0.6678 -0.2783
22701SOL    HW171123   3.078   1.261   0.265 -1.1865 -0.5091 -0.1706
22701SOL    HW271124   3.050   1.351   0.384 -1.1108  0.3320 -0.7816
22702SOL     OW71125   2.652   7.018   7.891 -0.0475 -0.5899 -0.6815
22702SOL    HW171126   2.747   7.016   7.907  0.1642  0.5622 -1.7202
22702SOL    HW271127   2.613   7.024   7.978  0.8485 -0.5094 -0.2790
22703SOL     OW71128   1.413   5.527   7.606 -0.2118  0.6329  0.1254
22703SOL    HW171129   1.332   5.510   7.653  0.4125  0.5369  1.1756
22703SOL    HW271130   1.468   5.450   7.624  0.5282  1.2074  0.3345
22704SOL     OW71131   8.534   1.838   7.858  0.3106 -0.2525 -0.4186
22704SOL    HW171132   8.609   1.786   7.887  1.2780  0.4697 -1.6060
22704SOL    HW271133   8.459   1.778   7.864  0.8896 -0.8375  1.2224
22705SOL     OW71134   4.136   1.200   5.557  0.0383 -0.0337  0.6614
22705SOL    HW171135   4.145   1.134   5.489  0.8898  0.7897 -0.0451
22705SOL    HW271136   4.159   1.155   5.638  1.2288 -0.4458  0.0974
22706SOL     OW71137   3.363   7.152   0.431  0.0637 -0.0326 -0.1453
22706SOL    HW171138   3.333   7.243   0.427  0.2308  0.0227 -0.1443
22706SOL    HW271139   3.409   7.140   0.348  0.0124 -0.1272 -0.1596
22707SOL     OW71140   0.025   4.523   5.409  0.5251  0.8904  0.1601
22707SOL    HW171141   0.063   4.482   5.487  1.1529  0.1815 -0.5136
22707SOL    HW271142   0.099   4.539   5.352 -0.2064 -0.7902 -1.3009
22708SOL     OW71143   1.805   2.646   1.984 -0.6336 -0.4769  0.3418
22708SOL    HW171144   1.716   2.657   2.016 -0.5435 -0.3409  0.5468
22708SOL    HW271145   1.861   2.666   2.059 -0.4168  0.1730  0.0189
22709SOL     OW71146   2.552   5.402   5.062 -0.5715  0.7815 -0.1428
22709SOL    HW171147   2.611   5.439   4.997  0.6481 -1.2502 -0.2148
22709SOL    HW271148   2.563   5.460   5.139  1.1181  0.7434 -0.3306
22710SOL     OW71149   2.437   5.564   2.353  0.3067 -0.5300 -0.0790
22710SOL    HW171150   2.374   5.601   2.291 -0.9777 -0.5317  1.1988
22710SOL    HW271151   2.515   5.617   2.342 -0.5002  0.6055 -0.4719
22711SOL     OW71152   1.688   1.366   7.027  0.0416  0.4532 -0.4209
22711SOL    HW171153   1.749   1.327   7.089 -0.6901 -0.9931 -0.5891
22711SOL    HW271154   1.671   1.297   6.963 -1.5353  0.9322 -0.5435
22712SOL     OW71155   1.031   3.660   3.262 -0.1638  0.4815 -0.6368
22712SOL    HW171156   0.989   3.744   3.276 -3.6848 -1.0288 -1.4912
22712SOL    HW271157   1.017   3.641   3.169 -3.3437 -2.9322  0.4118
22713SOL     OW71158   1.198   1.286   4.607  0.5821  0.3560 -0.7413
22713SOL    HW171159   1.184   1.214   4.669  0.8466  1.6030  0.8136
22713SOL    HW271160   1.199   1.244   4.521 -2.0177 -1.1362 -0.0986
22714SOL     OW71161   2.033   7.835   3.092  0.5279 -0.5431  0.0583
22714SOL    HW171162   2.020   7.745   3.063  0.6046 -0.8244  0.8717
22714SOL    HW271163   1.949   7.878   3.076 -0.2101 -1.3253  1.6353
22715SOL     OW71164   2.484   6.964   7.397  0.4001 -0.2754  0.2211
22715SOL    HW171165   2.395   6.930   7.389  0.8219 -1.5669  0.8753
22715SOL    HW271166   2.520   6.919   7.474  1.7997 -0.1944 -0.3662
22716SOL     OW71167   1.427   7.875   3.998  0.2132 -0.5600  0.1055
22716SOL    HW171168   1.470   7.935   3.936  0.6127 -1.5259 -0.5556
22716SOL    HW271169   1.489   7.867   4.070 -0.5017  1.0251  0.9171
22717SOL     OW71170   2.111   4.898   8.410  0.4336  0.6754  0.1130
22717SOL    HW171171   2.031   4.917   8.362  0.3843  0.7891  0.2407
22717SOL    HW271172   2.181   4.933   8.355  0.3565  1.0744  0.2643
22718SOL     OW71173   5.980   4.090   6.644  0.4481  0.3462  0.4492
22718SOL    HW171174   6.030   4.164   6.609 -0.8755 -0.6819 -3.9838
22718SOL    HW271175   5.892   4.124   6.657  0.8851  0.6660  2.7454
22719SOL     OW71176   4.785   3.434   4.917 -0.5596 -0.8328 -0.0385
22719SOL    HW171177   4.689   3.431   4.917 -0.5826 -0.1977  0.3429
22719SOL    HW271178   4.809   3.411   5.007 -0.2526 -3.5435 -0.7621
22720SOL     OW71179   5.815   8.805   6.128  0.5888 -0.3638  0.6546
22720SOL    HW171180   5.862   8.869   6.181  0.4116  0.9176 -0.6890
22720SOL    HW271181   5.799   8.731   6.187  2.8853 -0.1706  1.5713
22721SOL     OW71182   8.332   4.941   7.241 -0.1007 -0.2923  0.0262
22721SOL    HW171183   8.308   4.949   7.333  1.0932 -2.2923  0.5292
22721SOL    HW271184   8.249   4.921   7.197 -1.1191  3.0480  0.2725
22722SOL     OW71185   8.941   3.046   2.044 -0.1747  0.9690  0.1729
22722SOL    HW171186   8.934   2.958   2.007  0.8312  1.1555 -0.4840
22722SOL    HW271187   8.854   3.065   2.078 -0.9487  0.5099 -1.4852
22723SOL     OW71188   5.285   0.788   8.081  0.7490 -0.0933  0.0727
22723SOL    HW171189   5.271   0.858   8.017 -0.3206 -1.0548 -0.7808
22723SOL    HW271190   5.298   0.833   8.164 -2.1671  1.0839 -0.0505
22724SOL     OW71191   5.061   6.034   2.037 -0.0845  0.1917 -0.4914
22724SOL    HW171192   5.014   5.970   2.090 -0.4614 -0.2068 -1.2851
22724SOL    HW271193   5.029   6.019   1.948  1.6989 -0.2001 -1.0755
22725SOL     OW71194   3.169   7.755   2.805 -0.5563  0.0616 -0.4086
22725SOL    HW171195   3.082   7.787   2.784 -0.7941  0.9201  1.7980
22725SOL    HW271196   3.221   7.834   2.820  1.2461 -0.3268 -3.8817
22726SOL     OW71197   9.147   1.699   2.061  0.2444 -0.1274 -0.1670
22726SOL    HW171198   9.208   1.746   2.005 -0.4793  0.7259 -0.2579
22726SOL    HW271199   9.183   1.710   2.150  1.1187 -1.0558 -0.3992
22727SOL     OW71200   1.227   5.361   0.559  0.0015  0.5728 -0.5499
22727SOL    HW171201   1.299   5.387   0.617 -2.1637  0.2813  2.4190
22727SOL    HW271202   1.229   5.265   0.561  0.3426  0.5592 -1.5336
22728SOL     OW71203   2.378   4.074   2.382  0.0199 -0.9463 -0.4359
22728SOL    HW171204   2.349   4.004   2.440  0.3839 -0.4780  0.3210
22728SOL    HW271205   2.367   4.154   2.434  3.2351 -0.8033  0.1312
22729SOL     OW71206   6.617   5.148   0.262  0.2547 -0.0430 -0.4687
22729SOL    HW171207   6.557   5.129   0.335  0.5886 -0.9504 -0.4214
22729SOL    HW271208   6.671   5.069   0.255  1.8419  1.0006 -0.1366
22730SOL     OW71209   3.100   2.618   5.331  0.4340 -0.1189  0.2707
22730SOL    HW171210   3.117   2.527   5.306 -0.6407 -0.0283 -0.8170
22730SOL    HW271211   3.030   2.612   5.397 -0.0032 -0.0524 -0.1840
22731SOL     OW71212   5.733   2.043   0.669 -0.1088  0.5230 -0.1187
22731SOL    HW171213   5.752   2.109   0.736 -1.2681  0.8297 -0.0847
22731SOL    HW271214   5.801   1.976   0.682 -1.2507 -0.2122  2.4244
22732SOL     OW71215   4.146   1.362   5.164  0.5075  0.8038  0.1911
22732SOL    HW171216   4.229   1.340   5.121  0.3153  1.0736 -0.3192
22732SOL    HW271217   4.119   1.281   5.206  1.9553  1.1802  1.9242
22733SOL     OW71218   8.821   0.611   4.436  0.6080  0.4236  0.1770
22733SOL    HW171219   8.896   0.648   4.483  2.4219 -1.4358 -1.1512
22733SOL    HW271220   8.796   0.535   4.488  1.6583 -0.7560 -0.9906
22734SOL     OW71221   4.739   5.591   7.301  0.2188  0.0427  0.0723
22734SOL    HW171222   4.824   5.554   7.325 -0.4748 -1.1055  0.8177
22734SOL    HW271223   4.748   5.685   7.316  1.7786  0.1001 -1.1619
22735SOL     OW71224   5.974   5.379   2.552  0.1373 -0.3452 -0.4043
22735SOL    HW171225   6.017   5.321   2.488  1.1142 -0.5533  0.4198
22735SOL    HW271226   6.031   5.375   2.629  0.6746  2.3731 -0.6083
22736SOL     OW71227   2.897   1.465   0.589  0.1972  0.0247 -0.0878
22736SOL    HW171228   2.928   1.422   0.669  1.3155  0.5486 -0.2366
22736SOL    HW271229   2.907   1.558   0.606 -0.2161  0.1638 -0.5893
22737SOL     OW71230   2.272   3.349   7.443  0.0847  0.3324  0.4526
22737SOL    HW171231   2.182   3.326   7.418 -0.4489  2.7024  0.0973
22737SOL    HW271232   2.313   3.265   7.462 -1.8928 -0.8832 -0.4307
22738SOL     OW71233   8.715   7.128   5.800 -0.1189  0.1262  0.3230
22738SOL    HW171234   8.703   7.223   5.810 -0.3840  0.1683 -0.4350
22738SOL    HW271235   8.810   7.116   5.799 -0.0534  0.7228 -2.8398
22739SOL     OW71236   5.773   1.054   3.421 -0.5101  0.3003  0.2557
22739SOL    HW171237   5.768   1.036   3.515 -0.4460 -0.9516  0.0251
22739SOL    HW271238   5.861   1.090   3.409 -0.6163  0.7204  0.7159
22740SOL     OW71239   0.321   2.286   7.607  0.6543  0.0371  0.0339
22740SOL    HW171240   0.326   2.237   7.525  0.7497 -1.0391  0.6802
22740SOL    HW271241   0.261   2.358   7.589 -1.8985 -2.0504 -0.0191
22741SOL     OW71242   1.446   3.548   1.669  0.6219 -0.6994  0.0029
22741SOL    HW171243   1.505   3.622   1.658 -0.1777 -0.1556 -0.6830
22741SOL    HW271244   1.413   3.555   1.758  1.7334 -1.1199  0.4593
22742SOL     OW71245   5.172   1.111   4.984 -0.0592  0.4894 -0.0313
22742SOL    HW171246   5.207   1.125   4.896  0.0759 -2.9412 -0.5785
22742SOL    HW271247   5.078   1.123   4.975 -0.0601  0.0163 -0.6760
22743SOL     OW71248   8.137   6.407   3.085 -0.2334 -0.2064 -0.4131
22743SOL    HW171249   8.139   6.434   2.993  0.6796  1.3052  0.0303
22743SOL    HW271250   8.229   6.410   3.112 -0.4306 -1.2076  0.3940
22744SOL     OW71251   2.084   3.220   6.883  0.0401  0.2689 -0.3389
22744SOL    HW171252   2.019   3.242   6.817  0.3601  0.5416 -0.5673
22744SOL    HW271253   2.165   3.208   6.834  0.9084  3.1635  0.2742
22745SOL     OW71254   0.946   1.701   7.283 -0.5116 -0.0404 -0.8224
22745SOL    HW171255   1.029   1.740   7.308 -0.1247 -0.3497 -1.6267
22745SOL    HW271256   0.922   1.646   7.358 -1.4572  2.3099  0.6588
22746SOL     OW71257   3.623   2.080   4.402 -0.8109  0.3776 -0.4689
22746SOL    HW171258   3.543   2.129   4.384 -0.6096  1.1183  0.5815
22746SOL    HW271259   3.686   2.146   4.430 -0.4694 -0.4456  0.7467
22747SOL     OW71260   5.006   2.816   4.612 -0.4304 -0.3396  0.0976
22747SOL    HW171261   4.932   2.795   4.668 -1.0648  0.1430 -0.5410
22747SOL    HW271262   4.971   2.880   4.550  0.0603 -1.4397 -1.3285
22748SOL     OW71263   2.585   3.716   6.225  0.1677  0.4968 -0.0664
22748SOL    HW171264   2.517   3.770   6.264 -0.0514  0.7584 -0.7918
22748SOL    HW271265   2.664   3.738   6.273 -0.3789 -0.2978  1.2247
22749SOL     OW71266   2.311   3.176   1.259 -0.2464  0.8437 -0.2096
22749SOL    HW171267   2.275   3.262   1.238  0.7537  0.8149 -2.2673
22749SOL    HW271268   2.281   3.120   1.187 -0.7156 -0.4838  1.0051
22750SOL     OW71269   1.778   2.677   6.773  0.4295  0.4040 -0.1646
22750SOL    HW171270   1.776   2.759   6.725  1.8869  1.0300  0.8037
22750SOL    HW271271   1.691   2.640   6.762  0.2260  1.3360 -1.8711
22751SOL     OW71272   8.350   8.328   5.858 -0.2791 -0.2106  0.1138
22751SOL    HW171273   8.354   8.322   5.953 -0.1112  0.3695  0.1416
22751SOL    HW271274   8.279   8.390   5.841  0.0545  0.1048 -0.1311
22752SOL     OW71275   2.462   6.567   3.920  0.3773  0.1158 -0.0735
22752SOL    HW171276   2.539   6.512   3.907  0.1183 -0.0623 -0.9358
22752SOL    HW271277   2.464   6.629   3.847 -1.9053 -1.7958 -1.8658
22753SOL     OW71278   2.839   8.854   0.015 -0.0597 -0.7615  0.3217
22753SOL    HW171279   2.884   8.937  -0.003  2.8081 -2.1645  0.6194
22753SOL    HW271280   2.853   8.839   0.108  1.1579 -2.4886 -0.1073
22754SOL     OW71281   8.572   1.624   2.164  0.0542 -0.0373  0.0708
22754SOL    HW171282   8.502   1.605   2.102  1.4911  0.0929 -1.6276
22754SOL    HW271283   8.592   1.540   2.205  0.0993 -0.4175 -0.7226
22755SOL     OW71284   2.393   0.851   7.647  0.2015  0.2188 -0.1695
22755SOL    HW171285   2.361   0.794   7.717 -0.1498 -1.0909 -1.3831
22755SOL    HW271286   2.423   0.929   7.693  0.6318 -0.9020  1.5110
22756SOL     OW71287   5.825   2.424   2.611 -0.0879  0.4674 -0.2996
22756SOL    HW171288   5.849   2.363   2.680  0.0128 -0.1789 -0.8973
22756SOL    HW271289   5.847   2.510   2.646 -0.3809  0.1715  0.6095
22757SOL     OW71290   2.077   7.923   8.703 -0.6430  0.1626  0.1158
22757SOL    HW171291   2.093   7.837   8.742  0.8768  0.9367  1.2518
22757SOL    HW271292   2.136   7.982   8.750 -0.7274  1.6005 -1.5377
22758SOL     OW71293   4.819   3.894   1.393 -0.1727 -0.2486  0.5981
22758SOL    HW171294   4.838   3.832   1.323  0.1123  0.3109  0.1681
22758SOL    HW271295   4.735   3.933   1.368  0.4115  0.6751  0.0339
22759SOL     OW71296   7.102   2.882   9.387 -0.0765  0.4877 -0.1597
22759SOL    HW171297   7.179   2.926   9.425 -0.3823  1.7840 -1.0106
22759SOL    HW271298   7.095   2.918   9.299 -1.5616  0.2387 -0.1560
22760SOL     OW71299   7.735   5.847   6.379 -0.0973 -0.6785 -0.1644
22760SOL    HW171300   7.811   5.903   6.397 -1.3656  0.6214  1.2749
22760SOL    HW271301   7.754   5.766   6.427  0.5158 -0.4735 -0.0497
22761SOL     OW71302   4.090   1.564   8.649  0.1588  0.1810 -0.3767
22761SOL    HW171303   4.064   1.474   8.630  2.1451 -0.4845 -0.0457
22761SOL    HW271304   4.041   1.587   8.728  0.0517 -0.7969 -0.1531
22762SOL     OW71305   3.092   2.170   7.908 -0.2831  0.3808 -0.2511
22762SOL    HW171306   3.038   2.207   7.838 -1.5560 -1.1557 -0.0808
22762SOL    HW271307   3.123   2.087   7.873  1.8637  1.1578 -0.2832
22763SOL     OW71308   8.631   7.236   4.866  0.6524  0.0537 -0.1039
22763SOL    HW171309   8.651   7.218   4.958  1.0017  0.6566 -0.0598
22763SOL    HW271310   8.689   7.308   4.843  0.0732  0.3690 -0.5979
22764SOL     OW71311   8.527   1.370   3.592 -0.4282 -0.3785  0.1723
22764SOL    HW171312   8.458   1.305   3.577  0.1889 -1.1274  0.5780
22764SOL    HW271313   8.608   1.322   3.579  0.0402  0.1551  1.0892
22765SOL     OW71314   5.300   3.717   2.944  0.1186 -0.1641 -0.0271
22765SOL    HW171315   5.333   3.649   2.885  0.3699 -0.0024 -0.0741
22765SOL    HW271316   5.364   3.720   3.015  1.7603  2.1025 -1.5232
22766SOL     OW71317   3.682   9.178   7.256 -0.4079  0.9289 -0.1682
22766SOL    HW171318   3.750   9.116   7.231 -0.0206  1.9369 -1.7001
22766SOL    HW271319   3.709   9.209   7.343  0.8934  1.0140 -0.5825
22767SOL     OW71320   1.504   6.696   4.299 -0.3149  0.0772  0.0605
22767SOL    HW171321   1.590   6.670   4.331 -0.3869 -0.5513 -0.2459
22767SOL    HW271322   1.461   6.735   4.376  1.4342  3.4881 -0.5837
22768SOL     OW71323   4.922   1.631   2.207 -0.6872  0.2872 -0.0563
22768SOL    HW171324   4.890   1.712   2.247  0.2487  0.3836  0.5064
22768SOL    HW271325   4.944   1.575   2.281  3.2791  1.3337 -0.3661
22769SOL     OW71326   8.989   1.037   5.402 -0.2470 -0.0854  0.3862
22769SOL    HW171327   9.033   0.972   5.456 -0.0085 -0.5568 -0.3715
22769SOL    HW271328   9.010   1.121   5.444  0.3377 -0.4047  0.7403
22770SOL     OW71329   4.266   0.114   6.202 -0.2291 -0.1684 -0.5621
22770SOL    HW171330   4.273   0.168   6.123  1.7797 -1.6931 -1.4948
22770SOL    HW271331   4.174   0.120   6.228 -0.2895  2.7178 -1.2960
22771SOL     OW71332   1.589   4.444   8.286 -0.4097  0.5565 -0.4679
22771SOL    HW171333   1.647   4.386   8.237  0.7917  1.7084 -0.4200
22771SOL    HW271334   1.588   4.408   8.375 -1.3297 -0.5954 -0.9231
22772SOL     OW71335   6.891   2.337   6.444 -0.1227  0.6038  0.1045
22772SOL    HW171336   6.854   2.410   6.494  0.6092  0.7342  0.4640
22772SOL    HW271337   6.973   2.372   6.409 -1.2919  0.9798 -2.3775
22773SOL     OW71338   7.554   1.128   7.580 -0.2387 -0.1059  0.4709
22773SOL    HW171339   7.485   1.139   7.646 -0.1651  0.3439  0.4783
22773SOL    HW271340   7.516   1.163   7.500  0.4031  1.2676  0.7481
22774SOL     OW71341   2.611   8.089   8.709  0.7494 -0.1933 -0.5187
22774SOL    HW171342   2.678   8.040   8.662 -1.0155 -1.4434 -1.7887
22774SOL    HW271343   2.531   8.075   8.658 -0.9117 -0.4068  2.0654
22775SOL     OW71344   0.360   8.480   0.002  0.0043 -0.1501 -0.5130
22775SOL    HW171345   0.389   8.424   0.073 -1.9368 -3.4913 -2.1927
22775SOL    HW271346   0.402   8.443  -0.076 -0.8839  1.0442 -1.5813
22776SOL     OW71347   9.344   0.266   2.152 -0.5193 -0.7502  0.7562
22776SOL    HW171348   9.295   0.223   2.222 -3.8570 -0.7539 -1.4497
22776SOL    HW271349   9.359   0.355   2.184 -0.2914 -1.3317  2.2602
22777SOL     OW71350   0.633   3.197   4.516 -0.0829 -0.4106 -0.6395
22777SOL    HW171351   0.662   3.148   4.439 -1.0480  1.0587 -1.9581
22777SOL    HW271352   0.666   3.286   4.502  3.0853 -0.9616  2.5110
22778SOL     OW71353   6.731   2.288   3.212 -0.7794  0.0233  0.0900
22778SOL    HW171354   6.810   2.239   3.190 -0.8155  0.5150 -1.1608
22778SOL    HW271355   6.728   2.287   3.308  0.1512 -0.9265  0.1131
22779SOL     OW71356   6.942   4.043   6.988 -0.4176 -0.2725  0.4773
22779SOL    HW171357   6.986   4.098   7.052 -2.0881 -0.1599  1.5575
22779SOL    HW271358   6.996   3.964   6.983 -0.0192 -0.0778  1.6592
22780SOL     OW71359   2.509   5.176   5.842 -0.7760  0.3760  0.0356
22780SOL    HW171360   2.581   5.146   5.787 -0.0750  1.6631  0.2344
22780SOL    HW271361   2.430   5.161   5.789 -0.2431  0.1528 -0.6978
22781SOL     OW71362   7.624   2.862   0.388  0.4657 -0.0170 -0.1690
22781SOL    HW171363   7.613   2.778   0.434  3.4083 -0.3131  0.1112
22781SOL    HW271364   7.607   2.928   0.455 -1.0581 -0.3775 -0.1815
22782SOL     OW71365   4.685   3.030   9.093  0.6894  0.0795  0.1412
22782SOL    HW171366   4.617   3.007   9.029  0.6224  0.7153 -0.0224
22782SOL    HW271367   4.637   3.042   9.175  1.0326 -2.7948  0.8116
22783SOL     OW71368   0.196   3.279   1.587  0.8430  0.3970  0.0399
22783SOL    HW171369   0.280   3.243   1.615  1.0269 -0.1953 -1.2428
22783SOL    HW271370   0.131   3.218   1.624  1.0949 -0.5236 -1.0343
22784SOL     OW71371   7.486   6.130   0.635 -0.1936 -0.1389  0.4553
22784SOL    HW171372   7.524   6.180   0.563  0.6032 -1.0994  0.1925
22784SOL    HW271373   7.393   6.153   0.634 -0.0717  0.3448 -0.4708
22785SOL     OW71374   0.793   6.670   0.121 -0.1513 -0.7587 -0.3347
22785SOL    HW171375   0.779   6.739   0.055  0.4227 -0.5015 -0.1957
22785SOL    HW271376   0.769   6.712   0.203 -0.6217 -0.9981 -0.3519
22786SOL     OW71377   5.044   5.578   4.117  0.0981 -0.0927 -1.2363
22786SOL    HW171378   5.083   5.557   4.202 -0.7154 -1.9110 -1.2859
22786SOL    HW271379   5.072   5.668   4.099  0.1753  0.3679  1.0144
22787SOL     OW71380   0.457   1.548   4.569  0.6173  0.0520 -0.3207
22787SOL    HW171381   0.530   1.609   4.579  0.4629  0.3038 -0.7234
22787SOL    HW271382   0.380   1.597   4.597  0.4513  0.1438 -0.9207
22788SOL     OW71383   8.279   6.184   0.432  0.0769  0.7157 -0.5619
22788SOL    HW171384   8.216   6.208   0.364  0.0830 -0.2983 -0.9390
22788SOL    HW271385   8.247   6.100   0.466  0.9396  0.4441 -0.4078
22789SOL     OW71386   7.847   3.849   9.075 -0.2625  0.0644 -0.0486
22789SOL    HW171387   7.771   3.894   9.039 -0.1508  0.9362  0.7991
22789SOL    HW271388   7.834   3.852   9.170  0.0145 -1.2257  0.0466
22790SOL     OW71389   5.163   1.040   3.272 -0.6051  0.1864 -0.2511
22790SOL    HW171390   5.097   0.976   3.247 -0.3209 -0.1259 -0.2039
22790SOL    HW271391   5.230   0.989   3.318 -0.8493  0.6599  0.6495
22791SOL     OW71392   6.257   4.696   5.046  0.3185  0.0104  0.1468
22791SOL    HW171393   6.322   4.677   5.113  1.8752 -2.4468 -1.9402
22791SOL    HW271394   6.243   4.612   5.003 -0.3372  1.5861 -2.8314
22792SOL     OW71395   1.960   1.368   6.137  0.9154  0.3250 -0.5376
22792SOL    HW171396   2.049   1.400   6.155  0.5498 -0.3205  2.7005
22792SOL    HW271397   1.965   1.334   6.048  3.7181  0.9961 -0.7007
22793SOL     OW71398   1.618   1.351   5.333  0.3879  0.2839  0.8832
22793SOL    HW171399   1.685   1.403   5.288  0.0138 -1.0386 -1.2475
22793SOL    HW271400   1.536   1.373   5.288 -0.1184 -0.5369  1.3890
22794SOL     OW71401   2.115   8.057   8.118 -0.0810  0.4802 -0.6714
22794SOL    HW171402   2.173   8.056   8.195 -0.5823 -0.8176 -0.2950
22794SOL    HW271403   2.048   8.122   8.139 -1.5241 -1.4884  1.0080
22795SOL     OW71404   3.759   3.310   6.808 -0.1536 -0.7877 -0.0767
22795SOL    HW171405   3.772   3.264   6.891 -0.3362  1.5001  1.2573
22795SOL    HW271406   3.847   3.321   6.772  0.1478  0.1610  0.9172
22796SOL     OW71407   1.243   0.517   2.608  0.0293  0.8687  0.1072
22796SOL    HW171408   1.312   0.553   2.554 -0.2926  3.3178  1.2890
22796SOL    HW271409   1.201   0.593   2.648 -2.0711 -0.6896  0.9442
22797SOL     OW71410   8.933   7.693   7.903  0.7364 -0.2595  0.1168
22797SOL    HW171411   8.936   7.785   7.878 -1.6444  0.0226  0.7577
22797SOL    HW271412   8.881   7.652   7.834 -0.4439 -0.6296  1.2157
22798SOL     OW71413   6.608   7.980   6.576  0.0501 -0.3343 -0.5353
22798SOL    HW171414   6.671   7.926   6.622  0.5689 -0.4036 -1.3143
22798SOL    HW271415   6.641   8.069   6.585  1.5511 -0.5946 -2.9081
22799SOL     OW71416   0.781   7.668   6.494 -0.3094 -0.6672 -0.1973
22799SOL    HW171417   0.718   7.688   6.564  0.7342  1.0748  0.2901
22799SOL    HW271418   0.837   7.746   6.490 -0.5227 -0.6391 -3.1826
22800SOL     OW71419   0.189   2.544   7.498 -0.0986 -0.1674 -0.3382
22800SOL    HW171420   0.095   2.546   7.516 -0.3456  1.6889 -1.6823
22800SOL    HW271421   0.201   2.469   7.440 -0.5062 -1.2968  0.9998
22801SOL     OW71422   8.705   0.026   7.414  0.2146  0.1261 -0.7302
22801SOL    HW171423   8.720  -0.057   7.460  1.2928 -0.0445 -1.3673
22801SOL    HW271424   8.621   0.013   7.368 -0.8262  0.2791  1.1019
22802SOL     OW71425   7.933   6.780   3.658 -0.3781  0.0522 -0.4491
22802SOL    HW171426   7.850   6.794   3.703 -0.2913  0.7553 -0.5113
22802SOL    HW271427   7.983   6.724   3.718 -0.2779  0.9532  0.3264
22803SOL     OW71428   6.473   5.199   4.002 -0.2560  0.0183 -0.3755
22803SOL    HW171429   6.535   5.168   3.936  1.1968  0.4164  0.8037
22803SOL    HW271430   6.405   5.244   3.950 -1.5614 -3.6311 -1.9711
22804SOL     OW71431   2.938   0.521   6.790  0.1821 -0.3390 -0.0267
22804SOL    HW171432   3.018   0.573   6.800  0.0967  0.2480 -2.1811
22804SOL    HW271433   2.920   0.488   6.878  1.8587  0.8978  0.8121
22805SOL     OW71434   0.176   2.001   1.188 -0.1658 -0.3081  0.5541
22805SOL    HW171435   0.146   1.994   1.098  0.9243  0.9288  0.0865
22805SOL    HW271436   0.241   2.071   1.187 -0.8147  0.3635  2.4802
22806SOL     OW71437   9.187   2.237   4.977 -0.1373  0.1187  0.0092
22806SOL    HW171438   9.246   2.309   4.955  0.4800 -0.7122 -1.0644
22806SOL    HW271439   9.184   2.238   5.073  1.9968 -0.1179  0.1076
22807SOL     OW71440   8.035   2.374   1.430  0.1859 -0.2649  0.3746
22807SOL    HW171441   8.104   2.393   1.366 -0.7791 -1.0165 -0.9185
22807SOL    HW271442   7.990   2.458   1.441 -0.4700 -0.4179 -0.9646
22808SOL     OW71443   6.055   0.208   2.490 -0.9066  0.5798 -0.3004
22808SOL    HW171444   6.027   0.277   2.550  1.8502  2.6857 -1.3652
22808SOL    HW271445   6.041   0.244   2.403  0.4798 -0.1855 -0.8642
22809SOL     OW71446   0.289   4.634   2.531 -0.2551 -0.0070 -0.2971
22809SOL    HW171447   0.348   4.646   2.605 -1.2755  1.1204  0.3708
22809SOL    HW271448   0.203   4.621   2.571 -0.6202 -0.6043 -1.2639
22810SOL     OW71449   0.075   4.136   6.812 -0.0479 -0.6156 -0.0867
22810SOL    HW171450   0.154   4.163   6.859  1.2786 -0.4917 -2.3363
22810SOL    HW271451   0.061   4.203   6.746 -2.8849  0.1060  1.1514
22811SOL     OW71452   4.677   7.739   4.139 -0.0041 -0.0084  0.3401
22811SOL    HW171453   4.644   7.674   4.077 -0.5488  0.4591  0.1394
22811SOL    HW271454   4.630   7.721   4.220  0.1090 -0.0895  0.3890
22812SOL     OW71455   9.144   7.571   0.590 -0.2089  0.2519 -0.2975
22812SOL    HW171456   9.197   7.496   0.564 -0.1836  1.0316 -2.6206
22812SOL    HW271457   9.205   7.645   0.590 -0.6869  0.6497 -0.1473
22813SOL     OW71458   8.101   0.817   0.952  0.1079  0.2711  0.5297
22813SOL    HW171459   8.146   0.757   0.893  1.0276  0.9514  0.5282
22813SOL    HW271460   8.102   0.902   0.907  0.8672  0.8062  1.5209
22814SOL     OW71461   6.964   3.784   8.383  0.2002  0.4766  0.3960
22814SOL    HW171462   6.998   3.774   8.472  0.5953  1.4392  0.3611
22814SOL    HW271463   6.980   3.876   8.361 -1.1773  0.5899 -0.1476
22815SOL     OW71464   5.524   2.393   3.344  0.5371  0.1719  0.5394
22815SOL    HW171465   5.603   2.349   3.313  0.0332 -1.1151  1.0562
22815SOL    HW271466   5.550   2.484   3.357  1.6466 -0.0229 -0.3295
22816SOL     OW71467   4.228   7.273   6.746 -0.2409  0.0384 -0.1817
22816SOL    HW171468   4.223   7.365   6.719  1.0671 -0.1099 -0.9837
22816SOL    HW271469   4.231   7.224   6.664 -1.0521 -0.7398  0.2430
22817SOL     OW71470   8.078   1.924   1.876 -0.3265 -1.0936  0.1112
22817SOL    HW171471   8.154   1.978   1.854 -0.5916  0.2687  2.3573
22817SOL    HW271472   8.003   1.971   1.838 -0.2580 -1.4977 -0.5426
22818SOL     OW71473   6.258   4.454   6.149 -0.2149  0.0713 -0.5079
22818SOL    HW171474   6.347   4.488   6.135 -0.7359  1.2733 -0.9489
22818SOL    HW271475   6.257   4.371   6.102  0.8018 -0.1542 -0.1609
22819SOL     OW71476   3.459   9.324   6.620  0.4910 -0.7816 -0.0085
22819SOL    HW171477   3.476   9.338   6.526  0.2697 -2.3008 -0.2842
22819SOL    HW271478   3.364   9.329   6.628  0.4769 -1.2039  0.0528
22820SOL     OW71479   8.235   1.552   6.097  0.0714  0.1966 -0.3391
22820SOL    HW171480   8.270   1.637   6.125 -0.3879  0.9378 -1.9323
22820SOL    HW271481   8.313   1.499   6.081  0.3754  0.4459  0.3111
22821SOL     OW71482   2.805   2.052   7.840  0.0442  0.0464 -0.0083
22821SOL    HW171483   2.775   2.001   7.915 -0.1895 -1.2788 -0.9947
22821SOL    HW271484   2.811   1.989   7.768  0.9434  1.1567 -0.9343
22822SOL     OW71485   2.278   6.401   2.795 -0.0163  0.5193  0.3316
22822SOL    HW171486   2.363   6.412   2.836  0.6657 -0.8274 -0.7106
22822SOL    HW271487   2.262   6.484   2.749  2.5389 -0.6237 -2.7761
22823SOL     OW71488   8.820   9.025   7.944 -0.1698 -0.1349 -0.2946
22823SOL    HW171489   8.831   8.991   8.033 -1.0073 -0.4016 -0.2938
22823SOL    HW271490   8.902   9.072   7.926 -0.2149  0.3675  0.8046
22824SOL     OW71491   8.640   8.616   5.120  0.1290  0.2406  0.7064
22824SOL    HW171492   8.669   8.525   5.121  0.3686  0.3143  0.5721
22824SOL    HW271493   8.648   8.643   5.029  0.4926  0.5310  0.8213
22825SOL     OW71494   3.430   8.114   2.398 -0.0231  0.5015  0.0308
22825SOL    HW171495   3.428   8.074   2.485 -1.8235  0.2542 -0.1005
22825SOL    HW271496   3.338   8.129   2.377  0.4929  2.3439 -1.0167
22826SOL     OW71497   2.918   3.256   7.450  0.3402  0.3346  0.0657
22826SOL    HW171498   2.880   3.206   7.522  0.4513 -0.5666 -0.4915
22826SOL    HW271499   2.908   3.199   7.373  0.9484  0.9502 -0.4770
22827SOL     OW71500   3.293   0.956   5.464  0.8870  0.3511  0.3345
22827SOL    HW171501   3.273   0.937   5.556  0.7389  2.1039  0.6891
22827SOL    HW271502   3.210   0.942   5.418  0.2038  2.2173  0.9360
22828SOL     OW71503   2.468   9.130   4.337  0.3891  0.1010 -0.4766
22828SOL    HW171504   2.561   9.153   4.340  0.1576  1.1243 -0.9902
22828SOL    HW271505   2.467   9.039   4.310  1.2821 -0.1893  0.4085
22829SOL     OW71506   9.247   4.885   3.667 -0.6159 -0.0533 -0.4095
22829SOL    HW171507   9.208   4.852   3.749  1.2017  0.7789  0.8272
22829SOL    HW271508   9.313   4.819   3.644 -0.0635  0.4780 -0.3559
22830SOL     OW71509   7.753   2.041   1.286 -0.2029 -0.1373  0.9256
22830SOL    HW171510   7.682   2.041   1.221 -0.6654 -2.2420  1.3801
22830SOL    HW271511   7.796   2.125   1.274 -0.8459 -0.1054 -1.5083
22831SOL     OW71512   7.887   0.084   8.496  0.2152 -0.5841  0.6240
22831SOL    HW171513   7.804   0.095   8.543  0.4852  0.7311  0.8080
22831SOL    HW271514   7.954   0.087   8.564  0.5095 -0.1161  0.3159
22832SOL     OW71515   4.489   8.801   4.556 -0.1841  0.0790  0.6894
22832SOL    HW171516   4.533   8.875   4.597 -2.1936  1.1013  1.0655
22832SOL    HW271517   4.491   8.732   4.623  2.8881 -0.7307 -0.1479
22833SOL     OW71518   1.033   0.972   4.452 -0.2161 -0.1357  0.7779
22833SOL    HW171519   1.034   0.892   4.504 -0.5866  0.1530  1.2337
22833SOL    HW271520   0.941   0.982   4.425 -0.3191  0.5269  1.3455
22834SOL     OW71521   0.388   0.934   6.080 -0.1140  0.5372  0.1189
22834SOL    HW171522   0.305   0.978   6.064 -0.9787 -1.1213 -0.0641
22834SOL    HW271523   0.414   0.899   5.994 -0.9745 -1.8807  0.7824
22835SOL     OW71524   1.412   8.046   5.362 -0.4215  0.0310 -0.0835
22835SOL    HW171525   1.332   8.008   5.326  0.5359 -2.1678 -0.0104
22835SOL    HW271526   1.440   7.984   5.430  0.2748  1.7818  1.2727
22836SOL     OW71527   8.631   4.625   7.029  0.7653 -1.0265 -0.6466
22836SOL    HW171528   8.678   4.708   7.041 -1.6775  0.2961 -0.0031
22836SOL    HW271529   8.579   4.614   7.109  1.6851 -3.6421 -0.3391
22837SOL     OW71530   3.339   7.479   7.856 -0.2514 -0.3278 -0.2046
22837SOL    HW171531   3.261   7.508   7.809  0.5460  0.7421 -0.8774
22837SOL    HW271532   3.336   7.526   7.940 -0.0748  0.0775 -0.4266
22838SOL     OW71533   3.755   9.027   5.220 -0.1407  0.2958  0.2467
22838SOL    HW171534   3.816   9.049   5.290 -0.1166  2.3665 -0.3879
22838SOL    HW271535   3.724   9.111   5.188  0.0971 -0.5777 -2.4366
22839SOL     OW71536   6.370   5.267   5.838  0.3276  0.0155  0.0597
22839SOL    HW171537   6.286   5.230   5.864 -0.4425  0.3903 -1.8026
22839SOL    HW271538   6.352   5.359   5.820  0.8944 -0.1268 -1.3443
22840SOL     OW71539   2.823   0.978   0.946  0.0122  0.2208 -0.0028
22840SOL    HW171540   2.879   1.010   0.876  0.4966 -0.3453  0.1276
22840SOL    HW271541   2.735   0.977   0.908  0.4674 -1.4484 -1.0837
22841SOL     OW71542   5.522   2.422   0.069  1.0668 -0.1171  0.2956
22841SOL    HW171543   5.588   2.450   0.006 -1.0088 -0.9465 -2.3255
22841SOL    HW271544   5.509   2.329   0.050  1.6144 -0.8372  3.1283
22842SOL     OW71545   2.060   7.954   7.872  0.4367  0.0258  0.0211
22842SOL    HW171546   2.135   7.990   7.824  1.7239 -0.9126  1.2712
22842SOL    HW271547   2.059   8.003   7.954  1.2457 -1.6645  1.0710
22843SOL     OW71548   1.588   5.450   6.722  0.0003 -0.4901 -0.3190
22843SOL    HW171549   1.638   5.440   6.641  0.0509 -0.9209 -0.2313
22843SOL    HW271550   1.601   5.369   6.770 -0.5567 -0.4997 -0.1702
22844SOL     OW71551   1.974   2.513   6.924 -0.0267  0.1554 -0.2501
22844SOL    HW171552   1.923   2.593   6.915  2.1498  1.5874 -0.4285
22844SOL    HW271553   1.983   2.481   6.834  0.5728  0.6870 -0.3844
22845SOL     OW71554   4.531   1.681   1.282 -0.0458 -0.2389 -0.1991
22845SOL    HW171555   4.562   1.770   1.262 -0.8995  0.3839  1.1327
22845SOL    HW271556   4.608   1.635   1.314  0.6967 -0.3941 -2.1564
22846SOL     OW71557   8.355   4.380   5.029 -0.8732 -0.1689 -0.0934
22846SOL    HW171558   8.327   4.296   4.992  0.4389 -0.2098 -1.0506
22846SOL    HW271559   8.441   4.361   5.068 -1.1064  0.4655  0.7244
22847SOL     OW71560   3.018   2.727   6.639 -0.0889  0.3341  0.3104
22847SOL    HW171561   3.007   2.726   6.544  1.0856  0.1133  0.1713
22847SOL    HW271562   3.097   2.675   6.655 -1.0716 -0.8412  1.5191
22848SOL     OW71563   6.870   5.704   9.298 -0.2718 -0.5043 -0.0244
22848SOL    HW171564   6.925   5.626   9.302 -0.3093 -0.5484 -0.4151
22848SOL    HW271565   6.913   5.760   9.233 -2.4996 -1.9050 -2.8052
22849SOL     OW71566   1.616   7.672   5.072  0.3138 -0.3370  0.1830
22849SOL    HW171567   1.640   7.763   5.052  2.2325 -0.4024  2.0140
22849SOL    HW271568   1.552   7.679   5.143 -0.4507 -0.3811 -0.4985
22850SOL     OW71569   3.314   6.425   7.731  0.1304  0.0983  0.5511
22850SOL    HW171570   3.283   6.369   7.802 -1.1240 -0.5183 -0.4723
22850SOL    HW271571   3.281   6.384   7.651  0.8214  1.2391 -0.3360
22851SOL     OW71572   5.671   2.243   1.825  0.7476 -0.2354 -0.2859
22851SOL    HW171573   5.637   2.154   1.829  0.6649 -0.2542 -1.4407
22851SOL    HW271574   5.764   2.235   1.847  0.2934 -0.3256  1.7461
22852SOL     OW71575   0.865   1.945   7.130 -0.2376 -0.0161 -0.3004
22852SOL    HW171576   0.831   1.967   7.043  1.8874  1.5468 -0.7806
22852SOL    HW271577   0.946   1.897   7.113 -0.5525 -0.9719  0.8289
22853SOL     OW71578   3.215   3.048   0.645  0.2616  0.0005  0.2940
22853SOL    HW171579   3.145   3.023   0.585  0.0098 -0.5976  0.8273
22853SOL    HW271580   3.276   3.099   0.592 -0.8867  1.0681 -0.0350
22854SOL     OW71581   4.000   3.084   0.696  0.5257 -0.0225  0.3108
22854SOL    HW171582   4.090   3.063   0.721  1.4297  1.1761 -1.7435
22854SOL    HW271583   4.004   3.175   0.666 -1.3271 -0.0405 -0.0742
22855SOL     OW71584   3.779   7.677   7.061 -0.1900  0.0423 -0.0558
22855SOL    HW171585   3.795   7.672   7.156 -0.3475 -0.3175 -0.0476
22855SOL    HW271586   3.733   7.596   7.040  0.5898 -0.2675 -0.5960
22856SOL     OW71587   7.317   0.857   7.292 -0.0599  0.3451  0.3460
22856SOL    HW171588   7.398   0.906   7.275  0.0458  0.9044  2.3993
22856SOL    HW271589   7.326   0.777   7.239  0.7947  1.4621 -1.2327
22857SOL     OW71590   5.804   9.415   6.539 -0.2595 -0.1652 -0.7816
22857SOL    HW171591   5.752   9.492   6.515 -2.0729 -0.8710  0.7529
22857SOL    HW271592   5.756   9.342   6.500  1.3387 -0.5755 -2.0399
22858SOL     OW71593   3.367   3.332   3.989  0.0563 -0.2127 -0.7976
22858SOL    HW171594   3.301   3.264   3.996  0.1562 -0.4777 -2.1944
22858SOL    HW271595   3.317   3.413   3.977 -0.0393 -0.2565 -0.6886
22859SOL     OW71596   1.253   5.556   2.603 -0.5073  0.2901  0.1676
22859SOL    HW171597   1.256   5.648   2.631 -1.3027  1.0935 -2.2773
22859SOL    HW271598   1.238   5.560   2.509  0.4898 -2.3619 -0.1357
22860SOL     OW71599   4.183   6.955   5.415  0.4451 -0.2156 -0.2462
22860SOL    HW171600   4.132   7.018   5.466  0.9849  1.3671 -1.6121
22860SOL    HW271601   4.126   6.879   5.408 -1.2020  1.0017 -0.5617
22861SOL     OW71602   3.448   6.700   5.438 -1.1173  0.0813 -0.0190
22861SOL    HW171603   3.446   6.608   5.462  1.5862  0.4013  1.6364
22861SOL    HW271604   3.371   6.738   5.478 -0.9239 -0.9927  1.3756
22862SOL     OW71605   2.783   8.189   0.122  0.1360 -0.0610  0.4609
22862SOL    HW171606   2.778   8.233   0.037  1.6137  0.4990  0.6557
22862SOL    HW271607   2.857   8.230   0.166 -1.1573  0.3056  2.3938
22863SOL     OW71608   2.217   6.251   0.555  0.5485  0.4984  0.1122
22863SOL    HW171609   2.231   6.197   0.632  1.6125  1.0300  0.3050
22863SOL    HW271610   2.137   6.300   0.574 -0.3440 -0.8748 -0.0097
22864SOL     OW71611   3.949   2.403   1.301  0.3554  0.3050 -0.0506
22864SOL    HW171612   4.036   2.434   1.279  0.0505  0.3521 -1.2086
22864SOL    HW271613   3.945   2.314   1.265  0.0420  0.1700  0.3042
22865SOL     OW71614   8.507   2.717   8.168  0.2522  0.1040 -0.1487
22865SOL    HW171615   8.533   2.654   8.100 -1.1815  0.2827 -0.8829
22865SOL    HW271616   8.589   2.763   8.189  0.9305 -0.6672 -1.0046
22866SOL     OW71617   4.456   4.495   8.282 -0.2686 -1.4527  0.1275
22866SOL    HW171618   4.363   4.478   8.294 -0.9181  3.1358  2.6743
22866SOL    HW271619   4.499   4.441   8.349 -1.3511 -1.4183  0.8654
22867SOL     OW71620   1.019   5.882   2.902  0.5238 -0.0133  0.1136
22867SOL    HW171621   1.055   5.802   2.939  1.3725  0.5427  0.5041
22867SOL    HW271622   0.949   5.907   2.962  1.8478  0.8440  1.3181
22868SOL     OW71623   0.623   8.140   8.741 -0.1913 -0.1992  0.2564
22868SOL    HW171624   0.625   8.160   8.647  1.5171 -0.2692  0.2477
22868SOL    HW271625   0.698   8.082   8.754  1.1004  1.7976  2.0927
22869SOL     OW71626   0.954   6.976   4.636  0.1724 -0.2698 -0.1258
22869SOL    HW171627   0.957   7.052   4.578 -0.8501  0.5413  0.8644
22869SOL    HW271628   0.976   7.011   4.723 -0.0150 -1.1549  0.2802
22870SOL     OW71629   3.104   0.638   6.434 -0.1992 -0.6212 -0.1403
22870SOL    HW171630   3.175   0.679   6.385 -2.9955 -0.6507 -4.5644
22870SOL    HW271631   3.069   0.708   6.489  2.5389 -0.3627  1.3690
22871SOL     OW71632   9.282   9.292   7.259 -0.1728 -0.5127 -0.5677
22871SOL    HW171633   9.353   9.356   7.249  0.7395 -1.2626  0.9533
22871SOL    HW271634   9.322   9.219   7.307 -2.4984 -0.0679  2.1679
22872SOL     OW71635   2.135   4.963   7.360  0.2153 -0.2801  0.0667
22872SOL    HW171636   2.105   5.002   7.442 -0.5563 -0.9443  0.1003
22872SOL    HW271637   2.060   4.971   7.301  0.0578 -1.6647  0.0585
22873SOL     OW71638   0.857   7.118   7.523 -0.2029  0.3329 -0.7330
22873SOL    HW171639   0.861   7.200   7.473 -0.6192 -1.0369 -3.0592
22873SOL    HW271640   0.909   7.056   7.471 -1.8097 -1.4975 -0.1804
22874SOL     OW71641   3.595   6.496   1.434 -0.2866  0.3925 -0.2651
22874SOL    HW171642   3.555   6.580   1.456  0.8396  0.9080 -0.1270
22874SOL    HW271643   3.610   6.501   1.340  0.6556  0.7432 -0.1032
22875SOL     OW71644   6.730   0.316   6.850 -0.1682  0.1898 -0.2634
22875SOL    HW171645   6.745   0.408   6.827 -0.8355 -0.0714 -1.8385
22875SOL    HW271646   6.751   0.311   6.943  2.2723  1.4159 -0.6873
22876SOL     OW71647   8.681   4.172   6.063  0.1981 -0.7311 -0.8193
22876SOL    HW171648   8.647   4.217   5.985 -0.4022  1.3431  0.5848
22876SOL    HW271649   8.602   4.153   6.115  0.6257 -1.7628 -0.5458
22877SOL     OW71650   9.350   3.812   3.923  0.2824 -0.2885 -0.1973
22877SOL    HW171651   9.336   3.720   3.901  1.0904 -1.2702  3.1611
22877SOL    HW271652   9.262   3.844   3.946  0.3288 -0.7614  0.6250
22878SOL     OW71653   6.365   2.189   3.239  0.6212  0.3564  0.0451
22878SOL    HW171654   6.418   2.127   3.288  0.6875  1.0507  0.8694
22878SOL    HW271655   6.328   2.138   3.167 -0.9480 -1.1298  1.8383
22879SOL     OW71656   8.337   7.417   4.562 -0.1303  0.0246 -0.0224
22879SOL    HW171657   8.277   7.490   4.579 -1.1727 -0.4095 -1.7162
22879SOL    HW271658   8.363   7.386   4.649  1.7622  3.5460  0.7415
22880SOL     OW71659   1.301   7.870   3.179 -0.4915 -0.5738 -0.0353
22880SOL    HW171660   1.273   7.920   3.256 -1.3778  1.6341 -1.7383
22880SOL    HW271661   1.386   7.908   3.156 -0.9103 -0.1984 -1.0056
22881SOL     OW71662   7.191   8.355   1.337  0.3818  0.0662 -0.5028
22881SOL    HW171663   7.147   8.440   1.342  1.5330  0.7355 -1.4781
22881SOL    HW271664   7.258   8.359   1.406  1.1590  0.3862 -1.2704
22882SOL     OW71665   3.022   7.359   4.943 -0.1717  0.2364 -0.1617
22882SOL    HW171666   3.068   7.276   4.957 -1.0757 -0.4992 -1.4030
22882SOL    HW271667   3.086   7.426   4.966  1.8323 -0.7369 -2.6799
22883SOL     OW71668   5.151   3.765   4.617 -0.1355 -0.0451 -0.1472
22883SOL    HW171669   5.066   3.793   4.652 -0.3900  0.8717 -1.4123
22883SOL    HW271670   5.204   3.845   4.618  0.2946 -0.3243 -0.5258
22884SOL     OW71671   4.958   0.354   6.412  0.2611 -0.5162 -0.1364
22884SOL    HW171672   4.932   0.287   6.474  0.9517 -1.7954 -1.2159
22884SOL    HW271673   4.890   0.421   6.419  0.0846 -0.8461  1.6535
22885SOL     OW71674   9.124   8.845   1.456 -0.6663  0.4773  0.1828
22885SOL    HW171675   9.069   8.920   1.431 -2.6130 -1.1244 -0.5011
22885SOL    HW271676   9.097   8.825   1.545 -2.1177 -1.0678 -0.5736
22886SOL     OW71677   6.936   4.863   7.467  0.1926 -0.1434  0.6195
22886SOL    HW171678   7.019   4.827   7.499 -0.6575 -1.7182  1.1289
22886SOL    HW271679   6.917   4.936   7.527  1.0767  0.0748  0.6436
22887SOL     OW71680   6.602   6.381   3.014  0.4105  0.3112  0.0640
22887SOL    HW171681   6.586   6.287   3.022  0.4968  0.2628 -0.3212
22887SOL    HW271682   6.518   6.421   3.033  0.6977  0.2291  1.6384
22888SOL     OW71683   0.298   1.318   3.228  0.5430 -0.7355 -0.2035
22888SOL    HW171684   0.346   1.354   3.153  0.5610 -0.4841 -0.0729
22888SOL    HW271685   0.357   1.332   3.303  0.8040 -1.5736 -0.2436
22889SOL     OW71686   2.029   8.359   8.624 -0.2603  0.2952  0.6407
22889SOL    HW171687   2.005   8.435   8.571  0.1701  0.3360  0.5072
22889SOL    HW271688   1.992   8.284   8.578  0.7913  0.2501 -0.1395
22890SOL     OW71689   3.791   7.873   4.790  0.3196  0.4032 -0.4342
22890SOL    HW171690   3.867   7.855   4.736 -0.7429  0.5064 -2.0159
22890SOL    HW271691   3.748   7.947   4.746 -0.9159  0.0651  0.1825
22891SOL     OW71692   0.171   3.504   3.899 -0.1680  0.2887  0.0224
22891SOL    HW171693   0.077   3.493   3.892 -0.0213 -0.6626 -0.5312
22891SOL    HW271694   0.202   3.423   3.940  0.3825  0.7063  0.4448
22892SOL     OW71695   5.136   4.972   7.282 -0.1190  0.6807 -0.6251
22892SOL    HW171696   5.198   5.042   7.260  0.3463  0.8873  1.2669
22892SOL    HW271697   5.151   4.955   7.375 -1.0749 -1.1008 -0.7740
22893SOL     OW71698   0.302   3.616   6.178 -0.4531  0.3524  0.0122
22893SOL    HW171699   0.227   3.662   6.214 -0.9424 -0.2937 -0.1630
22893SOL    HW271700   0.269   3.529   6.156  0.0978  0.3712 -0.9689
22894SOL     OW71701   1.248   1.965   2.873 -0.0667 -0.2809  0.1915
22894SOL    HW171702   1.250   1.897   2.940 -0.6817 -2.3254 -1.8242
22894SOL    HW271703   1.340   1.979   2.850 -0.0428 -1.6906 -0.6170
22895SOL     OW71704   6.144   8.522   5.397 -0.0127  0.1074 -0.0506
22895SOL    HW171705   6.177   8.477   5.319  2.7207  0.9854  0.5270
22895SOL    HW271706   6.108   8.452   5.451  1.0991 -0.9691 -0.6625
22896SOL     OW71707   0.754   7.160   6.347 -0.6400 -0.3362  0.3501
22896SOL    HW171708   0.738   7.141   6.255 -0.4424  0.4320  0.1534
22896SOL    HW271709   0.686   7.223   6.371  0.1126  0.4751  0.3701
22897SOL     OW71710   0.523   2.537   0.728 -0.6066  0.5642 -0.7464
22897SOL    HW171711   0.600   2.484   0.708 -0.3353  0.2861  0.9945
22897SOL    HW271712   0.450   2.486   0.694 -0.4128 -1.2814  1.4897
22898SOL     OW71713   7.194   1.072   8.085  0.1169 -0.5753  0.4281
22898SOL    HW171714   7.106   1.063   8.049 -0.0103  1.6662  0.1444
22898SOL    HW271715   7.183   1.130   8.161  1.4830  0.4891 -0.1666
22899SOL     OW71716   4.934   7.791   3.780 -0.5929 -0.1646  0.3193
22899SOL    HW171717   4.909   7.719   3.722  1.8537 -1.6302  1.0104
22899SOL    HW271718   5.009   7.832   3.737  0.3677 -0.3955  1.7116
22900SOL     OW71719   1.794   5.397   8.588 -0.5616  0.1703  0.3416
22900SOL    HW171720   1.703   5.384   8.615 -0.2565 -1.0632  0.8297
22900SOL    HW271721   1.806   5.336   8.515  0.9027 -2.3848  2.6469
22901SOL     OW71722   2.344   9.269   0.552  0.9472  0.1232 -0.0072
22901SOL    HW171723   2.348   9.352   0.599 -0.5091  0.5626 -0.6430
22901SOL    HW271724   2.429   9.228   0.569  1.2132  1.1883  1.3141
22902SOL     OW71725   0.304   4.187   0.967 -0.4582 -0.0886  0.0357
22902SOL    HW171726   0.376   4.223   1.019 -0.9272 -0.0253  0.6397
22902SOL    HW271727   0.246   4.262   0.951 -1.1029 -0.4316  0.7416
22903SOL     OW71728   2.250   7.875   4.894 -0.1016 -0.7904  0.0080
22903SOL    HW171729   2.168   7.865   4.846  0.7435 -2.6733 -1.1023
22903SOL    HW271730   2.317   7.846   4.833  1.4483  1.0706  0.7802
22904SOL     OW71731   8.041   5.536   6.550 -0.4587  0.4856 -0.5706
22904SOL    HW171732   8.056   5.630   6.566  1.4383  0.0519  0.3096
22904SOL    HW271733   8.126   5.502   6.526 -1.0793 -1.1018 -0.5715
22905SOL     OW71734   7.177   4.544   5.628 -0.3324  0.0951  0.2369
22905SOL    HW171735   7.225   4.611   5.677  0.0826 -0.9174  1.2385
22905SOL    HW271736   7.120   4.504   5.693 -0.1802 -0.9000 -0.2404
22906SOL     OW71737   2.573   7.857   5.064 -0.6230  0.3143  0.2239
22906SOL    HW171738   2.520   7.779   5.047 -1.7382  1.4343 -1.6962
22906SOL    HW271739   2.511   7.929   5.062  1.0160  1.7555 -2.8510
22907SOL     OW71740   5.755   7.016   4.743  0.1661  0.1745 -0.3749
22907SOL    HW171741   5.693   7.078   4.706 -1.1069 -0.3755  0.7767
22907SOL    HW271742   5.830   7.069   4.768 -0.2270  1.0000 -0.9157
22908SOL     OW71743   8.754   8.735   5.652  0.2693  0.4508  0.0516
22908SOL    HW171744   8.777   8.708   5.741  0.6214  0.3330 -0.0759
22908SOL    HW271745   8.788   8.824   5.644  0.1661  0.4922  0.0611
22909SOL     OW71746   4.067   7.901   7.088  0.0203  0.5595  0.2959
22909SOL    HW171747   4.143   7.843   7.075 -0.1994  0.3354  0.0125
22909SOL    HW271748   4.077   7.933   7.178 -1.0559 -1.6859  1.2543
22910SOL     OW71749   4.318   8.076   1.812  0.0702  0.1361  0.5069
22910SOL    HW171750   4.273   8.144   1.762 -0.1284 -0.3977 -0.0473
22910SOL    HW271751   4.276   7.995   1.786  0.5483 -0.2430  0.8951
22911SOL     OW71752   9.104   4.810   5.727  0.4911  0.0989 -0.4161
22911SOL    HW171753   9.104   4.800   5.822  2.8210  1.3477 -0.2406
22911SOL    HW271754   9.153   4.735   5.695 -1.8017 -1.2860 -0.8049
22912SOL     OW71755   0.762   5.055   5.860 -0.2639 -0.1676  0.6070
22912SOL    HW171756   0.701   5.117   5.820  2.1694  1.3252 -0.8449
22912SOL    HW271757   0.720   4.969   5.849 -1.6856  0.7298 -1.1314
22913SOL     OW71758   2.714   1.718   4.889 -0.1097 -0.2177 -0.0410
22913SOL    HW171759   2.686   1.666   4.965  2.0323 -1.6934 -0.2229
22913SOL    HW271760   2.687   1.807   4.911 -0.2465 -0.7404  2.0994
22914SOL     OW71761   8.861   7.734   3.174  0.5783 -0.3566 -0.5215
22914SOL    HW171762   8.786   7.674   3.167  0.3778 -0.1243 -0.3363
22914SOL    HW271763   8.936   7.676   3.188  0.3714 -0.5605 -0.2607
22915SOL     OW71764   3.856   3.070   2.904  0.2309 -0.1981 -0.0486
22915SOL    HW171765   3.897   3.107   2.981 -0.5869 -0.0309  0.3063
22915SOL    HW271766   3.776   3.029   2.936 -0.5840  0.6631 -0.9348
22916SOL     OW71767   3.165   7.668   9.432  0.0159  0.2438 -0.0059
22916SOL    HW171768   3.139   7.603   9.366  0.0410  0.2580 -0.0313
22916SOL    HW271769   3.083   7.706   9.462  0.0777  1.1736 -0.9931
22917SOL     OW71770   1.671   8.450   3.811 -0.0888 -0.6120 -0.5950
22917SOL    HW171771   1.717   8.438   3.893 -0.6839  1.7369  0.1052
22917SOL    HW271772   1.578   8.450   3.834 -0.2445  0.7298 -1.1497
22918SOL     OW71773   3.686   6.285   6.904  0.1565 -0.0786  0.5121
22918SOL    HW171774   3.701   6.293   6.810 -2.2296 -0.9373  0.0358
22918SOL    HW271775   3.725   6.201   6.928  4.1222  1.7963  1.0606
22919SOL     OW71776   2.660   7.059   4.543  0.9718  0.0450 -0.4833
22919SOL    HW171777   2.694   7.097   4.623  1.7442  0.7563 -1.1459
22919SOL    HW271778   2.624   6.975   4.570 -1.1490  1.3948  1.0827
22920SOL     OW71779   0.912   8.937   0.475 -0.1053 -0.1527  0.3139
22920SOL    HW171780   0.947   8.907   0.559 -0.8300  1.7622  1.3216
22920SOL    HW271781   0.900   8.857   0.424  0.4527 -1.3216  1.9820
22921SOL     OW71782   7.594   0.084   0.684 -0.2032  0.4748  0.1850
22921SOL    HW171783   7.592   0.176   0.660 -1.1031  0.3869 -0.0774
22921SOL    HW271784   7.502   0.059   0.695 -0.0307 -0.7180 -0.9883
22922SOL     OW71785   7.843   0.659   3.873  0.2597 -0.0405 -0.2483
22922SOL    HW171786   7.838   0.747   3.835 -3.1999  0.0767  0.3028
22922SOL    HW271787   7.839   0.601   3.797 -1.6781  0.2529 -0.3922
22923SOL     OW71788   1.524   0.384   6.738  0.1985 -0.5601  0.1789
22923SOL    HW171789   1.459   0.370   6.806  0.7818 -0.5952  0.7366
22923SOL    HW271790   1.570   0.301   6.731 -1.2944 -1.2622 -1.8116
22924SOL     OW71791   0.230   1.989   5.771 -0.3235 -0.1296  0.0067
22924SOL    HW171792   0.316   1.951   5.786 -0.9865 -1.7129 -0.0031
22924SOL    HW271793   0.213   2.042   5.848  0.8324  0.5531 -0.1965
22925SOL     OW71794   4.648   3.108   3.825  0.0041 -0.1988  0.0223
22925SOL    HW171795   4.711   3.106   3.897  1.1233  0.6070 -0.9069
22925SOL    HW271796   4.691   3.160   3.757 -0.8349 -1.3470 -1.4158
22926SOL     OW71797   6.562   5.561   4.828 -0.0369 -0.6254  0.0594
22926SOL    HW171798   6.550   5.553   4.733  1.6675 -1.5185 -0.1059
22926SOL    HW271799   6.473   5.556   4.863 -0.5737 -2.0788 -1.3818
22927SOL     OW71800   7.143   1.081   7.279  0.0117  0.2708 -0.4690
22927SOL    HW171801   7.201   1.011   7.309 -1.5054  0.5947  3.5565
22927SOL    HW271802   7.079   1.036   7.223  1.8974 -0.6886 -1.9061
22928SOL     OW71803   8.913   5.030   8.589 -0.0128  0.0278 -0.2344
22928SOL    HW171804   8.933   5.090   8.660  0.6448  0.1204 -0.4946
22928SOL    HW271805   8.827   4.994   8.611 -0.4216  1.0863 -0.0979
22929SOL     OW71806   7.352   2.357   8.571  0.0744  0.6606 -0.6465
22929SOL    HW171807   7.393   2.329   8.489  0.1794  2.6959 -1.3086
22929SOL    HW271808   7.272   2.401   8.544 -1.5021 -1.3843  0.5401
22930SOL     OW71809   4.274   0.475   2.235 -0.1329 -0.5543  0.1886
22930SOL    HW171810   4.232   0.560   2.252 -0.7669 -1.0115  0.8897
22930SOL    HW271811   4.279   0.433   2.321  2.7815 -0.0428  0.3078
22931SOL     OW71812   8.643   4.698   8.730 -0.1694  0.2596 -0.1757
22931SOL    HW171813   8.586   4.647   8.674  0.3233 -0.2473 -0.2243
22931SOL    HW271814   8.729   4.693   8.688 -0.6299  3.3369 -1.6300
22932SOL     OW71815   6.354   0.640   9.355 -0.3966  0.3449 -0.4435
22932SOL    HW171816   6.269   0.639   9.312 -1.7275 -0.4076  2.0866
22932SOL    HW271817   6.394   0.723   9.329 -2.0651  0.8930 -1.3256
22933SOL     OW71818   8.511   4.451   2.163 -0.0177 -0.0310 -0.4753
22933SOL    HW171819   8.551   4.367   2.140  0.7070  0.6376 -1.7152
22933SOL    HW271820   8.580   4.498   2.211 -1.4348 -1.3179  2.9954
22934SOL     OW71821   7.372   3.636   3.398 -0.2003  0.0220  0.1250
22934SOL    HW171822   7.385   3.651   3.304  0.3781 -0.0394  0.1895
22934SOL    HW271823   7.297   3.690   3.421 -0.4813 -0.1359 -0.4212
22935SOL     OW71824   1.471   6.137   1.413  0.3175  0.0571 -0.3402
22935SOL    HW171825   1.426   6.148   1.330 -2.4707 -1.1569  0.9284
22935SOL    HW271826   1.562   6.116   1.389 -0.0734  1.2041 -3.0003
22936SOL     OW71827   3.212   7.247   2.919  0.3165 -0.0645 -0.0719
22936SOL    HW171828   3.132   7.211   2.957  1.5116  0.7621  3.4123
22936SOL    HW271829   3.277   7.177   2.931  0.6463  0.1037 -0.8690
22937SOL     OW71830   9.081   1.364   5.752 -0.3515 -0.9672  0.2516
22937SOL    HW171831   9.129   1.282   5.765  0.4161 -0.4674  0.5864
22937SOL    HW271832   9.001   1.352   5.802  0.0450 -1.2684  0.8242
22938SOL     OW71833   4.122   6.455   4.940  0.0748 -0.0671 -0.6014
22938SOL    HW171834   4.158   6.520   4.879 -1.1099 -0.5108 -1.7895
22938SOL    HW271835   4.048   6.500   4.981  1.7256  0.7372  1.6177
22939SOL     OW71836   6.160   9.263   6.428  0.3438 -0.0351 -0.9288
22939SOL    HW171837   6.185   9.179   6.389  1.3005  1.0905 -2.8248
22939SOL    HW271838   6.124   9.313   6.354 -2.3320  0.4343  0.6250
22940SOL     OW71839   8.850   7.544   4.710  0.4559 -0.1662 -0.1548
22940SOL    HW171840   8.898   7.621   4.740 -2.0885  0.9327  1.2122
22940SOL    HW271841   8.841   7.489   4.788 -3.8462  1.4621  0.6150
22941SOL     OW71842   1.600   3.780   1.598 -0.2516 -0.6669 -0.0774
22941SOL    HW171843   1.593   3.873   1.576  0.0115 -0.6155  0.0516
22941SOL    HW271844   1.665   3.777   1.668  1.2789 -1.1651 -1.4904
22942SOL     OW71845   7.939   0.486   0.027  0.1799  0.1718  0.1533
22942SOL    HW171846   7.854   0.514  -0.006 -0.0024 -0.6681 -0.1024
22942SOL    HW271847   7.920   0.409   0.082  0.9139 -0.8687 -1.0158
22943SOL     OW71848   7.381   2.609   8.229 -0.2145 -0.1865  0.3128
22943SOL    HW171849   7.331   2.657   8.295 -0.5937 -0.4675  0.2363
22943SOL    HW271850   7.342   2.636   8.146  0.9608  0.9803  0.1247
22944SOL     OW71851   1.638   4.663   9.277 -0.3453  0.1857 -0.6377
22944SOL    HW171852   1.679   4.628   9.356  0.8029 -0.9598 -1.7107
22944SOL    HW271853   1.707   4.715   9.236 -0.4684 -0.4607 -1.6612
22945SOL     OW71854   6.947   6.050   8.523 -0.0154 -0.2632 -0.2073
22945SOL    HW171855   6.861   6.056   8.481  0.2679  2.6365 -0.4483
22945SOL    HW271856   6.928   6.053   8.616 -0.2289 -0.3285 -0.2469
22946SOL     OW71857   5.134   9.340   6.886  0.0506  0.5612 -0.1498
22946SOL    HW171858   5.062   9.299   6.933  0.0482 -1.2356 -1.6164
22946SOL    HW271859   5.206   9.343   6.949 -0.0244 -1.5646  0.0956
22947SOL     OW71860   2.608   3.480   8.234  0.2040  0.2368  0.0008
22947SOL    HW171861   2.616   3.499   8.328 -0.0549 -1.0205  0.3003
22947SOL    HW271862   2.684   3.426   8.214 -0.8959 -1.3929  0.0324
22948SOL     OW71863   8.603   8.707   3.332  0.8121 -0.4152 -0.3129
22948SOL    HW171864   8.633   8.796   3.351  1.1328 -0.7443  0.7617
22948SOL    HW271865   8.547   8.685   3.406  1.2225 -1.3409 -0.2824
22949SOL     OW71866   1.573   8.619   5.613 -0.4345  0.1870 -0.0951
22949SOL    HW171867   1.544   8.563   5.541 -1.7028  2.3695 -1.3290
22949SOL    HW271868   1.666   8.598   5.624 -0.7712 -1.7675 -0.8558
22950SOL     OW71869   7.991   7.891   8.881 -0.0477 -0.0255  0.1930
22950SOL    HW171870   8.084   7.907   8.869 -0.3767  0.7870 -1.2901
22950SOL    HW271871   7.951   7.978   8.878 -1.0222 -0.5000 -0.6829
22951SOL     OW71872   3.835   7.654   7.592 -0.2816  0.0616  0.7191
22951SOL    HW171873   3.763   7.621   7.644 -0.3939  0.2229  0.6689
22951SOL    HW271874   3.907   7.664   7.654  0.2243 -1.7388  0.4319
22952SOL     OW71875   8.951   0.884   7.023  0.2174  0.1696 -0.0279
22952SOL    HW171876   8.911   0.812   7.071  1.4529 -0.1434  0.5398
22952SOL    HW271877   8.877   0.939   6.997 -0.7694 -1.4731 -0.7706
22953SOL     OW71878   5.113   0.385   8.717  0.2130  0.0367  0.4245
22953SOL    HW171879   5.135   0.471   8.754  0.4919 -0.6939  2.0157
22953SOL    HW271880   5.017   0.385   8.713  0.2199  0.5086  0.1836
22954SOL     OW71881   4.152   8.119   6.211  0.4741  0.0103 -0.1216
22954SOL    HW171882   4.180   8.117   6.303  2.4747  1.1267 -0.6607
22954SOL    HW271883   4.073   8.065   6.209  2.3896 -3.0565  1.5988
22955SOL     OW71884   7.040   9.166   5.093  0.5232  0.1607  0.0828
22955SOL    HW171885   6.998   9.232   5.147  1.5602  0.5382  0.4423
22955SOL    HW271886   7.125   9.204   5.071 -0.7771  1.0392 -3.7826
22956SOL     OW71887   8.487   0.596   7.435  0.0423  0.0009 -0.4197
22956SOL    HW171888   8.572   0.578   7.476 -0.0226 -3.0885 -1.5195
22956SOL    HW271889   8.430   0.619   7.509  1.3409  0.1687  0.5599
22957SOL     OW71890   9.374   2.233   1.170 -0.7075  0.3977  0.2336
22957SOL    HW171891   9.347   2.288   1.096 -0.5175  2.4426  1.6517
22957SOL    HW271892   9.318   2.260   1.242  0.3699 -0.2575  1.3424
22958SOL     OW71893   5.814   8.645   3.969  0.2959 -0.2588  0.1893
22958SOL    HW171894   5.855   8.655   3.883 -0.9044  0.7668 -0.2882
22958SOL    HW271895   5.721   8.662   3.953 -0.0286 -0.6466  1.5930
22959SOL     OW71896   8.514   9.367   5.551  0.2608 -0.0447  0.1481
22959SOL    HW171897   8.419   9.362   5.544  0.4127 -0.5628 -1.7904
22959SOL    HW271898   8.545   9.373   5.460  2.0241  1.1064  0.7905
22960SOL     OW71899   1.501   5.992   0.052  0.2249  0.1096  0.3678
22960SOL    HW171900   1.426   6.051   0.059 -0.8463 -1.2980  1.1800
22960SOL    HW271901   1.561   6.022   0.120  0.3403  1.1609 -0.1927
22961SOL     OW71902   7.100   3.234   5.407 -0.0377  0.5720 -0.1840
22961SOL    HW171903   7.041   3.203   5.476  0.2171  1.5092  0.4794
22961SOL    HW271904   7.182   3.251   5.452 -0.2075  2.3072 -0.4750
22962SOL     OW71905   4.471   0.671   0.568 -0.0339  0.2700  0.4076
22962SOL    HW171906   4.553   0.636   0.532 -0.1113 -0.8865  1.3243
22962SOL    HW271907   4.434   0.722   0.496  0.0260 -1.6383 -1.0349
22963SOL     OW71908   6.592   7.793   1.188 -0.5191  0.0439 -0.2936
22963SOL    HW171909   6.571   7.701   1.172 -1.4222  0.3484 -0.9162
22963SOL    HW271910   6.558   7.811   1.275  2.2542 -0.9728  1.0732
22964SOL     OW71911   0.065   6.893   2.162  0.2268 -0.3772 -0.2754
22964SOL    HW171912   0.018   6.955   2.217 -0.9080 -0.8757 -0.6620
22964SOL    HW271913   0.099   6.828   2.223 -0.5926 -0.6500 -0.0972
22965SOL     OW71914   8.785   2.768   9.265  0.4322  0.0727 -0.5728
22965SOL    HW171915   8.702   2.814   9.278  1.2748  1.5101 -0.2093
22965SOL    HW271916   8.783   2.697   9.329 -0.9790 -0.5417 -1.2927
22966SOL     OW71917   5.258   1.265   4.203 -0.1180  0.5799 -0.8103
22966SOL    HW171918   5.194   1.265   4.132  1.3681 -1.6004 -2.1969
22966SOL    HW271919   5.341   1.285   4.161  0.7158 -0.2858  0.3847
22967SOL     OW71920   0.346   2.981   5.821 -0.7151  0.0880 -0.2396
22967SOL    HW171921   0.287   3.024   5.883  0.0077  2.2475 -1.0190
22967SOL    HW271922   0.324   3.020   5.737  0.6014 -0.4179 -0.8217
22968SOL     OW71923   8.110   6.625   3.274 -0.5399 -0.3522 -0.3139
22968SOL    HW171924   8.041   6.631   3.341 -0.5567  0.2136 -0.3821
22968SOL    HW271925   8.123   6.531   3.262 -0.3551 -0.4583  0.6710
22969SOL     OW71926   4.238   3.169   3.443  0.4325 -0.1571 -0.2081
22969SOL    HW171927   4.144   3.168   3.422  0.3791 -1.1466  0.0523
22969SOL    HW271928   4.242   3.133   3.532  1.0055  0.5014  0.0377
22970SOL     OW71929   1.840   7.096   5.965  0.0538 -0.4474  0.4128
22970SOL    HW171930   1.920   7.049   5.939  0.3549 -1.5390  3.1246
22970SOL    HW271931   1.856   7.187   5.940  1.1768 -1.0737 -1.1988
22971SOL     OW71932   1.870   0.438   0.662 -0.1643  1.2213  0.2978
22971SOL    HW171933   1.887   0.434   0.756  0.8258  2.0935  0.1583
22971SOL    HW271934   1.954   0.417   0.622 -0.9248 -0.5849 -0.4081
22972SOL     OW71935   7.324   7.545   4.586  0.1880  0.4244  0.1360
22972SOL    HW171936   7.371   7.520   4.666  0.7715  0.8161 -0.0812
22972SOL    HW271937   7.388   7.532   4.516  0.1056  1.3608 -0.1157
22973SOL     OW71938   6.035   2.899   8.804 -0.3534 -0.0493 -0.4278
22973SOL    HW171939   5.987   2.940   8.876 -0.0167  0.4797 -0.5083
22973SOL    HW271940   6.096   2.839   8.847 -0.1302  0.2901 -0.2771
22974SOL     OW71941   8.195   3.299   7.465 -0.2644 -0.4653 -0.7582
22974SOL    HW171942   8.193   3.234   7.536 -0.4892  0.2765 -0.0746
22974SOL    HW271943   8.106   3.331   7.460  0.5619  2.2951  1.2679
22975SOL     OW71944   5.121   4.322   7.472  0.7860  0.2115 -0.1099
22975SOL    HW171945   5.098   4.415   7.474  0.4359  0.1252 -0.1526
22975SOL    HW271946   5.192   4.317   7.409  0.5098  0.3846 -0.4387
22976SOL     OW71947   7.491   7.277   0.724 -0.3606 -0.7865  0.6004
22976SOL    HW171948   7.531   7.364   0.718 -2.4505  0.1176 -1.0641
22976SOL    HW271949   7.561   7.217   0.698  0.5211  0.5684 -0.2523
22977SOL     OW71950   1.495   7.190   0.801  0.3073  0.6413 -0.2706
22977SOL    HW171951   1.523   7.133   0.872  1.2991  0.2950 -0.9266
22977SOL    HW271952   1.576   7.220   0.760 -0.2590 -0.2066 -2.0857
22978SOL     OW71953   0.425   3.004   5.506 -0.3967  0.0021 -0.3806
22978SOL    HW171954   0.330   3.016   5.514 -0.3576 -0.1900  0.4041
22978SOL    HW271955   0.458   3.089   5.478 -0.9065 -0.1935 -1.6503
22979SOL     OW71956   6.185   9.252   4.694 -0.2359 -0.5912  0.0524
22979SOL    HW171957   6.237   9.231   4.772 -0.2526  1.0942  0.5418
22979SOL    HW271958   6.242   9.227   4.621  1.2658  1.1393  0.5837
22980SOL     OW71959   4.552   0.573   8.793  0.4779  0.3467 -0.2641
22980SOL    HW171960   4.635   0.620   8.797  1.9363 -2.1402  0.1979
22980SOL    HW271961   4.576   0.481   8.808 -2.6935 -0.1062  2.6884
22981SOL     OW71962   7.942   4.832   4.860  0.4744  0.0451  0.5414
22981SOL    HW171963   7.882   4.815   4.788 -0.9765 -0.4306  1.8487
22981SOL    HW271964   7.997   4.904   4.828 -3.1578  3.0239  0.6812
22982SOL     OW71965   2.479   4.550   5.902  0.1896 -0.0673 -0.1382
22982SOL    HW171966   2.507   4.631   5.944  3.7211 -1.2493 -0.0504
22982SOL    HW271967   2.516   4.555   5.814  0.7333 -1.7059 -0.0154
22983SOL     OW71968   2.157   3.028   8.502  0.3622  0.1962  0.1660
22983SOL    HW171969   2.122   2.945   8.472  1.0652 -0.0870  0.1145
22983SOL    HW271970   2.105   3.050   8.580 -0.1338 -0.0542 -0.0970
22984SOL     OW71971   5.053   1.445   1.183 -0.1419  0.2328  0.1207
22984SOL    HW171972   5.015   1.467   1.099  1.2601  0.9791 -0.3232
22984SOL    HW271973   5.142   1.415   1.163 -0.4992 -1.6196  1.1247
22985SOL     OW71974   5.075   2.871   3.408  0.3101  0.1450  0.2343
22985SOL    HW171975   5.010   2.850   3.341 -0.3776  0.0677  0.9122
22985SOL    HW271976   5.124   2.945   3.373  1.6234 -1.4835 -1.4384
22986SOL     OW71977   2.434   7.768   8.940 -0.5336  0.3403  0.5996
22986SOL    HW171978   2.396   7.738   8.858 -0.4476  0.1893  0.6137
22986SOL    HW271979   2.381   7.724   9.008  0.8825 -1.4043  0.6088
22987SOL     OW71980   8.794   0.847   3.810  0.1142 -0.0006  0.1287
22987SOL    HW171981   8.774   0.896   3.890  1.1649  0.5548  0.0600
22987SOL    HW271982   8.887   0.862   3.795 -0.1068  0.0492 -1.2984
22988SOL     OW71983   6.587   3.147   8.493 -0.1917  0.7086 -0.5287
22988SOL    HW171984   6.574   3.064   8.537  1.8047  0.7715  0.2438
22988SOL    HW271985   6.504   3.165   8.449 -0.8580 -1.3410 -0.1397
22989SOL     OW71986   4.438   4.935   1.454 -0.1394 -0.0399  0.4373
22989SOL    HW171987   4.368   4.999   1.445 -0.7489 -1.0133 -2.1132
22989SOL    HW271988   4.518   4.983   1.430 -0.0305  0.8098  2.4218
22990SOL     OW71989   7.519   7.846   3.642 -0.3371  0.2124  0.1515
22990SOL    HW171990   7.528   7.751   3.640 -0.1312  0.2398 -0.4300
22990SOL    HW271991   7.512   7.868   3.735  0.1854 -0.3145  0.3175
22991SOL     OW71992   3.677   5.024   8.444  0.6764 -0.3471 -0.2119
22991SOL    HW171993   3.751   5.083   8.456  0.2487 -0.0627  1.2289
22991SOL    HW271994   3.647   5.040   8.355  1.3925  0.6598 -0.2776
22992SOL     OW71995   4.828   2.312   1.225  0.2134  0.2070 -0.0347
22992SOL    HW171996   4.861   2.401   1.233  0.3653  0.0547  1.0288
22992SOL    HW271997   4.753   2.308   1.285  0.9747 -0.7418  0.8775
22993SOL     OW71998   0.469   8.016   2.049 -0.1318  0.4278 -0.5984
22993SOL    HW171999   0.534   7.960   2.005  1.3516  1.7616 -0.1423
22993SOL    HW272000   0.494   8.105   2.026 -0.2956  1.0809  1.6170
22994SOL     OW72001   3.291   6.489   2.168  0.6665  0.1385  0.0613
22994SOL    HW172002   3.211   6.540   2.155  1.4989  1.2664 -0.7298
22994SOL    HW272003   3.289   6.423   2.098  0.3176  0.0061  0.1930
22995SOL     OW72004   8.143   0.712   3.834  0.0303 -0.1861  0.0596
22995SOL    HW172005   8.110   0.755   3.756 -0.6198 -2.8599 -1.1789
22995SOL    HW272006   8.065   0.681   3.880  0.5215 -0.6076  0.6251
22996SOL     OW72007   7.251   4.364   0.171  0.2132  0.1731  0.5078
22996SOL    HW172008   7.157   4.347   0.165  0.0237  1.5366 -0.5311
22996SOL    HW272009   7.275   4.333   0.259 -0.9660 -1.2254  0.3569
22997SOL     OW72010   4.386   3.200   4.507  0.4007 -0.4580  0.0389
22997SOL    HW172011   4.424   3.237   4.428  0.4218 -1.9912 -0.6778
22997SOL    HW272012   4.354   3.114   4.481  0.5237 -1.0344  1.7236
22998SOL     OW72013   8.294   3.597   4.920  0.2641  0.0907 -0.5940
22998SOL    HW172014   8.231   3.554   4.862  0.6772 -2.6705  0.8879
22998SOL    HW272015   8.245   3.612   5.001  0.4381  1.4740 -0.7369
22999SOL     OW72016   1.817   6.542   9.156 -0.5326  0.3921  0.5170
22999SOL    HW172017   1.845   6.617   9.210 -2.1063  1.1306  0.3344
22999SOL    HW272018   1.801   6.472   9.220  0.8578  0.2120  0.6965
23000SOL     OW72019   8.928   1.212   1.289 -0.0416 -0.0995  0.7022
23000SOL    HW172020   9.013   1.175   1.310 -0.1610  0.0749  1.5336
23000SOL    HW272021   8.901   1.257   1.369 -1.3492 -0.9772  0.7798
23001SOL     OW72022   0.536   0.980   4.819  0.1950 -0.0409 -0.3013
23001SOL    HW172023   0.502   0.891   4.810  0.2508  0.1620 -2.9921
23001SOL    HW272024   0.518   1.021   4.734  2.9253  1.5584 -0.1570
23002SOL     OW72025   7.619   8.331   5.867  0.0292  0.2615  0.4179
23002SOL    HW172026   7.713   8.311   5.862 -0.2587 -1.3846  1.1623
23002SOL    HW272027   7.598   8.369   5.782  0.7939 -2.0216 -0.8337
23003SOL     OW72028   5.989   4.894   4.440  0.1535 -0.5146 -0.0257
23003SOL    HW172029   5.914   4.934   4.396  0.8517  1.9982  0.9989
23003SOL    HW272030   5.974   4.800   4.431 -1.2344 -0.0699 -3.0020
23004SOL     OW72031   5.270   4.468   5.302 -0.2329  1.0698  0.3633
23004SOL    HW172032   5.314   4.519   5.234  0.3222 -1.0332 -0.8991
23004SOL    HW272033   5.341   4.430   5.354 -0.6232  0.8540  0.7468
23005SOL     OW72034   1.556   4.621   4.748  0.0760 -0.2908 -0.1579
23005SOL    HW172035   1.558   4.558   4.821  1.1359  1.0626  1.0154
23005SOL    HW272036   1.632   4.598   4.695  0.7890  0.3325  0.5768
23006SOL     OW72037   0.566   8.284   1.062  0.2371  0.3665 -0.5414
23006SOL    HW172038   0.560   8.367   1.109  0.3762  0.2758 -0.3616
23006SOL    HW272039   0.550   8.218   1.129 -0.9951  0.2859 -0.8988
23007SOL     OW72040   7.108   0.901   0.925 -0.3968  0.1964 -0.0723
23007SOL    HW172041   7.037   0.854   0.969 -0.5348  1.3416  0.9854
23007SOL    HW272042   7.065   0.975   0.883  0.0767  0.5457  0.0523
23008SOL     OW72043   7.890   4.789   6.669 -0.1958 -0.2750 -0.4636
23008SOL    HW172044   7.944   4.841   6.729 -1.4742  2.9037 -1.9717
23008SOL    HW272045   7.867   4.711   6.720  2.5600  0.1412  1.5432
23009SOL     OW72046   7.251   6.090   3.099 -0.1168 -0.0398  0.2022
23009SOL    HW172047   7.259   6.174   3.054 -0.5962  0.0853  0.3522
23009SOL    HW272048   7.296   6.028   3.041  0.8104  0.4327  0.4162
23010SOL     OW72049   0.599   7.138   0.725 -0.4968 -0.4244 -0.4057
23010SOL    HW172050   0.552   7.071   0.775 -1.9396  1.3931  0.7215
23010SOL    HW272051   0.533   7.175   0.667  0.0767  0.5902 -0.4121
23011SOL     OW72052   1.464   1.736   3.343 -0.0813 -0.2960  0.0904
23011SOL    HW172053   1.506   1.672   3.286  0.1649 -0.6428  0.6657
23011SOL    HW272054   1.414   1.792   3.283  0.7099 -0.2508 -0.5371
23012SOL     OW72055   0.816   1.137   5.699  0.1680  0.5362 -0.8013
23012SOL    HW172056   0.730   1.154   5.738 -0.3110 -0.2285 -1.5175
23012SOL    HW272057   0.797   1.098   5.614  1.2251 -0.3690 -0.6364
23013SOL     OW72058   6.761   4.022   7.736 -0.4101 -0.1002 -0.4323
23013SOL    HW172059   6.816   3.944   7.736 -1.2407 -0.6882 -0.5698
23013SOL    HW272060   6.726   4.027   7.647 -0.7900  0.1219 -0.2748
23014SOL     OW72061   1.495   4.554   5.096  0.4077 -0.4636 -0.2796
23014SOL    HW172062   1.505   4.470   5.050  1.1123 -1.5373  1.7729
23014SOL    HW272063   1.400   4.566   5.101  0.3206 -0.1087 -2.3725
23015SOL     OW72064   7.382   2.625   2.633 -0.3186  0.0156  0.1178
23015SOL    HW172065   7.369   2.663   2.546 -1.4619  0.7709  0.6103
23015SOL    HW272066   7.393   2.531   2.616  2.0268  0.4721 -1.0527
23016SOL     OW72067   3.642   7.598   5.407 -0.0941  0.2871  0.3922
23016SOL    HW172068   3.718   7.635   5.453 -0.8226  0.0869  1.7981
23016SOL    HW272069   3.566   7.630   5.456 -0.9352  0.5940 -1.0838
23017SOL     OW72070   4.835   0.069   7.043  0.1726  0.0764  0.3049
23017SOL    HW172071   4.897  -0.004   7.034  1.4443  1.3326 -1.3977
23017SOL    HW272072   4.885   0.147   7.021 -1.8472  1.2089 -0.4408
23018SOL     OW72073   4.985   2.239   9.403  0.2062 -0.4868 -0.2805
23018SOL    HW172074   5.010   2.332   9.398 -0.9302 -0.2610 -2.1981
23018SOL    HW272075   4.929   2.234   9.480 -0.4322  0.6006 -0.6569
23019SOL     OW72076   0.355   9.072   1.797 -0.0758  0.7370  0.0866
23019SOL    HW172077   0.427   9.099   1.740 -0.5598 -0.3561 -1.0446
23019SOL    HW272078   0.299   9.149   1.804 -0.0354  0.8575 -0.9433
23020SOL     OW72079   5.202   5.183   4.483  0.4283 -0.4849  0.1193
23020SOL    HW172080   5.297   5.175   4.474  0.7548  1.9582  0.9035
23020SOL    HW272081   5.185   5.172   4.576  0.2744  1.7249  0.3781
23021SOL     OW72082   5.641   5.475   7.055 -0.2968 -0.2900  0.1723
23021SOL    HW172083   5.676   5.421   7.126 -1.9634  0.3831  1.5406
23021SOL    HW272084   5.665   5.428   6.975  1.8033 -0.9486  1.1478
23022SOL     OW72085   9.440   5.390   8.278  0.2118 -0.3120 -0.6522
23022SOL    HW172086   9.377   5.455   8.247  1.6180  2.0444  1.1730
23022SOL    HW272087   9.522   5.440   8.288  1.7942 -2.7828 -0.8655
23023SOL     OW72088   1.302   8.229   4.009 -0.0623 -0.0916 -0.1174
23023SOL    HW172089   1.286   8.165   3.939 -0.5319 -1.8272  1.5628
23023SOL    HW272090   1.379   8.198   4.054  0.2878  1.0823  0.1144
23024SOL     OW72091   4.962   9.021   9.355 -0.4683  0.2146  0.0985
23024SOL    HW172092   4.992   9.097   9.405 -1.6677  0.0459  1.0844
23024SOL    HW272093   4.935   8.957   9.421 -1.5125 -0.2478 -0.7580
23025SOL     OW72094   7.884   3.093   6.246 -0.2498  0.2942 -0.4565
23025SOL    HW172095   7.860   3.011   6.203  0.5099 -0.2793  0.1935
23025SOL    HW272096   7.802   3.128   6.281 -0.4361 -0.6660  0.0797
23026SOL     OW72097   0.988   4.913   9.350 -0.1344 -0.3152 -0.3165
23026SOL    HW172098   0.932   4.852   9.303 -1.8985  0.9562  0.1002
23026SOL    HW272099   0.972   4.893   9.443  0.5235 -0.3091 -0.1996
23027SOL     OW72100   4.208   5.336   4.644 -0.2762  0.1830 -0.1987
23027SOL    HW172101   4.273   5.267   4.659 -0.8304 -0.1632  0.6646
23027SOL    HW272102   4.247   5.391   4.577  0.2169 -0.9178 -0.8345
23028SOL     OW72103   3.948   2.857   0.515  0.0129  0.1512  0.1504
23028SOL    HW172104   3.960   2.944   0.554  1.0903 -0.0670  0.3389
23028SOL    HW272105   3.996   2.862   0.433  0.1544 -0.2917  0.2056
23029SOL     OW72106   1.120   7.594   5.684 -0.3497  0.0826 -0.3050
23029SOL    HW172107   1.052   7.527   5.683 -1.8381  1.5241  1.6318
23029SOL    HW272108   1.172   7.573   5.761 -0.7389  1.0709  0.2295
23030SOL     OW72109   8.084   1.509   2.038  0.2409 -0.0612 -0.2344
23030SOL    HW172110   8.013   1.536   2.096  0.1460  0.8037 -0.7475
23030SOL    HW272111   8.061   1.546   1.953  2.0366  1.5077 -0.0850
23031SOL     OW72112   2.477   5.034   0.397 -0.0162  0.0409  0.2151
23031SOL    HW172113   2.388   5.031   0.433  0.0558  0.6105  0.4519
23031SOL    HW272114   2.465   5.058   0.305 -0.1268 -0.1905  0.1692
23032SOL     OW72115   6.912   1.820   0.361  0.5416  0.4406 -0.1434
23032SOL    HW172116   6.898   1.867   0.444  2.2173 -0.7002  0.8126
23032SOL    HW272117   6.826   1.784   0.339 -0.0390  1.2075  0.8017
23033SOL     OW72118   7.811   3.548   6.591 -0.8299  0.0288  0.5402
23033SOL    HW172119   7.821   3.454   6.578  0.4494  0.1360  0.6741
23033SOL    HW272120   7.733   3.557   6.647 -1.2720 -0.9075  0.0763
23034SOL     OW72121   0.812   6.648   5.205  0.1854 -0.1338  0.0750
23034SOL    HW172122   0.871   6.706   5.253  0.5018  0.5520 -1.1184
23034SOL    HW272123   0.868   6.579   5.171  0.2222  0.1990 -0.5631
23035SOL     OW72124   0.464   1.674   7.314  0.0866 -0.1648 -0.3954
23035SOL    HW172125   0.416   1.703   7.237 -0.5799 -0.5915 -0.1418
23035SOL    HW272126   0.397   1.644   7.375  0.4802  1.4717  0.9119
23036SOL     OW72127   7.286   3.584   6.662  0.3121 -0.1709 -0.3108
23036SOL    HW172128   7.282   3.513   6.598  0.4063 -0.1903 -0.2960
23036SOL    HW272129   7.248   3.659   6.617 -1.0515 -0.5753  0.1295
23037SOL     OW72130   6.413   6.295   5.962 -0.9527 -0.1372 -0.0720
23037SOL    HW172131   6.390   6.217   5.911  0.3685 -1.1144  0.7977
23037SOL    HW272132   6.500   6.276   5.996 -1.0787  1.2714  1.0539
23038SOL     OW72133   8.814   3.443   2.572 -0.3855 -0.0995  0.3630
23038SOL    HW172134   8.818   3.477   2.662  2.0603 -2.6793  1.3145
23038SOL    HW272135   8.773   3.357   2.582 -0.9850  0.0129 -1.1433
23039SOL     OW72136   7.022   6.850   7.269  0.1128 -0.4649 -0.3739
23039SOL    HW172137   7.079   6.873   7.195  0.1880 -1.3784 -0.6097
23039SOL    HW272138   6.997   6.759   7.252 -2.1927  0.2162 -0.7725
23040SOL     OW72139   5.983   4.102   0.370 -0.2092 -0.3653 -0.3537
23040SOL    HW172140   5.990   4.038   0.441 -0.0278  1.6202  1.5060
23040SOL    HW272141   6.074   4.123   0.348 -0.2677 -0.4801 -0.7105
23041SOL     OW72142   2.179   9.038   0.278 -0.5614 -0.5888  0.0778
23041SOL    HW172143   2.149   8.955   0.314  1.7474 -1.9899 -1.1594
23041SOL    HW272144   2.274   9.028   0.269 -0.3656  1.8346 -0.9453
23042SOL     OW72145   0.757   2.667   3.440 -0.0330  0.4591  0.9035
23042SOL    HW172146   0.753   2.572   3.446 -0.3972  0.6399  3.8129
23042SOL    HW272147   0.849   2.689   3.455 -0.1225  0.6439  1.1827
23043SOL     OW72148   3.792   3.615   5.122  0.0722  0.0546 -0.1527
23043SOL    HW172149   3.751   3.626   5.036  0.2015 -0.2737 -0.2540
23043SOL    HW272150   3.872   3.566   5.105  0.0072 -0.1647  0.1785
23044SOL     OW72151   8.150   5.756   7.827 -0.0915  0.4778 -0.0621
23044SOL    HW172152   8.098   5.698   7.883  0.9907 -1.1415 -0.7036
23044SOL    HW272153   8.232   5.768   7.874 -0.3181  1.5507  0.0848
23045SOL     OW72154   2.358   2.325   8.287  0.2251  0.0320  0.0708
23045SOL    HW172155   2.276   2.309   8.335  0.4147  0.3779  0.5133
23045SOL    HW272156   2.397   2.400   8.331  0.6115  0.0854 -0.3638
23046SOL     OW72157   6.188   8.584   6.215 -0.0432 -1.2488 -0.3003
23046SOL    HW172158   6.279   8.596   6.188  0.1170 -1.0208  0.3290
23046SOL    HW272159   6.139   8.575   6.133  0.4957 -1.0139 -0.6494
23047SOL     OW72160   8.654   8.203   1.660 -0.2400 -0.3159 -0.1125
23047SOL    HW172161   8.696   8.233   1.580 -1.0233  0.7266 -0.1497
23047SOL    HW272162   8.564   8.236   1.654  0.1331  1.1504  1.9312
23048SOL     OW72163   7.603   6.460   2.352 -0.1668 -0.0857  0.5561
23048SOL    HW172164   7.608   6.383   2.295  0.3536  0.3393  0.0303
23048SOL    HW272165   7.690   6.499   2.349 -0.1685  0.0196  1.5384
23049SOL     OW72166   3.328   2.998   1.697  0.5555 -0.4163  0.4999
23049SOL    HW172167   3.369   2.992   1.611  1.4736  0.4833  0.8532
23049SOL    HW272168   3.238   2.971   1.683  1.0188 -1.4894 -0.4933
23050SOL     OW72169   1.964   1.149   7.640 -0.1185 -0.0221  0.5968
23050SOL    HW172170   2.036   1.205   7.612 -2.3572  1.6546 -2.0713
23050SOL    HW272171   1.984   1.063   7.602  2.4663 -0.6849  3.2935
23051SOL     OW72172   7.688   4.715   5.601 -0.5641 -0.3494 -0.3479
23051SOL    HW172173   7.782   4.721   5.583 -0.3241 -0.5589  0.7544
23051SOL    HW272174   7.682   4.716   5.697 -1.5970 -1.6841 -0.3773
23052SOL     OW72175   2.454   3.901   6.699  0.5410  0.6352  0.3205
23052SOL    HW172176   2.472   3.988   6.733 -0.1195  1.6242 -1.8104
23052SOL    HW272177   2.368   3.908   6.658  0.7009 -0.8828 -0.3223
23053SOL     OW72178   7.881   9.415   0.197  0.0878  0.3373  0.1943
23053SOL    HW172179   7.868   9.461   0.280  0.0819 -0.6597  0.7650
23053SOL    HW272180   7.794   9.389   0.169  0.2932 -1.5460  1.1984
23054SOL     OW72181   2.334   6.938   5.300 -0.4141  0.1781  0.0984
23054SOL    HW172182   2.266   6.912   5.238 -2.1576  0.2825  1.9119
23054SOL    HW272183   2.399   6.869   5.295 -1.0028 -0.2937 -1.1560
23055SOL     OW72184   5.111   7.724   5.345 -0.2482  0.2901 -0.4192
23055SOL    HW172185   5.136   7.632   5.346 -0.7445  0.1530 -0.5132
23055SOL    HW272186   5.107   7.749   5.437 -2.3798 -0.4112 -0.2809
23056SOL     OW72187   7.948   8.982   3.700  0.2759 -0.0941  0.2691
23056SOL    HW172188   7.884   9.046   3.731 -0.2412 -0.5016  0.0470
23056SOL    HW272189   8.010   8.973   3.773 -1.8527 -2.2800  1.9060
23057SOL     OW72190   4.136   6.042   6.154  1.0096 -0.0362  0.3562
23057SOL    HW172191   4.153   6.098   6.078  1.0024  1.2094  1.2538
23057SOL    HW272192   4.061   5.989   6.128  0.3599  1.1046 -0.1364
23058SOL     OW72193   1.513   5.283   8.505 -0.1890 -0.0579  0.0146
23058SOL    HW172194   1.533   5.211   8.446  0.1741  0.3861 -0.4120
23058SOL    HW272195   1.487   5.355   8.447 -0.5425  0.1558  0.4340
23059SOL     OW72196   9.179   6.310   4.771 -0.1390  0.1031  0.1430
23059SOL    HW172197   9.085   6.293   4.776 -0.0739 -0.0966  0.6643
23059SOL    HW272198   9.208   6.255   4.698 -0.3536 -0.1583  0.2509
23060SOL     OW72199   0.844   3.050   0.561 -0.4780 -0.3194  0.6687
23060SOL    HW172200   0.777   3.080   0.622 -0.1871  1.1774  0.2807
23060SOL    HW272201   0.925   3.092   0.592 -0.6792  2.1038 -1.8658
23061SOL     OW72202   1.008   6.266   5.332 -0.5218 -0.1582  0.4169
23061SOL    HW172203   1.060   6.342   5.359 -0.6501  0.1673 -0.2319
23061SOL    HW272204   0.927   6.274   5.383  0.5189 -1.3115  2.2903
23062SOL     OW72205   6.333   3.730   1.872 -0.7072 -0.2122 -0.4709
23062SOL    HW172206   6.252   3.771   1.902 -1.4771 -2.0783  0.0664
23062SOL    HW272207   6.325   3.638   1.898  1.5543 -0.4419 -0.4850
23063SOL     OW72208   4.132   3.537   6.989 -0.1191  0.8069 -0.0896
23063SOL    HW172209   4.199   3.589   7.032  0.6451 -0.9049  0.8436
23063SOL    HW272210   4.065   3.524   7.057 -1.2586  2.2150 -0.9096
23064SOL     OW72211   6.431   2.007   5.320 -0.2492 -0.6982 -0.2573
23064SOL    HW172212   6.457   2.087   5.274 -0.7334 -0.8124 -0.7434
23064SOL    HW272213   6.365   2.037   5.383  2.1121 -0.1804  2.0122
23065SOL     OW72214   5.660   2.213   0.874 -0.0318 -0.0814  0.5868
23065SOL    HW172215   5.709   2.247   0.949 -0.9345 -0.2126  1.2436
23065SOL    HW272216   5.584   2.271   0.866  0.4486  0.3945 -0.7099
23066SOL     OW72217   4.314   3.305   5.792 -0.3521 -0.4349  0.6614
23066SOL    HW172218   4.263   3.343   5.863 -2.4017 -2.5180  0.4116
23066SOL    HW272219   4.380   3.251   5.835  3.1441  3.9198  1.0279
23067SOL     OW72220   2.383   0.164   8.651 -0.3759 -0.3794  0.0807
23067SOL    HW172221   2.347   0.079   8.628  2.1144 -1.5940  0.4268
23067SOL    HW272222   2.469   0.166   8.609  0.1599  1.4113  1.1833
23068SOL     OW72223   2.881   9.313   4.866 -0.3702  0.0622  0.2337
23068SOL    HW172224   2.834   9.329   4.948 -0.7745  2.3765 -0.4197
23068SOL    HW272225   2.853   9.383   4.808  1.4192 -0.4116 -1.2583
23069SOL     OW72226   3.065   8.468   4.321 -0.0681 -0.0904 -0.1286
23069SOL    HW172227   3.158   8.472   4.298  0.1883 -3.6517  0.0118
23069SOL    HW272228   3.027   8.407   4.257 -1.7632 -0.6386  1.3692
23070SOL     OW72229   1.069   5.845   6.210  0.4695  0.0839  0.3777
23070SOL    HW172230   1.150   5.863   6.258  0.6546 -0.2395  0.1937
23070SOL    HW272231   1.094   5.852   6.117  0.5073 -0.8929  0.3006
23071SOL     OW72232   8.470   1.453   1.701  0.4509  0.1522 -0.8555
23071SOL    HW172233   8.521   1.428   1.624  0.4098  1.2280 -1.2345
23071SOL    HW272234   8.449   1.370   1.744  1.4602 -0.3783 -1.3699
23072SOL     OW72235   3.702   1.585   8.553 -0.2569 -0.6522  0.3330
23072SOL    HW172236   3.730   1.610   8.641  2.2583 -2.0200 -0.0397
23072SOL    HW272237   3.778   1.599   8.498 -1.8925  0.4464 -1.7122
23073SOL     OW72238   4.527   4.356   2.849 -0.2521  0.0207  0.1600
23073SOL    HW172239   4.453   4.333   2.794 -1.2732  0.0367  1.5137
23073SOL    HW272240   4.541   4.280   2.905  0.7801  0.0027 -0.1024
23074SOL     OW72241   5.481   4.578   2.672  0.4693  0.1227  0.2275
23074SOL    HW172242   5.486   4.578   2.576  3.0787  1.1824  0.3247
23074SOL    HW272243   5.388   4.571   2.691 -0.0026 -1.1329 -2.3847
23075SOL     OW72244   6.616   0.602   8.656  0.1914 -0.2840 -0.3846
23075SOL    HW172245   6.576   0.645   8.581  1.0635  1.1995 -0.0262
23075SOL    HW272246   6.654   0.522   8.621  1.5018  0.9060 -1.7365
23076SOL     OW72247   1.111   8.089   6.909 -0.2736 -0.1544  0.1471
23076SOL    HW172248   1.072   8.012   6.868 -1.0863 -0.1043  0.8159
23076SOL    HW272249   1.036   8.144   6.931  0.3509  1.2033 -1.0608
23077SOL     OW72250   2.140   6.683   6.422 -0.8755 -0.6092  0.2132
23077SOL    HW172251   2.133   6.627   6.345 -1.4187 -0.0262 -0.1720
23077SOL    HW272252   2.223   6.658   6.463 -1.2111 -1.8152  0.1542
23078SOL     OW72253   1.466   1.052   3.093 -0.4040 -0.1335 -0.6763
23078SOL    HW172254   1.532   1.021   3.030  0.3769  0.3904 -0.1359
23078SOL    HW272255   1.505   1.032   3.178 -1.1444 -0.2044 -0.3578
23079SOL     OW72256   7.185   1.812   7.561 -0.1491  1.0367 -0.3185
23079SOL    HW172257   7.141   1.862   7.629 -0.3036 -0.1809  0.4917
23079SOL    HW272258   7.119   1.749   7.531  0.5708  0.1787 -0.1306
23080SOL     OW72259   2.079   6.305   4.438 -0.0984 -0.0965  0.4653
23080SOL    HW172260   1.992   6.342   4.455  0.1721  1.0655 -0.6201
23080SOL    HW272261   2.062   6.230   4.381 -0.4338 -0.1659  0.6540
23081SOL     OW72262   6.748   5.441   8.536 -0.1108  0.1362 -0.0312
23081SOL    HW172263   6.820   5.384   8.511 -0.4272 -0.2834  0.0014
23081SOL    HW272264   6.758   5.518   8.481 -0.2792 -0.3928 -0.8107
23082SOL     OW72265   3.152   4.503   7.200 -0.1459 -0.2202  0.1169
23082SOL    HW172266   3.147   4.554   7.280 -0.1827 -0.5570  0.3306
23082SOL    HW272267   3.087   4.434   7.210 -0.6479  0.1560 -0.5098
23083SOL     OW72268   7.265   1.686   5.229 -0.0151 -0.2673  0.4551
23083SOL    HW172269   7.355   1.672   5.197  0.1108  1.9646 -0.2119
23083SOL    HW272270   7.268   1.660   5.321  1.4804  0.3688  0.6003
23084SOL     OW72271   6.516   7.854   3.820 -0.5479 -0.6967 -0.1853
23084SOL    HW172272   6.481   7.869   3.908  1.3447  0.8279  0.3373
23084SOL    HW272273   6.478   7.923   3.767  1.5488  0.9788  0.3889
23085SOL     OW72274   4.081   2.872   1.664 -0.4116  0.1165 -0.0235
23085SOL    HW172275   4.073   2.959   1.625 -1.7545 -0.3828 -0.9016
23085SOL    HW272276   4.129   2.821   1.599 -2.5203 -0.6758 -1.0261
23086SOL     OW72277   6.236   8.078   2.489 -0.3136  0.0990 -0.3137
23086SOL    HW172278   6.182   8.140   2.538  0.2806 -0.2941  0.8749
23086SOL    HW272279   6.324   8.115   2.492 -0.2087 -0.1126 -0.7766
23087SOL     OW72280   5.569   8.538   5.357  0.3585 -0.3069  0.1276
23087SOL    HW172281   5.642   8.494   5.314  0.8138 -0.1674  0.7471
23087SOL    HW272282   5.594   8.542   5.449 -0.8500 -1.0875  0.5016
23088SOL     OW72283   4.621   4.366   4.943  0.0245 -0.4797 -0.5059
23088SOL    HW172284   4.687   4.350   4.875  0.5007  2.7772 -0.8768
23088SOL    HW272285   4.543   4.392   4.895  0.4168  2.0274  0.1394
23089SOL     OW72286   2.391   1.482   7.586  0.4665 -0.5955  0.0061
23089SOL    HW172287   2.382   1.422   7.659 -0.4696  0.3842  0.7150
23089SOL    HW272288   2.461   1.542   7.613 -1.2758  1.0209  0.9961
23090SOL     OW72289   0.926   6.853   5.366 -0.1142 -0.0560  0.0427
23090SOL    HW172290   0.861   6.847   5.437  0.2302  0.6187  0.4162
23090SOL    HW272291   0.935   6.946   5.349 -1.2216 -0.2759 -1.8667
23091SOL     OW72292   3.423   4.840   7.694 -0.0690 -0.0416 -0.2422
23091SOL    HW172293   3.430   4.853   7.599  0.6865 -0.3006 -0.2234
23091SOL    HW272294   3.341   4.792   7.705  0.3354 -0.8851 -0.8537
23092SOL     OW72295   3.678   0.496   4.975 -0.4471  0.2156  0.2488
23092SOL    HW172296   3.662   0.506   4.881 -1.3791  0.3387  0.4155
23092SOL    HW272297   3.688   0.585   5.007 -0.6357  0.1987  0.3540
23093SOL     OW72298   0.520   4.291   1.107 -0.0781 -0.0141  0.4170
23093SOL    HW172299   0.507   4.381   1.139 -0.2969 -0.1199  0.6225
23093SOL    HW272300   0.591   4.256   1.161  0.3577  0.2080 -0.0071
23094SOL     OW72301   2.424   3.681   4.554 -0.1741 -0.3747  0.5351
23094SOL    HW172302   2.452   3.664   4.644 -0.8753 -0.5094  0.7301
23094SOL    HW272303   2.328   3.680   4.558 -0.2101 -0.0455 -0.1491
23095SOL     OW72304   8.825   5.184   8.041  0.4669  0.0696 -1.2602
23095SOL    HW172305   8.888   5.176   8.112 -0.0334  1.8367 -0.5936
23095SOL    HW272306   8.780   5.267   8.057 -3.6739 -2.2024 -0.3991
23096SOL     OW72307   3.086   5.128   7.825 -0.2222 -0.1276  0.5431
23096SOL    HW172308   3.050   5.064   7.887 -2.2907 -0.0714 -0.5429
23096SOL    HW272309   3.155   5.081   7.778 -0.0274 -0.7877  1.4750
23097SOL     OW72310   5.966   5.870   6.658 -0.0331  0.4061  0.7648
23097SOL    HW172311   5.968   5.863   6.562 -0.5597  0.2395  0.7676
23097SOL    HW272312   6.050   5.910   6.680 -0.0062  0.6624  0.2114
23098SOL     OW72313   6.826   8.540   6.833 -0.5407  0.0836 -0.3765
23098SOL    HW172314   6.902   8.524   6.890 -0.8204 -1.0216 -0.3014
23098SOL    HW272315   6.854   8.512   6.746 -0.2153  1.4956 -0.7379
23099SOL     OW72316   2.366   8.479   1.251 -0.6296 -0.0650 -0.2307
23099SOL    HW172317   2.386   8.385   1.256  1.6451  0.3986  0.1053
23099SOL    HW272318   2.297   8.492   1.316 -0.0690 -1.2964  0.6452
23100SOL     OW72319   6.017   4.240   7.631  0.3575 -0.1175  0.4899
23100SOL    HW172320   6.027   4.313   7.570 -1.2680 -0.1711  0.1093
23100SOL    HW272321   6.086   4.252   7.695 -0.1651  2.0410  0.7075
23101SOL     OW72322   0.993   6.327   5.875  0.7625 -0.1542  0.4828
23101SOL    HW172323   1.015   6.294   5.788  1.5474  0.3116  0.4987
23101SOL    HW272324   1.073   6.369   5.906 -0.6805  3.3485 -0.2775
23102SOL     OW72325   7.456   8.094   0.850 -0.0641 -0.2487 -0.3397
23102SOL    HW172326   7.443   8.025   0.914 -0.2796  0.1589  0.0556
23102SOL    HW272327   7.384   8.155   0.865 -0.4568 -0.4510 -1.3631
23103SOL     OW72328   2.774   6.588   7.528 -0.6989  0.2612 -0.3720
23103SOL    HW172329   2.739   6.533   7.458  0.3269 -0.6955 -0.1514
23103SOL    HW272330   2.728   6.559   7.607  1.0172 -1.4726  0.0399
23104SOL     OW72331   7.656   1.240   5.978 -0.0959  0.0660 -0.1670
23104SOL    HW172332   7.691   1.315   5.931 -0.2062  0.2897  0.1115
23104SOL    HW272333   7.596   1.198   5.916 -0.6003  0.6303 -0.0633
23105SOL     OW72334   7.179   2.270   5.167  0.3834  0.0740 -0.1115
23105SOL    HW172335   7.226   2.269   5.083  1.1686 -0.2076  0.3251
23105SOL    HW272336   7.245   2.294   5.232 -0.1169 -0.1377  0.4864
23106SOL     OW72337   4.046   4.209   8.589  0.2566 -0.3616 -0.3839
23106SOL    HW172338   4.036   4.114   8.577 -0.4877 -0.3446  0.0761
23106SOL    HW272339   3.970   4.247   8.544  0.7129  0.0343 -0.8214
23107SOL     OW72340   2.043   3.222   7.947 -0.1771 -0.4187  0.0410
23107SOL    HW172341   1.953   3.227   7.915  0.4820  0.7610 -1.7186
23107SOL    HW272342   2.092   3.187   7.872  0.9570 -0.2550  0.7082
23108SOL     OW72343   2.155   3.303   4.974 -0.6164  0.5009  0.3699
23108SOL    HW172344   2.172   3.238   5.042 -0.7463 -1.6328 -1.5643
23108SOL    HW272345   2.060   3.312   4.973 -0.6676 -0.0307 -0.0072
23109SOL     OW72346   4.747   8.490   6.336  0.1790 -0.2215  0.1253
23109SOL    HW172347   4.736   8.454   6.248 -1.0824  0.5134 -0.0372
23109SOL    HW272348   4.839   8.476   6.357  0.7083  0.3839 -1.6689
23110SOL     OW72349   4.874   9.262   1.942  0.1679 -0.1332 -0.0049
23110SOL    HW172350   4.952   9.317   1.942  1.1980 -1.5192  2.5811
23110SOL    HW272351   4.903   9.177   1.910 -0.0860 -0.8378  1.5421
23111SOL     OW72352   9.262   2.569   4.301  0.1388  0.2879 -1.3366
23111SOL    HW172353   9.289   2.658   4.278 -0.7225  0.5281 -1.4129
23111SOL    HW272354   9.270   2.565   4.396  1.9633 -0.1395 -1.4894
23112SOL     OW72355   7.194   1.727   7.283  0.2390 -0.2630 -0.1026
23112SOL    HW172356   7.252   1.796   7.316 -0.5851  0.5287 -0.2918
23112SOL    HW272357   7.135   1.772   7.223 -0.7067 -1.0202  0.2496
23113SOL     OW72358   7.208   7.364   6.930  0.6175  0.3983 -0.8763
23113SOL    HW172359   7.257   7.435   6.971  1.3112  0.2025 -1.3578
23113SOL    HW272360   7.128   7.405   6.897 -0.4476  0.3681  1.5699
23114SOL     OW72361   5.561   4.075   5.764  0.1105  0.2623  0.2442
23114SOL    HW172362   5.602   4.046   5.846 -0.9478 -1.0260  0.3457
23114SOL    HW272363   5.635   4.102   5.709  1.2432 -2.9261  0.0526
23115SOL     OW72364   2.582   8.809   2.962 -0.4170 -0.1935  0.2921
23115SOL    HW172365   2.630   8.761   3.029 -1.3124 -2.2784 -0.5102
23115SOL    HW272366   2.497   8.766   2.958 -0.8822  0.8045 -1.1887
23116SOL     OW72367   1.114   8.347   1.074 -0.2879  0.3470  0.1507
23116SOL    HW172368   1.205   8.329   1.099  0.5269  2.3653 -1.2309
23116SOL    HW272369   1.104   8.303   0.989 -0.4102  0.6615  0.0030
23117SOL     OW72370   7.280   0.484   6.575 -0.4694  0.3508 -0.1944
23117SOL    HW172371   7.288   0.389   6.581 -1.5560  0.2256 -0.5815
23117SOL    HW272372   7.193   0.498   6.538  0.2516  1.4723 -1.4840
23118SOL     OW72373   3.620   8.525   3.061 -0.2849  0.6455  0.5680
23118SOL    HW172374   3.663   8.559   3.139  0.2399 -0.0422  0.5893
23118SOL    HW272375   3.692   8.508   3.000 -0.5702 -0.0750  0.4281
23119SOL     OW72376   8.170   1.510   7.131 -0.4645 -0.2105 -0.2328
23119SOL    HW172377   8.101   1.451   7.163 -0.9300  1.6224  2.2687
23119SOL    HW272378   8.244   1.493   7.189 -0.0363  0.4288 -0.5993
23120SOL     OW72379   0.589   5.204   5.728 -0.2870 -0.1668 -0.5883
23120SOL    HW172380   0.625   5.293   5.716 -1.3676  0.2731 -0.6045
23120SOL    HW272381   0.595   5.164   5.642  0.3521 -0.1641 -0.5472
23121SOL     OW72382   2.012   8.953   7.640  0.1297  0.4939  0.2215
23121SOL    HW172383   1.931   8.905   7.624 -0.7029  1.9510 -0.0277
23121SOL    HW272384   2.058   8.953   7.556 -0.8120  1.8290 -0.3160
23122SOL     OW72385   1.597   6.985   0.202 -0.3955  0.1034  0.5311
23122SOL    HW172386   1.531   6.924   0.236  0.3504  0.4641  2.7075
23122SOL    HW272387   1.668   6.930   0.172 -0.3781 -0.1719  1.0719
23123SOL     OW72388   6.270   3.919   4.555 -0.1282  0.0642  0.2612
23123SOL    HW172389   6.214   3.930   4.478 -0.6240 -1.0703  0.4561
23123SOL    HW272390   6.249   3.832   4.589  0.0323  0.5718  1.7228
23124SOL     OW72391   8.247   7.350   8.744  0.0549  0.2423 -0.5817
23124SOL    HW172392   8.183   7.335   8.813 -0.4360  1.5300 -0.7448
23124SOL    HW272393   8.217   7.295   8.671 -0.7178  0.6409 -0.5664
23125SOL     OW72394   1.019   0.376   6.280  0.4752 -0.2263 -0.2324
23125SOL    HW172395   1.086   0.405   6.342 -0.7333  0.0954  0.9576
23125SOL    HW272396   0.975   0.457   6.253 -0.7170 -0.5979  0.5276
23126SOL     OW72397   2.184   0.601   0.117 -0.3970 -0.4519 -0.2066
23126SOL    HW172398   2.122   0.537   0.150  0.6971 -1.3370  0.1818
23126SOL    HW272399   2.268   0.554   0.114  0.6775  1.2845  1.2525
23127SOL     OW72400   8.415   4.519   3.963  0.0480  0.1279 -0.0858
23127SOL    HW172401   8.337   4.518   3.908  0.0355 -0.5905 -0.0638
23127SOL    HW272402   8.452   4.431   3.954  0.3083  0.1504  0.6781
23128SOL     OW72403   8.364   4.461   0.328 -0.1401 -0.4667 -0.4449
23128SOL    HW172404   8.435   4.446   0.390 -1.0009  1.9905  1.2303
23128SOL    HW272405   8.390   4.414   0.249  1.8634 -2.1459  1.1663
23129SOL     OW72406   7.978   7.788   7.266 -0.3084  0.2567  0.4511
23129SOL    HW172407   8.029   7.814   7.189  1.9583 -2.4799  0.9340
23129SOL    HW272408   8.022   7.830   7.340 -1.0875  0.9948  0.5032
23130SOL     OW72409   7.751   0.324   1.124  0.6319 -0.3837  0.1330
23130SOL    HW172410   7.776   0.260   1.057 -0.2302 -0.8441  0.2393
23130SOL    HW272411   7.833   0.366   1.149  1.0696 -0.7594 -0.6473
23131SOL     OW72412   3.764   0.647   7.558  0.0008 -0.5002  0.3703
23131SOL    HW172413   3.860   0.651   7.562 -0.0048 -1.4877  2.5620
23131SOL    HW272414   3.736   0.738   7.549  1.1230 -0.0603  1.1780
23132SOL     OW72415   7.355   3.954   2.072  0.2643  0.1077  0.0187
23132SOL    HW172416   7.397   4.028   2.028  0.4297 -0.0322 -0.0596
23132SOL    HW272417   7.396   3.952   2.158 -0.0162  0.3443  0.1594
23133SOL     OW72418   8.299   2.191   8.953  0.1638  0.0675  0.2960
23133SOL    HW172419   8.253   2.264   8.995  0.1731  1.3634 -1.8659
23133SOL    HW272420   8.300   2.214   8.861  1.7844 -1.8240 -0.1823
23134SOL     OW72421   0.556   3.289   5.503  0.2759  0.0225  0.2527
23134SOL    HW172422   0.506   3.331   5.573  1.1555  1.5762 -0.0309
23134SOL    HW272423   0.525   3.333   5.423 -0.2372 -1.2739 -0.2680
23135SOL     OW72424   6.730   7.068   3.536 -0.0592  0.4493 -0.3141
23135SOL    HW172425   6.764   6.995   3.588 -1.2004 -0.3307 -0.6431
23135SOL    HW272426   6.743   7.041   3.445 -0.0569  0.8520 -0.4334
23136SOL     OW72427   6.460   0.948   3.583 -0.0389  0.5768  0.1897
23136SOL    HW172428   6.384   0.932   3.527  0.4553  0.0936 -0.3495
23136SOL    HW272429   6.504   0.863   3.589 -0.6125  0.3875  2.1116
23137SOL     OW72430   2.515   3.152   0.961 -0.1799 -0.2840  0.3321
23137SOL    HW172431   2.508   3.209   0.884 -1.4446 -2.2038 -1.0320
23137SOL    HW272432   2.431   3.162   1.005  0.5945  0.9131  1.5663
23138SOL     OW72433   3.646   2.907   4.676 -0.1487  0.1498  0.4591
23138SOL    HW172434   3.642   2.877   4.585 -0.8611  0.4854  0.3834
23138SOL    HW272435   3.565   2.876   4.715  0.0459  0.2222  0.9219
23139SOL     OW72436   5.981   3.133   7.810  0.3109 -0.2537 -0.4966
23139SOL    HW172437   6.047   3.064   7.819 -0.0253 -0.2953  1.9739
23139SOL    HW272438   5.898   3.088   7.823 -0.0322  0.2821 -0.8241
23140SOL     OW72439   6.038   5.568   1.105 -0.2586  0.2008  0.1817
23140SOL    HW172440   5.958   5.621   1.104 -0.5210 -0.1129  1.8805
23140SOL    HW272441   6.009   5.480   1.081 -0.5562 -0.0505  1.4110
23141SOL     OW72442   3.685   8.250   8.279 -0.1820 -0.3073  0.3805
23141SOL    HW172443   3.714   8.176   8.333 -2.3798 -1.5843 -0.1456
23141SOL    HW272444   3.609   8.217   8.232 -0.4508  1.9249 -0.8101
23142SOL     OW72445   4.189   7.397   4.152 -0.4066 -0.0265  0.4439
23142SOL    HW172446   4.209   7.440   4.235 -0.1585 -1.4028  1.1223
23142SOL    HW272447   4.270   7.400   4.103 -0.0964 -0.6082  0.9090
23143SOL     OW72448   7.239   4.072   8.042  0.4793 -0.0325  0.0241
23143SOL    HW172449   7.173   4.125   7.997  1.4079  2.0556  1.0309
23143SOL    HW272450   7.280   4.021   7.973 -1.8743 -1.0292 -0.6829
23144SOL     OW72451   0.629   6.744   2.690  0.4661  0.1428 -0.0629
23144SOL    HW172452   0.566   6.791   2.636  1.2699  0.1919 -0.9676
23144SOL    HW272453   0.594   6.655   2.697  1.4185 -0.4530 -2.4617
23145SOL     OW72454   6.810   2.204   0.032 -0.2273 -0.3891 -0.1513
23145SOL    HW172455   6.765   2.120   0.034 -0.6520 -0.2277 -1.9779
23145SOL    HW272456   6.741   2.269   0.042 -0.1390 -0.2032 -0.7299
23146SOL     OW72457   5.895   2.757   4.327  0.1356 -0.0703  0.7880
23146SOL    HW172458   5.826   2.821   4.344  0.9342  0.9630  0.2362
23146SOL    HW272459   5.972   2.793   4.372  0.6260 -0.5736  0.3637
23147SOL     OW72460   5.058   4.749   9.249 -0.4711  0.1990 -0.5463
23147SOL    HW172461   4.986   4.744   9.186 -2.1161 -1.8280  1.4354
23147SOL    HW272462   5.027   4.701   9.326  2.2236  1.0033  1.1271
23148SOL     OW72463   8.188   4.495   1.837  0.4333 -0.5320  0.7093
23148SOL    HW172464   8.279   4.513   1.812 -0.0014  0.7580  0.0348
23148SOL    HW272465   8.145   4.469   1.756 -0.5646  1.9747  0.4012
23149SOL     OW72466   8.610   8.709   8.738 -0.8256 -0.0362 -0.0547
23149SOL    HW172467   8.562   8.732   8.659 -0.4640  1.5986  0.1857
23149SOL    HW272468   8.702   8.719   8.714 -0.6632 -1.1773  0.0824
23150SOL     OW72469   6.047   7.484   4.239 -0.5021 -0.0394  0.0211
23150SOL    HW172470   6.140   7.499   4.255 -0.4176 -1.0493  0.4743
23150SOL    HW272471   6.012   7.571   4.221  0.5473  0.3339 -0.2634
23151SOL     OW72472   6.742   3.632   7.682 -0.6225 -0.0206 -0.2771
23151SOL    HW172473   6.756   3.547   7.640 -2.3440  0.0912 -1.1512
23151SOL    HW272474   6.830   3.665   7.701  0.0604 -2.4083  0.9397
23152SOL     OW72475   6.376   4.290   8.961  0.0161 -0.0302 -0.2179
23152SOL    HW172476   6.453   4.292   9.019  1.7467 -0.5244 -2.4197
23152SOL    HW272477   6.321   4.221   8.997  1.1073 -0.4188  0.7672
23153SOL     OW72478   7.926   1.066   5.473  0.1986  0.3236  1.1761
23153SOL    HW172479   7.854   1.033   5.419 -0.1788  1.2367  1.1000
23153SOL    HW272480   7.981   0.990   5.490 -1.5823 -0.7215  2.4751
23154SOL     OW72481   3.653   0.695   8.122  0.3315 -0.1035 -0.2297
23154SOL    HW172482   3.614   0.781   8.104 -0.2452 -0.4294 -0.5603
23154SOL    HW272483   3.585   0.633   8.095 -0.2322 -0.6181  2.3319
23155SOL     OW72484   2.907   5.700   5.194 -0.0302  0.0116  0.7434
23155SOL    HW172485   2.957   5.726   5.116  2.0150 -3.5081  0.7704
23155SOL    HW272486   2.948   5.749   5.266  1.2997 -0.3999  0.2836
23156SOL     OW72487   7.127   3.847   6.992 -0.4572 -1.0933  0.1479
23156SOL    HW172488   7.188   3.884   7.055 -2.1093  0.9008  0.6066
23156SOL    HW272489   7.167   3.763   6.967  2.6183  0.3015  0.1504
23157SOL     OW72490   7.729   1.743   2.639 -0.2519  0.0358  0.2977
23157SOL    HW172491   7.753   1.652   2.656 -0.0788  0.1893  0.9105
23157SOL    HW272492   7.789   1.794   2.694 -0.1987  0.5285 -0.2102
23158SOL     OW72493   4.946   0.754   6.189 -0.0323 -0.3875 -0.5622
23158SOL    HW172494   4.925   0.668   6.153 -1.3472  0.1207 -1.0713
23158SOL    HW272495   4.883   0.813   6.148 -0.9988  0.3717  1.8808
23159SOL     OW72496   1.845   0.622   4.476  0.0466 -0.1021  0.1168
23159SOL    HW172497   1.761   0.632   4.430  0.5970  1.2904 -0.6115
23159SOL    HW272498   1.842   0.686   4.547  0.5655  0.0647 -0.0086
23160SOL     OW72499   7.880   8.492   5.161  0.1758  0.9063  0.4764
23160SOL    HW172500   7.932   8.569   5.184  1.1753  0.7420 -1.1247
23160SOL    HW272501   7.939   8.440   5.106 -0.4518 -1.0564  1.6112
23161SOL     OW72502   1.484   2.785   3.978 -0.4850  0.1565  0.1576
23161SOL    HW172503   1.512   2.815   4.065 -0.0975 -1.3555  0.5767
23161SOL    HW272504   1.528   2.844   3.917 -1.9302  2.1870  1.0043
23162SOL     OW72505   0.508   2.038   1.563  0.2124  0.4701  0.3842
23162SOL    HW172506   0.496   2.116   1.617  1.0612  2.1486 -1.7473
23162SOL    HW272507   0.420   2.005   1.548  0.0487 -0.7500  3.7530
23163SOL     OW72508   2.650   8.072   1.629 -0.2376  0.3307  0.8036
23163SOL    HW172509   2.566   8.038   1.659 -0.5960 -0.8494 -1.3665
23163SOL    HW272510   2.636   8.091   1.536  1.6134  1.0766  0.6496
23164SOL     OW72511   4.453   2.607   2.738 -0.3050  0.1487  0.4012
23164SOL    HW172512   4.483   2.534   2.685 -1.5632  0.2004 -0.3974
23164SOL    HW272513   4.509   2.680   2.712 -1.8408  0.5333 -1.9214
23165SOL     OW72514   4.264   7.847   9.091 -0.8726 -0.2242  0.6036
23165SOL    HW172515   4.216   7.851   9.174 -1.0017 -1.4595  0.6044
23165SOL    HW272516   4.199   7.871   9.025 -0.5369  1.6302  0.9320
23166SOL     OW72517   2.820   6.377   4.799  0.5709  0.2936 -0.2298
23166SOL    HW172518   2.844   6.355   4.709 -0.4696 -0.8892 -0.2356
23166SOL    HW272519   2.769   6.457   4.791  1.6699  0.9677 -0.5478
23167SOL     OW72520   1.582   7.570   6.337  0.1076 -0.0639  0.8170
23167SOL    HW172521   1.643   7.636   6.305  0.3712 -0.1092  1.2127
23167SOL    HW272522   1.638   7.508   6.386 -0.0638 -0.8320  0.0546
23168SOL     OW72523   6.892   1.985   7.332 -0.0056 -0.2864  0.1714
23168SOL    HW172524   6.857   2.004   7.245  0.2445  1.1124  0.3618
23168SOL    HW272525   6.984   2.011   7.327  0.0182 -0.2270  0.8342
23169SOL     OW72526   1.839   9.306   6.471  0.2558  0.4083  0.0320
23169SOL    HW172527   1.899   9.348   6.532  1.0857  1.1249 -1.2676
23169SOL    HW272528   1.761   9.287   6.523  1.5935 -0.5559  1.7442
23170SOL     OW72529   5.352   4.153   1.814  0.2993 -0.2460 -0.5096
23170SOL    HW172530   5.316   4.065   1.819 -0.3767  0.0902  0.7011
23170SOL    HW272531   5.443   4.141   1.786  0.2140 -1.3241 -0.3182
23171SOL     OW72532   5.596   8.973   1.566 -0.3407  0.6588  0.2344
23171SOL    HW172533   5.539   9.050   1.573 -0.9114  0.2425  0.2011
23171SOL    HW272534   5.657   8.995   1.495 -0.9618  0.7878 -0.2626
23172SOL     OW72535   4.918   4.609   4.740 -0.0931 -0.7714 -0.1786
23172SOL    HW172536   4.948   4.621   4.830 -1.2561 -1.8889  0.3806
23172SOL    HW272537   4.870   4.689   4.719  0.7111 -0.2515 -0.0166
23173SOL     OW72538   2.835   0.709   2.826  0.2130 -0.3524  0.4289
23173SOL    HW172539   2.918   0.674   2.858  0.2518 -1.3060 -0.6668
23173SOL    HW272540   2.790   0.741   2.904  1.5086 -0.0490  1.0549
23174SOL     OW72541   2.600   4.978   0.836  0.0064  0.8301 -0.2012
23174SOL    HW172542   2.534   5.047   0.829  0.3017  1.1307 -0.0545
23174SOL    HW272543   2.665   5.002   0.770 -0.4715  0.0442 -0.9670
23175SOL     OW72544   2.801   5.635   7.200 -0.0291  0.4073  0.1080
23175SOL    HW172545   2.803   5.729   7.219 -0.5449  0.9464 -2.3361
23175SOL    HW272546   2.707   5.613   7.196  0.0397  0.3791 -1.9248
23176SOL     OW72547   2.221   8.453   5.325  0.0002  0.2263 -0.4674
23176SOL    HW172548   2.126   8.444   5.327 -0.0223  0.5207 -0.2247
23176SOL    HW272549   2.239   8.530   5.379  0.2866  0.9373 -1.5592
23177SOL     OW72550   4.890   5.253   1.494 -0.0109 -0.7004 -0.0771
23177SOL    HW172551   4.801   5.267   1.525  0.0972  0.8992 -0.4448
23177SOL    HW272552   4.936   5.214   1.569 -0.9878 -1.4493  0.1349
23178SOL     OW72553   3.779   2.699   3.619 -0.0519 -0.3155  0.4081
23178SOL    HW172554   3.821   2.765   3.564  0.6518 -0.3348  0.9131
23178SOL    HW272555   3.690   2.731   3.632  0.2589  0.4929  0.5850
23179SOL     OW72556   3.053   0.828   8.117  0.0962 -0.1637 -0.0476
23179SOL    HW172557   3.063   0.733   8.118 -0.0753 -0.2543 -3.1965
23179SOL    HW272558   2.999   0.846   8.040 -0.0098  2.4872  0.5938
23180SOL     OW72559   7.118   3.086   7.474 -0.3149 -0.0971  0.6260
23180SOL    HW172560   7.077   3.132   7.548 -0.2948  0.9161  0.0135
23180SOL    HW272561   7.204   3.126   7.465 -0.3571 -0.1429 -0.0224
23181SOL     OW72562   6.168   0.564   6.569  0.2966  0.3625 -0.3602
23181SOL    HW172563   6.140   0.507   6.497 -2.1059  0.0387  0.7733
23181SOL    HW272564   6.196   0.645   6.527  0.8854 -0.5697 -1.7895
23182SOL     OW72565   9.259   1.725   5.977 -0.4989  0.0145  0.0222
23182SOL    HW172566   9.318   1.801   5.970 -1.1625  0.4424 -1.1153
23182SOL    HW272567   9.267   1.698   6.068  1.1553  0.3101 -0.0019
23183SOL     OW72568   2.046   4.899   3.806 -0.2568 -0.2209 -0.2859
23183SOL    HW172569   2.120   4.956   3.829  0.5564 -1.1247 -0.6214
23183SOL    HW272570   2.051   4.827   3.868 -0.7189 -0.4182 -0.4769
23184SOL     OW72571   9.062   4.252   4.503  0.2646  0.4514 -0.0543
23184SOL    HW172572   9.125   4.217   4.439 -0.0010 -1.6201  0.7895
23184SOL    HW272573   9.110   4.254   4.585 -0.8716 -1.5895  0.6988
23185SOL     OW72574   3.654   8.949   0.729  0.4387  0.0369 -0.1023
23185SOL    HW172575   3.605   8.944   0.647  2.7459 -0.7464 -1.4845
23185SOL    HW272576   3.700   8.865   0.735  1.7562  0.8172  1.0515
23186SOL     OW72577   1.958   7.524   1.988 -0.1135 -0.2160  0.5281
23186SOL    HW172578   1.913   7.550   1.908 -0.8766  0.3132  1.1298
23186SOL    HW272579   1.891   7.483   2.042  0.2022  0.2292  1.2695
23187SOL     OW72580   6.639   6.374   1.569  0.0209 -0.0378 -0.8504
23187SOL    HW172581   6.699   6.305   1.540 -0.5742 -0.3470 -1.3798
23187SOL    HW272582   6.680   6.455   1.540  1.6037 -0.0334  1.3384
23188SOL     OW72583   1.921   5.059   9.346  0.5050 -0.1807  0.2388
23188SOL    HW172584   1.912   5.009   9.265 -0.5976 -1.5913  1.2078
23188SOL    HW272585   1.833   5.094   9.362  0.5193 -0.5806  1.2365
23189SOL     OW72586   1.246   2.414   1.420 -0.4525  0.0834 -0.0478
23189SOL    HW172587   1.165   2.419   1.469  0.1508 -1.4834  1.1305
23189SOL    HW272588   1.241   2.330   1.374  0.5784 -0.1110  0.1870
23190SOL     OW72589   6.432   2.537   8.633 -0.4094 -0.3221  0.3466
23190SOL    HW172590   6.428   2.544   8.538 -1.3866  1.3185  0.4905
23190SOL    HW272591   6.392   2.452   8.653  0.4400 -0.9850 -0.7384
23191SOL     OW72592   1.913   3.195   4.086 -0.4446  0.1568 -0.3876
23191SOL    HW172593   1.936   3.287   4.098  0.5948 -0.2591  0.9171
23191SOL    HW272594   1.997   3.151   4.072 -1.0696 -0.3496 -2.8823
23192SOL     OW72595   8.618   0.668   0.414 -0.1043  0.0666  0.2074
23192SOL    HW172596   8.700   0.714   0.396 -0.6648  1.5064  1.3083
23192SOL    HW272597   8.612   0.602   0.345 -0.5089  3.2174 -2.8626
23193SOL     OW72598   5.279   6.135   2.442 -0.3734 -0.1362 -0.5085
23193SOL    HW172599   5.223   6.204   2.476 -0.7217 -0.5167 -0.3010
23193SOL    HW272600   5.299   6.162   2.353 -0.4131  0.2878 -0.3916
23194SOL     OW72601   0.604   7.902   9.279  0.3006  0.3381  0.2885
23194SOL    HW172602   0.579   7.959   9.352 -1.0702  1.5911 -1.1298
23194SOL    HW272603   0.549   7.824   9.290  0.1895  0.4683  0.6641
23195SOL     OW72604   1.876   6.917   1.493  0.2275  0.2930 -0.1509
23195SOL    HW172605   1.861   6.947   1.403 -0.4464  0.3878 -0.0122
23195SOL    HW272606   1.884   6.998   1.544  3.2510  0.2777 -0.5234
23196SOL     OW72607   4.703   7.549   5.507  0.6502  0.2070 -0.3084
23196SOL    HW172608   4.610   7.573   5.506  0.6152  0.0679 -0.3635
23196SOL    HW272609   4.703   7.454   5.509  0.7939  0.2289  0.8810
23197SOL     OW72610   9.247   6.870   4.206 -0.1617 -0.3353  0.0952
23197SOL    HW172611   9.253   6.778   4.232  1.0306  0.1640  1.6300
23197SOL    HW272612   9.182   6.908   4.265 -0.0217  0.0003  0.0362
23198SOL     OW72613   4.509   5.678   2.164  0.6572 -0.2387 -0.0127
23198SOL    HW172614   4.447   5.609   2.187  0.0954  1.1226  2.6593
23198SOL    HW272615   4.455   5.753   2.141  1.2795  0.4086  0.5834
23199SOL     OW72616   1.884   4.572   3.149  0.1054 -0.7706 -0.3099
23199SOL    HW172617   1.861   4.561   3.242  2.9034 -3.4506  0.1591
23199SOL    HW272618   1.850   4.494   3.106 -2.1053  0.9483 -1.8274
23200SOL     OW72619   9.255   9.148   8.197 -0.0230 -0.0907 -0.1136
23200SOL    HW172620   9.277   9.213   8.264 -0.2826  0.9877 -1.0623
23200SOL    HW272621   9.287   9.186   8.116 -0.1013 -1.1993 -0.6609
23201SOL     OW72622   8.908   4.027   4.456  0.4030 -0.0435 -0.1531
23201SOL    HW172623   8.837   4.016   4.519  0.7900 -1.0241  0.1211
23201SOL    HW272624   8.943   4.115   4.474 -0.4536  0.2697 -0.0085
23202SOL     OW72625   1.365   8.958   5.063 -0.3758  0.3392  0.2868
23202SOL    HW172626   1.291   8.947   5.122  0.7764  0.3631  1.7804
23202SOL    HW272627   1.441   8.931   5.115  0.5554 -0.7064 -1.5443
23203SOL     OW72628   4.531   3.219   2.438 -0.5638  0.1304  0.0867
23203SOL    HW172629   4.458   3.280   2.450 -2.1052 -1.3442 -1.4431
23203SOL    HW272630   4.513   3.147   2.499  1.1757  1.1119  1.7926
23204SOL     OW72631   5.697   8.533   0.648  0.5333  0.0875  0.5379
23204SOL    HW172632   5.655   8.475   0.584  0.7430  0.0537  0.4264
23204SOL    HW272633   5.704   8.617   0.603  0.9208 -0.0056  0.4143
23205SOL     OW72634   0.758   5.953   5.137 -0.3537 -0.1960  0.1108
23205SOL    HW172635   0.667   5.942   5.161 -0.2747  0.1654  0.5747
23205SOL    HW272636   0.770   5.895   5.062 -0.6546 -1.1377  0.7887
23206SOL     OW72637   3.050   4.807   6.453  0.5135  0.4341 -0.1313
23206SOL    HW172638   3.048   4.790   6.547 -0.3052  0.8017 -0.0753
23206SOL    HW272639   3.035   4.721   6.413 -0.6321  0.5175  0.1029
23207SOL     OW72640   7.152   7.729   3.887 -0.5122 -0.3427  0.4013
23207SOL    HW172641   7.243   7.756   3.898 -0.5742  0.2806 -0.5532
23207SOL    HW272642   7.145   7.704   3.795 -1.0793 -1.2728  0.6949
23208SOL     OW72643   9.317   4.375   6.964  0.0414  0.1267 -0.0037
23208SOL    HW172644   9.255   4.429   7.013  0.8246  0.7429  0.3158
23208SOL    HW272645   9.375   4.338   7.031 -0.6342 -1.3066 -0.1915
23209SOL     OW72646   8.422   5.843   4.476  0.2779 -0.4801  0.2570
23209SOL    HW172647   8.451   5.896   4.550  0.1561  0.6137 -0.4647
23209SOL    HW272648   8.434   5.752   4.505  1.7989 -0.0663  1.0023
23210SOL     OW72649   6.730   4.611   5.466 -0.1577  0.5116 -0.1543
23210SOL    HW172650   6.650   4.654   5.436  0.3934  1.2230 -0.6391
23210SOL    HW272651   6.799   4.676   5.450  0.4746  0.0072  0.5046
23211SOL     OW72652   6.772   9.163   6.911 -0.2674  0.3362 -0.2532
23211SOL    HW172653   6.721   9.093   6.952  0.7827 -0.5729 -0.4614
23211SOL    HW272654   6.723   9.243   6.929 -1.8821 -0.5398 -0.6525
23212SOL     OW72655   8.067   3.182   6.899 -0.0477  0.2850 -0.4308
23212SOL    HW172656   8.107   3.171   6.985 -0.5678 -1.3843 -0.3810
23212SOL    HW272657   8.123   3.131   6.840 -1.3089 -0.9628 -0.5822
23213SOL     OW72658   8.678   3.945   5.021 -0.1538  0.3099 -0.3368
23213SOL    HW172659   8.612   3.998   4.977  0.0554  0.7052 -0.1841
23213SOL    HW272660   8.646   3.855   5.015 -3.1684  0.9334  3.9349
23214SOL     OW72661   5.727   5.515   6.015 -0.6914  0.1738 -0.0124
23214SOL    HW172662   5.784   5.438   6.018 -2.7216 -1.3531  0.1125
23214SOL    HW272663   5.786   5.589   6.031  1.4392 -1.2563 -1.0744
23215SOL     OW72664   9.313   5.332   4.251 -0.0570 -0.0688 -0.2396
23215SOL    HW172665   9.265   5.394   4.196  0.5538  1.3086  0.7566
23215SOL    HW272666   9.294   5.247   4.212 -0.1348  0.8093 -2.2406
23216SOL     OW72667   6.456   4.480   3.991 -0.2734 -0.3027  0.2355
23216SOL    HW172668   6.364   4.459   3.977 -0.6277  0.9825  0.5546
23216SOL    HW272669   6.456   4.535   4.069  0.7472 -0.1381  0.1255
23217SOL     OW72670   9.159   2.033   1.899  0.4329  0.2402 -0.0824
23217SOL    HW172671   9.110   2.050   1.980  2.3946  1.7613  0.8251
23217SOL    HW272672   9.238   1.987   1.928  1.4903  1.4330 -1.0527
23218SOL     OW72673   2.007   4.685   1.111  0.6071  0.4566  0.4550
23218SOL    HW172674   2.002   4.781   1.110  1.4918  0.4985 -0.5408
23218SOL    HW272675   2.075   4.664   1.047 -0.2988 -0.8814 -0.0799
23219SOL     OW72676   7.959   8.955   5.973  0.2016  1.0298  0.0519
23219SOL    HW172677   7.964   8.954   5.877 -0.4154 -1.5373 -0.0014
23219SOL    HW272678   7.865   8.947   5.991  0.5206 -1.6467  0.8126
23220SOL     OW72679   8.937   3.463   8.826 -0.3653  0.2308 -0.0289
23220SOL    HW172680   8.928   3.477   8.920  0.4618 -0.2148  0.1217
23220SOL    HW272681   8.855   3.422   8.799 -0.2195 -0.5298  0.6717
23221SOL     OW72682   5.586   3.026   9.074 -0.7991 -0.0993  0.2418
23221SOL    HW172683   5.670   3.071   9.071 -0.1393 -1.2803  0.5584
23221SOL    HW272684   5.602   2.942   9.030 -2.4199  0.5974 -1.7581
23222SOL     OW72685   0.937   0.445   5.509 -0.8362  0.0235 -0.1672
23222SOL    HW172686   0.909   0.354   5.500 -1.4938  0.3649 -1.7472
23222SOL    HW272687   0.892   0.476   5.588 -0.9728 -0.8852  0.1195
23223SOL     OW72688   1.739   8.482   6.902 -0.2871  0.5098 -0.2603
23223SOL    HW172689   1.708   8.443   6.821 -0.0028  0.0007 -0.1289
23223SOL    HW272690   1.674   8.457   6.968  0.5284 -0.8015  0.0720
23224SOL     OW72691   0.579   0.308   0.368 -0.0776  0.0543  0.2118
23224SOL    HW172692   0.522   0.236   0.395 -0.5167 -0.7830 -2.8373
23224SOL    HW272693   0.653   0.265   0.324  1.4075  1.3062  1.4260
23225SOL     OW72694   4.369   5.851   6.664 -0.4475  0.2292 -0.3640
23225SOL    HW172695   4.386   5.792   6.737 -1.0631 -0.1886 -0.5557
23225SOL    HW272696   4.289   5.817   6.624  0.7322 -0.4767 -2.1828
23226SOL     OW72697   3.748   5.328   8.071 -0.0192 -0.2053  0.2114
23226SOL    HW172698   3.843   5.324   8.070 -0.0658 -1.2795 -0.4888
23226SOL    HW272699   3.728   5.408   8.120  1.2622  1.0072 -1.1839
23227SOL     OW72700   0.030   1.978   2.137  0.7086 -0.2406  0.1954
23227SOL    HW172701   0.118   2.015   2.131  1.1160 -1.1334  0.5937
23227SOL    HW272702  -0.027   2.054   2.150  1.5975  0.1835  1.6920
23228SOL     OW72703   2.475   0.384   8.287  1.1713  0.5230  0.2107
23228SOL    HW172704   2.398   0.439   8.304  1.0205  0.1508  0.7233
23228SOL    HW272705   2.520   0.380   8.371  0.7574 -0.8021  0.3818
23229SOL     OW72706   7.140   6.636   4.965 -0.9875  0.6477 -0.1356
23229SOL    HW172707   7.138   6.585   4.884  2.1674 -0.4444  0.3759
23229SOL    HW272708   7.100   6.579   5.030  1.5789 -0.8333  0.2097
23230SOL     OW72709   4.595   6.169   5.098  0.4913  0.4399  0.1108
23230SOL    HW172710   4.588   6.118   5.179  0.3433 -2.7167 -1.8059
23230SOL    HW272711   4.506   6.202   5.084  0.1266 -0.3941  0.3934
23231SOL     OW72712   5.484   8.962   5.313  0.7928  0.5825  0.1177
23231SOL    HW172713   5.540   9.040   5.322  0.7836  0.4789  1.0746
23231SOL    HW272714   5.481   8.924   5.400  1.4102 -0.9297 -0.5040
23232SOL     OW72715   5.909   4.140   4.123  0.0919 -0.5912  0.0151
23232SOL    HW172716   5.921   4.154   4.217 -0.6143  0.7690 -0.0769
23232SOL    HW272717   5.890   4.047   4.115  2.3567 -1.1603  0.9820
23233SOL     OW72718   3.007   0.608   5.898  0.6923 -0.0127  0.0106
23233SOL    HW172719   3.056   0.656   5.964 -1.0351  0.1261  1.2400
23233SOL    HW272720   2.962   0.539   5.946  0.7753 -0.9895 -1.2853
23234SOL     OW72721   6.011   3.719   0.972 -0.3428 -0.7431 -0.4336
23234SOL    HW172722   5.985   3.637   0.932  1.0181 -1.1720 -0.4602
23234SOL    HW272723   6.014   3.701   1.066  0.3710 -0.8424 -0.4742
23235SOL     OW72724   2.152   6.857   1.240 -0.1826  0.3868 -0.1553
23235SOL    HW172725   2.190   6.945   1.236  4.1218 -1.2143  1.9814
23235SOL    HW272726   2.172   6.818   1.155  0.7469  0.4340  0.0337
23236SOL     OW72727   4.185   8.741   0.839 -0.9435  0.1796 -0.2226
23236SOL    HW172728   4.163   8.648   0.836 -0.6075  0.0354  1.4936
23236SOL    HW272729   4.257   8.746   0.902 -0.9361  1.6027 -0.3378
23237SOL     OW72730   1.636   4.699   8.935  0.7279 -0.1060  0.3904
23237SOL    HW172731   1.634   4.604   8.943  1.2590 -0.2905 -1.4219
23237SOL    HW272732   1.544   4.725   8.930  0.5777 -0.5149  1.0248
23238SOL     OW72733   8.868   8.287   4.745 -0.0066 -0.3615 -0.2589
23238SOL    HW172734   8.922   8.225   4.696  0.5678  0.8536 -1.1719
23238SOL    HW272735   8.930   8.340   4.795 -0.3403  1.0600 -1.3312
23239SOL     OW72736   0.327   1.757   1.679  0.2642 -0.2521  0.7230
23239SOL    HW172737   0.286   1.815   1.615  2.4226  0.4336 -0.0792
23239SOL    HW272738   0.348   1.678   1.629 -0.2388 -0.6588  1.1606
23240SOL     OW72739   6.327   1.597   8.128 -0.5305 -0.6127 -0.4568
23240SOL    HW172740   6.273   1.666   8.090 -0.4068  0.9925  2.1830
23240SOL    HW272741   6.408   1.642   8.154 -0.6489 -1.6358  1.7492
23241SOL     OW72742   4.716   2.599   2.344 -0.3453  0.3584 -0.5270
23241SOL    HW172743   4.697   2.507   2.364  0.8578  0.6517  2.2818
23241SOL    HW272744   4.798   2.597   2.294  0.2057 -0.0642  0.3800
23242SOL     OW72745   3.345   3.860   8.928  0.2507 -0.1106 -0.7970
23242SOL    HW172746   3.345   3.926   8.859  1.3415  1.3526  0.5621
23242SOL    HW272747   3.435   3.828   8.932  0.5943  1.0277  1.0545
23243SOL     OW72748   1.567   6.036   6.501 -0.0451  0.0273  0.0989
23243SOL    HW172749   1.651   6.010   6.540 -0.5919 -0.1052  1.1898
23243SOL    HW272750   1.568   6.132   6.505  0.8778  0.1204 -1.6480
23244SOL     OW72751   6.780   9.279   4.188 -0.0442 -0.2338  0.2431
23244SOL    HW172752   6.694   9.275   4.147  0.7132 -2.0681 -1.2232
23244SOL    HW272753   6.761   9.288   4.282 -1.8209 -0.6266 -0.0568
23245SOL     OW72754   0.627   8.968   6.485  0.5117  0.0320  0.3004
23245SOL    HW172755   0.707   8.925   6.454  0.0908  0.0309 -0.7869
23245SOL    HW272756   0.633   9.057   6.450 -0.1078 -0.0559 -0.0439
23246SOL     OW72757   0.443   1.901   6.937  0.5260 -0.4160  0.6018
23246SOL    HW172758   0.351   1.881   6.956 -0.0867  0.3430 -1.4884
23246SOL    HW272759   0.468   1.835   6.872  0.0811  2.1927 -2.2970
23247SOL     OW72760   2.353   5.878   5.077 -0.2925 -0.1771  0.3953
23247SOL    HW172761   2.342   5.922   5.162  2.5702  0.6547  0.4020
23247SOL    HW272762   2.445   5.852   5.077 -0.4617 -0.8186 -2.1774
23248SOL     OW72763   0.966   5.128   4.824 -0.1099 -0.0689 -0.4819
23248SOL    HW172764   1.007   5.198   4.873 -0.0010 -0.0010 -0.6685
23248SOL    HW272765   0.907   5.086   4.886  1.7346 -1.4588  0.3963
23249SOL     OW72766   6.977   0.973   4.685 -0.0927 -0.3152  0.0666
23249SOL    HW172767   6.946   1.038   4.621 -0.4794 -0.2566  0.3147
23249SOL    HW272768   7.071   0.969   4.670 -0.0883  0.1814 -0.0646
23250SOL     OW72769   5.616   8.435   2.586 -0.1321 -0.1633  0.1767
23250SOL    HW172770   5.573   8.351   2.601  1.1508 -0.9468 -0.4476
23250SOL    HW272771   5.562   8.478   2.520 -1.9126  0.3671  1.9314
23251SOL     OW72772   0.477   5.947   5.115  0.5513 -0.0938 -0.3189
23251SOL    HW172773   0.492   6.029   5.067  0.0315  0.7884  0.9880
23251SOL    HW272774   0.458   5.883   5.047 -0.0508  1.1087 -1.3053
23252SOL     OW72775   9.068   5.336   0.701  0.0969 -0.7164 -0.7663
23252SOL    HW172776   9.057   5.244   0.725  1.5778 -0.3959  1.3268
23252SOL    HW272777   9.088   5.379   0.784 -1.1750  1.6024 -1.6283
23253SOL     OW72778   3.114   9.160   4.978  0.4539  0.5372  0.2054
23253SOL    HW172779   3.096   9.215   5.054  1.9330  0.1960  0.8302
23253SOL    HW272780   3.073   9.076   4.998  0.1599  0.6982  0.2743
23254SOL     OW72781   4.859   4.469   7.774 -0.1270 -0.6828 -1.3555
23254SOL    HW172782   4.855   4.374   7.775  1.5078 -0.7792  1.2731
23254SOL    HW272783   4.946   4.490   7.809 -1.0058  1.7540 -0.5020
23255SOL     OW72784   6.529   6.337   8.715  0.3107 -0.5671  0.0839
23255SOL    HW172785   6.615   6.351   8.676  0.2000 -1.2697 -0.4165
23255SOL    HW272786   6.476   6.410   8.683  1.1901  0.8292  1.7931
23256SOL     OW72787   5.927   1.808   4.711  0.7621 -0.0066  0.0756
23256SOL    HW172788   5.968   1.833   4.794  1.6483  0.6423 -0.5297
23256SOL    HW272789   5.996   1.823   4.646 -0.3646  0.8725 -0.9463
23257SOL     OW72790   6.226   1.471   6.318 -0.5154 -0.4120 -0.1375
23257SOL    HW172791   6.244   1.509   6.232 -0.3707  0.3078  0.2046
23257SOL    HW272792   6.177   1.539   6.364 -0.6003 -0.7999  0.3467
23258SOL     OW72793   6.460   1.692   4.816 -0.1625  0.4750 -0.2661
23258SOL    HW172794   6.424   1.605   4.800  0.6933 -0.0448  0.5745
23258SOL    HW272795   6.554   1.677   4.826  0.0105  1.5210 -0.2757
23259SOL     OW72796   7.656   4.142   8.703  0.1047  0.2398  0.1397
23259SOL    HW172797   7.601   4.156   8.627  1.7918  0.0960 -1.1544
23259SOL    HW272798   7.600   4.161   8.778 -1.6088  0.2876 -1.1346
23260SOL     OW72799   6.252   8.220   3.016  0.1952 -0.0801 -0.2885
23260SOL    HW172800   6.273   8.239   2.924 -1.1313 -0.6273 -0.7167
23260SOL    HW272801   6.197   8.294   3.043 -1.2960 -1.0368 -0.6287
23261SOL     OW72802   8.939   9.214   7.522  0.5578  0.1680  0.0008
23261SOL    HW172803   8.968   9.300   7.492  0.4072 -0.0106 -0.6577
23261SOL    HW272804   8.937   9.160   7.443  2.0488 -0.8435  0.6267
23262SOL     OW72805   1.354   0.252   5.614 -0.8613  0.1493 -0.6737
23262SOL    HW172806   1.401   0.224   5.535 -0.6196  0.8423 -0.7834
23262SOL    HW272807   1.303   0.176   5.640 -0.6162 -0.2207 -1.2607
23263SOL     OW72808   3.368   0.945   2.836  0.1191 -0.0551  0.4029
23263SOL    HW172809   3.393   1.002   2.908  2.0264 -2.1557  1.4347
23263SOL    HW272810   3.406   0.860   2.857 -0.5832 -1.1084 -2.3158
23264SOL     OW72811   1.153   3.996   9.133  0.2140  0.2331  0.4161
23264SOL    HW172812   1.081   3.944   9.170 -1.7718  1.3741 -1.7181
23264SOL    HW272813   1.190   3.939   9.065  0.0249  0.4002  0.1712
23265SOL     OW72814   6.206   3.585   7.393  0.0411 -0.2771 -0.3213
23265SOL    HW172815   6.301   3.573   7.390  0.0108 -0.4551 -0.5523
23265SOL    HW272816   6.194   3.680   7.388  0.2743 -0.1273  1.4333
23266SOL     OW72817   8.260   2.331   1.752  0.3966  0.1915  0.2559
23266SOL    HW172818   8.171   2.349   1.782  0.7464  1.2289  0.6701
23266SOL    HW272819   8.273   2.238   1.773  0.1632  0.5530  2.0951
23267SOL     OW72820   4.375   1.557   2.235  0.6950 -0.2282 -0.2947
23267SOL    HW172821   4.323   1.632   2.204 -0.3190 -1.3673 -1.4304
23267SOL    HW272822   4.455   1.560   2.182  0.0191 -0.7637 -1.3765
23268SOL     OW72823   2.734   3.276   7.104 -0.1433  0.3640  0.7713
23268SOL    HW172824   2.648   3.237   7.120 -0.8169  1.2689 -0.5713
23268SOL    HW272825   2.770   3.225   7.031  1.0837 -0.9395  2.2494
23269SOL     OW72826   4.592   9.253   8.628  0.4587  0.1662 -0.0185
23269SOL    HW172827   4.555   9.327   8.675  1.5001  0.1000  0.9176
23269SOL    HW272828   4.565   9.176   8.679  0.1006 -0.0392 -0.5107
23270SOL     OW72829   8.562   0.609   1.251 -0.0918  0.2550  0.3065
23270SOL    HW172830   8.594   0.539   1.194  1.0378  1.5812 -0.7338
23270SOL    HW272831   8.476   0.631   1.216 -0.0643  0.0079  0.0783
23271SOL     OW72832   1.964   2.629   9.016 -0.0201 -0.4913  0.7419
23271SOL    HW172833   1.899   2.560   9.026 -1.9054  0.6170 -2.9477
23271SOL    HW272834   1.921   2.708   9.048 -0.6311  0.2629 -1.7938
23272SOL     OW72835   8.104   0.419   9.278 -0.4088 -0.1861 -0.3632
23272SOL    HW172836   8.044   0.442   9.349  0.4155  0.6037  0.0821
23272SOL    HW272837   8.047   0.407   9.202 -0.8119  4.2622 -0.8425
23273SOL     OW72838   0.879   0.976   7.092 -0.6474  0.3481  0.0539
23273SOL    HW172839   0.810   1.039   7.113 -2.8226 -1.4771 -1.4222
23273SOL    HW272840   0.908   0.943   7.177 -1.3273  1.3901  0.7077
23274SOL     OW72841   8.470   0.741   7.005 -0.6732  0.0940  0.4086
23274SOL    HW172842   8.454   0.680   6.933 -1.1097 -0.0298  0.6070
23274SOL    HW272843   8.456   0.827   6.967  1.4351  0.1689 -0.2660
23275SOL     OW72844   4.036   3.801   1.087  0.6723 -0.5591 -0.3210
23275SOL    HW172845   3.946   3.774   1.070  0.5831 -0.6007  0.2294
23275SOL    HW272846   4.034   3.896   1.083  0.4548 -0.5289  0.4315
23276SOL     OW72847   9.234   1.737   1.023  0.5825  0.3953 -0.1763
23276SOL    HW172848   9.219   1.647   0.997 -0.5736  0.8124 -0.9875
23276SOL    HW272849   9.238   1.734   1.119 -2.3713 -0.1171 -0.0201
23277SOL     OW72850   6.325   2.212   3.702  0.0765 -0.4479 -0.4682
23277SOL    HW172851   6.371   2.293   3.681 -0.0183 -0.5465 -1.0520
23277SOL    HW272852   6.281   2.230   3.786  1.1229 -0.3335  0.0684
23278SOL     OW72853   5.815   3.458   1.915  1.1642  0.0876  0.8548
23278SOL    HW172854   5.884   3.474   1.979  0.3241  0.5939  1.6547
23278SOL    HW272855   5.801   3.364   1.917  3.1725 -0.2795 -0.7397
23279SOL     OW72856   7.598   1.820   8.127 -0.5876  0.7573 -0.3977
23279SOL    HW172857   7.692   1.837   8.129 -0.3629 -0.4671  0.1314
23279SOL    HW272858   7.572   1.833   8.036  0.6303 -1.6559 -1.1127
23280SOL     OW72859   7.220   0.253   9.318 -0.2071  0.1168  0.8226
23280SOL    HW172860   7.275   0.265   9.395 -1.3315  0.8580  1.5305
23280SOL    HW272861   7.130   0.260   9.351 -0.6853  3.7412 -1.0533
23281SOL     OW72862   7.046   3.087   4.290 -0.0843  0.2332 -0.2754
23281SOL    HW172863   6.970   3.045   4.250  0.1946 -0.5632  0.0193
23281SOL    HW272864   7.031   3.180   4.279 -1.7237  0.1286  0.9190
23282SOL     OW72865   5.597   2.394   5.643 -0.1590  0.2128  0.4180
23282SOL    HW172866   5.672   2.341   5.671 -0.5109  0.2804  1.4996
23282SOL    HW272867   5.555   2.342   5.574  2.2742  1.2523 -1.9480
23283SOL     OW72868   7.558   5.096   5.560  0.0003  0.7594  0.0096
23283SOL    HW172869   7.505   5.176   5.567 -1.1432  0.0307 -0.1036
23283SOL    HW272870   7.542   5.065   5.470  0.7696  0.6248 -0.0846
23284SOL     OW72871   0.607   6.195   3.403 -0.1569  0.2502 -0.0922
23284SOL    HW172872   0.638   6.239   3.324  0.0964 -1.8217 -1.2095
23284SOL    HW272873   0.512   6.205   3.401 -0.3007 -1.1395 -1.5568
23285SOL     OW72874   0.761   7.561   0.031  0.5057 -0.5949 -0.4939
23285SOL    HW172875   0.748   7.558   0.126 -0.8802  0.1227 -0.6496
23285SOL    HW272876   0.846   7.519   0.017  1.0505 -0.0545  1.1246
23286SOL     OW72877   2.591   1.758   3.825  0.2058  0.1661  0.8690
23286SOL    HW172878   2.602   1.700   3.900 -1.3120 -0.1539  0.8585
23286SOL    HW272879   2.565   1.700   3.753 -0.8862  0.7720  0.7528
23287SOL     OW72880   9.393   4.499   1.915 -0.0670 -0.0088  0.6656
23287SOL    HW172881   9.364   4.412   1.941 -0.8384  0.6777  2.1058
23287SOL    HW272882   9.375   4.555   1.990 -1.8408  1.9064 -1.1321
23288SOL     OW72883   0.998   0.942   4.793 -0.0105 -0.5793 -0.9882
23288SOL    HW172884   0.940   1.017   4.809  0.5488 -0.7166  1.9185
23288SOL    HW272885   1.082   0.982   4.770  0.1319 -0.3074 -0.0125
23289SOL     OW72886   3.025   6.099   3.809  0.5632  0.1043 -0.2134
23289SOL    HW172887   3.005   6.187   3.777 -2.0036 -0.3512  0.0471
23289SOL    HW272888   2.977   6.040   3.752  1.5475 -1.1077  0.1699
23290SOL     OW72889   1.135   8.565   8.629  0.3070 -0.2043 -0.1257
23290SOL    HW172890   1.129   8.469   8.623 -0.5262 -0.0755 -1.5438
23290SOL    HW272891   1.044   8.595   8.629  0.5680  0.5951  0.2870
23291SOL     OW72892   3.775   3.187   5.320  0.4831  0.2305 -0.2222
23291SOL    HW172893   3.813   3.163   5.236  0.2149 -0.9967 -0.0053
23291SOL    HW272894   3.823   3.135   5.384  0.2232  0.6420  0.3134
23292SOL     OW72895   7.444   1.736   6.620 -0.1885 -0.6614  0.1237
23292SOL    HW172896   7.482   1.708   6.536  0.9046 -0.3585  0.5081
23292SOL    HW272897   7.389   1.662   6.647 -1.3964 -0.3450 -1.3633
23293SOL     OW72898   5.099   9.007   4.234  0.0318 -0.1068 -0.5922
23293SOL    HW172899   5.042   8.934   4.260  1.1957 -0.6429  0.4674
23293SOL    HW272900   5.080   9.076   4.297  0.9191 -0.4692  0.0797
23294SOL     OW72901   2.406   5.630   0.043 -0.2305  0.1049 -0.2790
23294SOL    HW172902   2.399   5.615  -0.051  0.5517 -0.8860 -0.1961
23294SOL    HW272903   2.485   5.683   0.053 -1.0357  1.3225 -0.2784
23295SOL     OW72904   7.389   5.523   0.318 -0.2206  0.0175 -0.2264
23295SOL    HW172905   7.426   5.610   0.333  0.2844 -0.1492 -0.4944
23295SOL    HW272906   7.446   5.484   0.251  0.3329 -1.0091  0.8235
23296SOL     OW72907   0.291   8.151   7.718 -0.0767 -0.1814 -0.1413
23296SOL    HW172908   0.341   8.192   7.647  0.1866 -0.0087  0.1435
23296SOL    HW272909   0.357   8.103   7.769 -0.5418 -1.9390 -1.1538
23297SOL     OW72910   6.074   1.550   4.413 -0.0575  0.4148 -0.2998
23297SOL    HW172911   5.998   1.491   4.423 -0.4545  0.7039 -1.5954
23297SOL    HW272912   6.147   1.491   4.396 -0.7682  0.3677 -3.3772
23298SOL     OW72913   4.562   5.939   1.541  0.4368 -0.0197 -0.5803
23298SOL    HW172914   4.644   5.951   1.589  1.3742  1.5514 -2.5205
23298SOL    HW272915   4.523   6.027   1.539 -1.1592 -0.6962  0.0625
23299SOL     OW72916   7.346   6.585   3.091 -0.0246 -0.4147  0.3743
23299SOL    HW172917   7.308   6.604   3.177  0.3445  1.1686  0.2103
23299SOL    HW272918   7.317   6.658   3.036  1.3144 -0.4246 -0.3528
23300SOL     OW72919   4.475   8.307   5.234  0.2120  0.1962 -0.3073
23300SOL    HW172920   4.481   8.246   5.162  1.0731 -0.3065  0.1750
23300SOL    HW272921   4.425   8.261   5.302 -2.4841  1.4614 -1.3624
23301SOL     OW72922   3.449   7.472   0.291  0.5390 -0.4780  0.0465
23301SOL    HW172923   3.434   7.566   0.294 -0.2335 -0.6110  1.0969
23301SOL    HW272924   3.361   7.434   0.287  0.8332 -1.1524 -0.1683
23302SOL     OW72925   9.244   2.014   0.675  0.1680 -0.0466 -0.9036
23302SOL    HW172926   9.233   2.022   0.770 -2.3268 -0.0098 -1.1625
23302SOL    HW272927   9.333   1.982   0.664 -0.1697 -1.9479  1.5426
23303SOL     OW72928   0.870   1.978   0.568 -0.0856  0.2885 -0.0909
23303SOL    HW172929   0.779   1.956   0.587  0.4640 -1.1957  0.9685
23303SOL    HW272930   0.898   2.031   0.642 -0.1472  0.9352 -0.5265
23304SOL     OW72931   6.632   6.078   5.051 -0.6250 -0.6659 -0.0261
23304SOL    HW172932   6.722   6.057   5.075 -0.5547  2.4117  2.6363
23304SOL    HW272933   6.639   6.143   4.982 -0.8148  0.0160  0.5978
23305SOL     OW72934   6.053   0.016   7.189 -0.8331 -0.2495 -0.0740
23305SOL    HW172935   6.064   0.063   7.106  1.8879 -1.9318 -0.7453
23305SOL    HW272936   6.032   0.083   7.253 -0.8652  1.3517 -1.7396
23306SOL     OW72937   7.846   8.335   4.010 -0.1259  0.2461  0.1511
23306SOL    HW172938   7.807   8.414   4.047  1.3807  0.0717  2.1936
23306SOL    HW272939   7.775   8.271   4.009 -0.1655  0.1991  2.9726
23307SOL     OW72940   5.339   1.145   2.320  0.0659  0.3964  0.2576
23307SOL    HW172941   5.298   1.227   2.293  0.0262  0.2350 -0.1746
23307SOL    HW272942   5.297   1.078   2.267 -0.9256 -0.0969  1.6322
23308SOL     OW72943   6.654   7.117   3.114  0.0746 -0.6742 -0.7528
23308SOL    HW172944   6.593   7.080   3.178  0.2001  0.5906  0.1084
23308SOL    HW272945   6.610   7.106   3.030 -1.9415  1.3514 -0.0218
23309SOL     OW72946   8.254   6.049   5.115  0.7021 -0.2935 -0.0700
23309SOL    HW172947   8.343   6.021   5.092  1.5994  2.9114 -0.6776
23309SOL    HW272948   8.198   6.004   5.052  2.0624 -0.9377 -0.8471
23310SOL     OW72949   2.122   4.257   5.347 -0.2355  0.0684 -0.2426
23310SOL    HW172950   2.099   4.313   5.421 -0.7536  0.8867 -1.0099
23310SOL    HW272951   2.041   4.213   5.323  0.2565 -1.3155  0.6016
23311SOL     OW72952   5.444   8.521   6.866  0.1135 -0.1311 -0.3492
23311SOL    HW172953   5.469   8.556   6.951 -0.9796  1.2388 -0.5790
23311SOL    HW272954   5.515   8.461   6.843  1.8812  1.7272  0.1893
23312SOL     OW72955   0.875   0.095   5.037  0.1481 -0.4916 -0.0345
23312SOL    HW172956   0.811   0.060   4.975 -0.7414 -1.5541  1.4563
23312SOL    HW272957   0.903   0.019   5.088  1.2047  0.2916  0.5653
23313SOL     OW72958   8.995   0.155   0.954  0.5526 -0.3253  0.3036
23313SOL    HW172959   9.075   0.161   1.006  0.4429  0.1952  0.4199
23313SOL    HW272960   8.968   0.246   0.941 -0.3656 -0.5089  0.8120
23314SOL     OW72961   3.203   7.805   0.402 -0.2463 -0.3106 -0.6086
23314SOL    HW172962   3.138   7.874   0.391  0.0825 -0.1214 -1.3906
23314SOL    HW272963   3.197   7.781   0.494 -0.2752  0.8432 -0.3066
23315SOL     OW72964   8.391   5.971   2.067 -0.0086  0.1419  0.8850
23315SOL    HW172965   8.381   5.946   2.159 -0.6666 -2.0364  0.2462
23315SOL    HW272966   8.342   5.905   2.019 -1.2625  2.3327 -0.9449
23316SOL     OW72967   2.218   4.743   1.427  0.4856  0.6870 -0.2090
23316SOL    HW172968   2.267   4.695   1.494 -0.3293  0.2829  0.0995
23316SOL    HW272969   2.126   4.727   1.448  0.2237  0.8043 -1.2512
23317SOL     OW72970   5.176   9.202   4.645  0.2393  0.1128  0.1998
23317SOL    HW172971   5.230   9.169   4.717  2.8208  0.8426 -1.3627
23317SOL    HW272972   5.128   9.125   4.614  0.9858 -0.7255  1.0857
23318SOL     OW72973   8.189   5.180   3.320  0.1077 -0.4322 -0.4015
23318SOL    HW172974   8.131   5.109   3.292 -0.2238 -0.0956 -0.5678
23318SOL    HW272975   8.250   5.138   3.382 -0.7682 -0.6335  0.3315
23319SOL     OW72976   8.133   3.820   7.151 -0.4328 -0.7456 -1.0217
23319SOL    HW172977   8.147   3.772   7.233 -1.8462 -3.2967 -2.2199
23319SOL    HW272978   8.071   3.890   7.174 -0.9673 -1.5633  0.0644
23320SOL     OW72979   5.054   4.636   6.321 -0.9143  0.5330 -0.5355
23320SOL    HW172980   5.072   4.705   6.257 -3.1370 -0.1905 -2.0301
23320SOL    HW272981   5.007   4.569   6.271  0.8646 -1.9293  0.9547
23321SOL     OW72982   8.765   6.342   7.767  0.2328 -0.3206  0.0876
23321SOL    HW172983   8.707   6.274   7.800 -0.3663 -0.6556 -1.6061
23321SOL    HW272984   8.830   6.296   7.715 -0.3549  0.4087 -1.3256
23322SOL     OW72985   6.359   3.970   0.758 -0.1752  0.7789 -0.3042
23322SOL    HW172986   6.412   4.042   0.726 -1.4233  0.4328 -3.3578
23322SOL    HW272987   6.292   3.957   0.690 -1.3243 -1.7857  1.2245
23323SOL     OW72988   3.502   7.481   6.204 -0.4896  0.2412  0.0851
23323SOL    HW172989   3.478   7.567   6.237 -1.0999  0.3557 -0.6341
23323SOL    HW272990   3.521   7.429   6.283 -0.4745  0.9258  0.5329
23324SOL     OW72991   9.287   6.646   0.498 -0.5873 -0.2558  0.9186
23324SOL    HW172992   9.240   6.729   0.498  0.9459  0.7169 -3.0394
23324SOL    HW272993   9.225   6.584   0.459 -0.0046  0.1763 -0.7356
23325SOL     OW72994   6.480   8.404   3.923  0.4387 -0.3382  0.0226
23325SOL    HW172995   6.422   8.369   3.990  0.6931 -0.1909  0.3232
23325SOL    HW272996   6.532   8.470   3.968  1.4731 -1.1038 -0.0150
23326SOL     OW72997   0.506   0.899   3.157  0.0800  0.0157 -0.0835
23326SOL    HW172998   0.579   0.958   3.178  0.3674 -0.8961  1.5771
23326SOL    HW272999   0.450   0.950   3.098  1.0598  1.4257  0.1762
23327SOL     OW73000   9.198   0.787   4.926  0.0448 -0.0307 -0.0079
23327SOL    HW173001   9.248   0.856   4.882 -0.9568  0.5193 -0.2950
23327SOL    HW273002   9.107   0.814   4.916 -0.2387 -0.3157  1.7039
23328SOL     OW73003   9.440   6.742   7.672 -0.1575  0.1497 -0.2388
23328SOL    HW173004   9.485   6.806   7.616  0.4750 -1.2701 -1.3840
23328SOL    HW273005   9.400   6.680   7.610  1.3028 -1.9620  0.8791
23329SOL     OW73006   3.259   0.338   1.985  0.0808 -0.1949 -0.1743
23329SOL    HW173007   3.342   0.290   1.991 -0.3245 -0.9932 -0.8542
23329SOL    HW273008   3.203   0.295   2.050 -0.8257 -1.7743 -1.9436
23330SOL     OW73009   9.341   8.972   7.296  0.2461  0.3944 -0.5528
23330SOL    HW173010   9.397   8.909   7.251  0.9533  1.4737 -1.1825
23330SOL    HW273011   9.384   8.986   7.380 -0.8962 -1.3618  0.3720
23331SOL     OW73012   0.963   7.049   1.554 -0.0214 -0.4792  0.0578
23331SOL    HW173013   0.897   6.981   1.564  0.3908 -0.6872  1.5041
23331SOL    HW273014   0.925   7.110   1.490 -0.8224 -1.5260 -0.4786
23332SOL     OW73015   1.330   6.040   5.151 -0.0342  0.0370  0.3108
23332SOL    HW173016   1.235   6.037   5.158 -0.0645 -0.8684 -0.4112
23332SOL    HW273017   1.349   6.121   5.103 -0.5658 -1.0257 -1.6918
23333SOL     OW73018   4.361   3.275   1.699  0.1427  0.3909  0.0557
23333SOL    HW173019   4.436   3.307   1.648 -1.0754  2.2150 -0.6361
23333SOL    HW273020   4.391   3.280   1.790  1.3230 -0.1681 -0.2840
23334SOL     OW73021   1.688   0.195   2.409 -0.2268 -0.3063  0.3777
23334SOL    HW173022   1.648   0.275   2.373 -2.8266 -1.4070  0.6616
23334SOL    HW273023   1.743   0.225   2.480  0.7722  1.4479 -1.1058
23335SOL     OW73024   3.757   3.586   7.330 -0.5635 -0.5577 -0.3286
23335SOL    HW173025   3.678   3.622   7.290  0.2299 -0.0196 -1.4230
23335SOL    HW273026   3.748   3.608   7.423 -1.6193 -0.3641 -0.4605
23336SOL     OW73027   6.693   1.322   2.000  0.3590 -0.2080 -0.6021
23336SOL    HW173028   6.674   1.387   1.932 -1.6518  1.2598  1.3182
23336SOL    HW273029   6.645   1.244   1.973 -1.1542  0.6536 -0.4310
23337SOL     OW73030   8.829   4.012   2.131 -0.1943 -0.1460 -0.5627
23337SOL    HW173031   8.751   3.959   2.111 -0.5522 -0.3252  1.2280
23337SOL    HW273032   8.892   3.949   2.166  0.2591  0.2246 -0.7054
23338SOL     OW73033   5.391   3.710   4.903 -0.1221 -0.1577  0.4880
23338SOL    HW173034   5.431   3.661   4.832  2.2355  1.0374  0.9467
23338SOL    HW273035   5.374   3.797   4.867  1.0889  0.4548  1.3629
23339SOL     OW73036   1.945   1.978   3.596 -0.2146  0.4092  0.2272
23339SOL    HW173037   2.035   1.956   3.571 -0.8101 -1.6939 -0.1937
23339SOL    HW273038   1.945   1.972   3.691  0.3381  1.3991  0.2891
23340SOL     OW73039   3.865   4.932   4.664 -0.1099 -0.2716 -0.4240
23340SOL    HW173040   3.841   4.907   4.575 -2.0962 -0.4977  0.1569
23340SOL    HW273041   3.942   4.877   4.684  0.2429 -0.3521 -1.9072
23341SOL     OW73042   3.166   9.325   3.697 -0.6431 -0.2300  0.9371
23341SOL    HW173043   3.116   9.254   3.656  0.2605 -1.0706  1.2862
23341SOL    HW273044   3.256   9.309   3.671 -0.6479  1.8070 -0.4448
23342SOL     OW73045   5.648   4.293   8.188  0.1895 -0.3716  0.3931
23342SOL    HW173046   5.563   4.269   8.150  0.1152  2.0017 -1.0110
23342SOL    HW273047   5.655   4.237   8.266 -0.6765 -3.7448 -1.8134
23343SOL     OW73048   5.933   4.778   8.112  0.2524  0.1717 -0.2650
23343SOL    HW173049   5.923   4.719   8.187  1.0312  0.6879  0.2593
23343SOL    HW273050   6.006   4.835   8.136  0.6038  0.2534 -1.4801
23344SOL     OW73051   6.185   5.217   6.249  0.3794 -0.0889  0.2345
23344SOL    HW173052   6.280   5.212   6.253  0.4678  1.8843  1.6195
23344SOL    HW273053   6.160   5.261   6.330 -1.8610 -2.1274  0.7241
23345SOL     OW73054   2.437   1.991   4.873 -0.2979  0.0832 -0.3836
23345SOL    HW173055   2.471   2.080   4.878 -1.8431  0.6819 -0.4519
23345SOL    HW273056   2.462   1.961   4.785 -0.5263  0.7561 -0.6784
23346SOL     OW73057   0.265   8.385   5.017 -0.5973  0.1649 -0.2768
23346SOL    HW173058   0.235   8.341   4.937 -0.3957 -0.2809 -0.1048
23346SOL    HW273059   0.329   8.326   5.055 -1.0795  0.1351  0.4971
23347SOL     OW73060   0.366   7.198   8.955  0.0878  0.2413  0.6034
23347SOL    HW173061   0.379   7.122   8.898 -1.4312  0.1318  0.4000
23347SOL    HW273062   0.365   7.273   8.895  2.2960  0.5347  0.8659
23348SOL     OW73063   1.270   7.772   9.232 -0.0868 -0.3717  0.0369
23348SOL    HW173064   1.195   7.743   9.180 -1.0241  0.3106  1.0023
23348SOL    HW273065   1.280   7.706   9.300 -1.1885  0.6558  1.2272
23349SOL     OW73066   8.255   0.833   1.804 -0.6966  0.1427 -0.4727
23349SOL    HW173067   8.244   0.748   1.846 -0.6547  0.0956 -0.5573
23349SOL    HW273068   8.331   0.872   1.848 -1.2606  0.5164  0.1919
23350SOL     OW73069   7.562   4.493   2.448  0.7772 -0.5339  0.3077
23350SOL    HW173070   7.488   4.515   2.391  3.0863  0.8780 -2.2816
23350SOL    HW273071   7.558   4.558   2.519  0.6236  0.7471 -0.8563
23351SOL     OW73072   7.228   8.463   0.106  0.2974 -0.4530 -0.0470
23351SOL    HW173073   7.288   8.530   0.141 -0.3113 -0.2367  0.5909
23351SOL    HW273074   7.141   8.500   0.119  0.0124 -0.8637 -0.7903
23352SOL     OW73075   0.636   4.273   3.113 -0.0766 -0.5255  0.0527
23352SOL    HW173076   0.675   4.187   3.097 -0.3928 -0.8634  1.0802
23352SOL    HW273077   0.654   4.291   3.205  0.0056  0.5200 -0.1650
23353SOL     OW73078   5.649   5.476   4.586 -0.0276  0.3325  0.2742
23353SOL    HW173079   5.650   5.545   4.652  0.7520 -1.6202  2.3624
23353SOL    HW273080   5.634   5.396   4.635 -1.1405 -0.9884 -2.1357
23354SOL     OW73081   7.305   2.902   8.112 -0.5908 -0.0192 -0.5510
23354SOL    HW173082   7.385   2.951   8.133 -0.8159 -0.2078  0.7769
23354SOL    HW273083   7.311   2.886   8.017  1.2137 -0.5092 -0.3683
23355SOL     OW73084   8.954   5.163   2.510  0.0726 -0.0061 -0.7672
23355SOL    HW173085   9.044   5.132   2.507  0.5335  1.2633 -0.4713
23355SOL    HW273086   8.911   5.122   2.435  1.1590  0.2179 -1.5118
23356SOL     OW73087   3.990   3.190   5.829  0.1691 -0.5215 -0.0138
23356SOL    HW173088   3.985   3.103   5.869 -1.8780 -1.6259 -2.4789
23356SOL    HW273089   4.073   3.190   5.782 -0.5699 -1.7986 -1.3542
23357SOL     OW73090   2.993   1.559   2.002  0.4072 -0.2521  0.5889
23357SOL    HW173091   3.080   1.597   1.989  1.3887 -2.7758 -0.5318
23357SOL    HW273092   3.000   1.509   2.084 -0.4173  0.6976  1.2493
23358SOL     OW73093   6.249   0.440   4.768  0.3768  0.0018 -0.6778
23358SOL    HW173094   6.231   0.346   4.778  0.3361  0.1530  0.6511
23358SOL    HW273095   6.308   0.444   4.692 -0.2283 -1.0280 -1.2123
23359SOL     OW73096   2.389   8.004   1.709  0.2912  0.0224  0.2846
23359SOL    HW173097   2.344   8.022   1.626 -0.5087  1.6378  1.0251
23359SOL    HW273098   2.350   7.922   1.740 -1.4290  0.8447  0.3882
23360SOL     OW73099   2.888   5.697   4.057 -0.3384  0.7965  0.1875
23360SOL    HW173100   2.799   5.660   4.050  0.4471 -0.9138 -1.2894
23360SOL    HW273101   2.933   5.665   3.979  2.0841  0.2262  1.7674
23361SOL     OW73102   1.727   1.672   3.909  0.0613 -0.3865 -0.4449
23361SOL    HW173103   1.708   1.755   3.865  1.5962 -0.1126 -0.6215
23361SOL    HW273104   1.668   1.609   3.868  0.4743  0.1640 -1.9037
23362SOL     OW73105   3.085   9.067   6.438  0.1785  0.5409  0.2878
23362SOL    HW173106   3.095   9.121   6.516  2.5683  0.5350  0.0234
23362SOL    HW273107   3.173   9.032   6.421 -0.1727  0.9233 -2.6657
23363SOL     OW73108   1.650   4.006   8.330 -0.3448 -0.5663 -0.2397
23363SOL    HW173109   1.620   4.097   8.332 -1.1421 -0.8232 -0.4135
23363SOL    HW273110   1.643   3.976   8.421  0.8046 -0.1773 -0.0093
23364SOL     OW73111   2.652   9.128   0.378  0.3191  0.1421  0.3352
23364SOL    HW173112   2.719   9.062   0.361 -1.1296 -1.6099  1.2414
23364SOL    HW273113   2.637   9.123   0.473 -2.7103 -1.1786 -0.1444
23365SOL     OW73114   3.462   7.182   5.696  0.5134  0.4478  0.2673
23365SOL    HW173115   3.523   7.176   5.770  2.1774  1.2013 -1.0116
23365SOL    HW273116   3.515   7.160   5.619 -0.6942  1.6370 -0.9370
23366SOL     OW73117   2.803   6.932   3.987  0.1639  0.4159 -0.1071
23366SOL    HW173118   2.738   6.972   4.045  1.0085  0.4153  0.8492
23366SOL    HW273119   2.877   6.911   4.044  0.6320 -0.4479 -1.0140
23367SOL     OW73120   1.869   7.745   9.079 -0.0751 -0.1816  0.0880
23367SOL    HW173121   1.950   7.796   9.083  0.9959 -1.6861 -1.5585
23367SOL    HW273122   1.835   7.748   9.168  1.8913  0.3423  0.8560
23368SOL     OW73123   5.717   0.491   1.417  0.0722  0.5325  0.0191
23368SOL    HW173124   5.803   0.492   1.375 -0.6924  1.3313 -1.5780
23368SOL    HW273125   5.699   0.399   1.435  1.1673  0.3515  0.1723
23369SOL     OW73126   0.744   0.157   8.775 -0.4526 -0.2936  0.2002
23369SOL    HW173127   0.812   0.092   8.759 -0.8986 -0.8110  0.3745
23369SOL    HW273128   0.790   0.240   8.778 -0.0837 -0.3920 -1.8243
23370SOL     OW73129   1.573   6.299   6.565 -0.3746  0.4411  0.4089
23370SOL    HW173130   1.644   6.325   6.625  0.6220 -1.6310  0.1794
23370SOL    HW273131   1.503   6.361   6.583  0.9693  1.6392  1.6857
23371SOL     OW73132   8.459   7.181   2.226 -0.1814 -0.2820 -0.3194
23371SOL    HW173133   8.464   7.141   2.313  0.6825  0.9559  0.2210
23371SOL    HW273134   8.482   7.110   2.166 -2.9440 -1.7493  0.2590
23372SOL     OW73135   2.820   0.132   6.317 -0.0683 -0.0504  0.0854
23372SOL    HW173136   2.763   0.085   6.257  0.6240 -0.5985 -0.1535
23372SOL    HW273137   2.813   0.083   6.399 -0.9407  0.6419  0.4229
23373SOL     OW73138   2.825   6.944   2.012 -0.2894  0.6911 -0.2632
23373SOL    HW173139   2.812   6.957   2.106  2.9292  0.1740  0.3244
23373SOL    HW273140   2.797   6.853   1.997  1.7091 -0.1300  0.7695
23374SOL     OW73141   8.052   0.321   6.262  0.4590  0.2015  0.6661
23374SOL    HW173142   8.085   0.388   6.322  1.1931  0.8891 -0.4687
23374SOL    HW273143   7.975   0.361   6.221  0.4107  0.0357  0.5926
23375SOL     OW73144   5.773   3.199   3.461  0.5880 -0.1086  0.1801
23375SOL    HW173145   5.767   3.183   3.367 -0.6662 -3.0203  0.6946
23375SOL    HW273146   5.866   3.192   3.481  0.8151  0.1588 -0.7729
23376SOL     OW73147   2.601   3.540   2.107  0.4912  0.2712  0.8658
23376SOL    HW173148   2.554   3.616   2.141  0.4274 -0.1834  1.7989
23376SOL    HW273149   2.571   3.532   2.016  0.0139  0.9726  0.9588
23377SOL     OW73150   1.007   8.503   0.613  0.0426 -0.4020 -0.0973
23377SOL    HW173151   1.048   8.456   0.685  0.3358  0.4656  0.3091
23377SOL    HW273152   1.056   8.475   0.535 -0.0866 -1.1152  0.0766
23378SOL     OW73153   4.196   3.634   0.575  0.0941 -0.4590  0.6006
23378SOL    HW173154   4.232   3.647   0.663  0.8239 -1.8839  0.5372
23378SOL    HW273155   4.197   3.721   0.535  1.1363 -0.0490  1.4876
23379SOL     OW73156   1.456   3.114   4.529  0.6400  0.3629 -0.5406
23379SOL    HW173157   1.544   3.087   4.554 -0.0431 -0.1922  1.3983
23379SOL    HW273158   1.399   3.045   4.562 -0.5322  0.6736 -1.8329
23380SOL     OW73159   2.223   6.192   5.037  0.7353  0.2659  0.2790
23380SOL    HW173160   2.294   6.221   4.980  0.6451 -0.3341 -0.1539
23380SOL    HW273161   2.248   6.221   5.125  0.8975  1.1662 -0.0590
23381SOL     OW73162   7.998   6.009   8.035 -0.3638 -0.0245 -0.3264
23381SOL    HW173163   7.936   6.075   8.006 -0.8943 -0.4313 -0.1133
23381SOL    HW273164   8.051   5.989   7.957 -1.7907 -1.1340 -1.0230
23382SOL     OW73165   5.658   1.741   4.384 -0.1778  0.1135 -0.2403
23382SOL    HW173166   5.663   1.836   4.389  0.7145  0.0233  0.7519
23382SOL    HW273167   5.749   1.711   4.391 -0.3788 -0.7824 -1.2858
23383SOL     OW73168   9.417   3.890   0.657 -0.7658  0.2236  0.2295
23383SOL    HW173169   9.411   3.885   0.752 -0.1549  0.9166  0.3028
23383SOL    HW273170   9.489   3.950   0.640 -0.5304 -0.2954 -0.6716
23384SOL     OW73171   3.217   6.311   8.814  0.3698 -0.0501 -1.0782
23384SOL    HW173172   3.249   6.397   8.787  2.1542 -0.6000 -0.7470
23384SOL    HW273173   3.208   6.261   8.733  0.4576  0.0640 -1.1569
23385SOL     OW73174   1.981   9.194   7.766  0.1201 -0.1148 -0.0369
23385SOL    HW173175   1.940   9.253   7.703  4.4936  2.9398 -0.2893
23385SOL    HW273176   2.011   9.120   7.712  0.2865  0.5672 -0.9006
23386SOL     OW73177   5.034   1.971   9.396 -0.4121  0.0091  0.1674
23386SOL    HW173178   5.033   2.065   9.376  2.3387  0.1580  0.4450
23386SOL    HW273179   4.968   1.959   9.464 -1.1093  1.6616 -0.2102
23387SOL     OW73180   8.704   7.987   4.440 -0.2367  0.5071 -0.0983
23387SOL    HW173181   8.628   7.986   4.498 -0.2381  0.6981 -0.0970
23387SOL    HW273182   8.707   7.899   4.403  0.3755  0.0708  0.9712
23388SOL     OW73183   7.646   1.248   8.442  0.0819 -0.1579 -0.0298
23388SOL    HW173184   7.646   1.152   8.446  0.0221 -0.1648 -0.1807
23388SOL    HW273185   7.725   1.274   8.490  1.4504 -0.3697 -2.1265
23389SOL     OW73186   8.021   7.530   7.940  0.0492 -0.0022 -0.1146
23389SOL    HW173187   8.037   7.597   8.007 -0.1038 -2.2057  2.2294
23389SOL    HW273188   7.977   7.460   7.988 -0.8372 -1.2945 -2.7616
23390SOL     OW73189   7.004   4.472   0.670  0.4969  0.9127  0.4539
23390SOL    HW173190   7.026   4.558   0.705  0.3605 -0.1535  3.2531
23390SOL    HW273191   7.085   4.422   0.675  0.6120  0.9035 -1.2967
23391SOL     OW73192   4.149   3.478   5.957  0.2485 -0.5480 -0.6420
23391SOL    HW173193   4.082   3.509   5.896 -0.9545  0.3420  1.0782
23391SOL    HW273194   4.192   3.557   5.988 -0.7209 -0.7984  1.4013
23392SOL     OW73195   7.228   0.603   7.179  0.2520  0.5486  0.0782
23392SOL    HW173196   7.210   0.525   7.230  0.2945 -0.4575 -1.4291
23392SOL    HW273197   7.180   0.591   7.097  1.9937  1.0925 -1.0551
23393SOL     OW73198   4.187   6.073   1.984 -0.0127  0.2450 -0.1605
23393SOL    HW173199   4.104   6.108   2.016 -0.0564 -0.6681  0.7077
23393SOL    HW273200   4.163   6.014   1.913  0.0010  1.1758 -0.9564
23394SOL     OW73201   1.275   7.358   0.136  0.2134 -0.1395  0.0518
23394SOL    HW173202   1.189   7.369   0.178  0.2825  2.4134 -0.4261
23394SOL    HW273203   1.283   7.263   0.125 -2.4004 -0.4626  0.4001
23395SOL     OW73204   1.630   8.163   0.593  0.5176 -0.1686 -0.2427
23395SOL    HW173205   1.554   8.151   0.651  0.7955 -1.5197 -0.1300
23395SOL    HW273206   1.599   8.136   0.507  0.4155  0.8136 -0.5175
23396SOL     OW73207   7.391   4.898   8.809 -0.2057  0.3966  0.6579
23396SOL    HW173208   7.430   4.853   8.734 -0.0540  2.4156 -0.5182
23396SOL    HW273209   7.409   4.991   8.793 -0.5928  0.8938  2.9634
23397SOL     OW73210   6.302   4.290   9.318 -0.2118  0.3145 -0.4251
23397SOL    HW173211   6.317   4.202   9.354 -0.9911 -0.3956 -1.7704
23397SOL    HW273212   6.380   4.340   9.342  0.7009 -1.0383 -0.5094
23398SOL     OW73213   2.784   2.035   2.286 -0.9043 -0.0168  0.1066
23398SOL    HW173214   2.768   2.128   2.274 -0.7011 -0.3532 -3.0785
23398SOL    HW273215   2.733   1.992   2.218  0.3311 -2.1366  0.4597
23399SOL     OW73216   2.011   5.458   3.768 -0.3411  0.5582  0.0812
23399SOL    HW173217   1.933   5.402   3.770  0.6596 -1.1799 -3.9914
23399SOL    HW273218   2.063   5.429   3.843 -2.9506  0.8481  2.0968
23400SOL     OW73219   3.478   3.741   5.070 -0.1127 -0.0930  0.0059
23400SOL    HW173220   3.531   3.772   4.996  0.5341 -0.2516  0.3964
23400SOL    HW273221   3.416   3.680   5.031  1.7317 -1.9519 -0.0910
23401SOL     OW73222   5.956   7.171   4.748  0.0885 -0.1547  0.0972
23401SOL    HW173223   6.050   7.170   4.766  0.1472  0.8754 -0.1101
23401SOL    HW273224   5.950   7.172   4.652 -0.1084  1.0819  0.1182
23402SOL     OW73225   1.380   1.258   6.743 -0.1154 -0.0403  0.0644
23402SOL    HW173226   1.449   1.236   6.804 -0.1795  0.8465  0.4535
23402SOL    HW273227   1.376   1.354   6.743 -1.1894 -0.0738 -0.1134
23403SOL     OW73228   6.165   0.156   0.136 -0.4025  0.3521  0.3595
23403SOL    HW173229   6.258   0.154   0.116 -0.7383 -0.3958 -1.2081
23403SOL    HW273230   6.155   0.231   0.195  0.7389  2.3520 -1.9114
23404SOL     OW73231   7.638   4.192   2.223  0.0152 -0.2132  0.3087
23404SOL    HW173232   7.705   4.181   2.155 -0.8715  0.7490 -0.7383
23404SOL    HW273233   7.671   4.264   2.278 -0.1208  0.2025 -0.1553
23405SOL     OW73234   7.986   8.782   9.223 -0.9950 -0.9877  0.4667
23405SOL    HW173235   8.015   8.749   9.138  0.4706 -1.3353  1.0783
23405SOL    HW273236   8.004   8.876   9.220  0.4204 -1.2291  0.9070
23406SOL     OW73237   2.007   1.360   4.640 -0.2546  0.1453 -0.6204
23406SOL    HW173238   2.068   1.296   4.605 -0.6182 -0.8476  0.5362
23406SOL    HW273239   1.971   1.404   4.563  0.5666 -0.5130 -1.3796
23407SOL     OW73240   1.113   3.199   2.864 -0.5350 -0.4507 -0.1906
23407SOL    HW173241   1.089   3.185   2.955  0.3090 -0.1926  0.0724
23407SOL    HW273242   1.208   3.201   2.864 -0.5345 -0.3138 -1.0568
23408SOL     OW73243   5.490   6.920   4.198 -0.8590  0.1929  0.5580
23408SOL    HW173244   5.405   6.880   4.178 -0.8002 -1.0461  2.5479
23408SOL    HW273245   5.551   6.847   4.198  0.0774  0.9714 -0.1345
23409SOL     OW73246   8.090   6.234   4.791 -0.4070  0.2185  0.3297
23409SOL    HW173247   8.025   6.255   4.858 -0.7917 -1.4185  0.5000
23409SOL    HW273248   8.044   6.176   4.731  0.6428 -0.2322 -0.0423
23410SOL     OW73249   5.075   6.204   3.350  0.4618 -0.4742 -0.0475
23410SOL    HW173250   5.020   6.147   3.296  0.5808 -0.4218 -0.2248
23410SOL    HW273251   5.127   6.144   3.403  0.8193 -0.5402 -0.4653
23411SOL     OW73252   1.000   6.401   0.045  0.0824 -0.8590 -0.2846
23411SOL    HW173253   0.978   6.477   0.099 -2.1513 -0.7756 -1.2540
23411SOL    HW273254   0.942   6.407  -0.031  0.8398 -2.7757 -1.0653
23412SOL     OW73255   1.272   2.677   0.166  0.0123 -0.2662  0.3850
23412SOL    HW173256   1.264   2.732   0.245  0.8823  1.7828 -0.9034
23412SOL    HW273257   1.361   2.643   0.170  0.5087  0.9008 -0.3465
23413SOL     OW73258   2.698   2.903   6.452  0.0039 -0.4767  0.7977
23413SOL    HW173259   2.624   2.910   6.512 -0.0105  0.9637  0.6151
23413SOL    HW273260   2.659   2.903   6.365  0.1699 -0.5510  0.7221
23414SOL     OW73261   3.236   3.118   1.370 -0.0074 -0.1859  0.0524
23414SOL    HW173262   3.178   3.127   1.446  0.8847  0.6260  0.6586
23414SOL    HW273263   3.313   3.072   1.404  0.3790  0.1475 -0.3659
23415SOL     OW73264   4.846   2.206   5.694 -0.6651  0.1202 -0.5771
23415SOL    HW173265   4.774   2.265   5.713 -0.0288  0.6765  0.1429
23415SOL    HW273266   4.898   2.205   5.775  1.9402  2.2809 -2.1276
23416SOL     OW73267   4.605   7.086   2.703  0.0558  0.1898 -0.1129
23416SOL    HW173268   4.552   7.030   2.759  0.4258  0.2394  0.2952
23416SOL    HW273269   4.546   7.115   2.634  0.0262 -1.1906 -0.6775
23417SOL     OW73270   3.056   3.259   4.579 -0.3173 -0.2409 -0.6492
23417SOL    HW173271   3.133   3.222   4.622 -0.6502  0.0475  0.2178
23417SOL    HW273272   3.091   3.319   4.514  0.2316 -1.9464 -1.9856
23418SOL     OW73273   7.575   8.919   8.324  0.6333  0.5039 -0.6046
23418SOL    HW173274   7.607   8.986   8.263 -0.9292  0.3540 -1.6365
23418SOL    HW273275   7.550   8.846   8.268 -0.7880  0.3371  0.2287
23419SOL     OW73276   3.445   7.224   4.346 -0.6584 -0.3650  0.4757
23419SOL    HW173277   3.429   7.319   4.340  1.4497 -0.1546 -4.4822
23419SOL    HW273278   3.535   7.218   4.377 -1.4099 -0.8975  2.6811
23420SOL     OW73279   1.701   5.733   2.207 -0.0179  0.7217  0.3634
23420SOL    HW173280   1.675   5.825   2.198 -1.0673  0.3691 -0.2430
23420SOL    HW273281   1.793   5.737   2.232  0.0773  1.9294 -0.1565
23421SOL     OW73282   2.359   4.635   1.162  0.5168 -0.1313 -0.7813
23421SOL    HW173283   2.336   4.641   1.254 -3.1391  2.6234 -1.7609
23421SOL    HW273284   2.384   4.724   1.138 -1.6710 -0.1075 -3.1730
23422SOL     OW73285   9.355   9.200   0.623  0.3997  0.1844  0.1800
23422SOL    HW173286   9.342   9.142   0.548  1.6500 -0.3070  0.3340
23422SOL    HW273287   9.355   9.288   0.585  0.1900 -0.0145 -0.2839
23423SOL     OW73288   0.219   0.781   3.770 -0.4916 -0.5036  0.8287
23423SOL    HW173289   0.138   0.815   3.807 -0.2598 -2.3968  3.1894
23423SOL    HW273290   0.278   0.772   3.844  1.6042 -0.0388 -0.7167
23424SOL     OW73291   0.373   0.028   7.524  0.2845  0.3107  0.7133
23424SOL    HW173292   0.348   0.056   7.612  1.0828 -0.0407  1.0567
23424SOL    HW273293   0.459  -0.013   7.535  0.8235  1.1072 -0.3755
23425SOL     OW73294   8.882   6.104   7.989 -0.4807  0.2625  0.3822
23425SOL    HW173295   8.831   6.168   7.940  1.7293  1.7230 -0.0964
23425SOL    HW273296   8.879   6.135   8.079 -1.0046 -0.0439  0.4729
23426SOL     OW73297   2.951   1.873   2.972 -0.2546 -0.0765  0.2448
23426SOL    HW173298   3.003   1.920   3.038  1.1562 -1.7261  0.3608
23426SOL    HW273299   2.978   1.911   2.889  0.8257 -0.5869  0.3444
23427SOL     OW73300   2.536   8.963   6.050  0.4337 -0.5830  0.1971
23427SOL    HW173301   2.489   9.045   6.043  3.1443  1.2252  2.0812
23427SOL    HW273302   2.579   8.952   5.966 -1.0460 -0.8294 -0.5481
23428SOL     OW73303   1.943   4.267   7.334 -0.1208  0.2568 -0.5024
23428SOL    HW173304   1.907   4.298   7.251 -0.9935 -0.0907 -0.2598
23428SOL    HW273305   1.992   4.188   7.310 -0.0607  0.3676 -0.7447
23429SOL     OW73306   8.338   5.484   6.581 -0.1838  0.6744  0.2292
23429SOL    HW173307   8.371   5.527   6.502 -2.0280  0.5438 -0.6457
23429SOL    HW273308   8.338   5.553   6.648 -0.3345  1.2700 -0.3770
23430SOL     OW73309   7.911   1.296   0.455  0.0368 -0.0860  0.3494
23430SOL    HW173310   8.006   1.299   0.461  0.2826 -1.2995 -2.3077
23430SOL    HW273311   7.883   1.264   0.541  2.0504 -0.2145  0.9938
23431SOL     OW73312   5.549   5.876   3.133 -0.6301 -0.7027  0.3864
23431SOL    HW173313   5.536   5.894   3.040  2.0457 -0.6297 -0.0267
23431SOL    HW273314   5.582   5.958   3.169 -1.3651 -0.8178  1.3365
23432SOL     OW73315   6.506   5.171   2.326 -0.4410 -0.3737  0.0284
23432SOL    HW173316   6.554   5.248   2.297 -0.6343  0.4530  1.8430
23432SOL    HW273317   6.568   5.099   2.314  0.7518  0.4684  0.9334
23433SOL     OW73318   2.387   2.880   7.047  1.0465  0.5827  0.1879
23433SOL    HW173319   2.375   2.937   6.971  0.9300  1.0407  0.5433
23433SOL    HW273320   2.478   2.851   7.041  0.3430 -1.3192 -1.4346
23434SOL     OW73321   8.983   6.131   8.593 -0.3831  0.0814 -0.4430
23434SOL    HW173322   8.927   6.110   8.668 -0.2792 -2.1015 -0.9353
23434SOL    HW273323   8.957   6.220   8.567 -1.0358  0.5100  1.6065
23435SOL     OW73324   6.332   3.084   3.535  0.0447  0.2236  0.0054
23435SOL    HW173325   6.240   3.097   3.512  0.1703 -0.2065 -0.7569
23435SOL    HW273326   6.379   3.090   3.452  0.3753 -2.5689 -0.0685
23436SOL     OW73327   4.095   3.970   7.450  0.4268 -0.1736 -0.2933
23436SOL    HW173328   4.140   3.889   7.475 -0.7738 -0.4887  0.9408
23436SOL    HW273329   4.050   3.948   7.369  1.1912 -0.3375 -0.6773
23437SOL     OW73330   4.893   0.308   5.564 -0.2687 -0.1000 -0.1722
23437SOL    HW173331   4.936   0.325   5.480 -1.1347 -0.8465 -0.7776
23437SOL    HW273332   4.963   0.273   5.620  0.5054  1.2324 -0.2919
23438SOL     OW73333   4.362   1.833   0.899 -0.6887 -0.5560  0.0204
23438SOL    HW173334   4.394   1.903   0.842 -0.9876 -0.0627  0.4591
23438SOL    HW273335   4.422   1.760   0.883 -1.0892 -0.5996 -1.3177
23439SOL     OW73336   7.167   9.006   5.571  0.5289  0.2534 -0.0994
23439SOL    HW173337   7.163   9.099   5.548  0.0357  0.5102  0.9967
23439SOL    HW273338   7.085   8.969   5.538  0.1702  0.4605  0.5578
23440SOL     OW73339   9.091   5.347   5.706 -0.0517  0.1534  0.1138
23440SOL    HW173340   9.102   5.349   5.801 -1.4393  2.6825  0.2821
23440SOL    HW273341   8.996   5.347   5.693  0.1216  0.0794 -1.2755
23441SOL     OW73342   2.946   8.776   7.216 -0.3278 -0.1122 -0.9123
23441SOL    HW173343   2.891   8.788   7.293  0.4331 -1.1845 -0.1893
23441SOL    HW273344   2.921   8.691   7.181 -0.0197 -0.0386 -1.3192
23442SOL     OW73345   7.134   3.103   5.162  0.2359  0.2107 -0.3526
23442SOL    HW173346   7.178   3.019   5.178 -0.2695 -0.2053 -1.1390
23442SOL    HW273347   7.130   3.144   5.249  2.1210  0.2449 -0.2508
23443SOL     OW73348   2.669   7.849   0.684 -0.6170 -0.3022  0.6066
23443SOL    HW173349   2.674   7.820   0.775 -0.1530  0.9666  0.9984
23443SOL    HW273350   2.628   7.935   0.688 -1.6554 -0.7346 -0.4997
23444SOL     OW73351   3.352   8.125   8.737  0.5010 -0.4041 -0.5288
23444SOL    HW173352   3.273   8.148   8.688  1.3385 -0.1385 -1.7817
23444SOL    HW273353   3.390   8.209   8.763 -0.0653 -0.5509  0.7945
23445SOL     OW73354   5.164   8.466   6.872  0.6878  0.2098  0.3337
23445SOL    HW173355   5.256   8.493   6.869  0.4359  0.9345 -2.4949
23445SOL    HW273356   5.150   8.419   6.789 -1.5481  0.3725  0.5954
23446SOL     OW73357   5.053   8.791   4.909  0.1845 -0.5288 -0.1299
23446SOL    HW173358   4.976   8.845   4.928 -0.2219 -0.6534 -1.3265
23446SOL    HW273359   5.080   8.756   4.993  0.5435  1.6587  0.7093
23447SOL     OW73360   0.317   1.914   7.883  0.6002  0.0802 -0.6089
23447SOL    HW173361   0.275   1.953   7.806  1.5710 -0.4284 -1.4072
23447SOL    HW273362   0.335   1.824   7.857 -2.8758 -1.3748  1.6944
23448SOL     OW73363   6.304   1.281   3.249 -0.1637 -0.0784  0.4959
23448SOL    HW173364   6.316   1.276   3.344  1.9375  0.6336  0.3023
23448SOL    HW273365   6.301   1.375   3.231  1.3702 -0.1767 -0.3394
23449SOL     OW73366   4.130   4.760   2.022 -0.1543  0.1728  0.1836
23449SOL    HW173367   4.116   4.796   2.110  0.2124  1.8841 -0.4597
23449SOL    HW273368   4.042   4.742   1.990 -0.5294  3.1527 -0.5844
23450SOL     OW73369   1.409   8.156   8.709  0.5096  0.6280  0.1097
23450SOL    HW173370   1.345   8.089   8.733 -0.5805  1.1578 -1.2372
23450SOL    HW273371   1.474   8.110   8.657  0.7550  0.2633  0.7303
23451SOL     OW73372   4.092   6.237   4.785  0.0182  0.3455  0.1638
23451SOL    HW173373   4.001   6.224   4.759  0.1802  0.0777 -0.2699
23451SOL    HW273374   4.087   6.300   4.856 -0.5054  0.3648  0.1145
23452SOL     OW73375   2.417   1.228   0.072  0.5715 -0.5459  0.1111
23452SOL    HW173376   2.350   1.160   0.086 -0.0629  0.3759  1.5962
23452SOL    HW273377   2.495   1.179   0.048  0.1815 -1.8361  1.3913
23453SOL     OW73378   4.155   0.996   5.408 -0.6440 -0.2755  0.0937
23453SOL    HW173379   4.099   0.926   5.443  0.3781 -1.2626 -0.2248
23453SOL    HW273380   4.230   0.950   5.370  0.6027  1.0674  0.8976
23454SOL     OW73381   0.931   4.233   2.258 -0.0516 -0.1585 -0.0715
23454SOL    HW173382   0.998   4.165   2.248  1.4419  1.6244 -2.6273
23454SOL    HW273383   0.852   4.196   2.219  0.0687 -1.3477  0.7862
23455SOL     OW73384   3.684   8.281   6.690  0.7503 -0.2648 -0.0704
23455SOL    HW173385   3.697   8.187   6.681  0.9954 -0.1150 -1.4047
23455SOL    HW273386   3.771   8.319   6.672  0.5645  0.2417  0.0750
23456SOL     OW73387   0.977   1.057   3.904  0.5479 -0.8358 -0.3230
23456SOL    HW173388   1.006   1.129   3.960 -3.8869  0.3260  0.6612
23456SOL    HW273389   0.967   0.983   3.963 -1.6044 -0.3042  0.0446
23457SOL     OW73390   1.668   7.509   1.458 -0.1793  0.0272  0.3349
23457SOL    HW173391   1.659   7.433   1.515  1.6770 -1.3252 -1.1176
23457SOL    HW273392   1.587   7.512   1.407 -1.3730  0.5945  2.2042
23458SOL     OW73393   7.208   4.956   0.808  0.2897 -0.7098  0.2574
23458SOL    HW173394   7.289   4.982   0.765  1.0183  0.7557  2.4407
23458SOL    HW273395   7.145   5.023   0.782 -0.2510 -1.8260 -1.4052
23459SOL     OW73396   8.365   8.232   1.617  0.8182 -0.0837  0.7007
23459SOL    HW173397   8.285   8.230   1.670  0.4458 -0.0064  0.1387
23459SOL    HW273398   8.353   8.162   1.553  1.1127  0.0692  0.4805
23460SOL     OW73399   2.337   1.844   4.510  0.3365 -0.4677  0.5613
23460SOL    HW173400   2.354   1.757   4.547 -1.3955 -0.9442  0.3265
23460SOL    HW273401   2.243   1.858   4.526  0.1913  0.5353 -1.0843
23461SOL     OW73402   2.732   1.170   1.121 -0.3309 -0.5536 -0.4851
23461SOL    HW173403   2.789   1.105   1.079  0.6904  1.1862 -1.8223
23461SOL    HW273404   2.652   1.170   1.069 -0.4753 -0.9868 -0.2674
23462SOL     OW73405   6.455   4.708   5.281  0.1237 -0.1907 -0.3439
23462SOL    HW173406   6.403   4.639   5.324  0.8911 -1.0486 -0.7664
23462SOL    HW273407   6.465   4.776   5.347 -0.9763 -0.3030 -0.0386
23463SOL     OW73408   3.336   1.753   0.939  0.3666 -0.3230 -0.0032
23463SOL    HW173409   3.375   1.797   0.863  3.0660 -1.4675  0.6789
23463SOL    HW273410   3.406   1.699   0.975 -1.7432 -2.1866  1.5068
23464SOL     OW73411   3.041   9.106   7.511 -0.2861 -0.0061  0.1735
23464SOL    HW173412   3.079   9.024   7.544 -0.9839  0.0255  1.1035
23464SOL    HW273413   3.073   9.173   7.571  0.0108  0.3518 -0.3842
23465SOL     OW73414   7.572   2.576   4.748  0.3446 -0.3900 -0.5933
23465SOL    HW173415   7.506   2.638   4.781  0.9058  0.1399 -0.4522
23465SOL    HW273416   7.581   2.511   4.818  0.0924 -0.3740 -0.5457
23466SOL     OW73417   5.820   2.059   1.177 -0.5540  0.0406 -0.1646
23466SOL    HW173418   5.901   2.037   1.131 -0.7972 -0.4861 -0.3336
23466SOL    HW273419   5.826   2.154   1.190  0.3545 -0.0747  0.3215
23467SOL     OW73420   1.211   2.452   0.519 -0.4132  0.4560 -0.1048
23467SOL    HW173421   1.267   2.505   0.462  1.4023  0.6237  1.7700
23467SOL    HW273422   1.179   2.513   0.585  0.3106 -0.4377  1.0841
23468SOL     OW73423   6.011   5.638   0.567  0.1689 -0.0066  0.0246
23468SOL    HW173424   5.996   5.586   0.645 -0.8509 -0.3701 -0.4068
23468SOL    HW273425   5.933   5.625   0.513  0.4637  0.9406 -0.6608
23469SOL     OW73426   6.378   7.619   3.176  0.8932 -0.2686 -0.4348
23469SOL    HW173427   6.427   7.606   3.257  0.2326 -0.9408 -0.1254
23469SOL    HW273428   6.385   7.712   3.158  1.6640 -0.2416  0.0028
23470SOL     OW73429   1.678   6.744   1.028 -0.1260  0.4275 -0.2446
23470SOL    HW173430   1.732   6.750   1.107 -0.9645 -1.6785  0.5279
23470SOL    HW273431   1.622   6.822   1.032 -0.4673  0.1301  1.5095
23471SOL     OW73432   1.544   5.788   6.344 -0.1756 -0.0079  0.0481
23471SOL    HW173433   1.556   5.830   6.429 -0.6563  0.2178  0.0079
23471SOL    HW273434   1.506   5.702   6.364  2.3872 -1.1250  0.2389
23472SOL     OW73435   3.072   3.080   0.911 -0.1457  0.4217 -0.2835
23472SOL    HW173436   3.157   3.111   0.940  0.3803 -0.8124 -0.4695
23472SOL    HW273437   3.088   3.042   0.825 -0.6486 -0.8222  0.1554
23473SOL     OW73438   1.611   0.534   5.016  0.3162 -0.6202  0.2508
23473SOL    HW173439   1.535   0.593   5.016  1.5286  0.9839 -0.5391
23473SOL    HW273440   1.577   0.452   5.051 -1.4807  0.4769  1.2033
23474SOL     OW73441   6.166   1.928   0.483  0.0190 -0.5212 -0.2375
23474SOL    HW173442   6.170   2.023   0.488 -2.6489 -0.4360  1.3252
23474SOL    HW273443   6.164   1.908   0.390  3.9035  0.7254 -0.6639
23475SOL     OW73444   6.275   0.671   3.188  0.1141 -0.1689 -0.2888
23475SOL    HW173445   6.256   0.734   3.118  1.4861 -0.4015 -0.8685
23475SOL    HW273446   6.363   0.693   3.218  0.4576 -1.5761 -0.2326
23476SOL     OW73447   2.630   6.624   9.298 -0.0001  0.4769  0.0710
23476SOL    HW173448   2.604   6.707   9.259 -0.2181  0.3438 -0.0703
23476SOL    HW273449   2.549   6.573   9.302 -0.0166  0.5560  0.8690
23477SOL     OW73450   1.881   6.186   2.216 -0.1809  0.1056 -0.1521
23477SOL    HW173451   1.962   6.157   2.258 -1.4822 -2.8178  0.5104
23477SOL    HW273452   1.894   6.166   2.123  0.0487  0.0939 -0.1180
23478SOL     OW73453   4.084   1.391   0.890  0.6564  0.3054  0.6366
23478SOL    HW173454   4.037   1.320   0.847  0.3063  0.0213  1.4717
23478SOL    HW273455   4.138   1.430   0.821  1.5713 -1.3658  0.3833
23479SOL     OW73456   0.870   3.261   3.423 -0.4214  0.0823  0.6296
23479SOL    HW173457   0.789   3.284   3.468 -1.1442  1.8684 -1.4958
23479SOL    HW273458   0.932   3.330   3.447  0.0877 -0.5641  1.1998
23480SOL     OW73459   2.594   9.075   6.627 -0.5667  0.3769 -0.3779
23480SOL    HW173460   2.662   9.042   6.686 -0.0403  0.0388 -1.1593
23480SOL    HW273461   2.566   9.158   6.667  0.4696  0.6350 -0.1675
23481SOL     OW73462   9.411   3.575   9.297  0.2360  0.3307 -0.4240
23481SOL    HW173463   9.376   3.652   9.253  0.8047  0.7103 -0.2145
23481SOL    HW273464   9.457   3.527   9.229  2.3841  1.6630  0.0277
23482SOL     OW73465   4.497   8.844   1.164  0.8285 -0.3284  0.4780
23482SOL    HW173466   4.468   8.763   1.123 -0.8231 -0.8497  2.5780
23482SOL    HW273467   4.437   8.857   1.237  0.2394  3.4954 -0.5712
23483SOL     OW73468   5.107   4.144   3.620  0.2669  0.8155 -0.0054
23483SOL    HW173469   5.072   4.230   3.596  0.5401  0.8151 -0.4070
23483SOL    HW273470   5.045   4.082   3.580 -1.0519  0.8265  1.9508
23484SOL     OW73471   4.125   4.051   1.100  0.8984 -0.0682 -0.7501
23484SOL    HW173472   4.176   4.060   1.019  0.3734 -0.4674 -1.1331
23484SOL    HW273473   4.092   4.138   1.117  2.0422  0.2813 -0.2738
23485SOL     OW73474   1.792   6.725   8.401 -0.5309 -0.2345  0.2286
23485SOL    HW173475   1.841   6.749   8.480 -0.4279  0.7387 -0.1210
23485SOL    HW273476   1.754   6.640   8.421 -1.7777  0.6990  1.9318
23486SOL     OW73477   2.849   4.556   8.072  0.2974 -0.4452  0.1866
23486SOL    HW173478   2.874   4.634   8.022  0.9569 -1.1948 -0.6536
23486SOL    HW273479   2.775   4.519   8.024  0.1426 -0.4809  0.4487
23487SOL     OW73480   7.869   4.433   0.613  0.4120 -0.1501 -0.1305
23487SOL    HW173481   7.933   4.439   0.684  0.6697 -0.7977 -0.3038
23487SOL    HW273482   7.881   4.513   0.562  0.9339 -0.1661 -0.0305
23488SOL     OW73483   3.159   2.156   4.338 -0.2004 -0.5112 -0.1225
23488SOL    HW173484   3.084   2.107   4.371 -1.0534  0.2333 -0.9059
23488SOL    HW273485   3.122   2.239   4.309  0.7244 -0.6141 -1.6504
23489SOL     OW73486   2.785   4.984   4.257  0.0712  0.0894 -0.0554
23489SOL    HW173487   2.739   4.973   4.174  1.3189  0.8166 -0.8617
23489SOL    HW273488   2.820   5.073   4.253 -1.0064  0.6206  1.8467
23490SOL     OW73489   4.165   0.715   1.757 -0.3912  0.1587  0.1585
23490SOL    HW173490   4.193   0.707   1.849 -1.6068 -1.8650  0.3730
23490SOL    HW273491   4.071   0.696   1.759 -0.7311  1.5304 -1.3277
23491SOL     OW73492   9.406   3.137   4.914  0.2239  0.5458  0.2301
23491SOL    HW173493   9.417   3.177   5.000 -2.1698  0.6627  0.5077
23491SOL    HW273494   9.401   3.211   4.853 -1.3202  0.5937  0.3977
23492SOL     OW73495   3.940   9.169   5.373  0.0715  0.4602 -0.2601
23492SOL    HW173496   3.940   9.265   5.372 -0.5748  0.4646 -2.1363
23492SOL    HW273497   4.014   9.145   5.317  0.7313 -0.1606  0.8580
23493SOL     OW73498   4.175   5.159   8.252 -0.0533  0.1802 -0.2598
23493SOL    HW173499   4.241   5.125   8.192 -2.2273  0.5658 -2.9472
23493SOL    HW273500   4.125   5.082   8.278 -1.7669  0.5608 -2.3265
23494SOL     OW73501   2.502   8.754   8.054 -0.1038  0.0187  0.4104
23494SOL    HW173502   2.552   8.836   8.061  0.2511 -0.0960 -0.6323
23494SOL    HW273503   2.413   8.778   8.079  0.2537  0.4576  1.2732
23495SOL     OW73504   4.740   1.136   8.198  0.3447 -0.6596 -0.3465
23495SOL    HW173505   4.717   1.096   8.282 -0.2055 -1.1122 -0.7017
23495SOL    HW273506   4.663   1.188   8.175  0.4095 -0.7021 -0.6599
23496SOL     OW73507   1.682   3.133   2.448  0.1505  0.0507  0.7852
23496SOL    HW173508   1.706   3.196   2.516 -0.5719  1.6476 -0.4017
23496SOL    HW273509   1.630   3.183   2.386 -2.7492 -2.3190  1.1574
23497SOL     OW73510   5.371   3.529   2.745  0.4338 -1.2746  0.3641
23497SOL    HW173511   5.323   3.475   2.682 -0.2092 -1.2305  0.8117
23497SOL    HW273512   5.394   3.608   2.697 -1.6629 -0.4407  0.7115
23498SOL     OW73513   8.386   0.513   6.177 -0.4670 -0.3437  0.3043
23498SOL    HW173514   8.313   0.543   6.231 -1.9388 -2.4808 -0.4416
23498SOL    HW273515   8.428   0.444   6.228  2.8283  2.7412  1.9590
23499SOL     OW73516   8.193   2.845   1.919 -0.5241 -0.3637  0.1206
23499SOL    HW173517   8.248   2.839   1.841 -3.9606 -3.1082 -2.2675
23499SOL    HW273518   8.152   2.931   1.913  0.1884 -0.0554 -0.3938
23500SOL     OW73519   4.542   9.241   5.575 -0.5740  0.0997 -0.2550
23500SOL    HW173520   4.516   9.153   5.547 -0.7376  0.0901 -0.0715
23500SOL    HW273521   4.637   9.242   5.562 -0.7328  0.3505 -1.5284
23501SOL     OW73522   7.019   5.583   3.844  0.2665  0.4732  0.2488
23501SOL    HW173523   6.947   5.609   3.787  1.5959  1.9371 -0.8055
23501SOL    HW273524   7.048   5.664   3.886 -0.2037 -0.4708  2.4801
23502SOL     OW73525   7.686   9.251   6.095 -0.2193  0.3245 -0.2535
23502SOL    HW173526   7.776   9.275   6.114 -0.1554  0.6558 -0.9440
23502SOL    HW273527   7.634   9.293   6.164  0.2339 -0.6932  0.7260
23503SOL     OW73528   9.366   9.385   8.616 -0.2609  0.1813  0.0068
23503SOL    HW173529   9.445   9.439   8.614  1.6861 -2.5359  0.3699
23503SOL    HW273530   9.363   9.348   8.704 -1.3790 -0.5333 -0.3110
23504SOL     OW73531   5.118   4.250   2.392  0.1171  0.2404  0.1036
23504SOL    HW173532   5.193   4.245   2.332  0.5370  1.4219  0.5266
23504SOL    HW273533   5.084   4.160   2.394  0.7471 -0.0440 -1.0682
23505SOL     OW73534   4.172   6.803   0.924 -0.1184  0.4159  0.3232
23505SOL    HW173535   4.169   6.709   0.944 -1.5267  0.3250 -0.2271
23505SOL    HW273536   4.184   6.846   1.009 -1.8899 -0.1575  0.8956
23506SOL     OW73537   5.791   8.054   5.044 -0.1122 -0.2758  0.4046
23506SOL    HW173538   5.757   8.139   5.075  1.1316 -0.5416  2.6263
23506SOL    HW273539   5.741   7.989   5.094  1.1316 -0.7576  1.0371
23507SOL     OW73540   4.453   0.864   2.371  0.1418 -0.5058 -0.4299
23507SOL    HW173541   4.508   0.931   2.410  1.1786 -1.1918 -0.6902
23507SOL    HW273542   4.369   0.872   2.417 -0.1482  1.7387 -1.2921
23508SOL     OW73543   4.471   3.207   5.000  0.2592 -0.7446 -0.3304
23508SOL    HW173544   4.496   3.271   4.933 -0.3229 -0.2958 -0.1285
23508SOL    HW273545   4.533   3.223   5.072 -1.3852  1.2574  0.6966
23509SOL     OW73546   3.685   5.249   2.552  0.4826 -0.3908  0.2957
23509SOL    HW173547   3.780   5.251   2.547  0.5223 -0.5724  0.8477
23509SOL    HW273548   3.665   5.168   2.600 -0.0479 -1.4958 -1.7347
23510SOL     OW73549   6.473   4.101   2.768  0.6708 -0.4893  0.0082
23510SOL    HW173550   6.568   4.096   2.756  1.2507  1.9109  2.9645
23510SOL    HW273551   6.445   4.165   2.702  1.6064  1.2599  1.2664
23511SOL     OW73552   3.210   7.574   8.976 -0.5855 -0.0803  0.1012
23511SOL    HW173553   3.208   7.491   9.024 -1.2984  0.2976  0.7325
23511SOL    HW273554   3.299   7.606   8.988 -0.3142 -0.7371 -0.1233
23512SOL     OW73555   2.167   3.859   4.853  0.5691 -0.2127  0.3775
23512SOL    HW173556   2.251   3.816   4.869  0.5355 -0.1243  0.7945
23512SOL    HW273557   2.101   3.793   4.876  0.4851  0.6148  2.7281
23513SOL     OW73558   6.967   6.227   0.835  0.2714  0.0229 -0.6468
23513SOL    HW173559   6.969   6.144   0.786 -0.0553  0.6867 -1.7930
23513SOL    HW273560   6.951   6.294   0.769 -1.9372  0.7731  0.6138
23514SOL     OW73561   6.930   3.987   7.408 -0.0852 -0.2440  0.0327
23514SOL    HW173562   6.834   3.986   7.402 -0.2371  0.7724  1.9552
23514SOL    HW273563   6.952   3.903   7.447 -0.2312 -0.2417  0.1221
23515SOL     OW73564   6.119   7.287   5.739 -0.0639  0.2785 -0.4203
23515SOL    HW173565   6.131   7.194   5.756  1.6765  0.4096 -0.8876
23515SOL    HW273566   6.045   7.312   5.795  0.2552 -1.1056  0.6460
23516SOL     OW73567   0.807   7.836   0.236 -0.4674 -0.7989 -0.4064
23516SOL    HW173568   0.821   7.829   0.142 -0.3017  0.7718 -0.5098
23516SOL    HW273569   0.802   7.745   0.266  0.9809 -1.3217 -1.6892
23517SOL     OW73570   6.116   1.534   2.284  0.4909 -0.0884 -0.6333
23517SOL    HW173571   6.106   1.448   2.243 -1.4565 -0.3570  0.3313
23517SOL    HW273572   6.148   1.514   2.372 -0.9171  0.1082 -0.0758
23518SOL     OW73573   7.976   1.553   0.987 -0.1558 -0.7303  0.1561
23518SOL    HW173574   7.892   1.508   0.979 -1.2081  1.4828 -2.2161
23518SOL    HW273575   8.017   1.542   0.901 -1.2365  4.0902 -1.1854
23519SOL     OW73576   8.992   1.062   3.885 -0.0256  0.1876 -0.6755
23519SOL    HW173577   8.938   1.141   3.877 -0.3617 -0.0494 -0.7473
23519SOL    HW273578   9.024   1.064   3.975 -1.8305 -0.7539 -0.0028
23520SOL     OW73579   7.360   6.948   1.352  0.4460 -0.2074 -0.5179
23520SOL    HW173580   7.388   6.874   1.405 -0.2989  0.4094  0.7617
23520SOL    HW273581   7.441   6.982   1.313  1.1423 -0.0344  1.0595
23521SOL     OW73582   2.767   6.440   5.575 -0.0789 -0.0392 -0.1829
23521SOL    HW173583   2.733   6.400   5.496 -0.2984 -1.3962  0.5824
23521SOL    HW273584   2.690   6.453   5.631 -0.0008  1.3782 -0.3789
23522SOL     OW73585   3.689   0.200   5.322  0.3790 -0.1408 -0.5555
23522SOL    HW173586   3.646   0.201   5.237  0.7819 -0.4137 -0.7679
23522SOL    HW273587   3.721   0.290   5.334 -0.0136 -0.0081 -0.5197
23523SOL     OW73588   2.256   8.807   8.217  0.0933  0.4735 -0.3938
23523SOL    HW173589   2.235   8.878   8.156 -1.0372 -0.2800 -0.8941
23523SOL    HW273590   2.292   8.851   8.294  1.0758  1.4769 -1.4020
23524SOL     OW73591   0.585   4.773   4.310  0.0992 -0.1208  0.1662
23524SOL    HW173592   0.582   4.856   4.262  1.1979 -0.0251  0.2638
23524SOL    HW273593   0.572   4.797   4.401  1.4754  0.0553  0.3184
23525SOL     OW73594   4.495   6.132   6.628 -0.2996  0.0360  0.3387
23525SOL    HW173595   4.465   6.223   6.635 -0.4855 -0.0931  1.3188
23525SOL    HW273596   4.421   6.079   6.658  0.3415 -0.3541  1.2651
23526SOL     OW73597   0.404   8.020   8.845  0.1111 -0.4152  0.2904
23526SOL    HW173598   0.418   8.031   8.939  0.9258 -2.0445  0.3692
23526SOL    HW273599   0.489   8.042   8.806 -0.4489  1.0276 -0.1351
23527SOL     OW73600   7.131   0.202   0.179  0.1836 -0.3692  0.4390
23527SOL    HW173601   7.091   0.159   0.255 -1.0871  0.2223  0.1211
23527SOL    HW273602   7.066   0.268   0.153  1.1505  0.2451 -0.4128
23528SOL     OW73603   2.936   5.957   8.849  0.5732 -0.1204  0.2028
23528SOL    HW173604   2.896   6.043   8.834  1.2426  0.2715  0.6624
23528SOL    HW273605   3.017   5.975   8.896  0.9057 -0.9792 -0.0195
23529SOL     OW73606   2.989   4.332   3.921  0.2322  0.2024 -0.1407
23529SOL    HW173607   3.063   4.394   3.927 -1.0107  2.0190 -2.5389
23529SOL    HW273608   2.921   4.382   3.876 -2.0092 -1.8812  0.8955
23530SOL     OW73609   3.059   8.707   1.853  0.3448 -0.0323 -0.1256
23530SOL    HW173610   2.968   8.721   1.825  0.9418  0.7906 -1.7227
23530SOL    HW273611   3.090   8.794   1.878  0.3920 -0.4716  1.3762
23531SOL     OW73612   0.562   0.865   5.239 -0.5758 -0.2604 -0.5863
23531SOL    HW173613   0.581   0.958   5.226  2.5739 -0.6714  0.6863
23531SOL    HW273614   0.592   0.823   5.159 -0.9676 -0.3077 -0.7074
23532SOL     OW73615   0.098   9.280   5.538  0.2389 -0.2470  0.1277
23532SOL    HW173616   0.143   9.247   5.616  0.3833 -0.1586  0.0818
23532SOL    HW273617   0.167   9.288   5.472  0.0037 -0.9754 -0.2131
23533SOL     OW73618   4.067   6.057   5.079  0.0523  0.3819 -0.0544
23533SOL    HW173619   4.084   5.975   5.032  0.9400  0.6767 -0.2655
23533SOL    HW273620   4.017   6.032   5.156 -0.4690 -0.2459 -0.5959
23534SOL     OW73621   1.999   1.538   8.762 -0.3976 -0.1596  0.1715
23534SOL    HW173622   2.056   1.485   8.818 -1.4141 -0.8068  0.6014
23534SOL    HW273623   1.948   1.591   8.823 -0.7850 -0.1243 -0.1773
23535SOL     OW73624   0.426   8.505   1.461 -0.0862 -0.3194  0.5812
23535SOL    HW173625   0.353   8.443   1.469  0.7592 -1.4982 -0.7223
23535SOL    HW273626   0.468   8.504   1.547 -0.2796 -1.3080  0.6738
23536SOL     OW73627   9.266   2.448   5.785  0.3972  0.3247  0.5693
23536SOL    HW173628   9.310   2.423   5.866 -0.2884  1.1599  1.2040
23536SOL    HW273629   9.337   2.476   5.727  0.9739 -1.0989  0.5666
23537SOL     OW73630   2.241   1.718   6.211  0.1975  0.8202 -0.9093
23537SOL    HW173631   2.292   1.676   6.142 -1.5453 -0.2927 -1.5471
23537SOL    HW273632   2.208   1.798   6.171  1.1226  1.3713 -0.6007
23538SOL     OW73633   1.554   2.704   9.337 -0.2044  0.4395 -0.9190
23538SOL    HW173634   1.585   2.660   9.258 -0.4949 -0.3235 -0.6053
23538SOL    HW273635   1.580   2.647   9.409 -0.0105  1.0935 -0.4643
23539SOL     OW73636   2.353   0.037   2.288  0.0960 -0.2058  0.4995
23539SOL    HW173637   2.399   0.095   2.227  0.2752  0.3696  1.1796
23539SOL    HW273638   2.350  -0.048   2.243 -1.3406  0.6510 -1.0841
23540SOL     OW73639   1.786   0.832   5.311 -0.0672  0.5908  0.0323
23540SOL    HW173640   1.807   0.906   5.254 -1.0796  0.8165 -0.0603
23540SOL    HW273641   1.771   0.760   5.251 -0.6480  0.7059  0.0390
23541SOL     OW73642   4.669   3.356   8.906  0.2557 -0.3450  1.5177
23541SOL    HW173643   4.701   3.446   8.911 -0.8118  0.0836  0.8906
23541SOL    HW273644   4.587   3.356   8.956 -0.1669 -0.7620  0.8453
23542SOL     OW73645   7.558   8.235   8.781  0.1550  0.2023  0.2209
23542SOL    HW173646   7.625   8.260   8.845  0.0641  1.1017 -0.0203
23542SOL    HW273647   7.606   8.202   8.706  0.2360 -1.8150  1.1275
23543SOL     OW73648   0.996   6.781   4.169  0.4683  0.0487  0.4705
23543SOL    HW173649   0.937   6.755   4.098  2.9570 -0.8439 -1.3518
23543SOL    HW273650   0.988   6.710   4.233 -0.5642  0.0444  0.3576
23544SOL     OW73651   6.538   0.218   6.687 -0.1870 -0.2598 -0.4850
23544SOL    HW173652   6.461   0.272   6.706 -0.4290 -0.9222  0.4364
23544SOL    HW273653   6.589   0.219   6.768  0.4246 -0.3935 -0.8667
23545SOL     OW73654   8.359   5.719   7.323  0.6365 -0.6770  0.6296
23545SOL    HW173655   8.319   5.633   7.333  0.5355 -0.9173 -1.7574
23545SOL    HW273656   8.443   5.702   7.281  0.7748  0.3557  0.4843
23546SOL     OW73657   0.107   0.059   8.311  0.0125 -0.1183  0.5477
23546SOL    HW173658   0.166   0.110   8.366 -1.3717 -1.2521  3.1730
23546SOL    HW273659   0.020   0.094   8.329 -0.4170 -0.1156 -1.3869
23547SOL     OW73660   5.083   3.367   2.219  0.3476 -0.1351  0.4802
23547SOL    HW173661   5.034   3.429   2.272  0.4301 -1.1325  1.7423
23547SOL    HW273662   5.175   3.380   2.244  0.4020 -0.5012  0.4748
23548SOL     OW73663   0.725   8.335   3.808  0.0798 -0.4632  0.2105
23548SOL    HW173664   0.796   8.396   3.787  1.2946 -1.8117  0.3305
23548SOL    HW273665   0.769   8.251   3.823 -1.3308 -0.8282  2.4655
23549SOL     OW73666   6.457   9.027   4.851  0.3559 -0.1517 -0.1912
23549SOL    HW173667   6.442   9.120   4.868 -1.3813 -0.5062  0.3246
23549SOL    HW273668   6.524   9.002   4.915  0.9910  0.7804 -0.4728
23550SOL     OW73669   3.985   2.998   2.089 -0.4355  0.2064 -0.0671
23550SOL    HW173670   4.062   3.021   2.037 -0.7983  0.7070 -0.3805
23550SOL    HW273671   4.018   2.935   2.153 -0.0100 -0.4633 -0.9427
23551SOL     OW73672   9.119   0.432   9.152 -0.3968 -0.7838  0.5200
23551SOL    HW173673   9.078   0.363   9.099 -0.1768 -0.1376 -0.5081
23551SOL    HW273674   9.151   0.387   9.229  0.3634 -1.9632 -0.4710
23552SOL     OW73675   7.171   8.907   6.210  1.1476 -0.0426  0.3747
23552SOL    HW173676   7.091   8.958   6.220  1.5758  0.8889 -0.8893
23552SOL    HW273677   7.141   8.818   6.193  0.3945  0.1763  0.5508
23553SOL     OW73678   0.481   7.777   6.399  0.5135 -0.2113 -0.0788
23553SOL    HW173679   0.415   7.781   6.468 -0.0714 -1.5328 -0.5455
23553SOL    HW273680   0.458   7.848   6.339 -0.3726 -0.5528 -0.1436
23554SOL     OW73681   3.123   0.192   1.522  0.1405 -0.3432 -0.1385
23554SOL    HW173682   3.177   0.114   1.512  1.6647  0.4434  1.6333
23554SOL    HW273683   3.066   0.173   1.597  1.7289  0.8838  1.4089
23555SOL     OW73684   7.641   8.045   7.113 -0.3953  0.4039  0.3158
23555SOL    HW173685   7.647   8.042   7.018 -2.1326  0.2209  0.1923
23555SOL    HW273686   7.582   8.118   7.131 -1.0523 -0.3344  1.1960
23556SOL     OW73687   2.667   8.343   1.227 -0.9616  0.2301  0.3053
23556SOL    HW173688   2.586   8.359   1.179 -2.3644  2.1089  3.1527
23556SOL    HW273689   2.726   8.414   1.199 -0.8541 -0.1800 -0.5297
23557SOL     OW73690   1.176   3.356   8.941  0.1568 -0.2851 -0.0148
23557SOL    HW173691   1.092   3.311   8.930  0.1515 -0.4844  0.7904
23557SOL    HW273692   1.180   3.375   9.035  0.3756  0.9937 -0.2826
23558SOL     OW73693   6.888   3.133   0.671  0.2392 -0.7087 -0.1588
23558SOL    HW173694   6.843   3.103   0.591  0.4778 -3.5320  0.7018
23558SOL    HW273695   6.968   3.174   0.639  0.1045 -1.3915 -1.4298
23559SOL     OW73696   4.654   4.520   1.806 -0.4760 -0.2126 -1.0192
23559SOL    HW173697   4.657   4.580   1.732  0.4381  0.0511 -0.7715
23559SOL    HW273698   4.566   4.482   1.802 -0.9456  0.8896 -1.3708
23560SOL     OW73699   0.044   3.561   7.309  0.0258 -0.2290 -0.6113
23560SOL    HW173700   0.074   3.478   7.345  0.5577  0.0298 -0.4417
23560SOL    HW273701   0.121   3.618   7.313 -0.9882  1.0333  1.5654
23561SOL     OW73702   1.295   8.574   1.540 -0.3441 -0.0338  0.0977
23561SOL    HW173703   1.322   8.618   1.620 -1.7218  0.3007  0.3984
23561SOL    HW273704   1.200   8.582   1.540 -0.2634  1.4365 -2.4052
23562SOL     OW73705   4.195   7.171   0.867  0.5336 -0.5882 -0.0219
23562SOL    HW173706   4.226   7.108   0.803 -0.0240 -0.4297 -0.4514
23562SOL    HW273707   4.150   7.238   0.816 -1.6867 -1.4966  0.6539
23563SOL     OW73708   5.497   9.368   0.462  0.7235  0.2321  0.1913
23563SOL    HW173709   5.515   9.367   0.368  0.8322 -0.5786  0.2208
23563SOL    HW273710   5.580   9.341   0.502  0.4310 -0.2429  0.4816
23564SOL     OW73711   6.884   5.801   4.740 -0.0341 -0.1365 -0.1347
23564SOL    HW173712   6.851   5.757   4.661  0.6889 -0.9109 -0.0197
23564SOL    HW273713   6.909   5.888   4.710 -0.1959 -0.2694 -0.6650
23565SOL     OW73714   0.839   3.796   2.230  0.3972  0.3995 -0.1685
23565SOL    HW173715   0.784   3.805   2.308 -1.7558  0.2204 -1.6126
23565SOL    HW273716   0.824   3.706   2.200  2.8414 -0.2151  0.3695
23566SOL     OW73717   0.806   0.651   0.435 -0.3495  0.1789  0.2671
23566SOL    HW173718   0.820   0.557   0.441  0.6585  0.4227  1.8581
23566SOL    HW273719   0.884   0.690   0.473 -0.6055  1.6699 -0.6972
23567SOL     OW73720   4.753   1.802   2.341  0.0746 -0.4435 -0.3412
23567SOL    HW173721   4.674   1.782   2.390 -0.6221  0.7440 -0.9532
23567SOL    HW273722   4.777   1.891   2.368  1.0555 -0.7031 -0.3401
23568SOL     OW73723   9.264   3.871   8.155 -0.2561 -0.3936 -0.2498
23568SOL    HW173724   9.320   3.793   8.154  0.7465  0.3152 -1.9368
23568SOL    HW273725   9.192   3.848   8.096  0.0512 -0.0613 -0.7661
23569SOL     OW73726   2.671   2.444   5.103  0.5365  0.4141 -0.2749
23569SOL    HW173727   2.715   2.369   5.143 -0.3669 -0.2970 -0.5805
23569SOL    HW273728   2.742   2.502   5.075  1.3221 -1.0261 -1.3932
23570SOL     OW73729   8.937   7.564   3.485  0.1934  0.0975 -0.0898
23570SOL    HW173730   8.891   7.648   3.478  0.3397  0.5890  3.5068
23570SOL    HW273731   9.028   7.584   3.462  0.2586  0.9943  0.8786
23571SOL     OW73732   9.140   4.329   1.495  0.0719  0.2662  0.2028
23571SOL    HW173733   9.140   4.384   1.574 -0.3849  2.5444 -1.3328
23571SOL    HW273734   9.231   4.326   1.468  0.1836 -0.2389  0.6359
23572SOL     OW73735   5.444   8.795   1.022  0.1101 -0.5973 -0.3072
23572SOL    HW173736   5.434   8.857   1.094 -1.5540 -0.0673 -0.9558
23572SOL    HW273737   5.477   8.716   1.063 -0.2476 -0.1121  0.9546
23573SOL     OW73738   3.152   6.454   0.484 -0.7271 -0.3162 -0.0514
23573SOL    HW173739   3.180   6.525   0.541 -0.9544  0.1407 -0.5106
23573SOL    HW273740   3.060   6.439   0.508 -0.3337 -1.2879  0.9051
23574SOL     OW73741   0.771   8.010   1.112 -0.2413  0.0139 -0.6165
23574SOL    HW173742   0.716   8.001   1.034 -0.9417  0.2843 -0.1546
23574SOL    HW273743   0.710   8.032   1.183  0.3068 -0.8688  0.1425
23575SOL     OW73744   0.080   5.927   6.590  0.2147 -0.2473 -0.8754
23575SOL    HW173745  -0.012   5.947   6.610  0.5521 -0.1466  0.6503
23575SOL    HW273746   0.090   5.835   6.614  1.0357  0.3037  1.0027
23576SOL     OW73747   1.211   2.226   2.791 -0.2666 -0.3891 -0.2761
23576SOL    HW173748   1.207   2.135   2.821 -0.0225 -0.7549 -1.3392
23576SOL    HW273749   1.197   2.278   2.870 -0.7945 -1.3547  0.2697
23577SOL     OW73750   0.159   5.655   4.351  0.1825 -0.3025  0.3843
23577SOL    HW173751   0.241   5.700   4.372 -0.2769 -0.2785  2.2584
23577SOL    HW273752   0.093   5.725   4.349  0.0795 -0.4178 -0.3801
23578SOL     OW73753   2.200   5.085   3.313  0.2598 -0.2456 -0.3231
23578SOL    HW173754   2.122   5.064   3.364  0.5068 -1.3978 -0.4083
23578SOL    HW273755   2.185   5.042   3.228 -0.3512  2.0153 -1.3887
23579SOL     OW73756   0.802   5.921   6.025  0.0272 -0.1096  0.6997
23579SOL    HW173757   0.867   5.983   6.059  0.7087  0.4923 -1.5997
23579SOL    HW273758   0.766   5.965   5.948 -0.6256 -1.9269 -0.0438
23580SOL     OW73759   0.946   4.316   3.350  0.4335  0.1081 -0.3221
23580SOL    HW173760   0.979   4.377   3.416  1.2747 -0.3019 -0.3510
23580SOL    HW273761   1.012   4.318   3.280  0.4976 -0.8670 -0.2978
23581SOL     OW73762   5.263   1.024   0.629  0.3496  0.9005  0.0434
23581SOL    HW173763   5.200   1.064   0.569 -1.5636 -0.8214  0.8374
23581SOL    HW273764   5.272   1.088   0.700 -1.3579  0.7481  0.4449
23582SOL     OW73765   8.337   9.159   6.629 -0.5036 -0.2197 -0.6976
23582SOL    HW173766   8.339   9.077   6.678 -1.8773 -0.2507 -0.6896
23582SOL    HW273767   8.418   9.157   6.578 -0.4200 -1.4963 -0.5520
23583SOL     OW73768   8.324   7.682   2.916 -0.6058  0.0184 -0.1603
23583SOL    HW173769   8.417   7.685   2.894 -0.3065 -1.2443  0.8867
23583SOL    HW273770   8.283   7.744   2.855  0.7732 -0.1825 -1.3283
23584SOL     OW73771   8.891   5.111   0.446 -0.1868 -0.0477  0.2996
23584SOL    HW173772   8.898   5.204   0.423  0.4329  0.3998  2.1523
23584SOL    HW273773   8.818   5.079   0.394 -0.5494  1.5527 -0.2095
23585SOL     OW73774   8.014   6.754   5.633  0.2445 -0.1447 -0.4218
23585SOL    HW173775   7.952   6.765   5.705 -0.1661  1.1671 -0.9760
23585SOL    HW273776   8.006   6.833   5.581  1.6713 -0.4014 -1.0626
23586SOL     OW73777   5.666   1.111   0.262 -0.3758 -0.3886  0.5699
23586SOL    HW173778   5.705   1.049   0.200  0.8116 -0.1684  1.0956
23586SOL    HW273779   5.701   1.196   0.236  1.0058 -0.4248  2.2067
23587SOL     OW73780   2.007   0.733   7.024 -0.0346  0.1667  0.2787
23587SOL    HW173781   1.986   0.761   6.935  1.4312  4.1186  1.0517
23587SOL    HW273782   2.056   0.652   7.013 -0.8892 -0.0431 -2.4307
23588SOL     OW73783   2.670   4.670   7.586  0.8003 -0.5050 -0.5916
23588SOL    HW173784   2.757   4.652   7.623  0.3639 -0.4660  0.4798
23588SOL    HW273785   2.685   4.739   7.522  1.3711  0.4659  0.5655
23589SOL     OW73786   1.205   8.712   2.653  0.0763 -0.0414  0.1665
23589SOL    HW173787   1.281   8.715   2.596  0.0704  1.8508  0.2354
23589SOL    HW273788   1.155   8.791   2.632 -1.5442 -0.9197  0.5815
23590SOL     OW73789   4.854   8.135   4.697  0.4496 -0.6509  0.0554
23590SOL    HW173790   4.866   8.048   4.658  0.9680 -1.3108  1.6837
23590SOL    HW273791   4.772   8.167   4.658  0.9075 -1.3372 -1.5012
23591SOL     OW73792   5.860   8.909   3.081  0.2816 -0.1744  0.4040
23591SOL    HW173793   5.936   8.872   3.126 -0.5199 -0.4265  1.5622
23591SOL    HW273794   5.787   8.852   3.106 -0.9638  2.1281  2.1868
23592SOL     OW73795   2.529   3.506   2.434 -0.5987  0.3228 -0.4601
23592SOL    HW173796   2.623   3.496   2.420 -0.3688 -1.8893  2.1547
23592SOL    HW273797   2.518   3.597   2.461  0.7504  0.6513 -1.0001
23593SOL     OW73798   9.346   9.156   2.475 -0.1898  0.1316 -0.3789
23593SOL    HW173799   9.390   9.071   2.471  0.7143  0.6330 -1.4781
23593SOL    HW273800   9.281   9.153   2.405 -0.2022  0.3119 -0.3766
23594SOL     OW73801   1.643   4.763   0.378  0.3204  0.1855  0.3114
23594SOL    HW173802   1.679   4.809   0.302  1.6138 -0.3407  0.6056
23594SOL    HW273803   1.719   4.736   0.429 -0.3081 -3.3532 -0.4711
23595SOL     OW73804   6.174   3.204   7.256  0.5270 -0.1800 -0.3213
23595SOL    HW173805   6.108   3.270   7.277  1.3293  1.2610 -2.1122
23595SOL    HW273806   6.124   3.129   7.226 -0.3506  0.3041 -0.0794
23596SOL     OW73807   8.330   7.548   5.567 -0.4141  0.3470 -0.0734
23596SOL    HW173808   8.366   7.636   5.565 -3.4141  1.6782  0.9605
23596SOL    HW273809   8.267   7.545   5.495  0.6294 -1.4226 -0.9532
23597SOL     OW73810   3.127   3.490   5.380  0.3038  0.0923  0.0788
23597SOL    HW173811   3.104   3.483   5.287 -0.3223 -1.1000  0.3149
23597SOL    HW273812   3.171   3.408   5.400 -1.6751 -0.6710  1.4164
23598SOL     OW73813   5.140   5.514   6.362  0.2643 -0.1436 -0.5831
23598SOL    HW173814   5.140   5.419   6.370  0.8409 -0.3227 -2.3769
23598SOL    HW273815   5.198   5.545   6.432  1.2980 -1.2172 -0.9486
23599SOL     OW73816   1.996   0.087   5.673  0.9110 -0.0031 -0.5434
23599SOL    HW173817   2.027   0.103   5.584 -0.4406 -1.8327 -1.3747
23599SOL    HW273818   1.930   0.155   5.688 -0.5808 -1.1249 -1.8557
23600SOL     OW73819   5.783   5.506   1.539 -0.4462 -0.2719  0.3547
23600SOL    HW173820   5.757   5.510   1.631 -1.3619  0.2409  0.0707
23600SOL    HW273821   5.870   5.545   1.537 -1.3270  1.7373  0.6539
23601SOL     OW73822   4.034   7.955   2.531 -0.4964 -0.9714  0.2171
23601SOL    HW173823   4.057   7.922   2.444 -1.1839 -0.1348 -0.2836
23601SOL    HW273824   4.099   7.915   2.590  0.5126 -0.8304 -0.7961
23602SOL     OW73825   6.288   5.199   1.440  0.4670  0.3743 -0.4963
23602SOL    HW173826   6.292   5.190   1.535 -0.3293 -2.4961 -0.6956
23602SOL    HW273827   6.195   5.208   1.421  0.4052 -1.4927 -1.1635
23603SOL     OW73828   8.439   5.783   9.301 -0.8130 -0.1437 -0.1037
23603SOL    HW173829   8.491   5.863   9.314 -0.6802 -0.2944  0.2740
23603SOL    HW273830   8.451   5.732   9.381 -2.0828  0.1158  0.2568
23604SOL     OW73831   9.400   7.055   5.910 -0.2878  0.6395  0.0721
23604SOL    HW173832   9.349   6.989   5.864  0.2939  0.0525  0.2548
23604SOL    HW273833   9.349   7.074   5.989  0.5587 -1.1527  1.0786
23605SOL     OW73834   1.732   0.166   3.916  0.1267  0.0951  0.1251
23605SOL    HW173835   1.726   0.120   3.832  0.0016  1.7829 -0.8144
23605SOL    HW273836   1.685   0.110   3.978  0.8365 -1.5211 -0.7732
23606SOL     OW73837   1.122   4.126   6.179  0.4158 -0.3221  0.1299
23606SOL    HW173838   1.135   4.035   6.151  1.0622 -0.2730  0.2711
23606SOL    HW273839   1.134   4.124   6.274  1.7391  0.1488 -0.0267
23607SOL     OW73840   6.496   2.784   3.390 -0.3724  0.4030 -0.1290
23607SOL    HW173841   6.438   2.725   3.438 -0.8913 -0.7233 -2.0594
23607SOL    HW273842   6.560   2.726   3.349 -0.4147  1.2461 -1.4150
23608SOL     OW73843   2.689   3.783   1.270  0.0806 -0.5741  0.1029
23608SOL    HW173844   2.692   3.741   1.356  1.3895 -0.5269  0.0888
23608SOL    HW273845   2.779   3.809   1.253 -0.3067  0.1026 -0.9520
23609SOL     OW73846   6.487   6.162   4.261  0.3296 -0.7860 -0.0299
23609SOL    HW173847   6.556   6.196   4.204 -0.1851  0.3184 -0.0133
23609SOL    HW273848   6.534   6.122   4.335  0.9592  1.0099  0.5770
23610SOL     OW73849   2.530   5.028   4.641 -0.2919 -0.1353  0.4852
23610SOL    HW173850   2.474   5.059   4.570 -0.3589  1.3605  1.1706
23610SOL    HW273851   2.484   5.053   4.721  1.4395  1.3336  1.0693
23611SOL     OW73852   2.007   0.501   4.219  0.3608  0.3812 -0.1203
23611SOL    HW173853   1.928   0.462   4.256  1.2791 -0.8790  0.5421
23611SOL    HW273854   2.057   0.532   4.294  0.4375  1.2927 -0.5417
23612SOL     OW73855   2.109   9.149   7.203  0.3704  0.5467  0.3127
23612SOL    HW173856   2.203   9.151   7.219  0.2875 -0.5394  0.9369
23612SOL    HW273857   2.073   9.213   7.264  0.9095  2.7026 -1.5238
23613SOL     OW73858   0.848   5.111   3.985  0.3730  0.6473 -0.1756
23613SOL    HW173859   0.857   5.141   4.076 -3.3758 -0.4286  0.6572
23613SOL    HW273860   0.896   5.028   3.983  3.1648  2.1920 -0.0938
23614SOL     OW73861   9.122   4.521   4.651 -0.4477 -0.3595  0.2196
23614SOL    HW173862   9.082   4.448   4.603 -0.1640 -0.5896  0.3319
23614SOL    HW273863   9.132   4.488   4.740 -0.2406 -0.2112  0.2502
23615SOL     OW73864   5.824   1.094   1.526 -0.0384  0.5876  0.4151
23615SOL    HW173865   5.769   1.060   1.598  0.5391 -1.5116 -0.1079
23615SOL    HW273866   5.913   1.087   1.559  0.0834  1.7630  0.3462
23616SOL     OW73867   3.448   4.017   1.018  0.4177  0.0502 -0.5971
23616SOL    HW173868   3.473   3.951   1.083 -1.0225  0.2753  0.2177
23616SOL    HW273869   3.352   4.018   1.022  0.4450  2.9001  0.1449
23617SOL     OW73870   6.757   6.751   5.435  0.7936  0.1803  1.0176
23617SOL    HW173871   6.681   6.802   5.463  0.1615 -0.4528  0.4863
23617SOL    HW273872   6.827   6.816   5.424 -0.1707  1.0288 -0.2830
23618SOL     OW73873   7.262   3.135   9.393 -0.1775 -0.0800 -0.0629
23618SOL    HW173874   7.248   3.177   9.478 -0.0375 -0.1820  0.0109
23618SOL    HW273875   7.183   3.155   9.343 -0.9291 -1.2636  0.6107
23619SOL     OW73876   7.585   9.082   7.442 -0.9201  0.0414  0.1901
23619SOL    HW173877   7.527   9.146   7.400 -0.3298  1.5244  1.5892
23619SOL    HW273878   7.652   9.064   7.376 -0.7960  1.2674 -0.0326
23620SOL     OW73879   3.107   2.517   1.303 -0.3254  0.0629  0.4017
23620SOL    HW173880   3.129   2.438   1.353  0.4955  0.3249  0.4651
23620SOL    HW273881   3.134   2.497   1.213  0.5567  0.5337  0.5561
23621SOL     OW73882   7.925   8.618   3.003  0.0680 -0.2481 -0.4548
23621SOL    HW173883   7.834   8.647   3.004 -0.3040 -1.3919  1.0859
23621SOL    HW273884   7.953   8.630   2.912 -0.8676  2.3478 -0.4525
23622SOL     OW73885   1.315   3.007   1.549 -0.6097 -0.2700  0.0088
23622SOL    HW173886   1.275   2.932   1.593 -3.5262  0.9425 -0.4982
23622SOL    HW273887   1.346   2.972   1.466  1.7098 -1.7672  1.4311
23623SOL     OW73888   3.135   7.910   1.779 -0.0331  0.4934  0.3600
23623SOL    HW173889   3.175   7.861   1.851  1.6152  0.3254 -0.6497
23623SOL    HW273890   3.073   7.969   1.822  0.2440 -0.2667  1.8403
23624SOL     OW73891   7.098   2.334   1.041  0.0544  0.5653 -0.0064
23624SOL    HW173892   7.164   2.396   1.012  0.3707 -0.4283 -1.4521
23624SOL    HW273893   7.098   2.342   1.137  1.7025  1.1482 -0.0402
23625SOL     OW73894   7.582   6.319   8.581 -0.8335 -0.0675  0.2190
23625SOL    HW173895   7.515   6.337   8.515  0.5666  0.8803 -0.9761
23625SOL    HW273896   7.643   6.392   8.574  0.4250 -0.9965  1.1746
23626SOL     OW73897   4.002   3.668   2.661  0.7413  0.4865  0.4355
23626SOL    HW173898   4.011   3.575   2.637  1.1375  0.3561  1.0659
23626SOL    HW273899   3.944   3.667   2.737 -0.4277  0.8868 -0.4343
23627SOL     OW73900   1.643   2.256   2.929  0.1855  0.4422  0.2295
23627SOL    HW173901   1.571   2.317   2.910  0.3507  0.2602 -1.0274
23627SOL    HW273902   1.721   2.312   2.935  0.2204  0.4484 -0.2151
23628SOL     OW73903   8.451   5.552   3.725  0.1541  0.2044 -0.1867
23628SOL    HW173904   8.382   5.539   3.790  0.7383  0.4308  0.4924
23628SOL    HW273905   8.411   5.530   3.641 -0.3969 -0.7703  0.3354
23629SOL     OW73906   5.297   5.864   2.512  0.5367 -0.1125  0.3289
23629SOL    HW173907   5.361   5.876   2.583 -1.9010  0.5008  2.4935
23629SOL    HW273908   5.269   5.953   2.490 -2.1648 -0.5181  1.8955
23630SOL     OW73909   7.082   1.466   5.685  0.1044 -0.4980  0.2072
23630SOL    HW173910   7.008   1.523   5.665  0.4775 -0.2582 -0.5139
23630SOL    HW273911   7.047   1.378   5.674 -0.1587 -0.3918  0.1740
23631SOL     OW73912   6.976   5.750   0.579 -0.0972 -0.2698 -0.1242
23631SOL    HW173913   7.003   5.696   0.505  1.3659 -1.9335  1.5838
23631SOL    HW273914   6.930   5.690   0.637 -0.1549  0.7445  0.8962
23632SOL     OW73915   8.584   2.926   8.908 -0.2526 -1.0360  0.1232
23632SOL    HW173916   8.551   2.977   8.834  0.4547 -2.1635 -0.9797
23632SOL    HW273917   8.668   2.891   8.879 -0.9380 -3.2417  0.6576
23633SOL     OW73918   5.987   7.056   4.174  0.7931 -0.2024 -0.3737
23633SOL    HW173919   6.025   6.969   4.158 -0.4426 -1.1280  1.5432
23633SOL    HW273920   6.057   7.117   4.150  2.4257 -1.7857  0.2098
23634SOL     OW73921   8.456   3.576   3.993  0.2914 -0.3334  0.3803
23634SOL    HW173922   8.529   3.577   3.931 -0.9476 -0.8131 -1.1298
23634SOL    HW273923   8.440   3.484   4.011 -1.0752 -0.3421 -0.7204
23635SOL     OW73924   7.522   8.301   6.529 -0.2580  0.4558 -0.6442
23635SOL    HW173925   7.516   8.226   6.471  2.1188  0.6256 -1.1715
23635SOL    HW273926   7.455   8.287   6.595 -1.4072 -0.9284 -2.0838
23636SOL     OW73927   6.189   8.523   4.076  0.0411  0.5521  0.0044
23636SOL    HW173928   6.261   8.586   4.079 -0.1057  0.7839 -1.0309
23636SOL    HW273929   6.121   8.562   4.131  0.5104  0.5803  0.5628
23637SOL     OW73930   2.633   4.321   1.946  0.5648  0.3570  0.8318
23637SOL    HW173931   2.581   4.397   1.970  0.4226  0.9322 -1.2418
23637SOL    HW273932   2.603   4.252   2.006 -1.1979  1.2049  0.9626
23638SOL     OW73933   8.722   6.309   4.298 -0.3916  0.2120  0.2466
23638SOL    HW173934   8.785   6.357   4.245 -1.3722  1.8648  0.5537
23638SOL    HW273935   8.672   6.256   4.235  1.8053 -1.7589  0.0834
23639SOL     OW73936   5.502   9.335   2.499  0.3839 -0.2206 -0.1777
23639SOL    HW173937   5.489   9.371   2.412  3.8015  1.5001 -0.0586
23639SOL    HW273938   5.477   9.406   2.558  0.1417 -0.6058  0.1808
23640SOL     OW73939   3.690   4.833   1.296  0.2461  0.0649 -0.0990
23640SOL    HW173940   3.654   4.793   1.217 -1.1652 -0.9560  1.0390
23640SOL    HW273941   3.615   4.844   1.354  0.9874  2.2725  0.5152
23641SOL     OW73942   6.142   5.957   4.298  0.2205 -0.1098  0.0859
23641SOL    HW173943   6.216   6.018   4.294  0.2374 -0.1345  0.0253
23641SOL    HW273944   6.161   5.901   4.373  0.5089 -0.4349 -0.2333
23642SOL     OW73945   1.813   8.227   3.751  0.3301  0.2510 -0.0969
23642SOL    HW173946   1.783   8.185   3.832 -2.4144  1.6077 -0.3474
23642SOL    HW273947   1.771   8.313   3.752  0.1284  0.2415 -3.0435
23643SOL     OW73948   6.968   5.001   3.477 -0.0328 -0.4654 -0.1227
23643SOL    HW173949   6.991   5.011   3.384  0.3346 -1.6540 -0.1774
23643SOL    HW273950   6.916   5.078   3.498  1.3025  0.6506 -0.8705
23644SOL     OW73951   4.478   3.722   1.255  0.5626  0.2101  0.3830
23644SOL    HW173952   4.385   3.704   1.240  0.7754 -0.4946 -0.1408
23644SOL    HW273953   4.505   3.657   1.320  0.4419  1.0941  1.3195
23645SOL     OW73954   6.497   3.759   4.417 -0.1572  0.0037  0.0272
23645SOL    HW173955   6.573   3.817   4.407 -0.6516  0.8192  0.9228
23645SOL    HW273956   6.421   3.816   4.405 -0.6414 -0.6358  0.0201
23646SOL     OW73957   2.388   6.556   6.517  0.0912  0.3742  1.0421
23646SOL    HW173958   2.463   6.614   6.531 -0.4474  1.0684  1.0881
23646SOL    HW273959   2.414   6.500   6.444  1.0318 -0.0386  1.6837
23647SOL     OW73960   0.188   8.376   3.820  0.3033  0.0256  0.3224
23647SOL    HW173961   0.132   8.430   3.764  1.3131  0.4481 -0.3005
23647SOL    HW273962   0.174   8.410   3.908  0.5859  0.9914 -0.0072
23648SOL     OW73963   1.078   9.392   1.140 -0.1330  0.3030  0.1660
23648SOL    HW173964   1.071   9.310   1.189 -2.6056  0.4260  0.0557
23648SOL    HW273965   1.161   9.430   1.169  1.3157 -2.4567 -0.1490
23649SOL     OW73966   7.509   5.439   5.607 -0.6719 -0.1323 -0.4115
23649SOL    HW173967   7.495   5.493   5.529  0.7129  1.2067  0.2353
23649SOL    HW273968   7.530   5.502   5.676 -0.6863 -1.3925  0.7517
23650SOL     OW73969   5.816   1.834   6.947  0.3092 -0.1307  0.0845
23650SOL    HW173970   5.904   1.848   6.981  0.2601 -0.4007  0.3319
23650SOL    HW273971   5.794   1.915   6.902  0.1666  0.4437  1.1652
23651SOL     OW73972   7.849   8.914   6.327 -0.1111 -0.2343 -0.6326
23651SOL    HW173973   7.767   8.867   6.315 -0.0146 -1.1206  1.8785
23651SOL    HW273974   7.917   8.849   6.307  0.0150 -1.1747  2.4966
23652SOL     OW73975   7.392   2.157   7.699  0.2180 -0.6689  0.2550
23652SOL    HW173976   7.364   2.229   7.643  0.0282 -0.2996  0.8215
23652SOL    HW273977   7.378   2.189   7.789 -1.8927 -2.1903  0.5142
23653SOL     OW73978   0.852   4.002   6.917  0.3792  0.2706  0.0199
23653SOL    HW173979   0.943   3.987   6.895  0.4953  0.6028  0.2792
23653SOL    HW273980   0.847   4.094   6.943  0.0961  0.0916  0.6243
23654SOL     OW73981   6.510   3.915   6.734  0.0964 -0.6633  0.0321
23654SOL    HW173982   6.548   3.978   6.794 -0.7296 -0.6661  0.5604
23654SOL    HW273983   6.578   3.848   6.723  0.4856 -0.3416  0.4672
23655SOL     OW73984   3.157   8.848   7.555 -0.1824  0.6591 -0.3549
23655SOL    HW173985   3.246   8.832   7.588 -0.5445  0.4750  0.5571
23655SOL    HW273986   3.168   8.859   7.461  0.7964  0.5198 -0.2639
23656SOL     OW73987   7.796   3.435   4.558 -0.3718  0.1167 -0.8144
23656SOL    HW173988   7.760   3.477   4.636  1.3562 -0.1993  0.1644
23656SOL    HW273989   7.752   3.350   4.555 -0.5440  0.1863 -0.2704
23657SOL     OW73990   9.268   3.460   8.989  0.3099  0.6992 -0.5206
23657SOL    HW173991   9.303   3.392   9.046  1.1137  1.6041  0.0956
23657SOL    HW273992   9.282   3.427   8.900 -0.9367 -0.7148 -0.2014
23658SOL     OW73993   6.312   4.064   2.982  0.0372  0.0026  0.0766
23658SOL    HW173994   6.234   4.095   2.937 -0.6144 -1.5315  0.1292
23658SOL    HW273995   6.381   4.066   2.916 -0.4612 -0.3284 -0.4625
23659SOL     OW73996   5.825   5.911   2.136  0.1565 -0.2957  0.1611
23659SOL    HW173997   5.764   5.984   2.131  0.3637 -0.0857  0.6133
23659SOL    HW273998   5.769   5.833   2.140 -0.1200 -0.0556  1.4915
23660SOL     OW73999   8.811   6.374   6.400  0.5618 -0.3917 -0.3202
23660SOL    HW174000   8.872   6.353   6.470  0.0589 -0.2408  0.1742
23660SOL    HW274001   8.865   6.388   6.322  1.0802 -1.0833 -0.0795
23661SOL     OW74002   0.084   0.626   7.924  0.1014  0.5880  0.5313
23661SOL    HW174003   0.090   0.537   7.958  0.1109  0.0336 -0.8937
23661SOL    HW274004  -0.006   0.634   7.893  0.1794  0.9726  0.3950
23662SOL     OW74005   0.702   6.664   6.063  0.4676 -0.3479  0.6358
23662SOL    HW174006   0.617   6.659   6.107  0.1973  0.6727  0.2439
23662SOL    HW274007   0.751   6.590   6.098 -0.5737 -0.9306  0.8858
23663SOL     OW74008   2.230   7.192   5.700  0.0124  0.1500  0.0482
23663SOL    HW174009   2.215   7.277   5.742 -0.4399  0.9521 -1.7001
23663SOL    HW274010   2.267   7.214   5.615 -0.2931 -1.4105 -0.4934
23664SOL     OW74011   7.682   8.007   1.180  0.2123 -0.0343  0.3684
23664SOL    HW174012   7.695   8.093   1.140 -0.6943 -1.4742 -3.2210
23664SOL    HW274013   7.712   8.018   1.270  1.4170  3.6519 -0.3823
23665SOL     OW74014   8.531   1.791   1.114 -0.1573  0.2823 -0.3964
23665SOL    HW174015   8.506   1.750   1.031 -0.0047 -0.4135 -0.1006
23665SOL    HW274016   8.605   1.848   1.091 -0.1004  0.0755 -0.7342
23666SOL     OW74017   5.673   3.640   7.500  0.4369  0.5708 -0.1932
23666SOL    HW174018   5.751   3.672   7.456  1.6625  0.1362  1.6244
23666SOL    HW274019   5.640   3.570   7.443  2.1142 -0.1263 -0.3176
23667SOL     OW74020   1.733   1.036   1.674 -0.0516  0.2095  0.4114
23667SOL    HW174021   1.756   0.943   1.668 -0.6370  0.0281  0.9129
23667SOL    HW274022   1.641   1.040   1.649  0.1100  0.7236 -0.1039
23668SOL     OW74023   1.808   7.875   7.825  0.1175 -0.3644 -0.6462
23668SOL    HW174024   1.893   7.918   7.831  0.5750 -0.9906 -2.1670
23668SOL    HW274025   1.827   7.791   7.783 -1.3792 -0.0253 -2.0825
23669SOL     OW74026   5.658   5.306   9.015  0.0044  0.5411 -0.2206
23669SOL    HW174027   5.735   5.328   8.962  1.4908 -0.1034  1.6150
23669SOL    HW274028   5.656   5.372   9.084 -0.6118  0.0820  0.2096
23670SOL     OW74029   5.528   7.760   6.297  0.0831 -0.1850 -0.1933
23670SOL    HW174030   5.460   7.805   6.248  0.0924 -1.4877 -1.4337
23670SOL    HW274031   5.483   7.691   6.345  0.4138 -0.4743 -0.2941
23671SOL     OW74032   6.689   1.732   0.276  0.0201 -0.1346  0.2700
23671SOL    HW174033   6.621   1.688   0.327 -0.4754 -0.6798 -0.8544
23671SOL    HW274034   6.679   1.698   0.187  2.1373 -0.6825  0.2064
23672SOL     OW74035   7.999   8.049   7.010  0.2624 -0.0624  0.2162
23672SOL    HW174036   7.987   8.060   7.104 -0.3025 -3.7812  0.6654
23672SOL    HW274037   8.075   8.103   6.988  0.0831  1.2412  2.7001
23673SOL     OW74038   2.870   3.361   6.470  0.0793 -0.0597  0.7291
23673SOL    HW174039   2.948   3.320   6.431 -0.6944  0.9643 -2.0401
23673SOL    HW274040   2.879   3.454   6.449 -1.7344  0.1142  0.6231
23674SOL     OW74041   7.657   3.794   0.202  0.0716 -0.2282  0.1649
23674SOL    HW174042   7.729   3.856   0.190 -0.0253 -0.0324  0.5975
23674SOL    HW274043   7.611   3.795   0.118 -1.1497  1.8347  0.8408
23675SOL     OW74044   6.835   0.542   1.898 -0.2396  0.2501  0.4309
23675SOL    HW174045   6.753   0.529   1.946 -0.7970  1.9435 -0.0085
23675SOL    HW274046   6.904   0.532   1.964 -0.8942  0.3820  1.1333
23676SOL     OW74047   2.515   3.588   1.850 -0.1844  0.3747  0.2463
23676SOL    HW174048   2.528   3.542   1.766  0.0210  0.2641  0.3384
23676SOL    HW274049   2.465   3.666   1.827 -0.5371  0.1045  0.0852
23677SOL     OW74050   4.570   0.534   2.168  0.2970 -0.0693  0.1019
23677SOL    HW174051   4.617   0.451   2.156  0.9587  0.2476  0.5083
23677SOL    HW274052   4.481   0.507   2.193  0.3098 -0.6663 -0.4755
23678SOL     OW74053   9.158   1.335   8.457  0.3382  0.4395  0.4952
23678SOL    HW174054   9.170   1.393   8.532  0.8347  0.2908  0.5351
23678SOL    HW274055   9.100   1.383   8.398 -1.1736 -0.0230  1.5852
23679SOL     OW74056   1.835   0.331   5.675  0.2912 -0.3746  0.6309
23679SOL    HW174057   1.885   0.392   5.729 -2.0425  0.8318  1.5390
23679SOL    HW274058   1.791   0.387   5.610  1.0352 -1.5198 -0.8923
23680SOL     OW74059   0.511   3.077   3.471  0.5369 -0.1085  0.2622
23680SOL    HW174060   0.545   3.118   3.391  1.4528 -2.9674 -0.8990
23680SOL    HW274061   0.584   3.026   3.504 -0.7140 -1.2351  1.3375
23681SOL     OW74062   7.666   1.923   5.276 -0.0574  0.2694  0.1225
23681SOL    HW174063   7.709   1.962   5.199 -0.6758 -1.5453 -1.1680
23681SOL    HW274064   7.737   1.878   5.322  0.2454  1.0359  0.4145
23682SOL     OW74065   8.896   7.174   3.567 -0.3949  0.1594 -0.3263
23682SOL    HW174066   8.863   7.187   3.655 -0.7664 -1.5168 -0.1968
23682SOL    HW274067   8.955   7.098   3.574 -0.2067  0.1796 -1.4597
23683SOL     OW74068   6.472   8.166   1.685  0.1686  0.3198  0.2718
23683SOL    HW174069   6.564   8.141   1.684  0.3883  1.0479  1.2820
23683SOL    HW274070   6.453   8.194   1.596  0.6335 -0.8579 -0.1991
23684SOL     OW74071   5.046   4.043   9.128 -0.1626 -0.2780  0.5723
23684SOL    HW174072   4.993   4.065   9.204 -0.9006 -1.3070  0.3691
23684SOL    HW274073   5.121   3.995   9.164  0.6962  1.2459  0.8686
23685SOL     OW74074   3.636   4.710   6.516 -0.1222 -0.5815  0.3406
23685SOL    HW174075   3.672   4.663   6.441  3.9897  2.2247  0.3659
23685SOL    HW274076   3.684   4.674   6.591 -1.1230 -0.3789  1.0788
23686SOL     OW74077   9.316   0.838   4.164  0.8263  0.1393 -0.4686
23686SOL    HW174078   9.257   0.765   4.146  1.2887 -0.2826 -0.2840
23686SOL    HW274079   9.306   0.856   4.257  0.4978  0.5026 -0.5736
23687SOL     OW74080   5.887   5.605   2.468 -0.7186  0.6521  0.2008
23687SOL    HW174081   5.892   5.660   2.546 -0.2040  1.1714 -0.1983
23687SOL    HW274082   5.923   5.521   2.497 -0.7389  0.7726  0.5863
23688SOL     OW74083   1.653   1.848   8.468  0.3897  0.5205 -0.4828
23688SOL    HW174084   1.658   1.942   8.487  0.1112  0.3033  0.6892
23688SOL    HW274085   1.711   1.807   8.532 -2.3012 -0.4124  1.4592
23689SOL     OW74086   4.427   7.628   9.179  0.4582  0.5213  0.3586
23689SOL    HW174087   4.366   7.557   9.196  1.1946  0.1444  1.4901
23689SOL    HW274088   4.371   7.702   9.155 -0.3987  0.0110  0.7512
23690SOL     OW74089   1.248   3.341   2.314 -0.1252 -0.1339  0.1274
23690SOL    HW174090   1.309   3.344   2.241  1.3674  0.2559  1.3712
23690SOL    HW274091   1.287   3.280   2.376 -1.4398 -0.5618  0.5587
23691SOL     OW74092   6.638   9.146   0.552  0.4001 -0.2900  0.1709
23691SOL    HW174093   6.651   9.051   0.542 -0.6628 -0.2664 -1.5617
23691SOL    HW274094   6.644   9.160   0.647  1.5789 -1.9310  0.3759
23692SOL     OW74095   7.773   1.695   0.791 -0.5810  0.0258  0.2523
23692SOL    HW174096   7.754   1.603   0.778 -2.3539  0.5619 -1.1798
23692SOL    HW274097   7.705   1.725   0.852  1.0695 -0.0003  2.1436
23693SOL     OW74098   8.995   8.448   4.397  0.6296 -0.5139 -0.4854
23693SOL    HW174099   9.083   8.414   4.381  0.2133 -1.1377 -1.4905
23693SOL    HW274100   8.937   8.376   4.374 -0.0787 -0.8558  2.2355
23694SOL     OW74101   1.079   5.868   9.096  0.6037  1.0892 -0.0119
23694SOL    HW174102   1.067   5.955   9.057  0.0074  0.5779 -0.9937
23694SOL    HW274103   1.146   5.880   9.163  0.1835  2.4054  0.1777
23695SOL     OW74104   5.619   1.784   2.245  0.2218 -0.0841  0.4817
23695SOL    HW174105   5.669   1.737   2.312  1.0386  0.3731  0.1965
23695SOL    HW274106   5.628   1.876   2.268 -0.0124  0.0360  0.1006
23696SOL     OW74107   7.662   2.503   9.092  0.0381 -0.4443  0.3232
23696SOL    HW174108   7.608   2.469   9.021 -0.3263 -0.8515  0.7932
23696SOL    HW274109   7.605   2.499   9.169  0.1023  0.8900  0.4563
23697SOL     OW74110   4.056   5.300   9.298  0.3261 -0.5866 -0.3484
23697SOL    HW174111   4.073   5.357   9.223  2.1275  1.6824  1.6891
23697SOL    HW274112   4.125   5.233   9.293  1.8260  0.8526  0.4642
23698SOL     OW74113   0.267   7.438   8.384 -0.7264  0.0339 -0.1843
23698SOL    HW174114   0.223   7.469   8.463  0.5717  0.8651  0.2345
23698SOL    HW274115   0.229   7.353   8.367 -1.3497  0.0458  1.0852
23699SOL     OW74116   8.085   9.347   5.279 -0.5416  0.2540  0.2605
23699SOL    HW174117   8.050   9.345   5.190  0.9037  1.1729 -0.3607
23699SOL    HW274118   8.012   9.376   5.333 -0.9289  1.5521 -0.9176
23700SOL     OW74119   8.081   1.420   1.450  0.3472  0.2946  0.1632
23700SOL    HW174120   8.080   1.402   1.544  1.9828 -1.1142 -0.0472
23700SOL    HW274121   8.146   1.490   1.440  0.9381 -0.2693 -0.0083
23701SOL     OW74122   9.057   1.925   6.705  0.0345 -0.3586 -0.3448
23701SOL    HW174123   9.004   1.925   6.784  1.2250  1.2642  0.4888
23701SOL    HW274124   9.131   1.982   6.726 -0.8527  2.0646 -3.4327
23702SOL     OW74125   6.086   0.347   0.318  0.1258  0.2656  0.4292
23702SOL    HW174126   6.064   0.440   0.308  0.9492  0.2473 -2.0478
23702SOL    HW274127   6.001   0.303   0.325 -0.3878  0.9407 -1.2461
23703SOL     OW74128   1.366   3.974   3.012 -0.2651  1.0096 -0.7565
23703SOL    HW174129   1.333   3.908   2.951 -0.4512  1.1142 -0.7674
23703SOL    HW274130   1.461   3.958   3.015 -0.5156 -0.3724  0.5575
23704SOL     OW74131   7.197   6.014   1.610 -0.1793 -0.3599  0.4274
23704SOL    HW174132   7.225   6.100   1.578 -0.3861 -0.4609 -0.0243
23704SOL    HW274133   7.265   5.954   1.580  1.7817  0.1108  3.6184
23705SOL     OW74134   2.080   2.766   4.659  0.3048  0.6769 -0.3744
23705SOL    HW174135   2.148   2.758   4.726 -0.0322  1.2240  0.0380
23705SOL    HW274136   2.016   2.827   4.697 -0.9999 -0.7258 -0.2775
23706SOL     OW74137   3.604   3.197   3.234 -0.2606  0.2623  0.1401
23706SOL    HW174138   3.516   3.235   3.228 -0.5954 -0.1309  2.1602
23706SOL    HW274139   3.658   3.267   3.270 -0.0046  0.1287  0.0121
23707SOL     OW74140   3.255   8.845   3.236  0.3071  0.1796  0.0754
23707SOL    HW174141   3.191   8.873   3.171  0.7139 -1.8894 -1.2597
23707SOL    HW274142   3.325   8.805   3.185  1.1373 -0.5276  1.7340
23708SOL     OW74143   9.284   7.060   0.969  0.4572  0.8486  0.0214
23708SOL    HW174144   9.233   7.141   0.958  0.2365  0.5732 -1.0332
23708SOL    HW274145   9.352   7.065   0.902  1.5678  0.9990  1.1238
23709SOL     OW74146   1.873   3.327   3.350 -0.2536 -0.5264 -0.2973
23709SOL    HW174147   1.964   3.356   3.339  0.0942 -2.3091 -2.4910
23709SOL    HW274148   1.861   3.324   3.444  2.1356 -0.7338  0.0478
23710SOL     OW74149   2.362   8.992   5.378  0.1649  0.1905 -0.2757
23710SOL    HW174150   2.271   8.979   5.351  0.1625 -1.5565  0.5281
23710SOL    HW274151   2.362   8.980   5.472  1.1022  1.0034 -0.1575
23711SOL     OW74152   7.519   1.891   2.257 -0.1822  0.9823  0.3442
23711SOL    HW174153   7.578   1.962   2.232 -0.2403  1.1215  0.6045
23711SOL    HW274154   7.567   1.811   2.237  0.5108  1.0912  1.5300
23712SOL     OW74155   8.500   3.870   1.740  0.3753 -0.0754  0.1735
23712SOL    HW174156   8.571   3.930   1.763 -1.3477  0.3641  4.8425
23712SOL    HW274157   8.425   3.927   1.722  0.3021 -0.6531 -1.4582
23713SOL     OW74158   5.722   1.734   8.976 -0.2042 -0.7265 -0.3635
23713SOL    HW174159   5.739   1.651   8.932  0.7457 -2.2247  2.6984
23713SOL    HW274160   5.807   1.763   9.007 -0.8550  0.2537  0.5406
23714SOL     OW74161   3.126   7.831   5.257 -0.2075 -0.1388  0.1535
23714SOL    HW174162   3.100   7.754   5.308 -1.3336 -0.1482 -0.4146
23714SOL    HW274163   3.100   7.809   5.167 -1.2146  1.1950  0.1021
23715SOL     OW74164   7.852   4.676   6.986  0.1580 -0.3684 -0.4940
23715SOL    HW174165   7.817   4.635   6.907 -2.1668 -0.1796  0.4145
23715SOL    HW274166   7.812   4.763   6.987 -1.2037 -0.9992  1.8015
23716SOL     OW74167   7.555   7.881   4.786  0.2265  0.5362 -0.2761
23716SOL    HW174168   7.469   7.895   4.747  0.1282  2.7571  0.6967
23716SOL    HW274169   7.548   7.797   4.830 -1.5007  0.7771 -0.0606
23717SOL     OW74170   8.223   0.014   6.024  0.0540 -0.0545  0.4270
23717SOL    HW174171   8.164   0.088   6.008 -0.2458  0.4431  3.4231
23717SOL    HW274172   8.309   0.045   5.998 -0.2570  0.9722  0.5952
23718SOL     OW74173   8.545   3.409   9.119 -0.0280  0.2867 -0.2282
23718SOL    HW174174   8.491   3.333   9.095  2.1334 -1.6458  0.8482
23718SOL    HW274175   8.483   3.469   9.160 -1.6488 -1.2718 -0.2915
23719SOL     OW74176   2.196   7.608   0.934  0.6077 -0.2299 -0.2897
23719SOL    HW174177   2.207   7.664   0.858  0.1674  1.3157  0.7526
23719SOL    HW274178   2.285   7.590   0.965  0.7137  0.9963  0.1393
23720SOL     OW74179   9.355   3.810   3.526  0.8094  0.1892  0.0487
23720SOL    HW174180   9.326   3.719   3.518 -0.9732  0.6187  1.3105
23720SOL    HW274181   9.316   3.841   3.608 -2.0859  3.2944 -2.3352
23721SOL     OW74182   7.084   3.209   8.130  0.7124  0.3937 -0.2565
23721SOL    HW174183   7.086   3.173   8.041  1.2845 -0.5014  0.1144
23721SOL    HW274184   7.089   3.132   8.187  2.3791  1.0884  0.5394
23722SOL     OW74185   0.611   2.206   2.963 -0.1202 -0.3992  0.0993
23722SOL    HW174186   0.655   2.269   3.020  0.9549  0.5954 -1.7585
23722SOL    HW274187   0.585   2.135   3.021  1.8388  0.0990  1.6576
23723SOL     OW74188   0.200   7.498   1.463 -0.2136  0.2190  0.4036
23723SOL    HW174189   0.150   7.519   1.384  1.0572 -1.7245 -0.9625
23723SOL    HW274190   0.264   7.569   1.469  0.0019  0.1294 -0.6068
23724SOL     OW74191   2.774   9.213   5.769 -0.1061  0.4537 -0.0712
23724SOL    HW174192   2.772   9.302   5.734  1.9315  1.4442  2.1541
23724SOL    HW274193   2.862   9.182   5.751 -0.2471 -0.4434  0.7229
23725SOL     OW74194   2.368   5.359   0.531  0.2974 -0.5614  0.2756
23725SOL    HW174195   2.431   5.412   0.580 -1.7687  0.4601  1.9375
23725SOL    HW274196   2.373   5.393   0.442  2.9961 -1.3735  0.0816
23726SOL     OW74197   8.141   9.204   3.623 -0.1204  0.5152  0.4553
23726SOL    HW174198   8.180   9.141   3.684  2.3702  0.5961 -0.9495
23726SOL    HW274199   8.145   9.288   3.668  3.0642  0.8392 -0.2717
23727SOL     OW74200   2.755   0.609   8.084 -0.5759 -0.2437  0.3578
23727SOL    HW174201   2.789   0.635   7.998 -1.8783 -0.7020 -0.3180
23727SOL    HW274202   2.829   0.568   8.128  0.1705  0.2170 -0.4477
23728SOL     OW74203   3.572   7.174   8.669  0.1617  0.1092  0.9880
23728SOL    HW174204   3.559   7.256   8.716 -1.2058  0.4443  0.0683
23728SOL    HW274205   3.661   7.179   8.635  1.0873 -0.0642  3.3628
23729SOL     OW74206   0.808   4.254   5.472  0.1518  0.3063  0.4750
23729SOL    HW174207   0.748   4.213   5.535  0.3851 -0.2568  0.3347
23729SOL    HW274208   0.883   4.281   5.525  0.4505 -0.3726  0.4152
23730SOL     OW74209   8.532   3.976   1.385  0.1965 -0.3726 -0.0619
23730SOL    HW174210   8.612   3.964   1.436 -0.1390 -1.0526  0.3132
23730SOL    HW274211   8.496   4.059   1.414  1.2968  0.4333 -0.9580
23731SOL     OW74212   7.838   2.520   1.152 -0.1946  0.0743  0.0750
23731SOL    HW174213   7.869   2.586   1.090  2.7865 -1.0360  0.3332
23731SOL    HW274214   7.869   2.551   1.237 -2.5365  0.5445  0.8007
23732SOL     OW74215   5.696   2.685   5.139  0.1396  0.6877 -0.0625
23732SOL    HW174216   5.617   2.642   5.106 -0.0472 -1.6763  3.2139
23732SOL    HW274217   5.767   2.649   5.086 -0.2368 -2.4503  1.4535
23733SOL     OW74218   6.611   2.249   3.956 -0.3132  0.1469  0.0199
23733SOL    HW174219   6.544   2.181   3.948  0.5819 -0.8675  0.9926
23733SOL    HW274220   6.586   2.298   4.034  1.0713 -1.4060  1.4970
23734SOL     OW74221   5.679   8.818   2.160  0.7920 -0.8176  0.4115
23734SOL    HW174222   5.617   8.866   2.215  2.4430 -0.2412  1.8097
23734SOL    HW274223   5.624   8.761   2.106 -0.9636 -0.1459  1.4525
23735SOL     OW74224   3.699   7.158   5.543  0.8221 -0.3920  0.0245
23735SOL    HW174225   3.681   7.069   5.513  2.8103 -0.8900  0.2824
23735SOL    HW274226   3.673   7.214   5.470  1.0150 -1.2705 -0.7208
23736SOL     OW74227   1.581   9.128   3.897 -0.1063 -0.0607  0.6119
23736SOL    HW174228   1.493   9.095   3.880 -0.8384  1.3994  1.5002
23736SOL    HW274229   1.588   9.207   3.844  1.0946 -0.7435 -0.3121
23737SOL     OW74230   1.415   6.145   4.695  0.0307 -0.6689  0.0756
23737SOL    HW174231   1.344   6.081   4.699  0.5065 -1.1958  0.0766
23737SOL    HW274232   1.399   6.194   4.615  0.1361 -1.3330 -0.3520
23738SOL     OW74233   3.053   4.197   0.438 -0.3476  0.5199 -0.2931
23738SOL    HW174234   3.072   4.198   0.344 -1.1770 -0.2253 -0.4726
23738SOL    HW274235   3.091   4.115   0.469 -0.9992  0.2691 -0.1658
23739SOL     OW74236   6.582   0.196   4.727 -0.1929 -0.2854 -0.3178
23739SOL    HW174237   6.662   0.185   4.675 -1.4689 -1.9028 -2.0185
23739SOL    HW274238   6.544   0.278   4.694  0.4949  0.2394  0.1657
23740SOL     OW74239   4.501   1.954   4.700 -0.3708  0.1007  0.0227
23740SOL    HW174240   4.584   1.972   4.746  0.2340  0.1677 -1.0794
23740SOL    HW274241   4.519   1.977   4.609 -1.1882 -1.1662 -0.4731
23741SOL     OW74242   0.830   6.875   6.232 -0.2140 -0.2985 -0.0249
23741SOL    HW174243   0.833   6.956   6.182  3.1523 -0.4049 -0.1193
23741SOL    HW274244   0.799   6.809   6.170  0.1954  0.3131 -0.8889
23742SOL     OW74245   0.650   9.084   4.800 -0.2134  0.1613  0.7595
23742SOL    HW174246   0.722   9.049   4.748 -0.1415 -1.1719  1.7308
23742SOL    HW274247   0.605   9.007   4.834 -0.1167  0.9828  2.8249
23743SOL     OW74248   3.171   2.475   6.647 -0.3998  0.4303 -0.6971
23743SOL    HW174249   3.245   2.452   6.591 -0.1813  0.6451 -0.4979
23743SOL    HW274250   3.210   2.492   6.733 -0.6510  0.7703 -0.6490
23744SOL     OW74251   0.337   6.724   4.628 -0.0978  0.2769  0.2339
23744SOL    HW174252   0.412   6.782   4.636  0.9312 -1.3138  2.6959
23744SOL    HW274253   0.268   6.764   4.680  0.0301  0.2317  0.4397
23745SOL     OW74254   0.974   5.436   4.452 -0.5531 -0.4823  0.0085
23745SOL    HW174255   1.009   5.505   4.396 -0.5140  0.1129  0.7603
23745SOL    HW274256   0.975   5.473   4.540 -2.4863 -0.6740  0.1468
23746SOL     OW74257   7.546   0.518   6.501 -0.2521  0.4983 -0.2751
23746SOL    HW174258   7.582   0.439   6.463 -1.6549  0.5694 -1.8270
23746SOL    HW274259   7.467   0.489   6.547 -0.1854  0.8384  0.0615
23747SOL     OW74260   0.839   3.836   0.859  0.2707  0.0496  0.1856
23747SOL    HW174261   0.871   3.923   0.838  0.8600 -0.5507 -1.5239
23747SOL    HW274262   0.915   3.778   0.844 -0.6539 -0.9804 -0.6075
23748SOL     OW74263   4.569   0.567   5.356 -0.5648  0.2870 -0.2466
23748SOL    HW174264   4.478   0.549   5.379 -1.2589  1.1132 -2.2077
23748SOL    HW274265   4.616   0.568   5.440 -1.9919 -2.0740  0.6152
23749SOL     OW74266   1.144   8.371   2.990  0.0926 -0.5103 -0.2477
23749SOL    HW174267   1.239   8.378   2.991  0.1533 -1.1649 -0.9283
23749SOL    HW274268   1.116   8.425   2.917 -0.0721 -0.2284  0.0200
23750SOL     OW74269   4.851   3.505   1.108 -0.0325  0.1361  0.1774
23750SOL    HW174270   4.848   3.595   1.139  1.4962  0.9996 -2.0803
23750SOL    HW274271   4.809   3.454   1.178 -0.2587  2.4793  1.7970
23751SOL     OW74272   1.315   7.181   3.617 -0.0893  0.3596  0.3413
23751SOL    HW174273   1.244   7.117   3.624  0.5765 -0.5313 -0.7187
23751SOL    HW274274   1.361   7.156   3.537  1.0613  1.2863  0.7001
23752SOL     OW74275   3.635   8.335   6.168  0.6661  0.7519  0.3450
23752SOL    HW174276   3.573   8.278   6.124  0.7111  1.2302 -0.3311
23752SOL    HW274277   3.590   8.363   6.248 -0.2799  1.6975 -0.5054
23753SOL     OW74278   8.619   0.833   0.071  0.4687 -0.5162 -0.6387
23753SOL    HW174279   8.551   0.878   0.122  0.1877 -0.9686 -0.6102
23753SOL    HW274280   8.696   0.890   0.078 -0.9520  1.9661 -3.8528
23754SOL     OW74281   7.793   0.107   0.951  0.6145  0.3064 -0.0488
23754SOL    HW174282   7.842   0.044   1.003  1.9258  0.2335 -1.3289
23754SOL    HW274283   7.735   0.053   0.897 -0.5358  0.3689  1.0947
23755SOL     OW74284   5.648   6.810   3.092  0.1811 -0.0244 -0.3858
23755SOL    HW174285   5.681   6.743   3.033  2.1557  0.2819  0.3411
23755SOL    HW274286   5.558   6.826   3.063 -0.2541 -2.8404 -0.6596
23756SOL     OW74287   0.675   0.146   6.782  0.5661 -0.0040 -1.0658
23756SOL    HW174288   0.676   0.129   6.688  0.9921 -1.7383 -0.7621
23756SOL    HW274289   0.666   0.060   6.822 -0.5178  0.7901  0.4708
23757SOL     OW74290   6.697   4.652   2.485  0.0189 -0.0039 -0.4788
23757SOL    HW174291   6.756   4.648   2.560 -0.2285 -1.9089 -0.3647
23757SOL    HW274292   6.750   4.625   2.411  0.0543  1.1365 -0.8875
23758SOL     OW74293   5.015   5.804   3.291 -0.0676 -0.5632  0.2021
23758SOL    HW174294   5.050   5.722   3.257 -1.0457 -1.1840  0.6958
23758SOL    HW274295   5.064   5.821   3.371 -0.3074 -0.9915  0.4374
23759SOL     OW74296   2.934   7.926   8.903  0.4473 -0.3549  0.0562
23759SOL    HW174297   2.855   7.883   8.871 -0.1731  0.5910  0.2879
23759SOL    HW274298   3.004   7.891   8.848 -0.2777 -0.4418 -0.8335
23760SOL     OW74299   5.700   5.139   3.150  0.0874 -0.2183  0.0790
23760SOL    HW174300   5.641   5.080   3.103  0.5244  0.3169 -1.1746
23760SOL    HW274301   5.648   5.172   3.224 -1.2841  0.4601 -1.1538
23761SOL     OW74302   0.772   6.221   1.570  0.3013  0.0373  0.0712
23761SOL    HW174303   0.842   6.286   1.573  1.8770 -1.6271  0.0096
23761SOL    HW274304   0.701   6.261   1.621  1.7422  1.2134  1.2188
23762SOL     OW74305   5.202   0.957   5.724 -0.0137 -0.6289 -0.9126
23762SOL    HW174306   5.167   0.930   5.809  0.6176 -0.6348 -0.6516
23762SOL    HW274307   5.294   0.931   5.726  0.5867  1.3863 -0.7020
23763SOL     OW74308   3.984   4.103   2.356 -0.1682  0.1231 -0.3796
23763SOL    HW174309   3.990   4.015   2.393  1.0336 -0.8293 -2.7239
23763SOL    HW274310   3.891   4.120   2.349 -0.4137 -1.3033 -0.6805
23764SOL     OW74311   7.772   1.199   2.830 -0.6989 -0.0928 -0.1765
23764SOL    HW174312   7.807   1.135   2.768  0.4387 -1.5049  1.8961
23764SOL    HW274313   7.677   1.191   2.820 -0.5596 -1.4992 -0.5506
23765SOL     OW74314   6.861   4.826   5.299  0.2753 -0.7112 -0.2093
23765SOL    HW174315   6.807   4.783   5.232 -0.1588  0.9334 -0.9350
23765SOL    HW274316   6.896   4.903   5.255  2.6925 -1.3714  0.4674
23766SOL     OW74317   1.320   3.773   8.560  0.0585 -0.0349 -0.0042
23766SOL    HW174318   1.288   3.766   8.470  0.4126 -2.1461  0.0099
23766SOL    HW274319   1.244   3.803   8.610 -1.0420 -1.9180 -0.4946
23767SOL     OW74320   8.290   1.202   6.058  0.2437  0.3634 -0.5254
23767SOL    HW174321   8.271   1.236   5.970  0.0700 -1.4484 -1.2178
23767SOL    HW274322   8.346   1.125   6.042 -1.1059 -0.9335  0.8330
23768SOL     OW74323   4.902   0.909   8.149  0.0714  0.2016 -0.0603
23768SOL    HW174324   4.991   0.942   8.154  0.1681 -0.1603  0.7427
23768SOL    HW274325   4.847   0.986   8.157  0.3143  0.4897 -1.1311
23769SOL     OW74326   3.957   5.544   8.754 -0.3188 -0.6115  0.1770
23769SOL    HW174327   3.896   5.495   8.810 -1.2585  1.0433  0.6244
23769SOL    HW274328   3.996   5.610   8.812  0.9395 -0.8038 -0.4187
23770SOL     OW74329   3.992   4.048   7.852 -0.5062 -0.0303  0.0119
23770SOL    HW174330   3.956   4.020   7.936 -0.9004  1.6586  0.4150
23770SOL    HW274331   3.924   4.025   7.788 -0.5476 -0.5726  0.2437
23771SOL     OW74332   0.933   6.371   7.780  0.4131  0.3116 -0.1591
23771SOL    HW174333   0.935   6.315   7.702 -0.4858  0.3991 -0.2494
23771SOL    HW274334   0.885   6.319   7.845  1.4786  0.0880  0.4635
23772SOL     OW74335   8.886   2.499   7.874  0.0242 -0.0947  0.0997
23772SOL    HW174336   8.835   2.421   7.850  0.6735  0.3893 -3.0815
23772SOL    HW274337   8.904   2.488   7.968  0.4561 -3.9779 -0.3526
23773SOL     OW74338   1.091   4.834   8.658 -0.0298 -0.6997  0.1350
23773SOL    HW174339   1.052   4.904   8.709  0.9436  0.1031 -0.2040
23773SOL    HW274340   1.018   4.775   8.637 -0.6748 -0.3113  1.2530
23774SOL     OW74341   2.867   2.078   6.003 -0.2288 -0.3335 -0.3244
23774SOL    HW174342   2.834   2.102   5.916 -1.7378  1.4987  0.7015
23774SOL    HW274343   2.796   2.028   6.043  0.4405 -1.1281 -0.0978
23775SOL     OW74344   8.639   8.026   3.568 -0.3355  0.5688  0.4061
23775SOL    HW174345   8.550   8.008   3.538  0.0650 -1.6075  0.4340
23775SOL    HW274346   8.640   7.999   3.659  0.4766  0.1262  0.2706
23776SOL     OW74347   7.772   8.630   5.377  0.3304  0.3248  0.0779
23776SOL    HW174348   7.803   8.663   5.461 -0.4447  0.5788  0.2685
23776SOL    HW274349   7.761   8.708   5.323  0.9684  0.1482 -0.3085
23777SOL     OW74350   2.181   5.156   6.035 -0.1291 -0.0061  0.0415
23777SOL    HW174351   2.127   5.078   6.020 -2.6657  1.2553  2.2417
23777SOL    HW274352   2.138   5.225   5.984  0.6923  0.5389  0.0751
23778SOL     OW74353   3.442   8.847   6.846 -0.2767 -0.6325  0.8053
23778SOL    HW174354   3.433   8.783   6.917  2.1451  0.5509  2.2523
23778SOL    HW274355   3.531   8.881   6.856 -1.0939  2.0747 -0.6636
23779SOL     OW74356   5.803   7.415   3.979 -0.4783  0.4719  0.2374
23779SOL    HW174357   5.723   7.370   4.005  0.2521  0.1818  2.0817
23779SOL    HW274358   5.820   7.477   4.050  1.2778  0.0570  0.1993
23780SOL     OW74359   8.997   3.051   1.365  0.7280  0.3769 -0.1905
23780SOL    HW174360   8.929   3.071   1.430  0.8319  1.8856 -0.5168
23780SOL    HW274361   9.064   3.005   1.415  0.1105  0.1369  0.4373
23781SOL     OW74362   5.079   0.823   2.463  0.1495 -0.2308 -0.5466
23781SOL    HW174363   5.000   0.876   2.457  0.9097  0.9374 -0.5004
23781SOL    HW274364   5.079   0.789   2.553 -0.1836 -0.0459 -0.4755
23782SOL     OW74365   4.063   3.292   1.165  0.4915 -0.4368 -0.3496
23782SOL    HW174366   4.093   3.341   1.089  0.0675 -0.6836 -0.6769
23782SOL    HW274367   4.026   3.358   1.223  1.1681 -0.1985 -0.1829
23783SOL     OW74368   1.265   4.574   7.856  0.1059 -0.0264  0.2564
23783SOL    HW174369   1.274   4.555   7.950  2.4657  4.5472  1.0586
23783SOL    HW274370   1.344   4.536   7.817 -0.0376 -0.4262  0.3471
23784SOL     OW74371   9.429   7.919   4.514  0.0841  0.3395  0.0813
23784SOL    HW174372   9.411   7.856   4.443 -2.7723  0.2612  0.7994
23784SOL    HW274373   9.399   8.003   4.479 -0.7567  0.4072  0.9401
23785SOL     OW74374   6.459   3.394   0.618 -0.0726 -0.3236 -0.5459
23785SOL    HW174375   6.503   3.440   0.689  1.2192  0.2903 -1.7141
23785SOL    HW274376   6.460   3.456   0.545 -1.9078 -0.7134 -0.9459
23786SOL     OW74377   3.485   9.222   6.336 -0.2018  0.2559 -0.0974
23786SOL    HW174378   3.424   9.291   6.309 -1.7020 -0.9507  0.1274
23786SOL    HW274379   3.429   9.150   6.365  1.3470 -0.5154  1.0750
23787SOL     OW74380   0.791   3.427   4.460  0.6355  0.5205  0.0486
23787SOL    HW174381   0.710   3.476   4.474  0.3995 -0.0220  0.5891
23787SOL    HW274382   0.807   3.433   4.365 -0.8320 -0.6335 -0.2798
23788SOL     OW74383   1.772   3.231   3.862  0.5791  0.4707 -0.4653
23788SOL    HW174384   1.803   3.250   3.951 -0.3816 -0.9887  0.1989
23788SOL    HW274385   1.679   3.254   3.864  0.3202 -0.5180 -0.7910
23789SOL     OW74386   0.568   4.639   7.663  0.4228 -0.9243  0.7261
23789SOL    HW174387   0.512   4.685   7.601 -0.1267 -1.1358  1.0676
23789SOL    HW274388   0.649   4.623   7.614  0.1328 -0.7576  0.1860
23790SOL     OW74389   0.729   1.874   3.286 -0.2335 -0.2153 -0.1487
23790SOL    HW174390   0.638   1.886   3.257 -0.2760 -0.1600  0.0020
23790SOL    HW274391   0.772   1.957   3.264  0.3514 -1.0737 -2.2801
23791SOL     OW74392   2.620   4.477   6.797 -0.2840 -0.1197 -0.2098
23791SOL    HW174393   2.585   4.430   6.874  0.6128  1.0451  0.9351
23791SOL    HW274394   2.623   4.411   6.728  2.1374 -2.1147  1.7082
23792SOL     OW74395   8.251   9.277   5.473  0.0915  0.2633  0.1803
23792SOL    HW174396   8.196   9.294   5.396  1.3153  1.1383 -0.5220
23792SOL    HW274397   8.213   9.199   5.513 -1.4441  0.6553 -0.4918
23793SOL     OW74398   4.158   7.138   3.109  0.2456 -0.0073  0.4982
23793SOL    HW174399   4.231   7.075   3.102  0.5591  0.4513 -0.4670
23793SOL    HW274400   4.137   7.139   3.202  1.4503 -0.1824  0.7906
23794SOL     OW74401   4.029   4.400   0.073  0.8575 -0.3817 -0.0711
23794SOL    HW174402   3.997   4.421  -0.014  1.5023 -1.6529 -0.6220
23794SOL    HW274403   3.954   4.415   0.131  0.2371 -0.1885 -0.9229
23795SOL     OW74404   2.058   5.071   4.248  0.3259 -0.0353  0.0243
23795SOL    HW174405   1.979   5.119   4.273  1.5643  2.4769 -0.7493
23795SOL    HW274406   2.096   5.043   4.331 -0.0929  0.8831  0.5324
23796SOL     OW74407   5.075   7.578   7.153 -0.3533  0.6406 -0.2430
23796SOL    HW174408   5.143   7.517   7.183  0.3403  0.9619 -1.1241
23796SOL    HW274409   4.994   7.527   7.155 -0.5006  0.9215  3.0138
23797SOL     OW74410   2.790   4.670   8.315 -0.1944 -0.3505 -0.1046
23797SOL    HW174411   2.879   4.658   8.348 -0.9359 -2.2342  1.2946
23797SOL    HW274412   2.794   4.643   8.223  0.9808  1.0196 -0.4746
23798SOL     OW74413   2.098   2.640   0.927  0.5566  0.4933  0.1649
23798SOL    HW174414   2.144   2.708   0.975  1.0762 -0.2071  0.6749
23798SOL    HW274415   2.130   2.558   0.965  1.5222 -0.1009 -1.8156
23799SOL     OW74416   0.316   7.919   2.712 -0.2084  0.0868  0.2582
23799SOL    HW174417   0.367   7.961   2.781 -0.3838 -1.1917  1.1837
23799SOL    HW274418   0.361   7.942   2.631  1.4870 -0.5104  1.0155
23800SOL     OW74419   6.220   3.030   5.991  0.1222 -0.1953 -0.5362
23800SOL    HW174420   6.140   3.075   5.962  0.1069  0.0586 -0.1053
23800SOL    HW274421   6.209   3.021   6.086  1.4594  1.5350 -0.2024
23801SOL     OW74422   3.181   7.296   4.132  0.2948  0.4287 -0.6197
23801SOL    HW174423   3.273   7.298   4.107  0.3585 -0.1429 -0.4455
23801SOL    HW274424   3.164   7.381   4.172  0.7964  0.4575 -0.4732
23802SOL     OW74425   2.518   8.998   7.745  0.1071  0.4054  0.8072
23802SOL    HW174426   2.601   8.963   7.776  0.1240 -1.9480 -1.6530
23802SOL    HW274427   2.453   8.964   7.807  0.6465 -0.2713  1.0117
23803SOL     OW74428   7.086   3.337   7.079  0.0804  0.3558 -0.2776
23803SOL    HW174429   7.111   3.430   7.079 -0.5126  0.5227 -0.6827
23803SOL    HW274430   7.027   3.329   7.154 -1.9698  0.9091 -1.7832
23804SOL     OW74431   4.644   1.502   5.106 -0.1424  0.1250 -0.3866
23804SOL    HW174432   4.675   1.480   5.194 -1.2102  0.2350  0.0225
23804SOL    HW274433   4.552   1.523   5.118 -0.3478 -0.0856 -1.5810
23805SOL     OW74434   5.088   3.382   7.809 -0.4713 -0.0196  0.3227
23805SOL    HW174435   5.112   3.474   7.808 -0.3271 -0.0300  1.7075
23805SOL    HW274436   5.061   3.363   7.719  1.1814  0.9225 -0.3931
23806SOL     OW74437   8.264   6.505   0.012  0.1661  0.0496 -0.2486
23806SOL    HW174438   8.194   6.567  -0.006 -0.5590 -0.8693 -0.6219
23806SOL    HW274439   8.270   6.504   0.108 -0.8766 -0.4581 -0.1811
23807SOL     OW74440   0.111   0.311   7.968  0.7174 -0.0038 -0.0710
23807SOL    HW174441   0.049   0.338   8.036 -1.2193 -0.5778 -1.5772
23807SOL    HW274442   0.119   0.216   7.981  3.1285  0.3954  1.6084
23808SOL     OW74443   8.051   5.633   6.192  0.4845 -0.1640 -0.3098
23808SOL    HW174444   8.124   5.679   6.234 -0.0801  1.0247 -0.6106
23808SOL    HW274445   7.986   5.623   6.262  0.5464 -0.3713 -0.2822
23809SOL     OW74446   9.334   2.829   6.534  0.4692  0.4327  0.3805
23809SOL    HW174447   9.251   2.866   6.502  0.2430  0.6962  1.2459
23809SOL    HW274448   9.387   2.906   6.555  0.5051  0.2729  0.8938
23810SOL     OW74449   8.122   2.548   0.469  0.1999 -0.2119 -0.3549
23810SOL    HW174450   8.160   2.611   0.408 -0.6235  0.1496 -0.5137
23810SOL    HW274451   8.186   2.478   0.476  0.7400  0.2311 -0.8583
23811SOL     OW74452   5.544   6.266   2.888  0.1099 -0.3939  0.1424
23811SOL    HW174453   5.507   6.352   2.910  0.3344 -0.2871  0.1063
23811SOL    HW274454   5.603   6.247   2.961  0.7190 -0.1223 -0.2839
23812SOL     OW74455   0.951   4.497   7.271  0.0866 -0.2312 -0.5699
23812SOL    HW174456   1.010   4.422   7.266  1.7149  1.0232 -0.4607
23812SOL    HW274457   0.927   4.514   7.180  2.1890  1.0273 -0.9229
23813SOL     OW74458   5.728   5.303   3.642  0.2040  0.0670  0.4509
23813SOL    HW174459   5.769   5.370   3.697  0.5752 -1.2965  1.8595
23813SOL    HW274460   5.802   5.256   3.602 -0.0605  0.7787 -0.8967
23814SOL     OW74461   1.536   7.395   5.283  0.1762 -0.1632  0.0842
23814SOL    HW174462   1.596   7.324   5.263 -1.2999 -1.2188 -0.7450
23814SOL    HW274463   1.592   7.472   5.294  1.6281 -1.0353 -1.0560
23815SOL     OW74464   9.006   6.079   2.873 -0.0638  0.0107 -1.0307
23815SOL    HW174465   9.022   5.990   2.904  2.3233  1.4718  2.3547
23815SOL    HW274466   8.924   6.105   2.915  0.5004  0.1961 -0.0150
23816SOL     OW74467   8.290   5.502   3.471  0.1108 -0.2573 -0.6134
23816SOL    HW174468   8.227   5.473   3.538  1.3013 -0.8768  0.2681
23816SOL    HW274469   8.305   5.594   3.492  1.5266 -0.7912  0.8722
23817SOL     OW74470   6.952   3.203   2.951  0.3877  0.3365 -0.4694
23817SOL    HW174471   7.047   3.207   2.940  0.3431 -0.2742 -1.0773
23817SOL    HW274472   6.940   3.193   3.046  0.9936 -1.8815 -0.6123
23818SOL     OW74473   2.313   0.434   7.396 -0.1900  0.3286  0.4223
23818SOL    HW174474   2.289   0.456   7.486 -2.0316  3.1234 -0.7049
23818SOL    HW274475   2.234   0.395   7.359 -0.0430  0.9565 -0.5662
23819SOL     OW74476   1.623   6.901   2.900  0.0439 -0.3419  0.0294
23819SOL    HW174477   1.557   6.955   2.857  0.2599 -0.6667 -0.7228
23819SOL    HW274478   1.612   6.814   2.860  0.3532 -0.6097  0.5218
23820SOL     OW74479   3.546   4.833   0.700  0.5575  0.0139  0.2134
23820SOL    HW174480   3.569   4.922   0.727 -0.8200  0.4283  0.0824
23820SOL    HW274481   3.504   4.794   0.776 -2.8500  1.0049 -1.0735
23821SOL     OW74482   0.695   3.212   8.414  0.0888 -0.6528 -0.7324
23821SOL    HW174483   0.673   3.124   8.446 -0.0603 -0.4858 -0.3686
23821SOL    HW274484   0.770   3.238   8.467 -1.0418  0.2052  0.4978
23822SOL     OW74485   1.082   6.439   1.109  0.1416 -0.0702 -0.1557
23822SOL    HW174486   1.091   6.503   1.038  0.9252 -0.7993 -0.7150
23822SOL    HW274487   1.163   6.446   1.159  0.7387 -1.4660 -0.9186
23823SOL     OW74488   7.731   7.426   1.749 -0.0886 -0.2050 -0.1459
23823SOL    HW174489   7.805   7.451   1.693 -0.4091  0.3104 -0.3387
23823SOL    HW274490   7.772   7.382   1.824  0.3567 -0.6810 -0.6595
23824SOL     OW74491   0.089   8.433   7.585  0.0242 -0.1060 -0.2514
23824SOL    HW174492   0.178   8.409   7.560  0.4044  0.7125  0.2961
23824SOL    HW274493   0.098   8.478   7.669 -1.0878 -1.4622  0.6227
23825SOL     OW74494   6.991   1.334   3.705 -0.1146 -0.1576 -0.0002
23825SOL    HW174495   6.923   1.267   3.695  0.2880 -0.6211  0.3663
23825SOL    HW274496   7.064   1.303   3.651 -0.7095  1.0455 -1.5216
23826SOL     OW74497   4.128   3.710   5.099  0.8039 -0.4917 -0.4132
23826SOL    HW174498   4.174   3.705   5.183  0.7118  0.3724 -0.3079
23826SOL    HW274499   4.076   3.790   5.105  2.3460  0.6782 -2.0708
23827SOL     OW74500   7.915   8.702   3.706 -0.3424  0.3189 -0.6322
23827SOL    HW174501   7.921   8.797   3.716 -0.5835  0.5671 -2.6468
23827SOL    HW274502   7.986   8.668   3.760 -1.0304  1.5498  1.1334
23828SOL     OW74503   0.608   3.032   7.282 -0.2470  0.0842 -0.8339
23828SOL    HW174504   0.556   2.969   7.233 -0.1634 -0.0391 -0.7630
23828SOL    HW274505   0.580   3.021   7.373  0.3765 -0.4379 -0.7085
23829SOL     OW74506   6.667   0.800   4.066 -0.0889 -0.4172 -0.4287
23829SOL    HW174507   6.713   0.883   4.074  0.7989 -0.8050 -1.3623
23829SOL    HW274508   6.629   0.785   4.152  2.3613 -0.5482  0.6653
23830SOL     OW74509   9.322   8.414   2.934 -0.3049  0.5258  0.4296
23830SOL    HW174510   9.398   8.377   2.980 -0.6091  0.5958  0.9900
23830SOL    HW274511   9.248   8.361   2.963 -0.7880  1.7463  1.4499
23831SOL     OW74512   2.024   0.263   7.069  0.2934  0.3628  0.5421
23831SOL    HW174513   1.947   0.213   7.041  2.1868 -1.4210 -1.7305
23831SOL    HW274514   1.999   0.300   7.154 -3.1016 -0.0273 -0.2089
23832SOL     OW74515   1.597   2.325   5.590 -0.5261 -0.6019  0.1094
23832SOL    HW174516   1.561   2.387   5.654 -0.4636 -0.3004 -0.1439
23832SOL    HW274517   1.552   2.243   5.608 -0.0595 -0.6781  0.9530
23833SOL     OW74518   4.532   2.969   4.779 -0.3956 -0.3960  0.0008
23833SOL    HW174519   4.535   3.028   4.703  0.3496 -0.6070 -0.1382
23833SOL    HW274520   4.555   3.024   4.853 -1.1978 -0.1721  0.0861
23834SOL     OW74521   6.694   8.968   8.035  0.2977  0.4542 -0.5580
23834SOL    HW174522   6.786   8.957   8.011  0.9819 -0.4866  2.3187
23834SOL    HW274523   6.671   8.886   8.080 -1.5151  1.2616  0.0338
23835SOL     OW74524   4.935   0.818   3.278 -0.5196  0.0565  0.4661
23835SOL    HW174525   4.856   0.785   3.235 -1.1905 -1.5255  2.8363
23835SOL    HW274526   4.967   0.744   3.329  2.1567  0.8717  0.0567
23836SOL     OW74527   7.048   8.504   6.189  0.2963 -0.1490  0.2762
23836SOL    HW174528   7.125   8.516   6.245 -0.5368  0.8284  1.2245
23836SOL    HW274529   7.008   8.423   6.221 -0.3687  0.5849  1.3536
23837SOL     OW74530   5.773   0.864   4.556 -0.0766 -0.2579  0.2092
23837SOL    HW174531   5.693   0.844   4.605 -0.0088 -1.8283 -0.2849
23837SOL    HW274532   5.744   0.867   4.465  0.3548 -0.4265  0.0675
23838SOL     OW74533   9.387   0.048   5.405 -0.3818 -0.5001  0.3116
23838SOL    HW174534   9.398  -0.044   5.428 -0.3444 -0.8205 -0.9302
23838SOL    HW274535   9.440   0.059   5.326  1.3574  1.1161  1.6482
23839SOL     OW74536   1.863   3.183   0.960 -0.4947 -0.1852  0.0507
23839SOL    HW174537   1.828   3.101   0.996 -0.0550 -0.6664 -0.5956
23839SOL    HW274538   1.787   3.241   0.954 -1.1235 -1.1141 -1.0709
23840SOL     OW74539   3.838   8.794   1.803 -0.2868  0.1591 -0.0169
23840SOL    HW174540   3.814   8.833   1.718 -1.5639 -1.6390 -0.5166
23840SOL    HW274541   3.760   8.807   1.857  0.1132  0.2842  0.5313
23841SOL     OW74542   6.195   0.584   2.337 -0.0963 -0.1988 -0.5710
23841SOL    HW174543   6.119   0.634   2.308 -0.0517  0.3468  0.2418
23841SOL    HW274544   6.264   0.606   2.274 -0.2389  0.3185 -0.5461
23842SOL     OW74545   1.207   5.095   0.910 -0.0809  0.1251 -0.0626
23842SOL    HW174546   1.188   5.019   0.966  1.4170 -0.5663 -0.4524
23842SOL    HW274547   1.140   5.093   0.843 -1.3273  0.3935  1.1469
23843SOL     OW74548   0.611   3.497   6.649 -0.3284 -0.1563 -0.3650
23843SOL    HW174549   0.539   3.560   6.649  0.8463  1.2413  0.8857
23843SOL    HW274550   0.569   3.412   6.640 -2.0494  0.7171 -0.7725
23844SOL     OW74551   3.919   7.981   0.767 -0.2180 -0.4259  0.4070
23844SOL    HW174552   3.943   8.028   0.687  0.8888 -1.4255  0.1392
23844SOL    HW274553   4.002   7.967   0.813 -0.6899 -0.9908  1.1047
23845SOL     OW74554   5.530   1.713   1.041 -0.0140 -0.4169 -0.3079
23845SOL    HW174555   5.579   1.795   1.039 -0.3805 -0.1935 -0.1191
23845SOL    HW274556   5.597   1.645   1.047  0.3195 -0.1607 -1.0534
23846SOL     OW74557   7.995   2.026   4.064  0.5140 -0.1369 -1.2822
23846SOL    HW174558   7.973   1.937   4.092 -0.8004  1.1604  2.1534
23846SOL    HW274559   8.091   2.026   4.057  0.5857 -1.6119 -0.5487
23847SOL     OW74560   0.008   2.955   4.151  0.0900  0.1076  0.5697
23847SOL    HW174561  -0.041   3.024   4.106 -0.2067  1.3308  2.6768
23847SOL    HW274562  -0.056   2.915   4.210  0.0956 -2.4268 -1.0372
23848SOL     OW74563   8.276   6.390   5.849  0.5658 -0.0331 -0.1968
23848SOL    HW174564   8.293   6.459   5.912  0.2262  0.1910 -0.3454
23848SOL    HW274565   8.356   6.384   5.797  1.2661 -0.9827  0.9649
23849SOL     OW74566   0.745   9.224   6.645 -0.4510 -0.1774  0.0027
23849SOL    HW174567   0.699   9.215   6.562  0.3967  1.6925 -0.6773
23849SOL    HW274568   0.799   9.145   6.651 -1.2420 -0.7832 -0.7337
23850SOL     OW74569   6.553   3.638   2.223 -0.4054 -0.5304  0.4980
23850SOL    HW174570   6.458   3.647   2.222 -0.4171 -0.6269  0.8037
23850SOL    HW274571   6.568   3.551   2.258 -0.2705 -1.4479 -1.7679
23851SOL     OW74572   0.440   1.167   2.190 -0.0679 -0.2302  0.8081
23851SOL    HW174573   0.476   1.080   2.170  1.2007  0.0718  1.6789
23851SOL    HW274574   0.409   1.159   2.281 -1.6759 -0.3061  0.2686
23852SOL     OW74575   6.274   4.813   2.912 -0.2891  0.0772  0.2187
23852SOL    HW174576   6.192   4.861   2.897  0.3117  1.3485  0.9095
23852SOL    HW274577   6.246   4.722   2.927 -1.4982  0.3266 -0.4161
23853SOL     OW74578   5.760   8.075   2.081  0.0087 -0.3836 -0.4156
23853SOL    HW174579   5.816   8.144   2.118 -1.5802  0.3016  0.7555
23853SOL    HW274580   5.819   8.000   2.072  1.4959  0.7686 -0.6493
23854SOL     OW74581   0.334   6.435   4.002 -0.0957 -0.0496 -0.2040
23854SOL    HW174582   0.293   6.500   3.945 -0.1022  0.4158  0.3192
23854SOL    HW274583   0.356   6.484   4.081  1.2963 -0.3231 -0.3972
23855SOL     OW74584   6.267   1.365   4.448 -0.4144 -0.1138 -0.7885
23855SOL    HW174585   6.237   1.274   4.449  0.3824 -0.3855  1.3527
23855SOL    HW274586   6.300   1.379   4.359  1.0794 -2.4539 -0.6421
23856SOL     OW74587   4.708   3.756   3.283 -0.4008  0.0699  0.5113
23856SOL    HW174588   4.627   3.794   3.315  0.6050  2.2776  0.5435
23856SOL    HW274589   4.695   3.661   3.288 -2.6742  0.4112  1.1989
23857SOL     OW74590   5.670   7.949   3.337  0.0662 -0.6548  0.1415
23857SOL    HW174591   5.587   7.982   3.371  0.2180 -1.6173  1.4840
23857SOL    HW274592   5.688   8.004   3.260 -1.2758  0.2469  0.4527
23858SOL     OW74593   8.730   5.620   7.003  0.3672 -0.4005  0.1671
23858SOL    HW174594   8.817   5.586   6.985  0.8090 -0.3706  2.0767
23858SOL    HW274595   8.738   5.715   6.989  0.6721 -0.3912  0.3908
23859SOL     OW74596   0.628   4.494   5.833  0.6395  1.0476  0.2974
23859SOL    HW174597   0.713   4.452   5.821  0.5973  0.7414  1.0646
23859SOL    HW274598   0.646   4.568   5.891  0.2994  0.6803  0.8781
23860SOL     OW74599   9.268   7.961   6.717 -0.3040  0.0328  0.0483
23860SOL    HW174600   9.348   7.910   6.712  1.2464  2.4562 -0.9984
23860SOL    HW274601   9.235   7.945   6.805  1.0642 -1.3697  0.3337
23861SOL     OW74602   4.078   1.130   6.263 -0.5750  0.4404  0.6759
23861SOL    HW174603   4.010   1.174   6.314 -0.7941  0.2880  0.5195
23861SOL    HW274604   4.079   1.177   6.179  1.6630  2.4374  1.7713
23862SOL     OW74605   5.589   2.863   8.311 -0.9285 -0.4450 -0.3739
23862SOL    HW174606   5.658   2.894   8.253  0.7290  0.6620  2.1175
23862SOL    HW274607   5.556   2.941   8.354 -0.6889 -1.4499  1.7106
23863SOL     OW74608   3.666   2.991   0.727 -0.0383  0.1519  0.2887
23863SOL    HW174609   3.720   3.067   0.748 -0.5241 -0.1428  2.8112
23863SOL    HW274610   3.729   2.923   0.704  0.5504  0.5490  0.6905
23864SOL     OW74611   3.837   9.443   7.186  0.2204  0.2833  0.1861
23864SOL    HW174612   3.893   9.371   7.157  1.8474  1.2799  0.7714
23864SOL    HW274613   3.754   9.429   7.140  0.8324 -1.3968 -0.4611
23865SOL     OW74614   3.509   6.761   3.703 -0.4131  0.4321  0.1111
23865SOL    HW174615   3.448   6.834   3.689  0.4365  0.8244 -1.6679
23865SOL    HW274616   3.524   6.725   3.616  0.8177 -0.5659  0.7146
23866SOL     OW74617   0.033   7.819   5.135  0.2490  0.1210  0.5743
23866SOL    HW174618  -0.049   7.818   5.184 -0.1041 -0.4252 -0.0166
23866SOL    HW274619   0.088   7.755   5.180  0.3282  0.4328  0.9251
23867SOL     OW74620   6.771   4.535   9.348  0.2928 -0.1318  0.0006
23867SOL    HW174621   6.741   4.585   9.424 -2.6377 -1.3365 -0.3059
23867SOL    HW274622   6.857   4.502   9.374 -0.2243  0.2883  2.4086
23868SOL     OW74623   1.200   0.741   0.768  0.1858  0.0758  0.0296
23868SOL    HW174624   1.253   0.685   0.824  1.2990  0.6601 -0.4297
23868SOL    HW274625   1.172   0.812   0.825  0.7108  0.2880  0.0196
23869SOL     OW74626   3.852   1.158   7.149 -0.0420  0.0408  0.2999
23869SOL    HW174627   3.889   1.106   7.220 -1.7968 -3.1074 -0.9698
23869SOL    HW274628   3.922   1.165   7.084 -0.0414 -1.4248  0.1432
23870SOL     OW74629   8.311   1.464   4.748  0.1419  0.3558 -0.2686
23870SOL    HW174630   8.342   1.506   4.668  1.0023 -1.1447 -0.7361
23870SOL    HW274631   8.381   1.403   4.772 -0.4305  0.2627  1.2246
23871SOL     OW74632   3.839   2.287   6.605  0.2012 -0.8735 -0.2773
23871SOL    HW174633   3.888   2.204   6.604  2.0376  0.1960 -1.2394
23871SOL    HW274634   3.866   2.332   6.526  1.3016  1.8404  1.5820
23872SOL     OW74635   1.827   9.354   3.554 -0.2421 -0.3257  0.6909
23872SOL    HW174636   1.736   9.325   3.565  0.1076 -2.7720 -2.0991
23872SOL    HW274637   1.879   9.280   3.585  0.7114 -1.2997 -2.9902
23873SOL     OW74638   2.279   6.962   6.023  0.5592  0.3324  0.3884
23873SOL    HW174639   2.272   6.880   6.073 -0.2560  1.1757  1.7149
23873SOL    HW274640   2.199   6.965   5.970  0.0994  0.7298  1.0890
23874SOL     OW74641   2.045   3.840   3.855 -0.5322  0.0250 -0.1122
23874SOL    HW174642   2.009   3.777   3.794 -0.4321  0.6571 -0.8292
23874SOL    HW274643   1.982   3.912   3.856  1.4236  1.8641 -2.5879
23875SOL     OW74644   8.373   0.409   9.263 -0.1572  0.1858 -0.3347
23875SOL    HW174645   8.373   0.329   9.211 -0.6424  0.1370 -0.2617
23875SOL    HW274646   8.285   0.413   9.301  0.0271  0.4918  0.0641
23876SOL     OW74647   6.634   3.039   0.788  0.2835  0.3912 -0.0494
23876SOL    HW174648   6.705   3.085   0.743  0.8973  1.5265  2.0186
23876SOL    HW274649   6.554   3.073   0.748  0.8389  0.0694 -1.4824
23877SOL     OW74650   8.977   4.964   4.280 -0.1145 -0.2020  0.4646
23877SOL    HW174651   8.968   4.898   4.211  0.0648 -0.1943  0.4338
23877SOL    HW274652   8.951   5.046   4.238  1.9225  0.1501 -0.1742
23878SOL     OW74653   6.242   8.142   3.874 -0.0749  0.5754 -0.7225
23878SOL    HW174654   6.167   8.200   3.860  0.6725  1.7959  0.2770
23878SOL    HW274655   6.225   8.101   3.959 -0.2566 -0.1742 -1.1096
23879SOL     OW74656   7.281   2.538   0.862  0.2589  0.0527 -0.4306
23879SOL    HW174657   7.374   2.543   0.887  0.3664 -0.3646 -0.7473
23879SOL    HW274658   7.282   2.528   0.767 -0.1227  0.3759 -0.4709
23880SOL     OW74659   8.179   0.731   3.310  0.2009 -0.6437  0.8922
23880SOL    HW174660   8.183   0.769   3.398  0.3968  0.4975  0.3899
23880SOL    HW274661   8.268   0.699   3.295  0.2214 -0.6475  1.0188
23881SOL     OW74662   6.940   2.317   1.877 -0.3114  0.1863  0.0337
23881SOL    HW174663   6.941   2.264   1.957  1.2788  1.0994  0.6406
23881SOL    HW274664   6.989   2.266   1.813 -2.4875 -1.0392 -0.7281
23882SOL     OW74665   1.186   6.247   7.123  0.3049 -0.0130 -0.0722
23882SOL    HW174666   1.186   6.253   7.027  1.4958 -1.3283 -0.1796
23882SOL    HW274667   1.149   6.161   7.142  0.2970  0.1443  0.6450
23883SOL     OW74668   8.468   4.178   1.056  0.2012 -0.4064 -0.1080
23883SOL    HW174669   8.511   4.108   1.008  0.6600 -1.2579  1.4782
23883SOL    HW274670   8.539   4.230   1.092 -0.1184 -0.0245 -0.0255
23884SOL     OW74671   9.077   3.487   4.997 -0.1982 -0.3419 -0.2429
23884SOL    HW174672   9.117   3.439   5.070 -0.9078 -0.0774  0.3301
23884SOL    HW274673   9.030   3.559   5.039  0.5154  0.6053 -1.0697
23885SOL     OW74674   0.284   2.253   8.186  0.2937  0.0117  0.6828
23885SOL    HW174675   0.210   2.245   8.246 -0.8975 -1.2602 -0.9340
23885SOL    HW274676   0.310   2.163   8.168  1.5036  0.4234  0.3277
23886SOL     OW74677   7.759   2.873   8.192 -0.2587  0.7081 -0.9336
23886SOL    HW174678   7.768   2.911   8.280  1.4943 -1.6813 -0.0074
23886SOL    HW274679   7.716   2.788   8.207  0.6943 -0.0314 -2.2538
23887SOL     OW74680   2.102   2.541   4.976  0.2462  0.1966 -0.3329
23887SOL    HW174681   2.110   2.447   4.956  0.5804  0.6863 -2.6240
23887SOL    HW274682   2.120   2.547   5.070  2.0627 -1.8360 -0.5121
23888SOL     OW74683   8.027   7.102   3.019 -0.0467 -0.4338  0.1248
23888SOL    HW174684   8.019   7.061   3.104 -0.6208 -0.1954  0.1921
23888SOL    HW274685   8.049   7.031   2.959  0.6634 -0.5483  0.5241
23889SOL     OW74686   0.399   4.359   3.017 -0.6781 -0.1687 -0.5649
23889SOL    HW174687   0.487   4.335   3.047 -0.5996 -0.4504 -1.0089
23889SOL    HW274688   0.347   4.280   3.029 -2.0519  1.2971  4.0349
23890SOL     OW74689   3.728   1.777   8.828 -0.2880  0.5693  0.7925
23890SOL    HW174690   3.644   1.732   8.838 -0.4004  0.3688 -0.9272
23890SOL    HW274691   3.735   1.832   8.906 -1.7712  0.1974  1.2002
23891SOL     OW74692   0.410   3.359   4.411 -0.1533  0.0055 -0.2019
23891SOL    HW174693   0.372   3.410   4.339 -3.3424 -0.5040  1.0048
23891SOL    HW274694   0.426   3.273   4.374 -0.5529  0.1271 -0.6621
23892SOL     OW74695   8.967   0.868   1.378  0.4108 -0.0145  0.0224
23892SOL    HW174696   8.911   0.883   1.302 -1.8755  0.0111  1.6739
23892SOL    HW274697   9.034   0.936   1.372 -0.6406  0.9331 -1.1422
23893SOL     OW74698   3.082   4.823   2.855  0.8717  0.0535  0.4813
23893SOL    HW174699   3.044   4.868   2.779  1.1405 -0.3008  0.1343
23893SOL    HW274700   3.091   4.732   2.827 -0.6139 -0.4339  1.5274
23894SOL     OW74701   0.016   4.014   4.059  0.5859  0.2927  0.3808
23894SOL    HW174702   0.003   3.945   3.994 -0.4797  0.1430  0.7416
23894SOL    HW274703   0.042   4.091   4.008  0.3246  0.0187 -0.1655
23895SOL     OW74704   4.112   0.286   1.857 -0.5660  0.4679 -0.2936
23895SOL    HW174705   4.185   0.315   1.801  0.1961  1.3204  1.1197
23895SOL    HW274706   4.080   0.366   1.898 -0.3246 -0.2852  1.4054
23896SOL     OW74707   7.699   7.241   7.698 -0.0581 -0.0809  0.7141
23896SOL    HW174708   7.614   7.271   7.666  0.4121 -0.6789 -1.1203
23896SOL    HW274709   7.747   7.322   7.718 -0.6982  0.2697  0.8510
23897SOL     OW74710   8.098   6.663   7.006 -0.5268 -0.5091  0.4075
23897SOL    HW174711   8.193   6.672   7.014 -0.5526 -0.5114  0.7349
23897SOL    HW274712   8.075   6.596   7.071 -1.0114  0.9991  1.8288
23898SOL     OW74713   1.697   7.261   1.942 -0.8585  0.0268  0.2250
23898SOL    HW174714   1.779   7.210   1.943 -0.4771  0.5992 -0.9366
23898SOL    HW274715   1.637   7.210   1.996 -0.2480 -1.2727 -0.2985
23899SOL     OW74716   0.393   7.732   8.991 -0.6850  0.5055 -0.4237
23899SOL    HW174717   0.387   7.721   8.896  1.1888  0.9751 -0.6144
23899SOL    HW274718   0.350   7.816   9.008 -0.0592  0.9457 -0.9890
23900SOL     OW74719   2.574   5.353   2.084 -0.5081 -0.2274 -0.1989
23900SOL    HW174720   2.668   5.343   2.102 -0.5856  1.8630  1.4731
23900SOL    HW274721   2.537   5.268   2.107  0.7493 -0.5788  0.6069
23901SOL     OW74722   2.300   4.940   7.121 -0.2388 -0.7149  0.5234
23901SOL    HW174723   2.252   4.943   7.204 -0.5053  3.3986  0.3207
23901SOL    HW274724   2.231   4.935   7.054 -0.1685 -0.4045  0.4279
23902SOL     OW74725   8.684   9.051   9.278  0.3816 -0.2073 -0.1365
23902SOL    HW174726   8.628   9.024   9.352  0.5709 -1.0002 -0.2723
23902SOL    HW274727   8.671   8.982   9.213 -0.3960  0.8984 -1.1754
23903SOL     OW74728   5.122   6.282   4.094 -0.2347 -0.4490  0.0216
23903SOL    HW174729   5.125   6.376   4.108  1.2154 -0.4565 -0.2017
23903SOL    HW274730   5.135   6.244   4.181  0.3143 -0.4435 -0.0562
23904SOL     OW74731   0.784   5.145   0.502 -0.5504  0.7202  0.1184
23904SOL    HW174732   0.850   5.157   0.434  0.6783 -1.6476  0.8598
23904SOL    HW274733   0.786   5.227   0.552  0.1617  1.5672 -1.2819
23905SOL     OW74734   2.674   0.595   5.362 -0.1929  0.0127 -0.2014
23905SOL    HW174735   2.714   0.562   5.282 -1.0780 -0.4250 -0.4795
23905SOL    HW274736   2.716   0.546   5.433  0.6657  0.4770 -0.3949
23906SOL     OW74737   2.800   3.299   8.105  0.0035  0.1766  0.0032
23906SOL    HW174738   2.889   3.333   8.113 -0.0830  0.4602 -0.2021
23906SOL    HW274739   2.800   3.219   8.157 -0.0237  0.9299  1.1814
23907SOL     OW74740   2.579   8.451   0.532 -0.2576 -0.0863  0.0230
23907SOL    HW174741   2.597   8.543   0.516 -0.1442 -0.1849 -0.4125
23907SOL    HW274742   2.651   8.404   0.489 -0.7274 -0.4077 -0.4278
23908SOL     OW74743   6.546   1.023   8.398 -0.1409  0.4481  0.2507
23908SOL    HW174744   6.477   1.025   8.331  1.1002 -2.6560 -1.2505
23908SOL    HW274745   6.628   1.025   8.349  0.8197  0.2234  1.7993
23909SOL     OW74746   3.543   3.756   1.197  0.7044  0.7100 -0.0305
23909SOL    HW174747   3.623   3.805   1.211  1.5017 -0.4584 -0.4558
23909SOL    HW274748   3.547   3.683   1.258  0.2144  0.3395 -0.4328
23910SOL     OW74749   6.172   8.879   8.005 -0.0014 -0.0776 -0.2182
23910SOL    HW174750   6.261   8.869   7.973  0.0737  0.9713 -0.3669
23910SOL    HW274751   6.177   8.949   8.070 -0.8280  0.4598 -0.7167
23911SOL     OW74752   4.480   3.476   0.437  0.4954 -0.1244  0.3073
23911SOL    HW174753   4.468   3.512   0.349 -0.8229 -0.5981  0.2755
23911SOL    HW274754   4.527   3.394   0.423 -0.0472 -0.3861  0.0025
23912SOL     OW74755   6.931   8.624   3.946  0.2759  0.2517  0.6081
23912SOL    HW174756   6.991   8.619   4.021 -1.8502 -1.1561  2.2858
23912SOL    HW274757   6.879   8.702   3.964  1.1025  1.0564 -0.4679
23913SOL     OW74758   7.434   4.287   5.923 -0.3388 -0.5306  0.2198
23913SOL    HW174759   7.491   4.250   5.855 -0.8183  0.7883 -0.9317
23913SOL    HW274760   7.353   4.236   5.916 -1.1591  0.9691 -1.6636
23914SOL     OW74761   4.592   5.904   6.460  0.2186  0.2533 -0.0511
23914SOL    HW174762   4.558   5.893   6.549 -0.3072 -0.2366 -0.3099
23914SOL    HW274763   4.514   5.911   6.405  0.5312  2.2556 -0.2761
23915SOL     OW74764   3.313   2.425   7.655  0.1966 -0.6014  0.1640
23915SOL    HW174765   3.219   2.406   7.656  0.3396 -1.3839 -0.8173
23915SOL    HW274766   3.319   2.515   7.687 -1.0668  0.1952 -1.7348
23916SOL     OW74767   1.771   1.663   8.632  0.1006 -0.0698 -0.0870
23916SOL    HW174768   1.846   1.640   8.686 -1.4612  0.9490  2.6117
23916SOL    HW274769   1.695   1.638   8.684 -1.4727 -0.7936 -2.6191
23917SOL     OW74770   7.423   0.301   9.092 -0.5501  0.6287  0.0921
23917SOL    HW174771   7.422   0.220   9.041  0.8389  0.6574  0.0146
23917SOL    HW274772   7.368   0.281   9.169 -1.1032 -0.0233 -0.4613
23918SOL     OW74773   8.100   5.991   7.681 -0.0611 -0.1392 -0.2481
23918SOL    HW174774   8.126   5.910   7.725 -0.6470 -0.6069 -0.7608
23918SOL    HW274775   8.111   5.972   7.588 -0.1358  0.3958 -0.3637
23919SOL     OW74776   6.485   1.770   6.030  0.1270 -0.1366  0.3559
23919SOL    HW174777   6.531   1.803   5.953 -0.8626 -1.4401 -0.8322
23919SOL    HW274778   6.410   1.829   6.040  1.1983  1.0860  1.3977
23920SOL     OW74779   6.830   5.310   5.389 -0.3038  0.4002  0.2810
23920SOL    HW174780   6.842   5.287   5.481  0.1893 -1.6251 -0.2713
23920SOL    HW274781   6.915   5.345   5.362  0.1885 -0.9475  0.0568
23921SOL     OW74782   6.269   6.483   3.795 -0.4425  0.3559 -0.5260
23921SOL    HW174783   6.208   6.459   3.725  0.0339  1.5497 -1.3509
23921SOL    HW274784   6.263   6.410   3.857  1.6336 -2.4035 -3.4179
23922SOL     OW74785   0.350   6.810   7.369  0.0236 -0.2679  0.1577
23922SOL    HW174786   0.320   6.824   7.279  0.2073 -1.0133 -0.0275
23922SOL    HW274787   0.441   6.839   7.369  0.4986 -1.7183 -0.3019
23923SOL     OW74788   3.046   0.185   3.282 -0.3946  0.5088 -0.5431
23923SOL    HW174789   3.099   0.137   3.345 -2.6316  0.8293  1.6575
23923SOL    HW274790   2.995   0.118   3.237  0.0649  0.4149 -0.9270
23924SOL     OW74791   7.371   7.668   0.609  0.2913 -0.0646 -0.3676
23924SOL    HW174792   7.419   7.695   0.687  0.4938 -0.0727 -0.4884
23924SOL    HW274793   7.331   7.748   0.576 -0.0071 -0.1063 -0.1094
23925SOL     OW74794   5.480   3.684   4.630 -0.5802 -0.2063 -0.4407
23925SOL    HW174795   5.465   3.779   4.633 -0.5202 -0.1658 -1.3218
23925SOL    HW274796   5.567   3.672   4.668 -0.9464 -0.0039  0.4905
23926SOL     OW74797   8.810   5.107   0.019  0.1100  0.2321  0.4214
23926SOL    HW174798   8.762   5.043   0.072 -1.4484 -0.8639 -2.1779
23926SOL    HW274799   8.873   5.055  -0.030  0.3130  0.9724 -0.1106
23927SOL     OW74800   0.041   3.364   8.382  0.5861 -0.1514  0.1367
23927SOL    HW174801  -0.054   3.370   8.373  0.6182 -1.3098 -1.2496
23927SOL    HW274802   0.055   3.298   8.450  0.4011  0.4656  0.7762
23928SOL     OW74803   1.389   7.551   3.154  0.2135 -0.5470 -0.0460
23928SOL    HW174804   1.391   7.502   3.072 -0.8513 -0.9972  0.2003
23928SOL    HW274805   1.328   7.623   3.138 -0.4341 -0.9626  0.5316
23929SOL     OW74806   4.463   7.908   8.162  0.7976 -0.6837  0.2320
23929SOL    HW174807   4.447   7.939   8.252 -1.7085 -0.5714 -0.2179
23929SOL    HW274808   4.507   7.981   8.119 -0.2373  0.2243  0.6944
23930SOL     OW74809   3.375   1.786   0.379  0.3691 -0.1841 -0.1669
23930SOL    HW174810   3.373   1.705   0.327  0.0726  1.1068 -2.2186
23930SOL    HW274811   3.286   1.819   0.375  0.2041 -0.3585  1.6860
23931SOL     OW74812   2.428   8.826   3.933 -0.0948  0.1471 -0.4552
23931SOL    HW174813   2.454   8.735   3.922  1.2434  0.4982 -0.2728
23931SOL    HW274814   2.403   8.855   3.846 -4.0197 -1.4190  0.0661
23932SOL     OW74815   6.465   4.600   6.025  0.1475 -0.1198  0.0877
23932SOL    HW174816   6.402   4.644   5.969  1.5284  0.2405 -1.2317
23932SOL    HW274817   6.501   4.530   5.970  1.5282  0.2416  0.5022
23933SOL     OW74818   4.806   1.428   8.762 -0.1415 -0.3405  0.5726
23933SOL    HW174819   4.766   1.398   8.680  1.8206 -0.0780 -0.5355
23933SOL    HW274820   4.751   1.501   8.790 -0.9625 -0.5648 -0.4040
23934SOL     OW74821   4.818   8.326   4.039  0.6601 -0.6391 -0.2941
23934SOL    HW174822   4.760   8.322   4.115 -1.2427  0.9478 -1.6061
23934SOL    HW274823   4.834   8.420   4.027  0.0820 -0.8011 -2.4606
23935SOL     OW74824   0.227   8.149   0.454 -0.1868 -0.1030 -0.3501
23935SOL    HW174825   0.207   8.059   0.480 -1.7518 -0.0549 -1.3095
23935SOL    HW274826   0.261   8.190   0.534  1.8677 -1.9165 -0.2803
23936SOL     OW74827   6.963   3.725   3.040  0.2364 -0.1031 -0.0108
23936SOL    HW174828   6.868   3.739   3.035  0.1771 -0.1825  0.9681
23936SOL    HW274829   6.990   3.768   3.121  1.1688  0.6205 -0.6982
23937SOL     OW74830   5.614   3.310   6.598  0.1001  0.4070  0.0495
23937SOL    HW174831   5.672   3.284   6.669  1.1428 -1.8846 -1.5870
23937SOL    HW274832   5.533   3.260   6.613 -0.2217  1.0306  0.4221
23938SOL     OW74833   3.034   5.886   5.368 -0.0667 -0.1405  0.2547
23938SOL    HW174834   3.059   5.859   5.457 -0.7352 -0.1210  0.4489
23938SOL    HW274835   3.108   5.939   5.338 -0.3379  0.8302  1.2416
23939SOL     OW74836   9.428   5.000   9.223  0.0561 -1.1293  0.4035
23939SOL    HW174837   9.425   4.983   9.128 -0.3141  0.6088  0.0818
23939SOL    HW274838   9.419   5.095   9.230  0.4953 -1.2075  2.1753
23940SOL     OW74839   2.201   3.689   3.232  0.8140  0.2364 -0.6041
23940SOL    HW174840   2.173   3.607   3.272 -0.8852  0.8489 -0.5007
23940SOL    HW274841   2.215   3.748   3.306  0.9274  0.3857 -0.7439
23941SOL     OW74842   6.890   7.319   1.389 -0.2994 -0.7925 -0.2411
23941SOL    HW174843   6.964   7.326   1.329 -0.0542  0.8340  0.2291
23941SOL    HW274844   6.861   7.228   1.381  1.1990 -1.2137 -1.0757
23942SOL     OW74845   3.140   1.478   4.756 -0.4599  0.2508  0.2633
23942SOL    HW174846   3.147   1.456   4.663 -0.5633 -0.5567  0.4398
23942SOL    HW274847   3.111   1.569   4.757  2.0299  1.0967 -0.4737
23943SOL     OW74848   9.094   8.099   3.361 -0.2416  0.4716  0.2594
23943SOL    HW174849   9.027   8.119   3.296 -0.2062  1.3269  0.4694
23943SOL    HW274850   9.177   8.106   3.314 -0.1942  1.4961  0.4871
23944SOL     OW74851   4.862   4.836   4.957 -0.0887  0.0138 -0.1516
23944SOL    HW174852   4.919   4.775   5.003 -1.3677 -0.2385  1.1321
23944SOL    HW274853   4.916   4.915   4.945  0.8743 -0.6032  0.0674
23945SOL     OW74854   1.412   2.532   5.431 -0.1789  0.0882 -0.0801
23945SOL    HW174855   1.385   2.600   5.493 -1.9624  1.2773 -2.1022
23945SOL    HW274856   1.508   2.535   5.431 -0.1975  0.9401  1.6344
23946SOL     OW74857   6.272   8.876   3.945 -0.0671  0.5033  0.2985
23946SOL    HW174858   6.184   8.908   3.924 -0.9995 -2.1557 -0.0040
23946SOL    HW274859   6.265   8.842   4.034  0.6758  0.3451  0.3022
23947SOL     OW74860   6.072   8.647   1.009 -0.2942  0.3627 -0.0731
23947SOL    HW174861   6.014   8.659   0.934 -1.1701 -0.2370  0.4963
23947SOL    HW274862   6.022   8.590   1.069  1.0470 -0.5195  0.2318
23948SOL     OW74863   3.111   8.052   2.067 -0.3928  0.0218 -0.0571
23948SOL    HW174864   3.090   8.018   2.153  0.7216  3.3641  1.6151
23948SOL    HW274865   3.027   8.072   2.027 -0.8772 -0.5874  0.6632
23949SOL     OW74866   0.648   8.421   6.322 -0.0017 -0.3429  0.6150
23949SOL    HW174867   0.710   8.408   6.250 -0.7131  0.4330 -0.1456
23949SOL    HW274868   0.655   8.340   6.374  2.0118 -0.0670  0.8325
23950SOL     OW74869   4.320   0.532   7.829  0.0350  0.1057 -0.2265
23950SOL    HW174870   4.364   0.448   7.818 -1.0504 -0.3144 -1.6666
23950SOL    HW274871   4.257   0.535   7.757 -0.1432  2.0313 -0.0259
23951SOL     OW74872   0.662   1.834   1.500  0.2131 -0.0687  0.2265
23951SOL    HW174873   0.748   1.854   1.538  0.4006  0.3505 -0.4095
23951SOL    HW274874   0.607   1.908   1.526  1.2399  2.0589 -3.2262
23952SOL     OW74875   0.628   7.822   3.774 -0.1670 -0.0598 -0.8714
23952SOL    HW174876   0.565   7.850   3.708  0.6629 -3.7063 -3.3383
23952SOL    HW274877   0.714   7.841   3.736  0.2978 -1.1099 -0.3869
23953SOL     OW74878   8.594   5.324   5.734  0.3915 -0.0165 -0.0982
23953SOL    HW174879   8.597   5.416   5.759  0.3643 -0.6145  2.1751
23953SOL    HW274880   8.511   5.315   5.685  1.0114  1.3953 -1.4423
23954SOL     OW74881   3.098   0.038   7.953  0.4560  0.3670 -0.1033
23954SOL    HW174882   3.130   0.117   7.909  0.9582  0.6336  0.7148
23954SOL    HW274883   3.160  -0.031   7.928  0.4335  0.3988 -0.2434
23955SOL     OW74884   6.040   6.452   2.750  0.4168 -0.2880 -0.0574
23955SOL    HW174885   5.980   6.521   2.722 -0.6273 -0.6544  1.2131
23955SOL    HW274886   6.117   6.463   2.695  0.3031  1.9326  0.2023
23956SOL     OW74887   1.814   9.267   8.046  0.2774  0.4440  0.0420
23956SOL    HW174888   1.833   9.354   8.080  0.4409  0.4495 -0.0638
23956SOL    HW274889   1.887   9.248   7.986  1.6141 -0.8002  2.0005
23957SOL     OW74890   3.684   7.342   3.474  0.2677 -0.0016  0.7682
23957SOL    HW174891   3.603   7.354   3.524 -0.6797  4.0577 -1.4640
23957SOL    HW274892   3.721   7.430   3.468  2.9382 -1.2150 -1.3816
23958SOL     OW74893   1.912   5.907   7.762 -0.2822 -0.1525  0.1941
23958SOL    HW174894   1.948   5.820   7.779  0.4491  0.5042  2.1162
23958SOL    HW274895   1.838   5.914   7.821 -2.6218 -0.8368 -2.5461
23959SOL     OW74896   0.151   2.131   8.704  0.1999 -0.2229 -0.6930
23959SOL    HW174897   0.056   2.127   8.713  0.1979 -1.1452 -0.9528
23959SOL    HW274898   0.168   2.210   8.653 -0.4534 -0.1795 -0.8423
23960SOL     OW74899   0.934   7.429   3.384 -0.3407 -0.5891 -0.3127
23960SOL    HW174900   0.871   7.358   3.398  0.6586 -1.1955  1.2636
23960SOL    HW274901   0.991   7.396   3.315 -1.2482 -0.3770 -1.1717
23961SOL     OW74902   2.637   7.924   1.944 -0.1621  0.3888 -0.2951
23961SOL    HW174903   2.669   7.869   1.872  1.0243  0.1991  0.3772
23961SOL    HW274904   2.542   7.931   1.928 -0.4131 -2.2070 -0.1576
23962SOL     OW74905   6.239   0.681   4.530 -0.2848  0.4834  0.6627
23962SOL    HW174906   6.266   0.709   4.618  0.6401 -1.7974  1.1416
23962SOL    HW274907   6.289   0.601   4.515 -1.5148  0.0886 -1.3876
23963SOL     OW74908   0.538   2.219   0.524 -0.3145 -0.1859 -0.3132
23963SOL    HW174909   0.448   2.253   0.524 -0.4878 -0.6424 -0.2607
23963SOL    HW274910   0.549   2.180   0.437  0.6217  1.9264 -1.1676
23964SOL     OW74911   7.294   0.596   5.477 -0.3019 -0.3009  0.4803
23964SOL    HW174912   7.377   0.598   5.430 -0.3273  0.7379  0.4689
23964SOL    HW274913   7.301   0.669   5.540 -1.6508  0.5130 -0.2973
23965SOL     OW74914   7.567   1.787   6.871  0.1432 -0.1526  0.1149
23965SOL    HW174915   7.570   1.715   6.808  1.2500  0.3161 -0.3732
23965SOL    HW274916   7.591   1.746   6.955  0.4589 -0.4198 -0.1034
23966SOL     OW74917   1.922   3.732   0.645  0.4195  0.4053  0.0716
23966SOL    HW174918   1.903   3.648   0.602  3.6506 -0.8805  0.9195
23966SOL    HW274919   1.842   3.754   0.692  0.2149 -3.4778  1.7425
23967SOL     OW74920   4.403   1.222   5.205  0.5438 -0.6883  0.0125
23967SOL    HW174921   4.433   1.195   5.118  0.3599 -0.7598 -0.0291
23967SOL    HW274922   4.404   1.141   5.257 -1.6969 -1.1306 -0.5935
23968SOL     OW74923   0.199   7.079   0.463  0.0881  0.8624  0.1763
23968SOL    HW174924   0.148   7.032   0.530 -0.6041  2.5930  0.8813
23968SOL    HW274925   0.181   7.031   0.382  0.3434 -0.8120  1.0748
23969SOL     OW74926   5.853   4.326   0.854 -0.5517  0.7586  0.1999
23969SOL    HW174927   5.798   4.275   0.913 -0.7436  0.3890 -0.3026
23969SOL    HW274928   5.792   4.368   0.793 -0.1802 -0.9647 -1.3967
23970SOL     OW74929   0.214   9.205   5.766  0.1813 -0.7802 -0.0826
23970SOL    HW174930   0.175   9.248   5.842 -1.9940 -1.9247 -0.4853
23970SOL    HW274931   0.285   9.152   5.803  0.0294 -0.2656  0.9802
23971SOL     OW74932   8.866   1.136   6.116  0.2131  0.1399 -0.2083
23971SOL    HW174933   8.831   1.065   6.170  2.7412 -0.2078  1.0487
23971SOL    HW274934   8.879   1.209   6.176  1.9317  0.1335 -0.5371
23972SOL     OW74935   6.622   3.236   5.866  0.2905  0.1132  0.0586
23972SOL    HW174936   6.560   3.303   5.895 -0.8415  0.0338 -2.0995
23972SOL    HW274937   6.599   3.220   5.774  2.2132 -1.3765 -0.1875
23973SOL     OW74938   7.153   0.229   0.532 -0.0990 -0.1231  0.4550
23973SOL    HW174939   7.144   0.322   0.508 -0.1549 -0.4255 -0.7140
23973SOL    HW274940   7.167   0.230   0.626 -0.1329  1.0805  0.4532
23974SOL     OW74941   1.612   5.383   0.563 -0.1567  0.0546  0.6949
23974SOL    HW174942   1.605   5.453   0.498 -0.8312  0.6570  1.4003
23974SOL    HW274943   1.704   5.381   0.587  0.2337 -0.6999 -0.8496
23975SOL     OW74944   1.826   0.319   3.325  0.3949  0.1353  0.6365
23975SOL    HW174945   1.812   0.363   3.241 -1.0597 -0.4790  0.5354
23975SOL    HW274946   1.897   0.256   3.308  0.8478  0.7691  0.1670
23976SOL     OW74947   0.600   7.423   6.793  0.2721 -0.2024 -0.2733
23976SOL    HW174948   0.513   7.432   6.832  0.8967  0.7377  0.9489
23976SOL    HW274949   0.606   7.331   6.770 -1.5814  0.0055 -1.6728
23977SOL     OW74950   7.636   7.167   1.410 -0.5556  0.1766 -0.2693
23977SOL    HW174951   7.726   7.148   1.382 -0.5624  0.0170 -0.1871
23977SOL    HW274952   7.640   7.167   1.506 -0.7625 -0.4222 -0.2581
23978SOL     OW74953   7.221   6.302   4.568 -0.1344  0.0430  0.1133
23978SOL    HW174954   7.161   6.336   4.635 -0.4894 -1.1736  0.4316
23978SOL    HW274955   7.185   6.216   4.546 -0.1674  0.5419 -1.8320
23979SOL     OW74956   3.840   0.642   1.267 -0.1402  0.0404  0.0659
23979SOL    HW174957   3.921   0.618   1.222 -0.2406 -0.4280  0.1281
23979SOL    HW274958   3.791   0.694   1.203  0.6842  1.2484  0.4087
23980SOL     OW74959   9.360   4.213   5.320  0.3246  0.5874  0.1503
23980SOL    HW174960   9.343   4.307   5.322 -0.7866  0.3758  0.8156
23980SOL    HW274961   9.319   4.179   5.399  0.9166 -0.4279  0.0301
23981SOL     OW74962   7.430   8.410   7.796 -0.5678  0.3296 -0.1297
23981SOL    HW174963   7.448   8.407   7.890 -0.0775  1.9276 -0.1523
23981SOL    HW274964   7.350   8.462   7.789 -0.5405  0.3096 -0.6079
23982SOL     OW74965   0.256   5.826   7.999  0.8059 -0.0506  0.6061
23982SOL    HW174966   0.217   5.834   7.912 -0.0938  0.6648  1.0706
23982SOL    HW274967   0.290   5.913   8.017  1.9518 -0.4721  0.5300
23983SOL     OW74968   4.823   4.522   3.001 -0.1518  0.0160 -0.3970
23983SOL    HW174969   4.885   4.467   3.049 -0.6817  0.8638  1.2887
23983SOL    HW274970   4.744   4.522   3.054 -0.1831  2.3540 -0.4029
23984SOL     OW74971   7.029   3.561   5.803  0.1195  0.0681 -0.3793
23984SOL    HW174972   6.937   3.535   5.798  0.2419 -0.3177 -0.7293
23984SOL    HW274973   7.027   3.650   5.838 -0.2174 -1.0357  2.5846
23985SOL     OW74974   0.666   7.857   4.157 -0.4951 -0.3033 -0.2046
23985SOL    HW174975   0.619   7.932   4.192 -4.6832 -2.3938 -0.9592
23985SOL    HW274976   0.704   7.814   4.234  0.2958  1.4823  0.4205
23986SOL     OW74977   9.008   2.406   3.713  0.0125 -0.1309 -0.4574
23986SOL    HW174978   9.054   2.323   3.709  0.1329 -0.0766 -0.1745
23986SOL    HW274979   8.918   2.383   3.735  0.3589 -0.0804  1.0885
23987SOL     OW74980   0.430   5.449   8.990  0.2444 -0.3494 -0.1147
23987SOL    HW174981   0.480   5.376   9.028  3.3464  1.5740 -0.2953
23987SOL    HW274982   0.455   5.450   8.897 -2.9703 -1.5537 -1.0555
23988SOL     OW74983   1.337   6.071   6.682 -0.6186  0.4128 -0.3439
23988SOL    HW174984   1.277   6.057   6.609 -0.0387 -0.2700 -0.6975
23988SOL    HW274985   1.422   6.087   6.639 -0.7164  2.3104  0.1094
23989SOL     OW74986   3.764   7.842   2.511 -0.2146  0.2368 -0.0888
23989SOL    HW174987   3.769   7.835   2.606  0.2312  0.1745 -0.1179
23989SOL    HW274988   3.850   7.874   2.484 -1.1044  2.5484 -0.2700
23990SOL     OW74989   9.222   7.288   1.301  0.0807  0.1746  0.3376
23990SOL    HW174990   9.170   7.322   1.374 -0.0776 -0.3029  0.4482
23990SOL    HW274991   9.225   7.193   1.316 -0.6570 -0.0245 -0.7265
23991SOL     OW74992   9.442   0.540   2.181 -0.0528  0.0220 -0.1035
23991SOL    HW174993   9.461   0.597   2.255 -0.4196  0.7347 -0.5458
23991SOL    HW274994   9.521   0.486   2.171  1.1947  1.9488 -1.0309
23992SOL     OW74995   2.421   7.283   8.726 -0.3673  0.2069  0.4980
23992SOL    HW174996   2.489   7.217   8.745  0.2621 -0.7029 -4.2338
23992SOL    HW274997   2.340   7.243   8.756  0.5202 -0.9791  1.3882
23993SOL     OW74998   7.564   9.339   5.879 -0.4724  0.4794  0.4563
23993SOL    HW174999   7.602   9.312   5.962 -0.2854  0.2744  0.3045
23993SOL    HW275000   7.596   9.428   5.866  0.0981  0.2464  0.2438
23994SOL     OW75001   3.762   5.529   4.538 -0.1436 -0.3623  0.2800
23994SOL    HW175002   3.712   5.481   4.605 -1.4454 -0.7602 -0.9746
23994SOL    HW275003   3.817   5.461   4.498 -2.1893 -0.9228 -1.6880
23995SOL     OW75004   3.495   1.655   8.902 -0.4164 -0.3352 -0.3119
23995SOL    HW175005   3.481   1.580   8.960  1.4702 -0.7790 -0.3819
23995SOL    HW275006   3.417   1.658   8.847  0.4027 -3.5882 -1.7436
23996SOL     OW75007   0.074   7.099   8.748 -0.0051  0.3066 -0.1224
23996SOL    HW175008   0.020   7.039   8.800 -0.1682  0.3183 -0.2746
23996SOL    HW275009   0.159   7.055   8.741 -0.9309 -1.2356 -2.5419
23997SOL     OW75010   1.919   3.488   0.501  0.1090  0.2932  0.6843
23997SOL    HW175011   1.937   3.504   0.409  1.3195  0.3784  0.9207
23997SOL    HW275012   1.836   3.441   0.502  0.1115  0.2624 -0.4496
23998SOL     OW75013   8.181   7.763   2.228  0.0539 -0.0930  0.3940
23998SOL    HW175014   8.167   7.673   2.196 -0.8332  0.6453 -1.3663
23998SOL    HW275015   8.097   7.807   2.211  0.0742  0.7482  2.3778
23999SOL     OW75016   2.211   7.421   7.935 -0.4876 -0.1282  0.1655
23999SOL    HW175017   2.117   7.422   7.951 -0.4745 -0.0113  0.2347
23999SOL    HW275018   2.222   7.464   7.851 -0.5348 -0.5407 -0.0532
24000SOL     OW75019   1.917   5.946   8.420  0.2718  0.1983  0.4818
24000SOL    HW175020   1.940   5.894   8.497  2.5024  0.2263 -0.1271
24000SOL    HW275021   1.826   5.923   8.402 -0.0456 -0.4198  2.6320
24001SOL     OW75022   5.501   0.823   0.244  0.4764 -0.2376 -0.2716
24001SOL    HW175023   5.555   0.876   0.303 -0.1130 -0.9153  0.9052
24001SOL    HW275024   5.421   0.874   0.232  0.6077 -0.0864 -0.4913
24002SOL     OW75025   0.517   0.804   7.034  0.1031 -0.0325  0.1243
24002SOL    HW175026   0.496   0.785   7.125  0.0511  5.4065  1.4397
24002SOL    HW275027   0.439   0.848   7.000  1.3786  1.0829 -1.4609
24003SOL     OW75028   8.413   0.618   8.119 -0.5847  0.2087  0.0970
24003SOL    HW175029   8.456   0.615   8.204 -0.6613  0.5766  0.1491
24003SOL    HW275030   8.443   0.539   8.074  1.6381  1.4056 -0.5776
24004SOL     OW75031   3.886   4.551   8.429 -0.1837  0.0751  0.6253
24004SOL    HW175032   3.874   4.554   8.524 -1.0177  2.4401  0.4799
24004SOL    HW275033   3.813   4.602   8.394  1.7897  1.8382 -1.0979
24005SOL     OW75034   0.863   4.477   2.595  0.3141  0.1606  0.1676
24005SOL    HW175035   0.901   4.419   2.661  1.3516  0.5646 -0.0696
24005SOL    HW275036   0.796   4.423   2.552  1.6056 -1.0386 -0.3840
24006SOL     OW75037   5.317   3.397   3.210 -0.0109  0.1712  0.1067
24006SOL    HW175038   5.316   3.456   3.286 -0.6176 -1.1555  1.1559
24006SOL    HW275039   5.236   3.416   3.164 -0.1674  0.2204  0.3996
24007SOL     OW75040   6.254   2.867   8.527 -0.3456 -0.0493  0.0896
24007SOL    HW175041   6.276   2.897   8.615 -0.9464  1.0012 -0.1029
24007SOL    HW275042   6.160   2.887   8.518 -0.2747 -0.1024 -0.7987
24008SOL     OW75043   5.907   2.061   6.272 -0.3775  0.1483  0.1384
24008SOL    HW175044   5.954   1.978   6.277 -2.1095 -0.8225  0.6093
24008SOL    HW275045   5.849   2.051   6.196 -0.0654  1.1976 -0.2439
24009SOL     OW75046   1.713   3.523   4.839 -0.2648 -0.5008 -0.4305
24009SOL    HW175047   1.670   3.596   4.883  2.6976  1.4006 -0.5223
24009SOL    HW275048   1.667   3.516   4.755  0.2844  2.2624 -1.0320
24010SOL     OW75049   0.256   4.193   7.595 -0.0971 -0.7297 -0.3122
24010SOL    HW175050   0.179   4.157   7.552  0.0311 -0.2023 -0.9953
24010SOL    HW275051   0.262   4.145   7.678 -1.6324 -0.2010  0.1314
24011SOL     OW75052   7.665   6.486   0.937 -0.2522  0.4715  0.2980
24011SOL    HW175053   7.744   6.517   0.891  1.0892 -0.7439  1.7381
24011SOL    HW275054   7.594   6.536   0.897  1.3635  2.4037 -0.2907
24012SOL     OW75055   8.776   4.373   3.887 -0.0999  0.3726  0.1285
24012SOL    HW175056   8.837   4.322   3.833 -0.2517  0.9448 -0.5925
24012SOL    HW275057   8.705   4.397   3.826 -0.8846 -0.0152  0.8777
24013SOL     OW75058   0.997   9.296   2.099 -0.0854 -0.0061  0.0265
24013SOL    HW175059   1.014   9.210   2.059  1.4218  0.0423  0.5353
24013SOL    HW275060   0.986   9.277   2.192 -1.3507  0.1710 -0.0676
24014SOL     OW75061   1.805   9.070   4.045 -0.2335 -0.0136 -0.4546
24014SOL    HW175062   1.726   9.076   3.991 -0.8475 -1.1506  0.2899
24014SOL    HW275063   1.781   9.010   4.116  1.2564 -0.2665 -0.1460
24015SOL     OW75064   0.387   3.663   6.929 -0.5645 -0.5437 -0.1365
24015SOL    HW175065   0.333   3.594   6.889 -0.4854 -0.8169  0.2292
24015SOL    HW275066   0.413   3.627   7.013 -2.2457  0.7588  0.9787
24016SOL     OW75067   2.936   5.894   7.642  0.1854 -0.2397 -0.4502
24016SOL    HW175068   2.928   5.923   7.733 -1.8648 -0.4541 -0.5503
24016SOL    HW275069   2.994   5.958   7.601 -1.3658  1.6331  0.2359
24017SOL     OW75070   1.491   7.859   4.565  0.1168 -0.0132 -0.5120
24017SOL    HW175071   1.574   7.906   4.563  1.6936 -2.7042 -0.6521
24017SOL    HW275072   1.454   7.878   4.651  1.4078  0.3576 -0.0338
24018SOL     OW75073   4.063   1.772   1.257 -0.4325 -0.2651 -0.3819
24018SOL    HW175074   4.139   1.718   1.280 -1.2528 -1.4682 -0.4633
24018SOL    HW275075   4.074   1.790   1.164 -1.1622 -1.9589 -0.8201
24019SOL     OW75076   1.163   9.238   0.254 -0.2693 -0.7752 -0.0174
24019SOL    HW175077   1.167   9.211   0.346 -0.4688  0.2304  0.2928
24019SOL    HW275078   1.130   9.161   0.208 -0.8446 -1.0583  0.8500
24020SOL     OW75079   8.920   1.983   8.553 -0.2640 -0.7214  0.5715
24020SOL    HW175080   8.841   1.933   8.575 -0.4120 -1.3243 -1.2366
24020SOL    HW275081   8.888   2.058   8.503  0.3700 -1.4604 -0.9670
24021SOL     OW75082   1.301   1.588   4.615 -0.5403  0.1124 -0.0510
24021SOL    HW175083   1.381   1.560   4.570 -1.3502  0.3006 -1.6544
24021SOL    HW275084   1.262   1.507   4.648 -0.6302 -0.1880 -0.8770
24022SOL     OW75085   1.021   0.155   3.242  0.0740  0.3384  0.4340
24022SOL    HW175086   1.112   0.154   3.271  0.9085  0.5520 -2.1357
24022SOL    HW275087   0.999   0.063   3.229  1.2755  0.4802 -2.9890
24023SOL     OW75088   7.138   4.977   4.345  0.2323 -0.1368  0.1228
24023SOL    HW175089   7.204   4.940   4.405 -0.7224 -0.8298  0.7665
24023SOL    HW275090   7.067   5.005   4.402 -0.0315  0.6295 -0.5709
24024SOL     OW75091   6.469   2.069   7.956  0.0180  0.5031  0.1525
24024SOL    HW175092   6.389   2.099   7.913 -0.0559  2.7450  1.7765
24024SOL    HW275093   6.539   2.122   7.916  0.1811  1.2859  1.4570
24025SOL     OW75094   6.486   4.534   1.491 -0.3449  0.6317  0.6244
24025SOL    HW175095   6.398   4.541   1.528 -0.8169  1.0283 -0.5459
24025SOL    HW275096   6.485   4.594   1.416  1.2212  1.3561  1.1748
24026SOL     OW75097   0.016   4.880   5.348  0.1144  0.2292  0.4022
24026SOL    HW175098   0.110   4.870   5.364  0.2644  0.6697 -0.1769
24026SOL    HW275099  -0.015   4.935   5.420 -0.1465 -1.8406  1.9071
24027SOL     OW75100   1.656   3.168   1.206 -0.1153  0.5926 -0.0010
24027SOL    HW175101   1.630   3.244   1.154  1.6692  1.8600  0.8836
24027SOL    HW275102   1.606   3.095   1.169  0.5002  1.6022 -2.9817
24028SOL     OW75103   2.746   2.585   6.581  0.2499  0.4927  0.1158
24028SOL    HW175104   2.799   2.658   6.549  2.9949 -0.3834  2.4831
24028SOL    HW275105   2.801   2.508   6.568 -0.4937 -0.4704  2.4909
24029SOL     OW75106   2.780   7.069   6.563  0.0405  0.0408  0.3142
24029SOL    HW175107   2.711   7.076   6.497  0.8331  0.7442 -0.4308
24029SOL    HW275108   2.735   7.087   6.646 -1.0299 -1.2093  0.0327
24030SOL     OW75109   4.476   8.284   1.944 -0.5224  0.5849  0.2428
24030SOL    HW175110   4.460   8.194   1.915  0.8606  0.5565 -0.4902
24030SOL    HW275111   4.400   8.306   1.998 -1.0641 -0.8806  0.0998
24031SOL     OW75112   7.114   4.346   4.779 -0.5558  0.0336  0.3814
24031SOL    HW175113   7.146   4.256   4.774 -1.6286 -0.4103  1.2762
24031SOL    HW275114   7.039   4.348   4.720 -0.4173  0.3911  0.2182
24032SOL     OW75115   4.099   0.411   0.678  0.1154 -0.4252 -0.0727
24032SOL    HW175116   4.139   0.413   0.592  1.1642  1.1273  0.4315
24032SOL    HW275117   4.140   0.335   0.721  0.8126 -0.2206 -0.3632
24033SOL     OW75118   6.046   2.696   3.927  0.3899 -0.0857 -0.4355
24033SOL    HW175119   6.017   2.666   4.013  2.9283  1.4248  0.9931
24033SOL    HW275120   5.998   2.778   3.913  0.0963 -0.2503 -0.4016
24034SOL     OW75121   0.874   4.758   4.225  0.0969  0.2480 -0.2628
24034SOL    HW175122   0.889   4.839   4.274  0.8992 -0.3828  0.5607
24034SOL    HW275123   0.783   4.736   4.241  0.4376 -0.1261  1.2413
24035SOL     OW75124   3.996   4.686   4.274  0.1999  0.0898  0.1271
24035SOL    HW175125   4.055   4.760   4.264 -0.0147  0.0389 -1.6607
24035SOL    HW275126   3.909   4.720   4.252 -0.1936 -0.2381  1.1379
24036SOL     OW75127   7.367   3.919   5.196  0.2365 -0.1448 -0.6748
24036SOL    HW175128   7.311   3.997   5.193 -0.6130 -0.7671 -1.6402
24036SOL    HW275129   7.453   3.950   5.170 -0.1321  0.4570 -1.1940
24037SOL     OW75130   5.903   1.372   7.616  0.2797 -0.2886 -0.0529
24037SOL    HW175131   5.850   1.442   7.653 -1.7459 -1.0700 -1.3937
24037SOL    HW275132   5.942   1.411   7.537  0.2271 -0.2787 -0.0743
24038SOL     OW75133   8.851   1.819   0.783  0.3856 -0.3352  0.1908
24038SOL    HW175134   8.866   1.835   0.876  0.8082 -0.8039  0.2045
24038SOL    HW275135   8.910   1.747   0.761 -0.0620 -0.5535 -0.3244
24039SOL     OW75136   0.648   1.729   7.549  0.0389  0.3460  0.6165
24039SOL    HW175137   0.707   1.798   7.518  1.2778 -1.9211 -2.2414
24039SOL    HW275138   0.569   1.739   7.496  0.3217 -0.5735  0.0113
24040SOL     OW75139   1.681   7.645   6.072  1.0166  0.4159  0.0058
24040SOL    HW175140   1.738   7.693   6.013  2.6149 -0.7261  0.5923
24040SOL    HW275141   1.613   7.608   6.016  1.1217  1.3901 -0.7670
24041SOL     OW75142   1.049   4.425   4.522  0.2428 -0.7988 -0.2057
24041SOL    HW175143   1.144   4.422   4.538  0.1627 -0.4189  0.3421
24041SOL    HW275144   1.022   4.333   4.528  0.8736 -1.1379 -2.2215
24042SOL     OW75145   2.797   7.573   8.358 -0.1230 -0.2499 -0.6109
24042SOL    HW175146   2.783   7.482   8.383 -1.9524  0.3626  0.7795
24042SOL    HW275147   2.778   7.575   8.264  0.1017 -1.3332 -0.6890
24043SOL     OW75148   8.058   0.344   3.893  0.1266 -0.0136 -0.3222
24043SOL    HW175149   8.049   0.349   3.798 -0.4302  0.0551 -0.2694
24043SOL    HW275150   7.975   0.306   3.922  0.3103 -0.0644  0.1329
24044SOL     OW75151   3.949   7.724   8.411  0.0373 -0.1624  0.0046
24044SOL    HW175152   3.875   7.756   8.359 -0.3012  0.5023  0.8706
24044SOL    HW275153   4.009   7.798   8.415 -0.0728 -0.1067  0.7898
24045SOL     OW75154   3.389   1.215   5.467  0.3681 -0.1823 -0.1231
24045SOL    HW175155   3.305   1.256   5.486 -0.8528 -2.6230 -0.0627
24045SOL    HW275156   3.372   1.121   5.473  3.0833 -0.7249 -0.2086
24046SOL     OW75157   7.091   9.320   1.870 -0.2081  0.1167  0.3493
24046SOL    HW175158   7.168   9.269   1.845 -0.4093  0.2163 -0.4882
24046SOL    HW275159   7.066   9.367   1.790 -0.7269  0.6204  0.7983
24047SOL     OW75160   3.134   5.934   0.798 -0.3150  0.7315 -0.3815
24047SOL    HW175161   3.043   5.952   0.772  0.5226  2.9955 -1.9865
24047SOL    HW275162   3.176   5.904   0.717  0.3921 -0.1501  0.3184
24048SOL     OW75163   0.719   8.801   1.414  0.1125 -0.3884  0.2130
24048SOL    HW175164   0.626   8.785   1.431  0.1194 -0.7958 -0.1335
24048SOL    HW275165   0.733   8.892   1.442 -0.2364 -0.5386  0.8810
24049SOL     OW75166   8.830   6.004   3.620 -0.4082  0.1604 -0.7350
24049SOL    HW175167   8.830   5.912   3.646 -0.1190  0.2466 -0.4423
24049SOL    HW275168   8.761   6.009   3.553  0.8580 -0.6623 -2.1287
24050SOL     OW75169   9.400   7.170   6.365 -0.5747 -0.0166  0.1436
24050SOL    HW175170   9.367   7.249   6.322 -0.5818 -0.2430 -0.2672
24050SOL    HW275171   9.321   7.118   6.383 -0.4456 -0.5719 -0.8675
24051SOL     OW75172   6.954   6.173   0.165 -0.2857  0.2505  0.5621
24051SOL    HW175173   6.865   6.208   0.156 -0.9216 -1.1723  1.2251
24051SOL    HW275174   6.961   6.108   0.095 -0.3892 -0.9068  1.6302
24052SOL     OW75175   7.539   1.115   2.736 -0.0592  0.0086  0.0410
24052SOL    HW175176   7.486   1.036   2.753 -1.6493  1.1038  0.2666
24052SOL    HW275177   7.547   1.118   2.641  2.6963 -2.1300  0.1268
24053SOL     OW75178   2.794   0.628   1.815 -0.0615 -0.0175 -0.4943
24053SOL    HW175179   2.822   0.539   1.792  0.6439  0.1641 -0.3369
24053SOL    HW275180   2.870   0.683   1.796 -0.4521  0.5351 -0.4623
24054SOL     OW75181   6.761   2.522   7.933 -0.3257  0.7880 -0.2899
24054SOL    HW175182   6.715   2.556   7.857 -3.2627  1.1587  1.5447
24054SOL    HW275183   6.789   2.599   7.981  3.1474  0.5782 -1.8279
24055SOL     OW75184   0.639   9.300   6.872  0.0842  0.2340  0.2359
24055SOL    HW175185   0.623   9.220   6.921 -2.8197  0.6468  0.0258
24055SOL    HW275186   0.654   9.270   6.782 -0.0525 -0.1377  0.3358
24056SOL     OW75187   8.895   3.521   7.437 -0.8980  0.3675  0.1605
24056SOL    HW175188   8.957   3.520   7.364 -2.0565 -0.0797 -0.8302
24056SOL    HW275189   8.851   3.436   7.431 -1.1530  0.4258  1.2554
24057SOL     OW75190   1.236   8.298   2.652  0.0203 -0.2195 -0.2694
24057SOL    HW175191   1.287   8.317   2.731 -1.2943 -1.6554  0.9416
24057SOL    HW275192   1.156   8.350   2.661 -0.3160 -0.7002 -0.4721
24058SOL     OW75193   0.877   6.718   4.676 -0.4821 -0.3402  0.2312
24058SOL    HW175194   0.898   6.808   4.650 -0.3689  0.1996  2.0811
24058SOL    HW275195   0.800   6.727   4.733  1.4287 -1.0304  3.0554
24059SOL     OW75196   3.363   1.394   6.320  0.7570 -0.2901 -0.3403
24059SOL    HW175197   3.372   1.299   6.330  0.3658 -0.4152 -1.1049
24059SOL    HW275198   3.343   1.426   6.408  1.4358 -0.8482  0.0254
24060SOL     OW75199   1.500   2.805   0.671  0.4763  1.0630  0.1216
24060SOL    HW175200   1.593   2.788   0.657  1.1440  3.4457  1.3780
24060SOL    HW275201   1.472   2.738   0.734  2.2416  2.5531  2.5468
24061SOL     OW75202   4.203   5.902   3.777 -0.4751  0.5972 -0.0307
24061SOL    HW175203   4.125   5.884   3.829  0.6174 -0.2616  1.3769
24061SOL    HW275204   4.243   5.816   3.763 -0.1623  0.9461 -1.3513
24062SOL     OW75205   1.380   7.336   6.831 -0.1792 -0.1700  0.4400
24062SOL    HW175206   1.393   7.396   6.758  0.0025  1.7504  2.0248
24062SOL    HW275207   1.294   7.297   6.815  1.0381 -1.9185 -2.2680
24063SOL     OW75208   7.402   4.458   3.924  0.3465 -0.3713  0.0062
24063SOL    HW175209   7.486   4.419   3.898  0.3128 -0.3836 -0.0828
24063SOL    HW275210   7.359   4.480   3.842  0.1992 -0.4958  0.0499
24064SOL     OW75211   2.198   9.197   2.676 -0.2097 -0.1675  0.6819
24064SOL    HW175212   2.212   9.262   2.745 -4.6911 -0.0002  1.6488
24064SOL    HW275213   2.192   9.248   2.595  0.9944  0.1003  0.7622
24065SOL     OW75214   3.347   8.663   1.960 -0.7056 -0.9952  0.7923
24065SOL    HW175215   3.340   8.582   1.910 -0.5609  0.1821 -1.1594
24065SOL    HW275216   3.304   8.729   1.905  1.7610  0.8420  1.0269
24066SOL     OW75217   9.067   2.948   3.408  0.7291  0.3742  0.6413
24066SOL    HW175218   8.978   2.937   3.374  0.0619 -0.5353  2.6017
24066SOL    HW275219   9.112   2.867   3.386  0.7046  0.3278  0.7616
24067SOL     OW75220   9.303   0.712   2.513 -0.6645 -0.0139  0.0480
24067SOL    HW175221   9.387   0.687   2.474 -0.1788  0.9470  0.4704
24067SOL    HW275222   9.296   0.659   2.592 -0.2918  0.1737  0.2042
24068SOL     OW75223   8.130   4.658   7.014 -0.4449  0.4362  0.3859
24068SOL    HW175224   8.156   4.568   6.995 -0.1839  0.8059 -1.1220
24068SOL    HW275225   8.035   4.654   7.025 -0.4478 -0.0015  0.1994
24069SOL     OW75226   1.206   5.963   4.746  0.1021  0.3748  0.2200
24069SOL    HW175227   1.235   5.908   4.819  0.3883  1.6548  1.0890
24069SOL    HW275228   1.198   5.902   4.672  0.3739 -0.8366  1.1616
24070SOL     OW75229   3.733   7.402   1.362  0.4226 -0.8609  0.0644
24070SOL    HW175230   3.752   7.311   1.339 -0.7639 -1.0165 -0.2923
24070SOL    HW275231   3.766   7.411   1.452  1.4923 -1.3458 -0.2729
24071SOL     OW75232   6.042   7.651   5.592  0.5248  0.3608  0.2361
24071SOL    HW175233   5.973   7.621   5.532 -2.7982  2.5955  2.7800
24071SOL    HW275234   6.069   7.736   5.556  0.9927  0.1201  0.0137
24072SOL     OW75235   9.006   5.547   2.805 -0.3649 -0.3993 -0.5298
24072SOL    HW175236   8.994   5.452   2.805 -3.5099 -0.0627 -0.7692
24072SOL    HW275237   8.975   5.575   2.891 -0.1262  0.5022 -0.7307
24073SOL     OW75238   2.687   8.256   6.176  0.6871  0.5238  0.2536
24073SOL    HW175239   2.647   8.275   6.091  2.1272 -1.2850 -0.8693
24073SOL    HW275240   2.767   8.308   6.177  0.8697  0.2437  0.3317
24074SOL     OW75241   8.438   2.295   3.571 -0.1464  0.0102  0.3512
24074SOL    HW175242   8.450   2.242   3.492 -0.3602  0.2676  0.1451
24074SOL    HW275243   8.472   2.381   3.547 -0.9145  0.2992  0.2930
24075SOL     OW75244   0.229   4.155   5.293 -0.0592  0.1023  0.2910
24075SOL    HW175245   0.302   4.118   5.343 -0.3955 -1.3149 -0.2401
24075SOL    HW275246   0.151   4.119   5.334 -0.4010  0.3242 -0.1609
24076SOL     OW75247   7.945   2.136   9.191 -0.5867 -0.0020  0.2387
24076SOL    HW175248   7.970   2.216   9.146 -0.0669  0.6539  1.6536
24076SOL    HW275249   7.880   2.164   9.255 -1.6617 -0.9914 -0.3945
24077SOL     OW75250   1.020   4.292   5.132 -0.3932 -0.0986 -0.4266
24077SOL    HW175251   0.952   4.321   5.193  0.0674 -0.3993  0.2367
24077SOL    HW275252   1.093   4.352   5.147 -0.4431  0.1141 -1.0114
24078SOL     OW75253   2.408   7.245   8.394 -0.1914  0.0440  0.7075
24078SOL    HW175254   2.499   7.273   8.400 -0.3410  0.3715  1.5555
24078SOL    HW275255   2.398   7.182   8.466 -0.5418 -0.2454  0.4046
24079SOL     OW75256   7.185   8.551   1.028  0.0031 -0.4458  0.6694
24079SOL    HW175257   7.178   8.463   0.993  1.8868 -0.8491  1.2143
24079SOL    HW275258   7.104   8.565   1.076 -0.0075 -2.1730  1.1931
24080SOL     OW75259   4.273   4.377   5.048  0.2108 -0.3361  0.0537
24080SOL    HW175260   4.252   4.394   4.956 -0.4570 -0.9243  0.0913
24080SOL    HW275261   4.187   4.364   5.090  0.5420 -0.6826  0.6316
24081SOL     OW75262   7.763   4.593   1.007  0.1906 -0.4896 -0.2247
24081SOL    HW175263   7.822   4.668   1.017 -0.1495 -0.1325 -0.8148
24081SOL    HW275264   7.729   4.577   1.095 -0.4674  0.6655 -0.2548
24082SOL     OW75265   5.342   4.678   4.472 -0.2165 -0.0992 -0.4835
24082SOL    HW175266   5.293   4.663   4.553  0.9795  0.2359  0.3191
24082SOL    HW275267   5.317   4.606   4.415 -0.8936 -0.4732  0.2743
24083SOL     OW75268   3.562   1.760   9.187  0.0499  0.5170 -0.0511
24083SOL    HW175269   3.587   1.687   9.131  1.9350 -0.3679  1.8577
24083SOL    HW275270   3.614   1.834   9.155  1.1689 -0.0012  0.5210
24084SOL     OW75271   5.394   6.170   3.898  0.5984 -0.1226  0.4460
24084SOL    HW175272   5.378   6.262   3.875 -0.3155 -0.7037 -1.2744
24084SOL    HW275273   5.330   6.151   3.966  0.2521  0.2821  0.2361
24085SOL     OW75274   0.965   0.842   0.984  0.3119  0.1960 -0.3012
24085SOL    HW175275   0.918   0.881   1.058  1.2340 -1.6144  1.2894
24085SOL    HW275276   0.958   0.907   0.915 -0.6482  1.9160  1.3489
24086SOL     OW75277   0.738   0.844   6.895  0.0917 -0.6523  0.0758
24086SOL    HW175278   0.648   0.834   6.926 -0.1681  2.7818  0.6153
24086SOL    HW275279   0.788   0.869   6.972  0.5261  2.3435 -1.1013
24087SOL     OW75280   7.625   3.661   7.206  0.4494 -0.0131 -0.1014
24087SOL    HW175281   7.680   3.724   7.158 -1.2745  0.7480 -1.1560
24087SOL    HW275282   7.674   3.580   7.204  0.7121  0.1483 -2.7318
24088SOL     OW75283   2.250   6.537   3.073  0.2646 -0.2065 -0.5227
24088SOL    HW175284   2.218   6.600   3.008 -1.2764  1.3711  1.6873
24088SOL    HW275285   2.342   6.525   3.051  0.3121  1.9618 -1.6887
24089SOL     OW75286   4.254   5.307   3.458  0.0391  0.5930 -0.4039
24089SOL    HW175287   4.340   5.266   3.467  0.1085  0.8965  0.3860
24089SOL    HW275288   4.245   5.323   3.364  0.1053 -1.0190 -0.6994
24090SOL     OW75289   8.361   4.664   4.674 -0.3209 -0.8590  0.3512
24090SOL    HW175290   8.295   4.595   4.670  0.7872 -1.8318 -2.5526
24090SOL    HW275291   8.444   4.618   4.666  0.4327  0.7873 -2.0176
24091SOL     OW75292   1.013   8.877   7.990  0.0787 -0.0690 -0.5564
24091SOL    HW175293   0.960   8.807   8.028 -1.8644  1.5130 -0.2505
24091SOL    HW275294   0.980   8.886   7.900  0.6174  0.1567 -0.7352
24092SOL     OW75295   4.720   0.510   3.821  0.5550  0.1828  0.1270
24092SOL    HW175296   4.815   0.508   3.832  0.6703  4.1489  0.5616
24092SOL    HW275297   4.705   0.572   3.749 -1.7195 -0.0254  0.3677
24093SOL     OW75298   6.076   5.884   5.077  0.3658  0.2667  0.2845
24093SOL    HW175299   6.104   5.973   5.101  0.0890  0.1123  1.1892
24093SOL    HW275300   5.981   5.889   5.075  0.4041  0.5508 -1.8864
24094SOL     OW75301   3.066   0.762   8.963  0.9783 -0.0727 -0.4282
24094SOL    HW175302   3.108   0.825   9.021  0.2426  0.8326 -0.8694
24094SOL    HW275303   3.083   0.677   9.004  1.0610  0.4994  0.7403
24095SOL     OW75304   8.971   5.191   3.662  0.7858 -0.2190 -0.1443
24095SOL    HW175305   8.980   5.120   3.599  0.9637  0.3056 -0.7217
24095SOL    HW275306   8.885   5.178   3.702  0.9490 -0.9348 -0.0111
24096SOL     OW75307   1.105   8.853   5.787  0.0593  0.3793 -0.6934
24096SOL    HW175308   1.163   8.777   5.782  2.7438  2.5024 -2.9358
24096SOL    HW275309   1.017   8.816   5.777  1.2353 -2.5114 -0.9019
24097SOL     OW75310   7.401   1.660   7.852  0.4607 -0.5339  0.3721
24097SOL    HW175311   7.318   1.634   7.892  0.1612 -0.7177 -0.3534
24097SOL    HW275312   7.408   1.605   7.774  0.0859  1.1727 -0.8971
24098SOL     OW75313   1.858   5.346   2.298 -0.3103  0.1305 -0.5576
24098SOL    HW175314   1.804   5.269   2.315 -0.3380  0.2467 -0.1117
24098SOL    HW275315   1.864   5.351   2.202  0.7635 -1.1730 -0.5824
24099SOL     OW75316   4.537   2.101   0.202 -0.2308 -0.2213 -0.0459
24099SOL    HW175317   4.514   2.177   0.150 -1.5470 -2.1834 -2.4616
24099SOL    HW275318   4.622   2.073   0.168 -0.2319 -0.4174  0.1082
24100SOL     OW75319   3.371   2.000   2.842  0.1397  0.0974 -0.0951
24100SOL    HW175320   3.318   2.037   2.913 -1.1073 -0.9602 -0.4593
24100SOL    HW275321   3.429   1.938   2.885  1.1731  1.3363  0.3209
24101SOL     OW75322   5.355   2.846   3.868  0.3566  0.2631  0.2786
24101SOL    HW175323   5.286   2.794   3.909  1.4160 -1.8618 -0.5991
24101SOL    HW275324   5.436   2.818   3.912  0.9447  1.2184 -0.1666
24102SOL     OW75325   7.980   9.063   7.093  0.2019  0.0326  0.0778
24102SOL    HW175326   7.920   9.073   7.020 -4.5888  3.2296  4.1488
24102SOL    HW275327   8.036   9.141   7.089  0.8605 -0.4927 -0.9532
24103SOL     OW75328   3.507   4.408   2.622  0.0861 -0.0349  0.5233
24103SOL    HW175329   3.435   4.382   2.564  0.0743  0.9070  0.1008
24103SOL    HW275330   3.474   4.485   2.668 -0.1386 -1.1283  2.2733
24104SOL     OW75331   4.635   4.726   1.147 -0.2503 -0.0406 -0.5569
24104SOL    HW175332   4.678   4.784   1.084  2.2213 -0.4426  0.6804
24104SOL    HW275333   4.601   4.654   1.095  1.4902 -0.2201 -1.4933
24105SOL     OW75334   8.452   2.176   3.808  0.0423 -0.1521 -0.4482
24105SOL    HW175335   8.375   2.126   3.782 -1.5907  2.4581 -0.8209
24105SOL    HW275336   8.473   2.229   3.731  0.8467  0.8023  0.4175
24106SOL     OW75337   4.676   0.699   6.347 -0.6074 -0.4279  0.1328
24106SOL    HW175338   4.761   0.743   6.347 -0.0873 -1.3843  2.0204
24106SOL    HW275339   4.619   0.757   6.296  0.9427  0.6592 -0.4013
24107SOL     OW75340   2.665   3.265   8.435 -0.3984 -0.0950  0.0685
24107SOL    HW175341   2.729   3.195   8.451  0.1137  0.1622 -0.7997
24107SOL    HW275342   2.582   3.229   8.465  0.2220 -0.2986  1.5408
24108SOL     OW75343   0.462   5.783   5.363  0.6260  0.0091 -0.1745
24108SOL    HW175344   0.452   5.848   5.294  0.7412  0.3717  0.1503
24108SOL    HW275345   0.520   5.717   5.326 -0.8576 -0.7908 -1.1350
24109SOL     OW75346   8.027   2.392   7.910  0.5900  0.0975  0.1292
24109SOL    HW175347   8.045   2.335   7.835 -3.5309  0.5681 -1.3555
24109SOL    HW275348   7.978   2.336   7.971 -1.5658  1.3989 -0.3610
24110SOL     OW75349   7.348   2.727   2.360  0.3089 -0.2581 -0.6571
24110SOL    HW175350   7.276   2.785   2.334 -0.4299 -0.8506  0.0259
24110SOL    HW275351   7.322   2.641   2.326  1.2545 -0.2467 -1.4062
24111SOL     OW75352   9.120   4.517   7.108  0.4354  0.3468 -0.1661
24111SOL    HW175353   9.089   4.591   7.160 -0.1225 -1.2063  1.7839
24111SOL    HW275354   9.047   4.494   7.051 -0.4185 -0.4333  1.2097
24112SOL     OW75355   4.633   2.612   2.001  0.3635  0.0560 -0.1624
24112SOL    HW175356   4.712   2.658   2.031  0.5737 -1.0432  1.0052
24112SOL    HW275357   4.664   2.552   1.933  0.2896  0.7042 -0.7741
24113SOL     OW75358   1.098   8.504   8.913 -0.1353  0.3148 -0.1981
24113SOL    HW175359   1.157   8.529   8.841 -0.7471  1.7018 -0.2341
24113SOL    HW275360   1.147   8.523   8.992 -0.3166  0.9327 -0.2325
24114SOL     OW75361   5.367   4.897   2.399 -0.1794 -0.0810 -0.5539
24114SOL    HW175362   5.293   4.856   2.445  0.4205 -0.6719 -0.0900
24114SOL    HW275363   5.438   4.832   2.407  0.5555  0.7266 -0.4932
24115SOL     OW75364   8.077   0.685   0.152 -0.0740 -0.2981 -0.4526
24115SOL    HW175365   8.015   0.616   0.128 -0.9649  0.1999  0.3862
24115SOL    HW275366   8.158   0.638   0.173 -0.9470 -1.1726  1.0230
24116SOL     OW75367   1.382   4.603   2.161 -0.0219  0.3013  0.2104
24116SOL    HW175368   1.387   4.510   2.181  0.0982 -0.0809 -1.4592
24116SOL    HW275369   1.440   4.645   2.224  0.0134 -0.7683  0.8933
24117SOL     OW75370   3.228   8.325   2.132 -0.3290  0.4755 -0.0334
24117SOL    HW175371   3.201   8.332   2.223 -0.6851 -0.9637 -0.0241
24117SOL    HW275372   3.200   8.238   2.105  0.7144  0.4995 -1.2166
24118SOL     OW75373   8.033   3.833   0.807  0.5923  0.9843 -0.7048
24118SOL    HW175374   8.079   3.888   0.871  1.9029  0.4984 -1.2242
24118SOL    HW275375   7.996   3.896   0.745 -0.4369  1.4461  0.3445
24119SOL     OW75376   7.442   1.895   0.668 -0.4188  1.0983  0.4011
24119SOL    HW175377   7.367   1.837   0.656 -1.1141  1.6207  2.0658
24119SOL    HW275378   7.507   1.842   0.714  0.5296  0.4353 -1.6467
24120SOL     OW75379   5.353   7.152   4.755 -0.1384 -0.2468  0.4472
24120SOL    HW175380   5.283   7.120   4.698 -0.1936  0.6945 -0.0175
24120SOL    HW275381   5.311   7.162   4.841  0.0317 -1.9974  0.7679
24121SOL     OW75382   5.052   1.266   8.395  0.3476  0.0679 -0.7472
24121SOL    HW175383   5.000   1.344   8.412  2.4099  1.5046 -0.7928
24121SOL    HW275384   5.067   1.228   8.482 -0.6575 -0.2868 -0.7266
24122SOL     OW75385   3.749   3.132   7.617  0.0797  0.5289  0.0717
24122SOL    HW175386   3.787   3.215   7.645  0.2843  0.1553  0.9261
24122SOL    HW275387   3.673   3.156   7.564 -0.8879  1.2598  1.7543
24123SOL     OW75388   5.469   8.559   8.567 -0.0441  0.5478 -0.1841
24123SOL    HW175389   5.458   8.596   8.479  0.8849  1.4238  0.0531
24123SOL    HW275390   5.564   8.554   8.579 -0.1258 -2.4563 -0.4225
24124SOL     OW75391   1.578   0.556   4.650  0.3242 -0.1206  0.3961
24124SOL    HW175392   1.487   0.560   4.681  0.1817  0.0570 -0.0494
24124SOL    HW275393   1.603   0.464   4.663  0.3980  0.0331  1.4142
24125SOL     OW75394   8.846   7.420   2.927  0.4960 -0.0545 -0.2577
24125SOL    HW175395   8.884   7.480   2.991  0.4828 -0.7675  0.4381
24125SOL    HW275396   8.790   7.362   2.980 -0.6228  0.2343 -1.1003
24126SOL     OW75397   1.068   5.319   4.975  0.0026  0.7409 -0.4733
24126SOL    HW175398   1.149   5.360   4.944 -1.1552  2.0886 -1.8158
24126SOL    HW275399   1.096   5.254   5.038  2.0859  1.8325 -0.2454
24127SOL     OW75400   8.603   1.231   2.568  0.3891  0.2631 -0.3890
24127SOL    HW175401   8.685   1.221   2.615  0.2957 -0.0610 -0.2935
24127SOL    HW275402   8.597   1.325   2.550  0.0591  0.5049  0.9087
24128SOL     OW75403   8.557   5.333   7.237 -0.2059  0.0916  0.8473
24128SOL    HW175404   8.527   5.381   7.314 -1.4672 -0.1313  0.5001
24128SOL    HW275405   8.534   5.242   7.254 -1.8127  0.2384 -0.4070
24129SOL     OW75406   0.482   8.595   3.864  0.0936 -0.3065 -0.4184
24129SOL    HW175407   0.412   8.590   3.929  2.4715  0.5905  2.3467
24129SOL    HW275408   0.531   8.513   3.875  0.8312  0.0910 -0.6910
24130SOL     OW75409   9.195   0.951   2.622  0.1951  0.2874 -0.2342
24130SOL    HW175410   9.218   0.967   2.713 -2.2125 -0.4513  0.5539
24130SOL    HW275411   9.252   0.879   2.595  0.9963  0.5765  0.6424
24131SOL     OW75412   5.206   1.961   7.938  0.1904  0.2532 -0.0310
24131SOL    HW175413   5.223   1.913   7.857 -1.5897  1.1854 -0.9725
24131SOL    HW275414   5.175   1.895   8.000  2.4512 -0.6271  0.2142
24132SOL     OW75415   8.977   7.438   7.607 -0.1627  0.2185  0.1084
24132SOL    HW175416   9.051   7.381   7.627  1.3491  2.1919  0.3889
24132SOL    HW275417   8.912   7.381   7.567  0.6226 -1.9719  1.9064
24133SOL     OW75418   3.439   4.050   5.784  0.0375 -0.1371 -0.6398
24133SOL    HW175419   3.503   4.006   5.840  0.0809  0.5086 -0.1834
24133SOL    HW275420   3.365   4.069   5.842  0.5504  1.5515 -0.5244
24134SOL     OW75421   2.213   6.695   4.638  0.0120 -0.7720  0.8195
24134SOL    HW175422   2.293   6.692   4.691 -0.3079 -0.8682  1.2909
24134SOL    HW275423   2.142   6.685   4.700 -0.3684 -0.7869  0.3849
24135SOL     OW75424   4.257   0.031   8.724 -0.3251 -0.4887 -0.6175
24135SOL    HW175425   4.346   0.038   8.759  0.4019 -0.0020 -2.5086
24135SOL    HW275426   4.202   0.022   8.802  1.2418  0.5620  0.6590
24136SOL     OW75427   4.903   5.366   2.430  0.1684  0.0426  0.8884
24136SOL    HW175428   4.974   5.426   2.455 -0.6653  0.6274  1.8730
24136SOL    HW275429   4.862   5.341   2.513 -0.8537 -0.2021  0.3130
24137SOL     OW75430   1.815   3.252   8.304  0.3034 -0.8071  0.1728
24137SOL    HW175431   1.854   3.325   8.354  2.2565 -0.7156 -1.4006
24137SOL    HW275432   1.869   3.246   8.225 -1.9407 -1.7839 -1.3319
24138SOL     OW75433   8.813   6.037   0.092  0.1013 -0.0253 -0.4630
24138SOL    HW175434   8.811   6.039  -0.004 -0.2257  2.8355 -0.4326
24138SOL    HW275435   8.847   6.123   0.117 -0.9822 -0.2872  2.0139
24139SOL     OW75436   2.160   3.395   5.332  0.2056 -0.3778  0.0545
24139SOL    HW175437   2.216   3.335   5.283 -0.1031 -1.3573  0.8760
24139SOL    HW275438   2.076   3.393   5.286  0.2740 -0.3962 -0.0679
24140SOL     OW75439   7.074   5.556   4.912 -0.2582  0.0385  0.3347
24140SOL    HW175440   7.143   5.536   4.976  0.1678  0.3582 -0.0226
24140SOL    HW275441   7.121   5.577   4.832 -0.7854 -0.0281  0.0056
24141SOL     OW75442   8.264   6.260   8.983  0.3639 -0.0888 -0.4256
24141SOL    HW175443   8.206   6.311   9.039  0.7049  0.0790 -0.2322
24141SOL    HW275444   8.208   6.189   8.951 -0.1456  0.4691 -0.7949
24142SOL     OW75445   3.035   1.928   2.690  0.1753 -0.1473  0.0151
24142SOL    HW175446   3.128   1.936   2.671  0.1324  2.7805  0.8025
24142SOL    HW275447   3.006   1.854   2.637  2.4199  0.4692 -2.1769
24143SOL     OW75448   6.762   6.047   5.880  0.1583  0.1498 -0.0438
24143SOL    HW175449   6.822   5.976   5.902  0.1716  0.4744  1.0221
24143SOL    HW275450   6.802   6.125   5.920 -0.1161  0.6660 -0.7606
24144SOL     OW75451   8.877   3.961   7.453 -0.3278  0.0984  0.1736
24144SOL    HW175452   8.830   3.881   7.478 -0.8536  0.0813 -0.8245
24144SOL    HW275453   8.915   3.941   7.368 -2.3677  1.6562 -1.1452
24145SOL     OW75454   2.288   7.091   0.234  0.1173  0.4490  0.3750
24145SOL    HW175455   2.231   7.152   0.187  0.0020  0.3474  0.3799
24145SOL    HW275456   2.259   7.004   0.204 -0.4485  0.3529  1.1831
24146SOL     OW75457   7.631   8.336   6.795 -0.1573 -0.1998  0.8189
24146SOL    HW175458   7.569   8.288   6.850  1.2204 -1.8688  0.9536
24146SOL    HW275459   7.602   8.319   6.705  1.2430 -2.6591  0.7848
24147SOL     OW75460   3.194   3.957   3.011  0.1377  0.1889 -0.5888
24147SOL    HW175461   3.142   4.022   2.965 -1.2639  0.8246  1.8198
24147SOL    HW275462   3.226   4.002   3.089  0.8387 -1.4214  0.0897
24148SOL     OW75463   2.008   6.807   4.283 -0.1397 -0.1762  0.0589
24148SOL    HW175464   2.039   6.755   4.357  0.5333 -0.5498 -0.4826
24148SOL    HW275465   2.084   6.814   4.225 -0.8253 -0.3477 -0.8632
24149SOL     OW75466   4.127   8.560   4.068  0.1539 -0.7294 -0.5497
24149SOL    HW175467   4.062   8.494   4.043 -1.4528  0.6150 -0.0626
24149SOL    HW275468   4.140   8.613   3.989 -0.7151  0.0954 -0.1551
24150SOL     OW75469   2.311   5.376   2.805 -0.2512  0.1172  0.4090
24150SOL    HW175470   2.216   5.368   2.801 -0.2261  0.1194 -0.3211
24150SOL    HW275471   2.332   5.446   2.743  0.5301 -2.5716 -2.5190
24151SOL     OW75472   1.206   1.296   2.235  0.6463 -0.0275  0.3762
24151SOL    HW175473   1.253   1.268   2.156  0.5648 -0.4959  0.4898
24151SOL    HW275474   1.114   1.299   2.209  0.7343  0.8412  0.1671
24152SOL     OW75475   4.025   6.890   1.426 -0.4157 -0.7227  0.0129
24152SOL    HW175476   4.009   6.889   1.521  0.0329  1.4156  0.1442
24152SOL    HW275477   3.989   6.807   1.395 -1.0023 -1.2467  1.9873
24153SOL     OW75478   7.256   7.907   1.244  0.3506 -0.0958 -0.7482
24153SOL    HW175479   7.323   7.936   1.306 -0.1393  0.6266 -0.5486
24153SOL    HW275480   7.180   7.886   1.297  0.4624 -1.0858 -0.9612
24154SOL     OW75481   3.183   4.957   4.960  0.0114 -0.2130 -0.5538
24154SOL    HW175482   3.167   5.008   5.040  3.4523  0.8766 -0.4945
24154SOL    HW275483   3.233   5.016   4.903  0.3467 -2.0648 -2.2351
24155SOL     OW75484   6.523   2.099   8.940  0.7503 -0.6036 -0.6277
24155SOL    HW175485   6.495   2.074   8.852  1.8393 -1.0552 -0.8514
24155SOL    HW275486   6.594   2.038   8.961  0.8564 -0.1569  0.3491
24156SOL     OW75487   3.966   2.296   3.438  0.5297  0.2592 -0.2694
24156SOL    HW175488   3.951   2.388   3.416 -1.7989  0.1714  0.7759
24156SOL    HW275489   3.964   2.294   3.534  0.6027 -0.8682 -0.2894
24157SOL     OW75490   7.111   1.829   5.042 -0.3817  0.5533  0.7502
24157SOL    HW175491   7.136   1.792   5.127  1.3309 -0.2439 -0.0817
24157SOL    HW275492   7.180   1.892   5.021 -0.6681  0.5712 -0.1751
24158SOL     OW75493   6.408   7.710   4.984 -0.0582 -0.6818 -0.4036
24158SOL    HW175494   6.481   7.668   4.937  0.7405  1.6753 -1.3468
24158SOL    HW275495   6.331   7.659   4.960  0.6170 -0.5616 -2.9218
24159SOL     OW75496   4.336   5.965   3.195 -0.0024 -0.1505  0.0303
24159SOL    HW175497   4.244   5.943   3.177 -0.1223  0.9633 -0.8060
24159SOL    HW275498   4.338   5.987   3.288 -0.4827 -0.6616  0.1645
24160SOL     OW75499   8.591   1.418   1.444  0.1189 -0.1216 -0.0025
24160SOL    HW175500   8.584   1.383   1.355 -2.2731 -1.2090  0.5702
24160SOL    HW275501   8.563   1.509   1.436  2.6336  0.6104 -0.8270
24161SOL     OW75502   5.509   7.524   4.791  0.5460 -0.4850 -0.9371
24161SOL    HW175503   5.514   7.459   4.720 -1.3752  0.0128 -1.5508
24161SOL    HW275504   5.416   7.532   4.810  1.0049 -0.3300  1.4268
24162SOL     OW75505   1.476   7.450   7.266 -0.4772  0.6111  0.3177
24162SOL    HW175506   1.411   7.515   7.293 -0.8497 -0.1411  1.2564
24162SOL    HW275507   1.424   7.378   7.229 -0.0682  0.8480 -0.7415
24163SOL     OW75508   8.273   8.308   0.334 -0.1637 -0.1073  0.3624
24163SOL    HW175509   8.248   8.221   0.365  0.8082 -0.7092 -0.5240
24163SOL    HW275510   8.280   8.299   0.239 -1.9300  1.4245  0.0471
24164SOL     OW75511   3.159   2.164   5.435 -0.4676  0.6134 -0.2518
24164SOL    HW175512   3.093   2.195   5.498 -1.2266  2.4837 -1.9053
24164SOL    HW275513   3.127   2.078   5.408 -2.0206  1.2990 -0.6735
24165SOL     OW75514   9.206   7.938   8.393 -0.1437 -0.1575  0.1617
24165SOL    HW175515   9.211   8.033   8.382 -2.8528  0.0119  0.0174
24165SOL    HW275516   9.216   7.924   8.487 -1.4775  0.4356  0.4023
24166SOL     OW75517   4.327   1.412   9.074  0.5094 -0.0766 -0.7272
24166SOL    HW175518   4.365   1.332   9.038 -0.3436 -0.7031 -0.2412
24166SOL    HW275519   4.395   1.447   9.132  1.1121 -0.1203 -1.3983
24167SOL     OW75520   6.586   8.738   7.175 -0.3340 -0.2591  0.4142
24167SOL    HW175521   6.573   8.646   7.196  2.9068 -0.4231  2.0165
24167SOL    HW275522   6.594   8.781   7.261  1.0782  1.0247 -0.3314
24168SOL     OW75523   8.216   7.915   7.151  0.0641 -0.0837 -0.1609
24168SOL    HW175524   8.262   7.950   7.075 -1.1839  0.4426 -0.6877
24168SOL    HW275525   8.163   7.988   7.182 -0.2375 -0.6129  0.5863
24169SOL     OW75526   9.205   8.221   8.348  0.5411 -0.5137 -0.6232
24169SOL    HW175527   9.271   8.226   8.280  1.3858  0.0237  0.2192
24169SOL    HW275528   9.210   8.306   8.393 -3.0418  0.8995 -2.6729
24170SOL     OW75529   5.665   6.898   1.409  0.3054 -0.4895 -0.0453
24170SOL    HW175530   5.672   6.900   1.313  2.7228 -0.8238  0.1059
24170SOL    HW275531   5.686   6.987   1.437 -2.3249  0.1277  0.0937
24171SOL     OW75532   4.211   0.073   1.260 -0.2385 -0.1160  0.4350
24171SOL    HW175533   4.240   0.163   1.247  2.6508 -1.1560 -0.8463
24171SOL    HW275534   4.195   0.040   1.172 -1.5203 -0.8024  0.9101
24172SOL     OW75535   7.982   1.804   5.362  0.1356  0.2504 -0.2877
24172SOL    HW175536   7.977   1.752   5.282  0.0351 -0.8902  0.4493
24172SOL    HW275537   8.076   1.805   5.384  0.2413  1.0816 -0.7459
24173SOL     OW75538   3.722   0.353   9.364  0.6743  0.0399 -0.0843
24173SOL    HW175539   3.688   0.368   9.453  0.6142 -0.7760  0.0296
24173SOL    HW275540   3.767   0.435   9.342 -2.6355  1.7530 -0.8335
24174SOL     OW75541   2.358   8.926   3.711  0.6080  0.2355  0.1264
24174SOL    HW175542   2.353   8.990   3.640  0.7748 -1.8581 -1.8388
24174SOL    HW275543   2.268   8.896   3.723  0.8528 -0.7952 -0.5332
24175SOL     OW75544   0.564   8.787   1.128 -0.5064  0.7689  0.6795
24175SOL    HW175545   0.542   8.804   1.219  0.3035  1.8223  0.6834
24175SOL    HW275546   0.558   8.692   1.119  1.3526  0.4626  2.3461
24176SOL     OW75547   0.556   6.763   2.276 -0.4324 -0.2183 -0.0431
24176SOL    HW175548   0.477   6.748   2.328  0.0803 -0.0789  0.7870
24176SOL    HW275549   0.556   6.692   2.212 -0.8992 -0.5823  0.3538
24177SOL     OW75550   8.596   6.550   4.476 -0.1385 -0.0710  0.0387
24177SOL    HW175551   8.519   6.497   4.457  0.2961 -0.6356 -0.1459
24177SOL    HW275552   8.669   6.488   4.474  0.2876  0.4186  0.4618
24178SOL     OW75553   7.552   7.097   1.147  0.3297  0.1778  0.3046
24178SOL    HW175554   7.606   7.116   1.223  0.8448 -0.7516  0.1812
24178SOL    HW275555   7.606   7.121   1.072 -0.1158  0.9421  0.2215
24179SOL     OW75556   4.473   0.485   5.671 -0.0606 -0.7198 -0.3203
24179SOL    HW175557   4.558   0.500   5.631  0.4834 -3.0914 -0.0791
24179SOL    HW275558   4.489   0.422   5.742 -1.7628 -0.0672  0.6937
24180SOL     OW75559   3.002   5.657   8.558  0.3419  0.2027  0.4014
24180SOL    HW175560   3.081   5.623   8.516 -0.4788 -2.5238  0.9642
24180SOL    HW275561   3.030   5.679   8.647  0.9144  1.1504 -0.0071
24181SOL     OW75562   3.917   1.076   2.954 -0.1379  0.8359 -0.7238
24181SOL    HW175563   3.856   1.002   2.959  0.5913  0.2657 -0.1187
24181SOL    HW275564   3.894   1.131   3.028  0.5513  0.2509 -0.0687
24182SOL     OW75565   9.063   5.158   8.407 -0.0488  0.1689 -0.7818
24182SOL    HW175566   9.053   5.242   8.453  0.0048  0.5080 -1.3889
24182SOL    HW275567   9.018   5.095   8.463  0.0212  0.5776 -0.2561
24183SOL     OW75568   2.048   0.607   1.354  0.4596  0.0750 -0.0168
24183SOL    HW175569   1.955   0.609   1.377  0.4453 -1.5974  0.0971
24183SOL    HW275570   2.055   0.665   1.279 -0.2033  2.4043  1.6469
24184SOL     OW75571   2.590   7.968   8.968 -0.1874  0.3126  0.4349
24184SOL    HW175572   2.580   8.028   8.893 -0.8741 -0.1353  0.1631
24184SOL    HW275573   2.517   7.906   8.959  1.3308 -1.4339 -0.0905
24185SOL     OW75574   7.737   8.875   2.445 -0.2968  0.2120 -0.5593
24185SOL    HW175575   7.764   8.794   2.402  1.9954  0.6543 -0.0176
24185SOL    HW275576   7.809   8.936   2.429 -0.2879  0.9846  2.2060
24186SOL     OW75577   8.222   5.704   7.036 -0.3089  0.2023  0.0867
24186SOL    HW175578   8.285   5.675   7.102 -0.1319 -0.7663 -0.4976
24186SOL    HW275579   8.146   5.648   7.050 -0.0781 -0.3541 -0.8557
24187SOL     OW75580   0.930   6.750   3.909  0.0710  0.1967  0.7102
24187SOL    HW175581   1.002   6.713   3.857 -1.0246 -1.4053  0.3084
24187SOL    HW275582   0.851   6.724   3.863 -0.8825 -0.4391  2.6302
24188SOL     OW75583   8.015   0.560   8.712 -0.4610 -0.5645  0.2956
24188SOL    HW175584   7.968   0.627   8.662  0.5147 -0.1978 -0.1480
24188SOL    HW275585   8.065   0.610   8.777  2.4000 -0.5964 -1.7695
24189SOL     OW75586   2.345   8.913   3.296 -0.8062 -0.2759 -0.2723
24189SOL    HW175587   2.366   8.820   3.289  1.1143 -0.1387  2.7398
24189SOL    HW275588   2.371   8.950   3.211  0.1112 -2.1692 -0.8514
24190SOL     OW75589   0.503   5.879   6.546 -0.0444 -0.4120 -0.0674
24190SOL    HW175590   0.483   5.973   6.554 -1.0240 -0.7023  1.3260
24190SOL    HW275591   0.586   5.868   6.593  0.2986 -0.1674 -0.6179
24191SOL     OW75592   8.479   7.321   3.178  0.0025  0.6545  0.2349
24191SOL    HW175593   8.433   7.238   3.187  1.6541 -0.4978 -1.7393
24191SOL    HW275594   8.433   7.366   3.107  0.8082  0.2502 -0.5501
24192SOL     OW75595   6.662   5.815   8.595 -0.2413 -0.0042 -0.0282
24192SOL    HW175596   6.632   5.765   8.519 -1.3406  0.6633 -0.0587
24192SOL    HW275597   6.664   5.906   8.563 -1.8281  0.4373  1.0398
24193SOL     OW75598   4.367   2.433   5.937  0.1495 -0.2348 -0.0545
24193SOL    HW175599   4.276   2.436   5.966  0.9365  1.5779  2.3449
24193SOL    HW275600   4.377   2.347   5.896 -2.9259 -0.0053 -1.3953
24194SOL     OW75601   3.099   8.682   6.243  0.7374 -0.3622  0.2039
24194SOL    HW175602   3.194   8.685   6.254  0.8225  0.3375 -0.7139
24194SOL    HW275603   3.084   8.610   6.182  0.7650  0.3805 -0.6715
24195SOL     OW75604   1.046   8.152   6.419 -0.0251 -0.0022  0.4469
24195SOL    HW175605   1.023   8.235   6.462 -1.6232  1.2929 -2.7299
24195SOL    HW275606   1.056   8.175   6.327  1.1188 -3.0802 -0.2357
24196SOL     OW75607   1.779   1.939   2.100 -0.0938  0.1533 -0.5114
24196SOL    HW175608   1.854   1.907   2.049  0.3028  0.4825 -0.1355
24196SOL    HW275609   1.706   1.886   2.069  0.1524  0.3063 -1.3833
24197SOL     OW75610   9.040   6.495   3.594 -0.5819  0.3269 -0.5538
24197SOL    HW175611   9.100   6.569   3.588 -1.5710  1.0358 -2.1217
24197SOL    HW275612   9.081   6.436   3.657  1.0345  1.4481 -0.5136
24198SOL     OW75613   4.366   4.756   4.053 -0.1770 -0.3318 -0.1463
24198SOL    HW175614   4.302   4.749   3.982 -1.1405  2.0420  0.4472
24198SOL    HW275615   4.450   4.738   4.011 -0.9351 -0.7900 -1.5008
24199SOL     OW75616   8.787   7.882   2.017  0.1371 -0.3754 -0.1187
24199SOL    HW175617   8.821   7.796   2.041  0.4229 -0.6185 -1.3490
24199SOL    HW275618   8.720   7.863   1.951 -1.1403  0.2227  0.9696
24200SOL     OW75619   5.954   4.690   2.257 -0.3812 -0.4159  0.4740
24200SOL    HW175620   6.026   4.641   2.298  0.4720 -0.6721 -1.2729
24200SOL    HW275621   5.906   4.625   2.207 -0.6249  0.1261 -0.0045
24201SOL     OW75622   8.899   0.785   5.611  0.0295  0.5314 -0.0195
24201SOL    HW175623   8.980   0.745   5.642  0.6532  1.6428 -0.2297
24201SOL    HW275624   8.892   0.760   5.519  0.2398  0.6191 -0.0577
24202SOL     OW75625   7.188   0.015   3.097 -0.7053 -0.1203 -0.2180
24202SOL    HW175626   7.212  -0.076   3.112  1.9615  0.5756  0.0177
24202SOL    HW275627   7.190   0.025   3.002 -0.7988 -0.2551 -0.2348
24203SOL     OW75628   7.424   2.194   3.937  0.2699  0.2601 -0.0171
24203SOL    HW175629   7.419   2.283   3.972 -0.0889 -0.1816  1.0680
24203SOL    HW275630   7.419   2.137   4.014  0.7507 -0.6983 -0.6816
24204SOL     OW75631   7.766   6.523   2.913  0.0132 -0.0437  0.6131
24204SOL    HW175632   7.698   6.469   2.955 -1.2135  1.2911  0.3976
24204SOL    HW275633   7.774   6.487   2.825  1.1069 -1.5435  1.3146
24205SOL     OW75634   4.322   1.716   5.185 -0.1419 -0.1033 -0.5209
24205SOL    HW175635   4.247   1.756   5.230  0.1651 -0.1447  0.0365
24205SOL    HW275636   4.331   1.630   5.226  1.4052  0.6494  0.7711
24206SOL     OW75637   4.175   2.400   2.499 -0.3684 -0.1022 -0.1052
24206SOL    HW175638   4.213   2.440   2.421 -1.2149 -1.6127 -1.3242
24206SOL    HW275639   4.109   2.463   2.528  0.7545  0.9973  0.0835
24207SOL     OW75640   7.484   7.254   6.527 -0.4675  0.3434  0.0030
24207SOL    HW175641   7.556   7.304   6.565 -0.0391  1.8570 -2.6294
24207SOL    HW275642   7.527   7.181   6.482 -0.6374  0.6150 -0.6158
24208SOL     OW75643   2.655   0.456   4.010 -1.1997  0.2341  0.0991
24208SOL    HW175644   2.622   0.384   4.063  0.2050 -0.4871  0.0315
24208SOL    HW275645   2.700   0.414   3.937 -0.2086  1.1599  0.1538
24209SOL     OW75646   2.105   8.424   0.263  0.4032 -0.0381  0.1162
24209SOL    HW175647   2.170   8.364   0.299 -0.1253 -0.6825  0.0001
24209SOL    HW275648   2.034   8.368   0.233  0.8266  0.4836 -1.9265
24210SOL     OW75649   0.142   1.842   6.584 -0.2883  0.2264  0.3802
24210SOL    HW175650   0.166   1.928   6.617  0.6301  0.5498 -1.0641
24210SOL    HW275651   0.221   1.789   6.595 -0.5779 -0.1865  0.4783
24211SOL     OW75652   8.825   2.680   8.687  0.3159  0.0966  0.1471
24211SOL    HW175653   8.744   2.667   8.637 -0.0332 -0.7354  0.9270
24211SOL    HW275654   8.833   2.602   8.741  1.5920  0.2217  0.1511
24212SOL     OW75655   9.036   8.982   8.694  0.4749 -0.4139  0.0643
24212SOL    HW175656   9.031   8.999   8.600 -1.5924 -0.6066  0.1078
24212SOL    HW275657   9.126   9.002   8.718  0.3951  1.9993 -1.5235
24213SOL     OW75658   2.978   5.536   1.620  0.1870 -0.0955  0.0779
24213SOL    HW175659   2.965   5.456   1.672  0.8267 -0.9969 -1.1249
24213SOL    HW275660   3.063   5.524   1.579  0.3234  1.2624 -0.0450
24214SOL     OW75661   1.633   0.897   9.381  0.3269 -0.3628  0.0776
24214SOL    HW175662   1.635   0.975   9.436  1.6325 -0.6317  0.4355
24214SOL    HW275663   1.602   0.928   9.296 -1.5769  0.0815  0.9034
24215SOL     OW75664   3.832   8.497   7.763 -0.5234 -0.0145  0.0029
24215SOL    HW175665   3.766   8.491   7.693  0.1407  0.9173 -0.7194
24215SOL    HW275666   3.887   8.420   7.750 -2.3182 -1.5895  1.5091
24216SOL     OW75667   3.569   2.689   4.006  0.1820  0.1241 -0.4998
24216SOL    HW175668   3.527   2.628   4.067  2.4101 -0.7430  0.1795
24216SOL    HW275669   3.505   2.760   3.997 -1.8565 -1.6221 -0.2350
24217SOL     OW75670   1.524   6.903   6.337  0.3043 -0.4025 -0.5339
24217SOL    HW175671   1.489   6.984   6.376 -0.4655 -1.6749  1.4910
24217SOL    HW275672   1.617   6.904   6.359  0.3185 -0.0321 -0.6027
24218SOL     OW75673   1.533   4.895   2.128 -0.1623 -0.0457 -0.1418
24218SOL    HW175674   1.470   4.862   2.064 -0.8529 -0.2243  0.6179
24218SOL    HW275675   1.615   4.903   2.080 -0.5362 -0.7413 -0.9027
24219SOL     OW75676   1.804   9.061   3.371  0.3392 -0.1538  0.7377
24219SOL    HW175677   1.834   9.096   3.455  0.4868 -2.7571  1.8214
24219SOL    HW275678   1.864   8.988   3.353 -1.6044 -1.5957 -0.0589
24220SOL     OW75679   0.184   7.503   8.917  0.3811  0.7386 -0.0379
24220SOL    HW175680   0.158   7.582   8.964  2.1708  2.1283 -1.2727
24220SOL    HW275681   0.194   7.532   8.826  2.6081 -0.5192 -0.2297
24221SOL     OW75682   5.105   2.866   0.037  0.3283  0.5599  0.1657
24221SOL    HW175683   5.096   2.829   0.125 -1.5315  0.1032 -0.1796
24221SOL    HW275684   5.111   2.789  -0.020  0.3223  0.8447 -0.2157
24222SOL     OW75685   3.635   1.732   4.220  0.6305 -0.0480 -0.2955
24222SOL    HW175686   3.581   1.653   4.219  0.7646 -0.1472  0.1303
24222SOL    HW275687   3.662   1.741   4.312  0.0164  0.8944 -0.1999
24223SOL     OW75688   6.120   4.461   9.408  0.1130 -0.0675  0.1425
24223SOL    HW175689   6.116   4.507   9.325 -2.2163 -1.0570 -0.3369
24223SOL    HW275690   6.208   4.422   9.410  0.9298  1.6946 -0.8801
24224SOL     OW75691   2.493   3.670   7.380 -0.2433 -0.0649  0.9461
24224SOL    HW175692   2.512   3.735   7.312  0.6537  0.0400  1.2993
24224SOL    HW275693   2.574   3.661   7.429 -0.7617 -0.4551  1.7490
24225SOL     OW75694   2.834   5.088   0.673 -0.5190  0.1366 -0.0633
24225SOL    HW175695   2.857   5.113   0.763 -0.1105 -0.0019 -0.1276
24225SOL    HW275696   2.888   5.011   0.655  1.1562  1.5394 -1.2489
24226SOL     OW75697   5.255   2.789   3.594  0.1051 -0.2339 -0.3762
24226SOL    HW175698   5.181   2.806   3.536 -0.9172  0.1670  1.0136
24226SOL    HW275699   5.247   2.856   3.662  1.5454 -0.4240 -0.0167
24227SOL     OW75700   0.536   6.913   1.240 -0.2372 -0.4500  0.3344
24227SOL    HW175701   0.587   6.995   1.236 -1.6114  0.4557  1.1838
24227SOL    HW275702   0.506   6.900   1.150 -3.0552  1.9670  0.8467
24228SOL     OW75703   2.131   1.391   4.100  0.2446 -0.5427 -0.2723
24228SOL    HW175704   2.118   1.297   4.085 -0.1485 -0.6277  0.5299
24228SOL    HW275705   2.044   1.429   4.087  0.5879 -0.1594 -1.4853
24229SOL     OW75706   3.857   1.950   7.397  0.1450  0.0422 -0.5562
24229SOL    HW175707   3.908   1.876   7.431  1.3253  0.4343 -1.4048
24229SOL    HW275708   3.871   2.020   7.460  1.8323  0.5794 -1.4687
24230SOL     OW75709   4.325   2.287   4.266 -0.6799 -0.1944  0.6731
24230SOL    HW175710   4.291   2.223   4.329 -0.8883  0.9444  1.7480
24230SOL    HW275711   4.249   2.340   4.242 -0.3888  0.0494  0.2832
24231SOL     OW75712   1.010   2.112   2.974 -0.1943 -0.1063  0.1541
24231SOL    HW175713   1.024   2.028   2.930 -2.1343 -0.5977  0.4296
24231SOL    HW275714   1.094   2.131   3.017  0.4833 -1.5400 -0.5208
24232SOL     OW75715   5.670   9.363   2.852  0.8373 -0.2601 -0.1711
24232SOL    HW175716   5.748   9.406   2.888  1.2987 -0.7981 -0.5019
24232SOL    HW275717   5.688   9.269   2.864 -0.4363 -0.3511  1.1547
24233SOL     OW75718   4.023   4.361   3.666  0.4552 -0.1487  0.1853
24233SOL    HW175719   4.093   4.424   3.654 -0.6034  0.6134 -2.1925
24233SOL    HW275720   4.049   4.286   3.612  0.7206 -0.9592  1.4121
24234SOL     OW75721   7.954   5.681   7.520  0.6298  0.7636  0.2884
24234SOL    HW175722   8.046   5.707   7.521  0.5293  1.1447 -0.0615
24234SOL    HW275723   7.918   5.724   7.442  0.2407  0.3238  0.2212
24235SOL     OW75724   1.633   2.073   8.060 -0.3653  0.6488  0.2186
24235SOL    HW175725   1.557   2.087   8.003  1.0306 -0.1886 -1.8968
24235SOL    HW275726   1.693   2.145   8.038 -0.7058  1.5996  2.2351
24236SOL     OW75727   8.451   0.472   4.376 -0.3473 -0.1926  0.3074
24236SOL    HW175728   8.462   0.551   4.324  1.9842 -1.0685 -0.5783
24236SOL    HW275729   8.437   0.402   4.312 -2.2977 -0.5296  1.0747
24237SOL     OW75730   5.598   4.814   1.099 -0.2829  0.2000 -0.5215
24237SOL    HW175731   5.582   4.734   1.049 -0.0312 -0.4294  0.3874
24237SOL    HW275732   5.637   4.784   1.181  0.4083  1.3071 -0.4314
24238SOL     OW75733   5.184   2.443   4.379 -0.2297  0.3208 -0.4171
24238SOL    HW175734   5.110   2.493   4.412  0.2888  1.1846 -0.5244
24238SOL    HW275735   5.236   2.507   4.331  0.6754 -0.2360 -0.1938
24239SOL     OW75736   2.319   6.847   8.317 -0.4809  0.2266  0.3973
24239SOL    HW175737   2.336   6.858   8.411  0.8409  0.6423  0.1127
24239SOL    HW275738   2.404   6.827   8.279 -1.2444 -1.4077 -0.5123
24240SOL     OW75739   8.907   6.515   1.658  0.0536 -0.0944 -0.4125
24240SOL    HW175740   8.873   6.429   1.632  0.0524 -0.0945 -0.4091
24240SOL    HW275741   8.836   6.576   1.637  0.1713 -0.0528 -0.7088
24241SOL     OW75742   0.407   6.672   5.819  0.1607  0.1821  0.1285
24241SOL    HW175743   0.479   6.735   5.817  0.6601 -0.3426  1.3031
24241SOL    HW275744   0.332   6.722   5.786  1.2037  0.5026 -1.8236
24242SOL     OW75745   5.525   2.720   9.058  0.5959 -0.0226 -0.1398
24242SOL    HW175746   5.445   2.748   9.102 -0.9965 -1.0319 -2.2586
24242SOL    HW275747   5.518   2.756   8.969  3.5797  1.7393  0.2781
24243SOL     OW75748   7.196   4.235   4.008 -0.7743 -0.3352 -0.0650
24243SOL    HW175749   7.211   4.329   4.021 -0.6161 -0.4360  0.4668
24243SOL    HW275750   7.170   4.228   3.916 -1.5171  0.3185  0.0849
24244SOL     OW75751   5.157   3.235   6.051  0.6054  0.1910 -0.6058
24244SOL    HW175752   5.163   3.270   6.140 -0.5450 -1.9792  0.3734
24244SOL    HW275753   5.183   3.144   6.059  2.1800  0.3997 -2.8455
24245SOL     OW75754   7.636   4.953   8.638 -0.2664  0.2408 -0.4655
24245SOL    HW175755   7.670   5.037   8.670 -0.3435  0.5158 -1.0861
24245SOL    HW275756   7.714   4.900   8.622 -0.2382  0.0423  0.3383
24246SOL     OW75757   5.328   3.557   4.131 -0.2098 -0.6209 -0.3297
24246SOL    HW175758   5.346   3.519   4.217 -1.2472  0.3064  0.3033
24246SOL    HW275759   5.354   3.649   4.139  0.2164 -0.6636 -1.1755
24247SOL     OW75760   4.927   5.379   4.888 -0.5398  0.2254 -0.3126
24247SOL    HW175761   4.860   5.324   4.928 -1.4156  0.7993 -0.9681
24247SOL    HW275762   4.940   5.450   4.951  1.3336 -1.2408  1.0145
24248SOL     OW75763   8.851   1.462   1.850 -0.2954  0.4875 -0.2938
24248SOL    HW175764   8.811   1.546   1.826 -0.3796  0.9756  1.4704
24248SOL    HW275765   8.912   1.484   1.921 -0.5675 -0.9782  0.4095
24249SOL     OW75766   6.330   7.631   1.914  0.0655  0.8770  0.2017
24249SOL    HW175767   6.317   7.637   2.008 -0.6899  0.5989  0.1192
24249SOL    HW275768   6.260   7.684   1.876 -0.0095  0.4884 -0.2161
24250SOL     OW75769   6.509   4.723   4.247 -0.3533 -0.2919  0.0527
24250SOL    HW175770   6.577   4.724   4.180 -1.0515 -1.4124 -0.7025
24250SOL    HW275771   6.472   4.811   4.246  0.3291 -0.0109 -0.3135
24251SOL     OW75772   2.714   5.494   4.846  0.7700  0.0078 -0.3804
24251SOL    HW175773   2.804   5.523   4.862  1.5335 -1.1987 -2.3867
24251SOL    HW275774   2.689   5.536   4.764 -0.2305 -0.3299 -0.2546
24252SOL     OW75775   7.378   1.178   4.759 -0.1133 -0.0958 -0.2658
24252SOL    HW175776   7.433   1.193   4.681 -0.4007  3.0232  0.0732
24252SOL    HW275777   7.289   1.176   4.725  0.0125 -3.3706 -0.5721
24253SOL     OW75778   6.048   0.716   7.363  0.4599 -0.3336 -0.1410
24253SOL    HW175779   5.956   0.692   7.361  0.4633 -0.3773  0.1019
24253SOL    HW275780   6.066   0.734   7.456  0.4973  0.4503 -0.2967
24254SOL     OW75781   3.237   6.652   0.633  0.6066 -0.2195  0.0267
24254SOL    HW175782   3.263   6.732   0.587 -0.4934 -0.0071 -0.2514
24254SOL    HW275783   3.309   6.634   0.693  0.4800  1.4801  0.7297
24255SOL     OW75784   8.959   2.073   7.650 -0.4148  0.1341 -0.3492
24255SOL    HW175785   8.871   2.046   7.678 -0.9263  1.5025 -0.6055
24255SOL    HW275786   8.943   2.140   7.583  0.8238 -0.2552 -1.0382
24256SOL     OW75787   6.997   0.313   8.502 -0.7442 -0.2676 -0.2013
24256SOL    HW175788   7.004   0.220   8.525  0.3062 -0.0008  0.5799
24256SOL    HW275789   7.056   0.323   8.427  0.1483  0.0229  0.5223
24257SOL     OW75790   5.383   0.030   7.101  0.0345 -0.0950 -0.0567
24257SOL    HW175791   5.326   0.094   7.144 -2.0195 -0.0865 -2.6547
24257SOL    HW275792   5.469   0.043   7.141 -0.8750  2.7241  1.0791
24258SOL     OW75793   1.697   1.449   6.232  0.6300 -1.1402  0.0617
24258SOL    HW175794   1.790   1.435   6.212  0.5514 -0.4834 -0.8092
24258SOL    HW275795   1.654   1.368   6.203  0.9517 -1.5168  0.6315
24259SOL     OW75796   6.243   3.408   8.454 -0.1114  0.2269 -0.6884
24259SOL    HW175797   6.177   3.453   8.401  1.5912  2.7346 -0.7277
24259SOL    HW275798   6.314   3.470   8.462  2.7662 -2.8010 -1.5366
24260SOL     OW75799   8.101   3.923   9.207  0.8674  0.0065 -0.4067
24260SOL    HW175800   8.026   3.895   9.155  1.4413 -0.9044 -0.7483
24260SOL    HW275801   8.090   4.018   9.215 -0.3039 -0.1183 -0.4707
24261SOL     OW75802   8.836   2.351   7.063 -0.0616  0.5014 -0.3347
24261SOL    HW175803   8.923   2.388   7.079 -1.0971  1.7488  2.7170
24261SOL    HW275804   8.797   2.408   6.998  1.5760 -0.4140 -2.1860
24262SOL     OW75805   8.378   0.355   3.530 -0.7978 -0.1370  0.3880
24262SOL    HW175806   8.350   0.401   3.609  0.8626  1.2480  0.1822
24262SOL    HW275807   8.307   0.372   3.467 -1.0765  0.5881  0.8902
24263SOL     OW75808   4.580   2.228   0.437 -0.3168 -0.5537  0.2935
24263SOL    HW175809   4.568   2.192   0.349 -0.3518  0.1805 -0.0087
24263SOL    HW275810   4.495   2.217   0.480 -0.8401  0.7092 -0.3779
24264SOL     OW75811   1.681   7.344   6.755  0.4984  0.0776 -0.4604
24264SOL    HW175812   1.721   7.280   6.813  1.6782 -1.3105 -2.7444
24264SOL    HW275813   1.593   7.310   6.737  1.2299 -1.0628 -1.9046
24265SOL     OW75814   0.355   5.856   4.438 -0.1571  0.3622 -0.4052
24265SOL    HW175815   0.346   5.936   4.489 -1.1163 -0.0850  0.1303
24265SOL    HW275816   0.398   5.884   4.357 -0.8780  1.4877 -0.4094
24266SOL     OW75817   5.275   1.618   3.053 -0.1145 -0.2492 -0.4473
24266SOL    HW175818   5.256   1.675   3.128 -1.3708 -1.5720  0.2686
24266SOL    HW275819   5.311   1.539   3.093  0.3624 -0.4766 -1.3352
24267SOL     OW75820   6.250   5.784   4.834 -0.5414  0.8787  0.1493
24267SOL    HW175821   6.336   5.825   4.827  0.0332 -0.3788 -0.3604
24267SOL    HW275822   6.236   5.776   4.928  0.2695  0.3702  0.2409
24268SOL     OW75823   5.189   0.882   1.004  0.1540 -0.0090 -0.2555
24268SOL    HW175824   5.128   0.893   0.931 -1.7105  0.7135  1.3776
24268SOL    HW275825   5.143   0.824   1.065  1.3287  0.0865  0.7420
24269SOL     OW75826   8.061   4.197   4.649  0.4729  0.0988  0.8057
24269SOL    HW175827   8.059   4.157   4.736 -0.4006 -1.2004  0.2022
24269SOL    HW275828   8.086   4.126   4.591 -1.3096  0.3799 -0.3158
24270SOL     OW75829   2.510   6.793   9.066 -0.4050 -1.1717 -0.3841
24270SOL    HW175830   2.450   6.834   9.005  1.3882 -0.1648 -1.5142
24270SOL    HW275831   2.530   6.861   9.130 -0.0172 -1.3256 -0.3409
24271SOL     OW75832   5.435   2.129   4.942  0.9776  0.4344 -0.2077
24271SOL    HW175833   5.500   2.156   5.008  0.5058 -1.9531  1.2943
24271SOL    HW275834   5.390   2.055   4.982  0.0133 -0.4559 -2.8676
24272SOL     OW75835   8.191   8.200   4.566 -0.1077 -0.3881  0.0742
24272SOL    HW175836   8.128   8.243   4.509 -0.6352 -1.5713 -0.2680
24272SOL    HW275837   8.199   8.257   4.642  2.2097  2.2997 -2.0933
24273SOL     OW75838   3.559   9.117   4.367  0.4614 -0.1238  0.1411
24273SOL    HW175839   3.636   9.126   4.311 -0.3479 -0.3811 -1.0330
24273SOL    HW275840   3.497   9.182   4.333 -0.7861 -1.6472 -0.5427
24274SOL     OW75841   3.379   1.220   0.825  0.2902  0.5631  0.4840
24274SOL    HW175842   3.305   1.262   0.867 -0.4247  0.2271 -0.4206
24274SOL    HW275843   3.363   1.232   0.731  0.9511 -0.2363  0.2668
24275SOL     OW75844   5.260   3.938   0.642 -0.4954 -0.6593  0.2359
24275SOL    HW175845   5.257   3.848   0.610 -1.1297 -0.8318  0.7732
24275SOL    HW275846   5.169   3.966   0.645 -0.3420 -0.1876  0.5985
24276SOL     OW75847   2.236   4.772   0.837 -0.7102  0.5435 -0.0496
24276SOL    HW175848   2.164   4.834   0.829  1.3143  2.9077 -0.3322
24276SOL    HW275849   2.306   4.821   0.881  0.6854 -1.7578  0.4181
24277SOL     OW75850   1.487   0.301   5.147  0.2723 -0.8250 -0.4756
24277SOL    HW175851   1.432   0.321   5.072  0.4096 -0.7748 -0.5636
24277SOL    HW275852   1.426   0.295   5.221  0.2904  0.4525 -0.3436
24278SOL     OW75853   4.114   7.816   0.225  0.0299  0.0896  0.1967
24278SOL    HW175854   4.087   7.742   0.171 -0.1117 -0.0366  0.4377
24278SOL    HW275855   4.063   7.806   0.306 -1.9136  1.8409 -0.7404
24279SOL     OW75856   0.353   0.456   6.262 -0.3972  0.5370  0.3380
24279SOL    HW175857   0.442   0.424   6.277 -0.1161  1.2061  0.1427
24279SOL    HW275858   0.358   0.550   6.281 -1.6752  0.1256  2.8343
24280SOL     OW75859   3.552   5.694   5.034  0.8084 -0.5227 -0.4286
24280SOL    HW175860   3.506   5.766   4.989  1.9619  0.3760 -0.2012
24280SOL    HW275861   3.491   5.620   5.030 -0.7885  0.7255  0.1306
24281SOL     OW75862   6.578   8.194   4.642  0.4829 -0.4731  0.0410
24281SOL    HW175863   6.521   8.259   4.683 -0.5386  0.0547 -2.1412
24281SOL    HW275864   6.621   8.151   4.715 -0.3867  1.2414  1.6163
24282SOL     OW75865   7.695   8.495   5.643  0.0776 -0.3374  0.1730
24282SOL    HW175866   7.681   8.580   5.600 -1.8812 -0.3662  0.6977
24282SOL    HW275867   7.751   8.515   5.718  1.7620  0.0543 -1.1691
24283SOL     OW75868   8.554   1.213   4.333  0.0816 -0.2621  0.0603
24283SOL    HW175869   8.597   1.297   4.351 -1.8648  0.6687  0.5438
24283SOL    HW275870   8.531   1.217   4.240 -0.0392 -0.2521  0.0909
24284SOL     OW75871   0.815   2.389   6.027  0.3106 -0.0308  0.6941
24284SOL    HW175872   0.782   2.478   6.041 -1.2081 -0.0162 -2.5455
24284SOL    HW275873   0.749   2.347   5.972  1.3563 -2.9696  1.5928
24285SOL     OW75874   7.335   6.201   5.616  0.4169  0.2544  0.4562
24285SOL    HW175875   7.264   6.165   5.669  0.6298  0.3672  0.8176
24285SOL    HW275876   7.377   6.124   5.577  0.0331  0.1928  0.1610
24286SOL     OW75877   2.818   7.917   7.644  0.2496 -0.4439  0.1337
24286SOL    HW175878   2.730   7.899   7.678 -0.5252  3.4978  0.4671
24286SOL    HW275879   2.809   7.907   7.549 -1.0394  1.3840  0.0102
24287SOL     OW75880   7.517   0.594   3.701  0.1437 -0.0785 -0.4077
24287SOL    HW175881   7.464   0.646   3.640 -0.4107  1.1707  1.0678
24287SOL    HW275882   7.457   0.525   3.731 -0.4131  0.8183  0.6051
24288SOL     OW75883   1.485   4.971   6.927  0.6599 -0.3654  0.5587
24288SOL    HW175884   1.559   4.933   6.880  1.5247  1.2273  0.5635
24288SOL    HW275885   1.408   4.946   6.877  1.3824 -0.4956 -0.5014
24289SOL     OW75886   9.139   2.186   7.371 -0.6662  0.3747 -0.2224
24289SOL    HW175887   9.168   2.095   7.363 -0.9193  0.3044 -0.3181
24289SOL    HW275888   9.217   2.238   7.348  0.1951  0.2030  2.0871
24290SOL     OW75889   9.250   0.832   8.405 -0.4749  0.7332  0.0092
24290SOL    HW175890   9.281   0.904   8.460 -1.5704  0.8505  0.4850
24290SOL    HW275891   9.158   0.820   8.431  0.0168 -1.6015  0.7738
24291SOL     OW75892   5.174   2.577   1.668  0.4607 -0.0854  0.8698
24291SOL    HW175893   5.229   2.504   1.638  1.0001  0.4608  0.5010
24291SOL    HW275894   5.178   2.573   1.763 -1.7793 -2.2330  0.9351
24292SOL     OW75895   7.225   1.254   2.357  0.0029 -0.4369  0.4009
24292SOL    HW175896   7.236   1.290   2.269 -1.4093  0.3488  0.5456
24292SOL    HW275897   7.204   1.162   2.342 -1.4186 -0.0377 -0.1358
24293SOL     OW75898   5.776   6.723   3.296 -0.0818 -0.0673 -0.1261
24293SOL    HW175899   5.712   6.759   3.234  0.2376  0.3089 -0.2458
24293SOL    HW275900   5.756   6.766   3.379  0.1955  0.2660 -0.2306
24294SOL     OW75901   3.571   6.610   5.766  0.3118 -0.4617 -0.2208
24294SOL    HW175902   3.664   6.634   5.760  0.0617  0.8633  1.0474
24294SOL    HW275903   3.547   6.628   5.856 -0.9243 -1.8413 -0.2522
24295SOL     OW75904   0.074   7.093   4.343 -0.0377 -0.0434 -0.2034
24295SOL    HW175905   0.065   7.006   4.305  1.4232  0.0276 -0.7446
24295SOL    HW275906   0.152   7.088   4.397  1.0154  1.3706 -1.5478
24296SOL     OW75907   0.514   4.404   6.299 -0.4936 -0.3616 -0.1958
24296SOL    HW175908   0.483   4.394   6.389 -0.6437  0.1797 -0.1887
24296SOL    HW275909   0.563   4.323   6.282  2.5842  1.0312  1.5923
24297SOL     OW75910   7.150   1.137   2.766  0.5607 -0.4550 -0.0639
24297SOL    HW175911   7.227   1.093   2.804 -0.5600 -0.4240  2.3765
24297SOL    HW275912   7.087   1.066   2.753  0.1498 -0.1484  0.2366
24298SOL     OW75913   2.514   5.961   5.455  0.4757  0.3853 -0.3054
24298SOL    HW175914   2.485   5.889   5.511  0.3651  0.6246 -0.0529
24298SOL    HW275915   2.608   5.949   5.447  0.2057 -0.9845 -1.9499
24299SOL     OW75916   6.985   2.659   4.390  0.1635 -0.2804 -0.1196
24299SOL    HW175917   6.968   2.589   4.326 -0.5321 -1.4596  1.3291
24299SOL    HW275918   7.068   2.635   4.430  1.6897  1.6143 -2.0731
24300SOL     OW75919   2.743   6.480   3.863 -0.1383  0.0571 -0.2289
24300SOL    HW175920   2.792   6.555   3.897  2.7841 -1.6256 -0.5331
24300SOL    HW275921   2.751   6.489   3.768 -0.0817 -0.4647 -0.2706
24301SOL     OW75922   7.573   7.974   2.072 -0.4188 -0.0429  0.1928
24301SOL    HW175923   7.658   8.014   2.093 -0.0100 -1.5368  1.4433
24301SOL    HW275924   7.524   7.977   2.155 -1.3095  0.1007 -0.3322
24302SOL     OW75925   6.299   7.563   4.296 -0.0312 -0.0142  0.1471
24302SOL    HW175926   6.384   7.606   4.285  0.5364 -1.6010 -1.9144
24302SOL    HW275927   6.253   7.618   4.360  1.5559  2.3194 -0.6396
24303SOL     OW75928   3.110   8.136   8.581 -0.3543  0.0668  0.1419
24303SOL    HW175929   3.136   8.128   8.490  2.2795  3.4714  0.4833
24303SOL    HW275930   3.053   8.212   8.584  0.6795  0.8212  1.5062
24304SOL     OW75931   2.982   6.100   7.398 -0.5374  0.2500 -0.5386
24304SOL    HW175932   3.048   6.159   7.434 -1.5532  0.5098  0.9265
24304SOL    HW275933   2.899   6.131   7.434 -1.0119 -2.6201  0.9964
24305SOL     OW75934   3.553   5.234   7.909  0.6224  0.3553 -0.4600
24305SOL    HW175935   3.564   5.290   7.832  1.4329  0.8324 -0.0031
24305SOL    HW275936   3.599   5.280   7.979 -2.2572  1.1963  0.9502
24306SOL     OW75937   8.018   4.647   3.688 -0.3102  0.4160 -0.6162
24306SOL    HW175938   8.010   4.742   3.693 -0.0550  0.4446 -0.7266
24306SOL    HW275939   7.943   4.614   3.737  0.7788  0.6774  1.2592
24307SOL     OW75940   1.708   6.440   8.426  0.2111 -0.2900 -0.2500
24307SOL    HW175941   1.754   6.357   8.429  0.2951 -0.2005  0.8370
24307SOL    HW275942   1.633   6.429   8.485 -1.5121 -0.6321 -2.4179
24308SOL     OW75943   6.949   0.657   5.992  0.4636 -0.0024  0.0925
24308SOL    HW175944   6.900   0.662   6.074 -0.6398 -1.6563 -0.4259
24308SOL    HW275945   6.884   0.631   5.927  1.4230  0.8176 -1.2231
24309SOL     OW75946   7.445   2.076   1.564 -0.6572 -0.1646 -0.6906
24309SOL    HW175947   7.445   2.002   1.624  0.5036 -0.4150 -0.9886
24309SOL    HW275948   7.426   2.038   1.479  0.7155 -0.2448 -0.9736
24310SOL     OW75949   2.986   9.329   0.203  0.1865  0.4143 -0.2461
24310SOL    HW175950   3.028   9.282   0.132  0.4026 -0.1286  0.2359
24310SOL    HW275951   2.965   9.415   0.166  1.3051  0.5328 -0.6241
24311SOL     OW75952   8.684   3.267   5.939 -0.0013 -0.2000  0.1631
24311SOL    HW175953   8.751   3.328   5.969 -1.5863  0.5484  2.3055
24311SOL    HW275954   8.611   3.280   5.999 -1.9591 -1.2323 -1.9068
24312SOL     OW75955   3.512   8.317   2.232 -0.1131  0.4089  0.3791
24312SOL    HW175956   3.425   8.290   2.201 -1.2104  2.0138  1.9774
24312SOL    HW275957   3.525   8.267   2.312  0.1819  0.6459  0.4741
24313SOL     OW75958   5.466   3.473   6.246  0.0440 -0.2447 -0.1975
24313SOL    HW175959   5.425   3.391   6.221 -0.8859 -0.0370  0.6261
24313SOL    HW275960   5.560   3.454   6.243 -0.1562 -1.2915 -0.1503
24314SOL     OW75961   8.875   0.548   4.191  0.1735 -0.4010 -0.1438
24314SOL    HW175962   8.806   0.594   4.142 -0.8574  0.0640  1.6989
24314SOL    HW275963   8.853   0.563   4.283  0.9061 -2.9709  0.4919
24315SOL     OW75964   6.942   7.186   2.964 -0.1309 -0.1829  0.2951
24315SOL    HW175965   6.906   7.098   2.974 -1.0090 -0.1062 -1.7853
24315SOL    HW275966   6.990   7.182   2.881  0.6151  1.0426  0.6580
24316SOL     OW75967   5.948   6.697   2.622  0.4253 -0.7844 -0.1880
24316SOL    HW175968   5.906   6.666   2.542  0.0866 -0.6860 -0.0480
24316SOL    HW275969   5.880   6.746   2.668  0.8240 -0.2169 -0.1894
24317SOL     OW75970   7.822   7.951   0.288  0.0078  0.4029  0.1700
24317SOL    HW175971   7.758   7.902   0.236  0.8620  0.1937 -0.7226
24317SOL    HW275972   7.779   8.033   0.308 -0.4446  0.3776 -0.6564
24318SOL     OW75973   9.330   6.337   4.188  0.0390 -0.1748 -0.0838
24318SOL    HW175974   9.249   6.286   4.197  0.2751 -0.2670  1.5259
24318SOL    HW275975   9.395   6.273   4.161 -0.1931 -0.2828 -0.3961
24319SOL     OW75976   9.407   0.926   6.184  0.1111 -0.0312 -0.7962
24319SOL    HW175977   9.454   0.852   6.221  1.3900  1.7280  1.1791
24319SOL    HW275978   9.331   0.939   6.241  0.1006  0.4254 -0.9077
24320SOL     OW75979   9.107   4.553   3.768  0.4190 -0.3670 -0.1840
24320SOL    HW175980   9.068   4.563   3.681  1.7713 -1.4722 -0.9399
24320SOL    HW275981   9.032   4.540   3.826 -0.3832 -2.1308 -1.5561
24321SOL     OW75982   6.332   3.731   1.580 -0.0960  0.0434 -0.4342
24321SOL    HW175983   6.412   3.729   1.528 -0.3220  0.3880 -0.7955
24321SOL    HW275984   6.362   3.746   1.669  0.2682 -0.2308 -0.5069
24322SOL     OW75985   2.615   7.066   6.782  1.1662 -0.3460  0.3207
24322SOL    HW175986   2.596   6.972   6.780  0.4482 -0.1769 -2.0872
24322SOL    HW275987   2.688   7.074   6.843  1.5466 -2.5345  0.1968
24323SOL     OW75988   5.913   6.014   3.530  0.2234 -0.1921  0.6362
24323SOL    HW175989   5.877   6.075   3.466  0.1432 -2.0321 -1.1330
24323SOL    HW275990   5.994   6.054   3.559  0.1680  0.7685 -0.4995
24324SOL     OW75991   8.266   4.833   0.398 -0.3449  0.6372  0.1411
24324SOL    HW175992   8.206   4.845   0.472 -0.5012  2.4689 -0.2568
24324SOL    HW275993   8.346   4.799   0.438 -0.7328  0.7495  1.0264
24325SOL     OW75994   3.895   1.645   7.376  0.2390  0.0348 -0.3437
24325SOL    HW175995   3.879   1.593   7.455 -1.1155  0.2190 -0.4844
24325SOL    HW275996   3.879   1.584   7.304  1.0579 -0.0157 -0.4869
24326SOL     OW75997   9.287   2.171   2.181  0.0259  0.5922 -0.1560
24326SOL    HW175998   9.193   2.151   2.185  0.0836 -0.1252 -1.9089
24326SOL    HW275999   9.293   2.248   2.124  0.5777 -0.0057 -0.9161
24327SOL     OW76000   5.415   2.395   8.398 -0.3605 -1.1941  0.6648
24327SOL    HW176001   5.321   2.389   8.377 -0.5908  1.0243  0.9454
24327SOL    HW276002   5.456   2.422   8.316 -0.0840 -1.2276  0.7892
24328SOL     OW76003   8.606   3.292   8.426 -0.3204  0.7439 -0.4978
24328SOL    HW176004   8.624   3.336   8.509  0.5980  2.4290 -1.5822
24328SOL    HW276005   8.579   3.203   8.452  0.6649  1.0140  1.5567
24329SOL     OW76006   1.952   5.886   5.003 -0.0963 -0.0146 -0.1736
24329SOL    HW176007   2.001   5.909   4.925 -0.7425 -0.9410 -0.8549
24329SOL    HW276008   1.920   5.970   5.037 -1.0730  0.2686 -1.7474
24330SOL     OW76009   4.044   2.045   9.036  0.0798 -0.5372  0.4484
24330SOL    HW176010   4.139   2.057   9.034  0.0879 -0.6634  0.1602
24330SOL    HW276011   4.026   1.981   8.967 -0.5165  1.5468 -1.3778
24331SOL     OW76012   8.939   0.416   0.396 -0.7022 -0.1511 -0.2183
24331SOL    HW176013   8.987   0.360   0.457 -0.6068 -0.3644 -0.4862
24331SOL    HW276014   8.853   0.376   0.389 -0.7394 -0.0802 -0.1615
24332SOL     OW76015   4.905   5.247   0.720 -0.6946 -0.3796  0.5324
24332SOL    HW176016   4.933   5.238   0.628 -0.3842 -2.8226  0.8367
24332SOL    HW276017   4.812   5.266   0.715 -0.4083  0.8654 -0.3189
24333SOL     OW76018   1.336   8.501   0.758 -0.5266  0.1385  0.2843
24333SOL    HW176019   1.249   8.526   0.790 -0.8359  2.8243 -2.4288
24333SOL    HW276020   1.393   8.509   0.834 -1.9660  2.2062  1.1951
24334SOL     OW76021   9.282   6.469   6.161 -0.1946 -0.3724  0.2002
24334SOL    HW176022   9.288   6.452   6.067  0.4163  2.1677 -0.2512
24334SOL    HW276023   9.267   6.563   6.168  1.0298 -0.3174  2.6814
24335SOL     OW76024   1.040   8.691   9.422  0.3654 -0.4316  0.6165
24335SOL    HW176025   0.982   8.655   9.489 -0.5959 -0.4237 -0.2024
24335SOL    HW276026   1.123   8.644   9.434 -0.8157 -2.8607 -0.3480
24336SOL     OW76027   4.728   4.798   7.193  0.0073  0.1431 -0.3826
24336SOL    HW176028   4.748   4.749   7.113 -1.8189  0.0001 -0.7600
24336SOL    HW276029   4.659   4.749   7.236  1.4890 -0.1860  1.7085
24337SOL     OW76030   8.552   8.238   2.361  0.4783 -0.1688  0.3392
24337SOL    HW176031   8.634   8.198   2.334 -0.2995 -0.6012 -1.4834
24337SOL    HW276032   8.509   8.170   2.414  0.4605 -0.6688 -0.3052
24338SOL     OW76033   7.566   2.516   0.821  0.3522  0.1885  0.0615
24338SOL    HW176034   7.537   2.452   0.755  0.6415  1.8185 -1.7054
24338SOL    HW276035   7.635   2.565   0.777  1.3830  0.5448  2.0298
24339SOL     OW76036   3.718   0.349   6.715 -0.2246 -0.2949  0.0154
24339SOL    HW176037   3.636   0.374   6.759 -0.7761 -0.4263 -0.9133
24339SOL    HW276038   3.689   0.305   6.636  0.7519  2.2016 -1.7825
24340SOL     OW76039   7.452   5.366   3.684  0.3905 -0.4065 -0.5711
24340SOL    HW176040   7.406   5.406   3.759  0.1583 -1.9573  0.1222
24340SOL    HW276041   7.429   5.422   3.610 -2.1685 -0.8095 -0.1283
24341SOL     OW76042   7.569   5.271   4.765 -0.1804  0.1717 -0.0651
24341SOL    HW176043   7.564   5.286   4.671 -0.9854 -2.5389 -0.5122
24341SOL    HW276044   7.482   5.293   4.798 -0.0976  0.4979 -0.0659
24342SOL     OW76045   1.856   8.209   3.267  0.2973  0.4031 -0.4879
24342SOL    HW176046   1.884   8.296   3.236  1.1257  0.6060  0.7828
24342SOL    HW276047   1.938   8.159   3.270  0.1292  0.2090  0.7838
24343SOL     OW76048   5.123   4.820   2.750  0.2608 -0.1259 -0.3050
24343SOL    HW176049   5.084   4.839   2.664 -1.6043 -0.8896  0.3630
24343SOL    HW276050   5.101   4.895   2.804 -1.0715 -0.9522  0.3246
24344SOL     OW76051   7.541   7.096   5.929  0.0232  0.6907  0.2158
24344SOL    HW176052   7.576   7.069   5.844 -0.2454  1.5974 -0.1851
24344SOL    HW276053   7.573   7.030   5.990  0.2930  0.0852 -0.5772
24345SOL     OW76054   4.819   6.893   2.812 -0.3343  0.2637  0.6492
24345SOL    HW176055   4.872   6.923   2.739 -1.5151  2.6111  0.7118
24345SOL    HW276056   4.798   6.973   2.861  0.3940 -1.2468  3.5408
24346SOL     OW76057   4.788   2.727   0.125 -0.2812 -0.4268 -0.4267
24346SOL    HW176058   4.819   2.668   0.057 -0.2979 -0.4841 -0.3843
24346SOL    HW276059   4.694   2.711   0.131 -0.0385 -1.5267  0.6843
24347SOL     OW76060   2.141   7.103   1.062  0.0158  0.4167 -0.3980
24347SOL    HW176061   2.095   7.186   1.059 -1.2298 -0.2724 -0.6006
24347SOL    HW276062   2.234   7.127   1.058 -0.3061  1.8163  0.1955
24348SOL     OW76063   7.692   5.636   1.906 -0.0863  0.1498 -0.0177
24348SOL    HW176064   7.670   5.668   1.993  0.8272  0.0997  0.2345
24348SOL    HW276065   7.748   5.704   1.869  0.5800 -0.4206 -0.0735
24349SOL     OW76066   8.044   8.163   2.733 -0.7732  0.9559 -0.0273
24349SOL    HW176067   7.989   8.175   2.810 -0.3153 -0.7524  0.5869
24349SOL    HW276068   7.995   8.104   2.677  1.4696 -2.7958  1.7154
24350SOL     OW76069   2.279   1.727   8.996 -0.6237 -0.2182  0.0744
24350SOL    HW176070   2.345   1.795   9.008  0.1746 -0.8809 -0.5269
24350SOL    HW276071   2.225   1.758   8.924 -0.5912  0.0252  0.1522
24351SOL     OW76072   8.162   3.767   2.564  0.4672 -0.0838  0.1187
24351SOL    HW176073   8.128   3.677   2.563 -0.5179  0.2974 -0.8666
24351SOL    HW276074   8.114   3.810   2.634 -0.0456  0.0535 -0.3169
24352SOL     OW76075   0.481   3.872   3.285 -0.6840 -0.0363 -0.3050
24352SOL    HW176076   0.516   3.783   3.285  0.0964  0.2537  1.1719
24352SOL    HW276077   0.473   3.895   3.193  0.0963 -1.2566 -0.6843
24353SOL     OW76078   5.825   8.694   2.334  0.3734 -0.4354  0.0624
24353SOL    HW176079   5.761   8.736   2.277 -1.0103  0.0963  1.9270
24353SOL    HW276080   5.900   8.753   2.335 -1.2820  1.7735  2.1299
24354SOL     OW76081   0.996   7.600   4.923 -0.3353  0.0408  0.2817
24354SOL    HW176082   1.023   7.685   4.956  1.1530  0.4336 -1.8913
24354SOL    HW276083   1.075   7.546   4.926 -0.9343 -0.8552  0.3406
24355SOL     OW76084   6.205   0.561   3.493  0.3681 -0.3845  0.2721
24355SOL    HW176085   6.171   0.577   3.404 -0.6176  2.0671  1.0436
24355SOL    HW276086   6.280   0.620   3.501 -0.2915  0.3043  1.4816
24356SOL     OW76087   6.519   1.137   9.035 -0.1431  0.2597  0.1978
24356SOL    HW176088   6.446   1.076   9.038 -2.0090  2.3681 -0.6736
24356SOL    HW276089   6.478   1.222   9.019  2.3278  1.8189  1.8203
24357SOL     OW76090   8.657   2.820   8.462  0.6052  0.7077 -0.0332
24357SOL    HW176091   8.664   2.873   8.382 -1.2287  1.2077  0.0984
24357SOL    HW276092   8.638   2.884   8.531  0.7842  0.1274  0.5542
24358SOL     OW76093   2.534   6.452   4.736  0.2749  0.4165  0.2512
24358SOL    HW176094   2.540   6.440   4.641  1.5359  0.0262  0.3598
24358SOL    HW276095   2.469   6.521   4.748 -0.6289 -0.2263 -0.8437
24359SOL     OW76096   5.984   4.485   4.953 -0.1198 -0.2222  0.1085
24359SOL    HW176097   5.987   4.440   5.038 -0.7778 -0.4853 -0.0032
24359SOL    HW276098   5.964   4.576   4.975  1.6892  0.1333  0.3703
24360SOL     OW76099   3.816   1.451   3.476 -0.7633  0.5307 -0.2689
24360SOL    HW176100   3.907   1.425   3.491 -0.6278  0.7003 -0.7621
24360SOL    HW276101   3.822   1.514   3.404 -1.3506 -0.0058 -0.7912
24361SOL     OW76102   2.749   0.286   1.450  0.1351  0.3757 -0.2299
24361SOL    HW176103   2.814   0.252   1.388 -0.3519 -1.9003  0.4731
24361SOL    HW276104   2.670   0.300   1.398  0.0685 -0.4516 -0.3578
24362SOL     OW76105   4.450   3.059   2.662 -0.0613 -0.1045  0.0995
24362SOL    HW176106   4.363   3.028   2.686 -0.0424 -0.2199  0.0214
24362SOL    HW276107   4.469   3.129   2.725 -0.2075 -0.0832  0.1200
24363SOL     OW76108   9.376   6.784   1.346  0.4447 -0.2271 -0.4439
24363SOL    HW176109   9.420   6.859   1.306  0.3850 -0.3321 -0.7172
24363SOL    HW276110   9.394   6.791   1.439  2.1313 -0.9639 -0.6922
24364SOL     OW76111   7.270   1.583   1.617 -0.3782  0.0520 -0.4241
24364SOL    HW176112   7.283   1.504   1.668 -0.9975 -0.4754 -1.0608
24364SOL    HW276113   7.189   1.567   1.568 -0.9972  1.4318  0.1076
24365SOL     OW76114   8.005   2.838   2.581  0.5799  0.6205  0.2564
24365SOL    HW176115   8.021   2.804   2.493 -0.1391 -0.6470  0.5911
24365SOL    HW276116   8.067   2.789   2.636 -0.2816  0.0230  0.7079
24366SOL     OW76117   8.073   1.137   7.205  0.2509  0.0152 -0.0255
24366SOL    HW176118   8.081   1.184   7.288  3.3289  2.6632 -1.7076
24366SOL    HW276119   8.029   1.199   7.146  0.6382 -0.7766 -1.1642
24367SOL     OW76120   6.283   2.278   8.167  0.1240 -0.7627  0.4316
24367SOL    HW176121   6.248   2.365   8.188  1.0078 -1.1192  3.5671
24367SOL    HW276122   6.370   2.296   8.131  0.3789 -0.3412  1.2400
24368SOL     OW76123   4.568   4.198   3.714  0.3377  0.9538 -0.1939
24368SOL    HW176124   4.581   4.292   3.702  0.3919  0.8313 -1.1325
24368SOL    HW276125   4.654   4.166   3.741  0.2503  1.2164  0.4029
24369SOL     OW76126   2.803   3.957   2.084  0.9737  0.0560  0.8685
24369SOL    HW176127   2.726   3.972   2.140  1.2527 -3.0132  2.1981
24369SOL    HW276128   2.781   4.000   2.001 -1.7445  0.1395  1.5835
24370SOL     OW76129   0.164   3.398   1.338  0.0442  0.6457  0.8514
24370SOL    HW176130   0.183   3.371   1.427  0.5629 -0.8030  0.3227
24370SOL    HW276131   0.204   3.330   1.283  1.4170  2.4835 -0.5397
24371SOL     OW76132   0.520   0.757   5.505 -0.0600 -0.0445  0.8494
24371SOL    HW176133   0.577   0.796   5.438  0.1521 -1.0389  0.4449
24371SOL    HW276134   0.525   0.818   5.579  0.3068  0.6684  0.2456
24372SOL     OW76135   4.618   1.449   7.366 -0.4914  0.2060  0.1910
24372SOL    HW176136   4.598   1.533   7.407 -1.4044  0.3886 -0.5987
24372SOL    HW276137   4.577   1.455   7.279  0.3546 -0.6363 -0.2778
24373SOL     OW76138   5.150   0.334   2.391  0.1306 -0.1141  0.3715
24373SOL    HW176139   5.090   0.323   2.465  0.2369  2.5535  0.9123
24373SOL    HW276140   5.094   0.366   2.320 -0.0653 -3.1643 -0.9077
24374SOL     OW76141   4.300   0.792   4.343  0.2316 -0.1769 -0.4123
24374SOL    HW176142   4.279   0.742   4.264  0.8296 -0.4658 -0.3869
24374SOL    HW276143   4.260   0.878   4.328 -0.2531 -0.4556 -0.7291
24375SOL     OW76144   7.302   6.057   9.240  0.0879  0.2485 -0.0119
24375SOL    HW176145   7.245   6.003   9.294  0.9427  2.3449  3.1552
24375SOL    HW276146   7.242   6.111   9.187 -0.7980 -0.3300  0.3964
24376SOL     OW76147   1.274   2.092   5.611  0.3147 -0.0259 -0.0063
24376SOL    HW176148   1.369   2.095   5.600  0.2249  1.8707 -0.3666
24376SOL    HW276149   1.243   2.038   5.538  1.1159 -0.7936  0.2102
24377SOL     OW76150   8.674   0.634   3.980  0.1607  0.1723  0.0809
24377SOL    HW176151   8.586   0.672   3.978  1.0826  2.5796  1.6823
24377SOL    HW276152   8.720   0.678   3.909 -0.2861 -2.1301 -1.6751
24378SOL     OW76153   2.541   1.557   8.835 -0.4972 -0.0588  0.0113
24378SOL    HW176154   2.597   1.635   8.835  1.0066 -1.0901  2.3307
24378SOL    HW276155   2.456   1.590   8.805  0.2857  2.3586  0.2793
24379SOL     OW76156   5.861   0.089   5.124  1.1491  0.4424 -0.2862
24379SOL    HW176157   5.824   0.111   5.038 -1.5839  0.9015  0.9307
24379SOL    HW276158   5.843  -0.005   5.134  0.3331  0.6495  0.2726
24380SOL     OW76159   0.949   8.154   4.148  0.0883 -0.1696  0.4203
24380SOL    HW176160   1.035   8.167   4.188  0.0404 -1.3999  0.9315
24380SOL    HW276161   0.915   8.075   4.188 -0.4728 -0.7615 -1.1784
24381SOL     OW76162   1.962   5.091   6.739  0.0560 -0.5887 -0.3481
24381SOL    HW176163   1.895   5.030   6.706 -0.1652 -1.2173  1.2088
24381SOL    HW276164   2.045   5.046   6.725 -0.0428 -0.8829  0.0001
24382SOL     OW76165   4.793   7.955   9.415 -0.2587 -0.4353 -0.1976
24382SOL    HW176166   4.781   7.876   9.468 -0.4060  0.0722  0.5391
24382SOL    HW276167   4.878   7.943   9.373 -0.4080 -1.1138 -0.3193
24383SOL     OW76168   6.245   6.768   5.683 -0.0811  0.0273 -0.1158
24383SOL    HW176169   6.264   6.715   5.760  1.3003 -1.5970 -1.5359
24383SOL    HW276170   6.326   6.816   5.667 -0.6596  1.0417 -0.0426
24384SOL     OW76171   8.450   7.454   7.981  0.2769  0.3043 -0.1957
24384SOL    HW176172   8.388   7.455   7.908 -1.9878  0.0601  1.6439
24384SOL    HW276173   8.535   7.469   7.941 -0.9117  0.1759 -2.8742
24385SOL     OW76174   4.507   3.037   3.443 -0.1282  0.3139  0.3742
24385SOL    HW176175   4.504   2.997   3.531 -0.2561  0.3248  0.3752
24385SOL    HW276176   4.446   3.111   3.449 -0.1205  0.3269  0.2827
24386SOL     OW76177   6.174   3.666   4.600  0.3561  0.0934  0.3876
24386SOL    HW176178   6.105   3.612   4.638  1.4532 -0.3375  1.7963
24386SOL    HW276179   6.210   3.613   4.529 -0.0579 -0.1024  0.3195
24387SOL     OW76180   4.584   3.027   9.340  0.2246 -0.0404 -0.2175
24387SOL    HW176181   4.618   3.017   9.428 -0.8083 -0.2128  0.1649
24387SOL    HW276182   4.537   2.946   9.322 -0.4264  0.3996 -0.5369
24388SOL     OW76183   1.873   2.418   4.714  0.0174 -0.7716  0.1698
24388SOL    HW176184   1.806   2.412   4.646 -0.4878  3.4910  0.1472
24388SOL    HW276185   1.951   2.451   4.668  0.0364  0.9710  1.4064
24389SOL     OW76186   6.353   8.566   1.982  0.3118  0.2518 -0.6810
24389SOL    HW176187   6.270   8.613   1.974 -0.2106 -0.4076  0.7234
24389SOL    HW276188   6.333   8.476   1.957  0.4506 -0.0504  0.2558
24390SOL     OW76189   3.503   1.044   2.338  0.1143  0.2170  0.0176
24390SOL    HW176190   3.487   1.077   2.427  0.4037 -0.2427  0.2456
24390SOL    HW276191   3.487   0.950   2.345 -1.8352  0.4586 -0.8908
24391SOL     OW76192   7.720   0.630   2.443 -0.1097  0.4593 -0.0770
24391SOL    HW176193   7.810   0.601   2.433  0.0021  0.6029  0.4998
24391SOL    HW276194   7.722   0.690   2.518 -0.6275  0.6882 -0.2428
24392SOL     OW76195   6.501   1.974   9.283 -0.1354  0.3007  0.0776
24392SOL    HW176196   6.434   1.983   9.215 -0.7832 -0.5157  0.5894
24392SOL    HW276197   6.582   1.955   9.236  0.1198  3.0646 -0.6629
24393SOL     OW76198   4.081   8.327   1.912  0.2610 -0.5092  0.1220
24393SOL    HW176199   4.129   8.310   1.993 -0.3745  1.8770  1.0299
24393SOL    HW276200   3.991   8.299   1.931  0.0729  0.2168  0.2987
24394SOL     OW76201   9.387   6.510   8.996  0.2127 -0.3093 -0.5435
24394SOL    HW176202   9.316   6.492   9.058  0.6239 -0.5489 -0.1416
24394SOL    HW276203   9.457   6.548   9.049  0.9361 -1.4101 -0.6804
24395SOL     OW76204   6.941   3.102   3.492  0.2120  0.0097 -0.0666
24395SOL    HW176205   6.858   3.058   3.474  0.0283  0.0884  0.5726
24395SOL    HW276206   6.976   3.056   3.568  0.5313  0.2789 -0.0518
24396SOL     OW76207   8.671   8.612   4.608 -0.2324  0.6407  0.0284
24396SOL    HW176208   8.615   8.685   4.583  1.8541  1.9765 -0.9233
24396SOL    HW276209   8.671   8.612   4.704 -0.6655  1.5469  0.0291
24397SOL     OW76210   1.479   2.867   2.501  0.2507 -0.7377 -0.4002
24397SOL    HW176211   1.400   2.813   2.492  0.4121 -0.9130 -0.7537
24397SOL    HW276212   1.534   2.842   2.427  1.6496 -2.2794  1.1342
24398SOL     OW76213   6.615   4.610   3.097  0.0850  0.2299 -0.0060
24398SOL    HW176214   6.662   4.539   3.141  0.9545  0.4573 -0.5614
24398SOL    HW276215   6.527   4.575   3.083  0.4370 -0.6436 -0.0570
24399SOL     OW76216   0.255   3.954   7.800  0.2615  0.4722 -0.8370
24399SOL    HW176217   0.238   3.885   7.736 -2.9630  2.5711 -2.3336
24399SOL    HW276218   0.168   3.980   7.832  1.6116  1.4721  2.2903
24400SOL     OW76219   7.272   4.874   1.701  0.0274  0.0667 -0.2207
24400SOL    HW176220   7.327   4.897   1.626  0.4052  1.1268  0.3628
24400SOL    HW276221   7.189   4.844   1.663 -0.4903  2.4576 -1.0374
24401SOL     OW76222   0.556   6.332   0.746  0.5310 -0.4080  0.0012
24401SOL    HW176223   0.569   6.240   0.769 -0.5499 -0.5284  0.1760
24401SOL    HW276224   0.464   6.350   0.770  0.5052  0.4968 -0.7532
24402SOL     OW76225   4.226   3.386   8.453  0.2807 -0.1519  0.4133
24402SOL    HW176226   4.167   3.417   8.384  0.9197  0.3503  0.0864
24402SOL    HW276227   4.193   3.299   8.475  0.6447 -0.7110 -1.1894
24403SOL     OW76228   1.577   2.442   2.553  0.0223  0.4891 -0.3196
24403SOL    HW176229   1.521   2.366   2.537  0.8379  0.0977 -1.4399
24403SOL    HW276230   1.549   2.475   2.638  1.6841 -2.9033  1.6483
24404SOL     OW76231   6.292   7.137   2.938  0.6318 -0.0243 -0.1153
24404SOL    HW176232   6.222   7.112   2.878  0.7153  0.9227 -0.6173
24404SOL    HW276233   6.346   7.058   2.945  0.3843 -0.2829 -0.9560
24405SOL     OW76234   9.073   7.644   5.828  0.4031 -0.2363 -0.1429
24405SOL    HW176235   9.059   7.737   5.812 -1.9655 -0.2184  1.7402
24405SOL    HW276236   9.150   7.641   5.886 -0.9292  0.7266  1.7210
24406SOL     OW76237   2.162   0.406   4.986 -0.0056 -0.4412 -0.0320
24406SOL    HW176238   2.216   0.416   5.064  0.2748  0.8958 -0.3775
24406SOL    HW276239   2.150   0.495   4.954 -0.7452 -0.9093 -1.0899
24407SOL     OW76240   0.982   4.589   3.106  0.6045  0.1858 -0.3666
24407SOL    HW176241   0.941   4.602   3.191  1.5672  0.5810  0.0504
24407SOL    HW276242   0.914   4.551   3.051  0.0017 -0.1461  0.6051
24408SOL     OW76243   5.691   0.284   2.597 -0.1288 -0.1334 -0.1542
24408SOL    HW176244   5.769   0.307   2.647 -0.1221  0.8628 -0.6113
24408SOL    HW276245   5.624   0.266   2.663  0.5916 -1.4142  0.2515
24409SOL     OW76246   3.494   0.722   7.798 -0.5901 -0.1722 -0.7114
24409SOL    HW176247   3.506   0.652   7.734  0.8049 -0.9756  0.3912
24409SOL    HW276248   3.402   0.715   7.824 -1.1013  0.0095 -2.4269
24410SOL     OW76249   7.562   5.080   0.971 -0.0461  0.2529  0.4643
24410SOL    HW176250   7.573   4.987   0.994  0.0283 -0.0178 -0.6529
24410SOL    HW276251   7.559   5.125   1.055  3.1948 -0.3820  0.9853
24411SOL     OW76252   3.884   1.807   6.133  0.0863 -0.1379  0.6624
24411SOL    HW176253   3.817   1.852   6.082  1.9064  1.8064 -0.0881
24411SOL    HW276254   3.896   1.723   6.089  0.1115  0.6486 -0.8691
24412SOL     OW76255   6.795   8.581   2.961 -0.4308  0.0041 -0.0455
24412SOL    HW176256   6.740   8.647   3.004 -1.2795  0.3534 -1.6238
24412SOL    HW276257   6.875   8.628   2.939 -0.6330  0.2539 -0.2638
24413SOL     OW76258   0.154   1.047   2.185 -0.3242 -0.3544  0.6003
24413SOL    HW176259   0.059   1.043   2.184 -0.3873  0.4173  2.3215
24413SOL    HW276260   0.175   1.130   2.227  1.1187 -0.4781  0.1747
24414SOL     OW76261   2.753   8.085   0.989  0.0877 -0.0582  0.1795
24414SOL    HW176262   2.768   8.090   1.083  2.7552  0.6587 -0.2508
24414SOL    HW276263   2.736   8.176   0.963  0.8658 -0.0324 -0.2531
24415SOL     OW76264   6.777   7.081   2.043  0.6062 -0.4447  0.0991
24415SOL    HW176265   6.719   7.062   2.117 -0.0376  0.1169 -0.2538
24415SOL    HW276266   6.853   7.123   2.082  0.2531 -0.1215  0.4400
24416SOL     OW76267   3.921   4.184   4.709 -0.1025  0.4011 -0.9276
24416SOL    HW176268   3.926   4.150   4.798 -1.2341  2.1484 -0.1761
24416SOL    HW276269   3.854   4.130   4.666 -0.6778  0.5767 -0.2524
24417SOL     OW76270   4.326   6.339   1.135 -0.4142  0.1334  0.2527
24417SOL    HW176271   4.361   6.418   1.176  1.3302  0.3175 -1.5211
24417SOL    HW276272   4.392   6.272   1.153  1.2101  0.5947 -3.5414
24418SOL     OW76273   2.880   2.709   5.501  0.4009  0.2536 -0.3138
24418SOL    HW176274   2.938   2.772   5.544 -1.5898  0.6554  1.9422
24418SOL    HW276275   2.802   2.760   5.480 -0.7277 -1.1397  0.3930
24419SOL     OW76276   7.613   3.601   2.115  0.2200  0.0174  0.3532
24419SOL    HW176277   7.518   3.612   2.112  0.3507  0.9424 -0.3373
24419SOL    HW276278   7.625   3.510   2.142 -0.8623 -0.1604  0.2575
24420SOL     OW76279   2.829   3.619   4.459  0.5336 -0.4821 -0.5562
24420SOL    HW176280   2.768   3.549   4.483  2.4297 -2.1147 -0.2954
24420SOL    HW276281   2.846   3.605   4.366 -1.7383  1.7997 -1.3574
24421SOL     OW76282   0.261   2.276   4.903 -0.7758 -0.2122 -0.2858
24421SOL    HW176283   0.292   2.365   4.886  3.8207 -1.8469 -1.2654
24421SOL    HW276284   0.273   2.265   4.998 -1.5947  0.2932 -0.1225
24422SOL     OW76285   1.594   3.382   5.463  0.1381 -0.2446 -0.2058
24422SOL    HW176286   1.504   3.378   5.431 -0.2250 -0.4789  0.8188
24422SOL    HW276287   1.613   3.292   5.491  0.3509  0.0035  0.4651
24423SOL     OW76288   0.702   1.944   7.341  0.0142 -0.2580  0.7544
24423SOL    HW176289   0.768   1.917   7.277  0.0622 -1.1210  1.1625
24423SOL    HW276290   0.636   1.991   7.290  0.0282 -0.9846  0.0639
24424SOL     OW76291   4.333   2.628   1.217  0.6158 -0.0599 -0.3952
24424SOL    HW176292   4.370   2.657   1.134  1.8109  0.7725  0.4191
24424SOL    HW276293   4.264   2.691   1.236 -0.7693 -1.1842 -1.5399
24425SOL     OW76294   7.517   5.196   7.963 -0.3704 -0.0059 -0.0074
24425SOL    HW176295   7.496   5.245   8.043 -0.6918 -1.0622  0.5738
24425SOL    HW276296   7.587   5.137   7.990 -0.0613  0.0644 -0.6692
24426SOL     OW76297   6.163   4.866   6.538  0.3570  0.1122 -0.5057
24426SOL    HW176298   6.112   4.830   6.610  2.2574  0.0794  0.8588
24426SOL    HW276299   6.130   4.956   6.528 -1.9385 -0.8234 -1.5754
24427SOL     OW76300   0.246   0.981   7.089 -0.7973 -0.2167 -0.5756
24427SOL    HW176301   0.195   0.907   7.122  0.5547 -1.0411 -0.3077
24427SOL    HW276302   0.254   0.964   6.995  0.3563 -0.9595 -0.3622
24428SOL     OW76303   5.861   1.004   6.015  0.0309  0.0245  0.6845
24428SOL    HW176304   5.811   0.973   6.091  1.0015  0.0930  1.3573
24428SOL    HW276305   5.939   1.045   6.053  0.6412 -0.1590 -0.3664
24429SOL     OW76306   2.116   8.823   3.730 -0.5540  0.4128 -0.3214
24429SOL    HW176307   2.050   8.888   3.751 -0.1432  1.0033 -0.8337
24429SOL    HW276308   2.079   8.740   3.759 -0.4439  1.0573  1.7487
24430SOL     OW76309   9.387   1.433   1.189 -0.0738  0.2337 -0.4452
24430SOL    HW176310   9.319   1.445   1.122  0.5295  0.1872 -1.0789
24430SOL    HW276311   9.466   1.468   1.148  0.2005  0.6609  0.4396
24431SOL     OW76312   0.478   0.384   7.586 -0.3316  0.2912  0.0325
24431SOL    HW176313   0.408   0.449   7.592  0.2342  1.0822 -1.6579
24431SOL    HW276314   0.452   0.315   7.647 -2.9731  0.2152 -1.1358
24432SOL     OW76315   8.290   7.658   7.422 -0.4378 -0.0594 -0.1993
24432SOL    HW176316   8.350   7.710   7.369  1.7456 -2.7521 -0.4353
24432SOL    HW276317   8.335   7.649   7.506 -0.2710 -2.4932 -0.5319
24433SOL     OW76318   6.858   5.040   2.105  0.6828  0.1388 -0.4707
24433SOL    HW176319   6.857   5.122   2.055  0.2899 -0.0594 -0.7947
24433SOL    HW276320   6.857   4.971   2.038 -0.7313 -0.1273 -0.1921
24434SOL     OW76321   2.172   1.832   8.735 -0.4038 -0.0561 -0.1713
24434SOL    HW176322   2.100   1.829   8.672  0.2669  0.6453 -0.9811
24434SOL    HW276323   2.228   1.758   8.712  0.1771  0.5716 -0.8266
24435SOL     OW76324   4.698   6.394   2.314  0.3622 -0.2187  0.4805
24435SOL    HW176325   4.741   6.423   2.394 -0.3244  0.1621  0.7159
24435SOL    HW276326   4.769   6.381   2.251  0.8962 -0.4505  1.1276
24436SOL     OW76327   6.977   0.484   6.692  0.4044 -0.0129 -0.2401
24436SOL    HW176328   6.896   0.525   6.722  1.4444  1.2368  0.9493
24436SOL    HW276329   6.948   0.413   6.636 -1.5025  0.9192 -0.4969
24437SOL     OW76330   3.370   4.080   3.467 -0.3578  0.4028  0.8243
24437SOL    HW176331   3.316   4.001   3.478  0.3704 -0.5212 -1.8590
24437SOL    HW276332   3.438   4.071   3.534 -1.9663  0.2762  2.5078
24438SOL     OW76333   2.540   0.395   8.001 -0.0173 -0.5115  0.8595
24438SOL    HW176334   2.533   0.413   8.095 -2.0553 -0.8791  0.7927
24438SOL    HW276335   2.629   0.422   7.979 -0.4543  2.2572  2.3058
24439SOL     OW76336   8.026   8.571   4.581  0.3231 -0.4113  0.6423
24439SOL    HW176337   8.001   8.481   4.561 -0.7195 -0.0526  0.2945
24439SOL    HW276338   8.083   8.596   4.509 -0.1730 -0.4729  0.2233
24440SOL     OW76339   3.705   8.111   0.860 -0.3700  0.0790  0.0060
24440SOL    HW176340   3.768   8.182   0.873  1.1674 -0.8929 -1.8028
24440SOL    HW276341   3.757   8.040   0.823 -2.1336 -1.5448  0.5519
24441SOL     OW76342   8.793   3.299   1.530  0.2868  0.0529  0.2200
24441SOL    HW176343   8.822   3.211   1.553  1.0579  0.4549  0.8267
24441SOL    HW276344   8.826   3.354   1.601  0.2599  0.9025 -0.4148
24442SOL     OW76345   3.267   0.391   4.113 -0.2768 -0.5243  0.2710
24442SOL    HW176346   3.231   0.403   4.025 -2.4328 -1.2615  1.0241
24442SOL    HW276347   3.240   0.470   4.160 -0.4189 -0.8180  0.6839
24443SOL     OW76348   3.658   6.269   0.127  0.2222  0.4416  0.1193
24443SOL    HW176349   3.654   6.284   0.222 -0.9387  2.0306 -0.1653
24443SOL    HW276350   3.568   6.284   0.097  0.8950  1.3512 -1.4492
24444SOL     OW76351   0.475   2.667   6.336 -0.0165 -0.2395  0.0668
24444SOL    HW176352   0.415   2.660   6.410 -0.8977  1.5424 -0.4508
24444SOL    HW276353   0.481   2.578   6.301  0.0755 -1.0136  2.0015
24445SOL     OW76354   4.564   1.144   5.535  0.3286  0.8676  0.4358
24445SOL    HW176355   4.507   1.067   5.537  0.9065  0.4530  1.4817
24445SOL    HW276356   4.505   1.218   5.541 -0.1078  0.4385  1.4941
24446SOL     OW76357   8.112   7.591   3.695  0.0842 -0.1454 -0.3420
24446SOL    HW176358   8.206   7.591   3.673 -0.0152  0.4936 -0.7797
24446SOL    HW276359   8.096   7.503   3.730  1.3898  0.5223  2.0707
24447SOL     OW76360   7.952   0.820   9.226 -0.4941 -0.2981 -0.4884
24447SOL    HW176361   8.043   0.795   9.208 -1.0960 -1.4674 -2.0684
24447SOL    HW276362   7.954   0.854   9.315  1.8796  1.6571 -1.2253
24448SOL     OW76363   6.674   4.569   6.203  0.0916  0.0488 -0.4953
24448SOL    HW176364   6.644   4.530   6.285 -0.0132 -2.3292 -1.6348
24448SOL    HW276365   6.593   4.600   6.160  0.0776  0.6570 -0.0388
24449SOL     OW76366   5.875   2.651   8.601 -0.3289 -0.0560 -0.0179
24449SOL    HW176367   5.821   2.574   8.617  0.1114 -0.4518 -0.4388
24449SOL    HW276368   5.959   2.631   8.644 -1.1477  1.3505  2.3304
24450SOL     OW76369   1.170   1.342   7.418 -0.5829  0.3715 -0.1429
24450SOL    HW176370   1.205   1.275   7.359 -0.5580  1.7005 -1.6783
24450SOL    HW276371   1.201   1.424   7.381  0.1125  1.1995  2.2035
24451SOL     OW76372   1.877   2.649   2.267 -0.0197 -0.2670 -0.4302
24451SOL    HW176373   1.942   2.607   2.324  0.2627 -0.3047 -0.7803
24451SOL    HW276374   1.867   2.737   2.303  1.3414  0.2490 -1.2720
24452SOL     OW76375   5.133   9.002   3.296  0.2733 -0.6887 -0.3268
24452SOL    HW176376   5.062   9.015   3.359 -0.1946 -2.5295 -0.4283
24452SOL    HW276377   5.204   9.056   3.328 -1.0908  0.9853 -0.0605
24453SOL     OW76378   7.859   2.195   6.415 -0.0110 -0.1039  0.0790
24453SOL    HW176379   7.876   2.108   6.452  1.7870 -0.0502 -0.5858
24453SOL    HW276380   7.818   2.177   6.331  2.0704 -0.3748 -0.9075
24454SOL     OW76381   8.670   9.342   5.764 -0.0204  0.2728  0.1485
24454SOL    HW176382   8.609   9.347   5.690  0.8309 -0.4245 -0.6009
24454SOL    HW276383   8.729   9.416   5.752 -0.0509  0.3182  0.2803
24455SOL     OW76384   8.847   5.421   8.765  0.1133 -0.0449  0.1689
24455SOL    HW176385   8.866   5.514   8.752  0.1295 -0.0758 -0.0188
24455SOL    HW276386   8.756   5.420   8.794 -1.1671 -0.2688 -3.6391
24456SOL     OW76387   3.426   6.547   4.974 -0.0913  0.2598 -0.1322
24456SOL    HW176388   3.517   6.534   5.000 -0.1786  0.5329  0.3144
24456SOL    HW276389   3.411   6.641   4.983 -0.6072  0.1261  0.4273
24457SOL     OW76390   6.363   0.411   6.763 -0.6044  0.3179 -0.6169
24457SOL    HW176391   6.276   0.451   6.763 -1.2747 -1.1185  0.0861
24457SOL    HW276392   6.387   0.404   6.856  0.8058  1.8596 -0.8486
24458SOL     OW76393   4.324   6.592   1.692 -0.0750 -0.4233 -0.4041
24458SOL    HW176394   4.337   6.547   1.775  0.2650 -0.9048 -0.7212
24458SOL    HW276395   4.331   6.685   1.714 -0.4780 -0.5302  0.1926
24459SOL     OW76396   8.448   3.501   0.505 -0.0626  0.1683  0.0112
24459SOL    HW176397   8.517   3.549   0.551  0.2414 -0.2414 -0.0123
24459SOL    HW276398   8.378   3.565   0.494 -0.0154  0.3616  0.7664
24460SOL     OW76399   6.755   4.335   2.221 -0.2874  0.8584  0.4025
24460SOL    HW176400   6.672   4.372   2.191 -0.2269  0.3674 -0.3716
24460SOL    HW276401   6.730   4.273   2.289 -0.5913  0.4020 -0.1192
24461SOL     OW76402   7.679   3.515   1.588  0.0277  0.2883  0.1437
24461SOL    HW176403   7.650   3.425   1.579 -0.1389  0.2360  1.1510
24461SOL    HW276404   7.768   3.509   1.623  0.4048  0.4972 -0.7589
24462SOL     OW76405   6.579   1.734   6.540 -0.1688  0.0521 -0.1273
24462SOL    HW176406   6.556   1.824   6.562 -0.9594 -0.1184 -0.2109
24462SOL    HW276407   6.543   1.721   6.452 -1.4385 -0.8201  0.4996
24463SOL     OW76408   5.571   3.280   3.242  0.0548  0.5755 -0.2188
24463SOL    HW176409   5.488   3.324   3.260  0.2003  1.1914 -1.0102
24463SOL    HW276410   5.546   3.191   3.215 -0.5487  1.6296 -3.3387
24464SOL     OW76411   4.257   2.151   7.034  0.8638 -0.3716  0.0134
24464SOL    HW176412   4.188   2.118   7.091  1.1419 -1.9104 -0.5196
24464SOL    HW276413   4.228   2.129   6.945 -0.6315  3.9450 -0.7003
24465SOL     OW76414   7.860   5.751   1.602 -0.4218  0.1089  0.1802
24465SOL    HW176415   7.837   5.812   1.672  0.6501  0.5725  0.1394
24465SOL    HW276416   7.956   5.747   1.604 -0.5203 -2.4019  0.8803
24466SOL     OW76417   1.806   4.786   6.878 -0.2500 -0.5816  0.0471
24466SOL    HW176418   1.718   4.750   6.864 -0.3659 -0.5503  0.6932
24466SOL    HW276419   1.824   4.772   6.971 -0.1284  0.6410  0.2235
24467SOL     OW76420   7.914   0.662   2.755 -0.0945  0.2857 -0.8100
24467SOL    HW176421   7.981   0.647   2.687  0.6268  0.2291 -0.0900
24467SOL    HW276422   7.874   0.576   2.768 -0.5259  0.3814 -1.4613
24468SOL     OW76423   9.437   3.683   4.505  0.7299  0.0507 -0.0676
24468SOL    HW176424   9.378   3.705   4.433 -0.6746 -0.6793  0.8205
24468SOL    HW276425   9.437   3.587   4.506  1.8740  0.0525 -0.0078
24469SOL     OW76426   7.748   6.147   1.277 -0.2842 -0.2526  0.8299
24469SOL    HW176427   7.702   6.180   1.200  2.2473 -0.4174 -0.8230
24469SOL    HW276428   7.707   6.063   1.295 -1.1794 -0.0218 -0.1044
24470SOL     OW76429   4.295   7.780   6.450 -0.2186  0.4677  0.1590
24470SOL    HW176430   4.334   7.847   6.506  1.3186 -0.3039  0.0253
24470SOL    HW276431   4.312   7.697   6.496 -1.6917  0.1043  0.0905
24471SOL     OW76432   7.468   6.893   3.081  0.0800  0.0386  0.0478
24471SOL    HW176433   7.522   6.878   3.003 -0.2316 -0.8712  0.0092
24471SOL    HW276434   7.379   6.870   3.054  0.0933 -1.0658  0.9044
24472SOL     OW76435   6.830   3.317   3.917 -0.0574  0.4626  0.1250
24472SOL    HW176436   6.826   3.408   3.887 -2.1059  0.0311 -1.0064
24472SOL    HW276437   6.774   3.316   3.995  0.7600  0.3607  0.7231
24473SOL     OW76438   0.904   4.991   4.374  0.0191 -0.0481 -0.2820
24473SOL    HW176439   0.953   4.980   4.455  0.6197  0.5983 -0.5519
24473SOL    HW276440   0.820   5.029   4.400  0.5246  0.9114 -0.0501
24474SOL     OW76441   6.903   8.234   6.294 -0.1436 -0.0947 -0.1218
24474SOL    HW176442   6.824   8.282   6.321 -0.3305 -1.3353  1.6630
24474SOL    HW276443   6.934   8.193   6.375  1.1562 -1.3207 -1.2248
24475SOL     OW76444   1.235   9.367   0.801  0.3384 -0.1625  0.4303
24475SOL    HW176445   1.193   9.421   0.868  1.4648 -0.2027  1.1985
24475SOL    HW276446   1.284   9.301   0.852  0.6735 -0.5960 -0.4495
24476SOL     OW76447   0.895   8.292   8.393  0.0452  0.0220  0.1013
24476SOL    HW176448   0.942   8.316   8.314 -1.3568 -2.4207 -1.5594
24476SOL    HW276449   0.959   8.243   8.445  1.2001  2.3002  0.8888
24477SOL     OW76450   7.315   5.845   2.330  0.4956  0.3694 -0.7407
24477SOL    HW176451   7.342   5.933   2.355 -0.8824  0.7628 -0.6059
24477SOL    HW276452   7.342   5.789   2.403 -0.6633  1.0290  0.2008
24478SOL     OW76453   6.683   4.347   3.194 -0.7741 -0.2294  0.3019
24478SOL    HW176454   6.623   4.272   3.189 -1.5236  0.2300  2.0153
24478SOL    HW276455   6.743   4.325   3.265 -0.0467  0.1509 -0.1818
24479SOL     OW76456   4.454   2.610   4.076  0.3531  0.1101  0.2477
24479SOL    HW176457   4.431   2.536   4.020  1.5422 -0.7986  0.9326
24479SOL    HW276458   4.475   2.680   4.015  0.4326 -0.4949 -0.4317
24480SOL     OW76459   4.538   7.142   5.398 -0.2647  0.2946  0.7019
24480SOL    HW176460   4.450   7.130   5.436 -0.4715  0.9293  0.4206
24480SOL    HW276461   4.529   7.219   5.342  0.8187  1.1721  1.7133
24481SOL     OW76462   5.307   0.139   1.201 -0.3355  0.1078  0.0593
24481SOL    HW176463   5.339   0.225   1.227  2.4871 -0.4030 -1.5410
24481SOL    HW276464   5.321   0.084   1.278  0.9271  0.3578  0.0280
24482SOL     OW76465   4.679   4.517   0.592  0.1693  0.4789  0.1880
24482SOL    HW176466   4.614   4.474   0.537  0.2618  1.0510 -0.3786
24482SOL    HW276467   4.649   4.608   0.598  0.4341  0.5381  0.6631
24483SOL     OW76468   1.133   6.764   1.619  0.6197  0.2473  0.1476
24483SOL    HW176469   1.155   6.802   1.534  2.3523  1.3302  1.0436
24483SOL    HW276470   1.201   6.699   1.635 -0.9151 -1.5065 -0.2281
24484SOL     OW76471   9.350   3.217   9.082  0.9142  0.0284  0.2353
24484SOL    HW176472   9.371   3.155   9.012  0.5383  0.2114 -0.0442
24484SOL    HW276473   9.291   3.168   9.140  0.8554  0.0247  0.1731
24485SOL     OW76474   7.587   2.451   5.038  0.9045  0.5894  0.2030
24485SOL    HW176475   7.616   2.481   5.125  1.6681 -1.1944  0.5883
24485SOL    HW276476   7.584   2.356   5.046 -3.3914  0.6120 -0.3872
24486SOL     OW76477   2.639   3.150   7.516  0.2203  0.2675 -0.1341
24486SOL    HW176478   2.607   3.108   7.436 -2.1546  0.6909  0.5458
24486SOL    HW276479   2.708   3.092   7.548  0.8168 -0.1832 -2.1882
24487SOL     OW76480   0.588   2.946   2.372  0.1007  1.2008  0.6467
24487SOL    HW176481   0.670   2.982   2.404 -0.1682  1.2834  1.2479
24487SOL    HW276482   0.546   2.909   2.450 -1.0400  2.3316  0.5747
24488SOL     OW76483   6.288   8.248   6.802 -0.7151  0.0152 -0.2126
24488SOL    HW176484   6.199   8.277   6.822 -0.6579  0.5929 -0.7971
24488SOL    HW276485   6.293   8.246   6.707 -0.2127 -0.3598 -0.1830
24489SOL     OW76486   4.323   7.120   2.065  0.0774  0.2560 -0.1553
24489SOL    HW176487   4.300   7.081   1.981  0.0427 -0.3781  0.1422
24489SOL    HW276488   4.304   7.051   2.129  1.9682  0.0376  0.1809
24490SOL     OW76489   1.047   6.420   8.344  0.2007  0.3114 -0.2674
24490SOL    HW176490   1.019   6.349   8.285 -2.2713  1.1419 -0.1605
24490SOL    HW276491   1.037   6.499   8.291 -0.2093  0.8750  0.6414
24491SOL     OW76492   7.347   2.678   3.333 -0.0121  0.0749 -0.2756
24491SOL    HW176493   7.274   2.734   3.360 -0.9678 -1.6113  0.7547
24491SOL    HW276494   7.424   2.716   3.375 -0.9916 -0.6283  2.2670
24492SOL     OW76495   7.522   6.182   7.097 -0.1796  0.1960 -0.5000
24492SOL    HW176496   7.559   6.095   7.085 -0.4812 -0.0467  0.2943
24492SOL    HW276497   7.596   6.237   7.123  0.0759  0.2517 -1.3593
24493SOL     OW76498   9.426   1.134   7.551 -0.1586 -0.2417  0.2559
24493SOL    HW176499   9.459   1.065   7.493 -3.2366  0.1926 -2.2003
24493SOL    HW276500   9.467   1.214   7.518 -0.6502 -0.2132 -0.2958
24494SOL     OW76501   4.840   3.392   5.194  0.6694 -0.9180  0.3261
24494SOL    HW176502   4.746   3.404   5.207  0.1692 -2.0850 -1.8767
24494SOL    HW276503   4.878   3.478   5.209 -0.9192 -0.1144 -0.1776
24495SOL     OW76504   6.169   9.105   7.808 -0.5213 -0.7089  0.2918
24495SOL    HW176505   6.149   9.183   7.860 -1.3579 -0.8236  0.1565
24495SOL    HW276506   6.187   9.139   7.720  0.6939 -0.5333  0.6085
24496SOL     OW76507   1.417   5.360   0.762 -0.7506  0.3431 -0.3886
24496SOL    HW176508   1.493   5.384   0.710 -1.4650  2.1646 -0.6371
24496SOL    HW276509   1.379   5.443   0.790 -1.7387 -0.5605  1.0689
24497SOL     OW76510   8.211   5.422   8.352 -0.1542 -0.0529 -0.2406
24497SOL    HW176511   8.289   5.369   8.336 -0.0681 -0.3794  1.1449
24497SOL    HW276512   8.142   5.359   8.370 -0.9017  0.2189 -2.1053
24498SOL     OW76513   7.865   0.045   5.414  0.1554 -0.2972 -0.0696
24498SOL    HW176514   7.794  -0.015   5.439 -1.1827  0.4862 -1.8871
24498SOL    HW276515   7.822   0.113   5.362  2.2659  0.1020 -1.3532
24499SOL     OW76516   4.361   6.625   2.930  0.1337 -0.0588  0.3257
24499SOL    HW176517   4.401   6.604   3.014 -0.9340  1.3177  1.1941
24499SOL    HW276518   4.388   6.554   2.872  0.8730 -1.0199  1.8255
24500SOL     OW76519   7.592   9.314   4.095 -0.3531  0.0088 -0.3657
24500SOL    HW176520   7.506   9.354   4.096 -0.8273 -0.9792  1.8228
24500SOL    HW276521   7.645   9.367   4.154  1.0949  1.7021 -3.1002
24501SOL     OW76522   3.005   0.984   4.648  0.0007  0.5171  0.1541
24501SOL    HW176523   3.098   0.992   4.630  0.1301 -0.6488  0.3238
24501SOL    HW276524   2.977   1.074   4.665  0.8641  1.0088 -0.9904
24502SOL     OW76525   9.180   9.211   0.873 -0.4457  0.1495 -0.0521
24502SOL    HW176526   9.129   9.284   0.838  0.0451  0.1666 -0.7215
24502SOL    HW276527   9.225   9.174   0.798  0.4451  0.0613  0.5191
24503SOL     OW76528   0.091   5.324   0.989  0.2093 -0.5085  0.0197
24503SOL    HW176529   0.124   5.279   1.067 -1.1036 -0.1315  0.8146
24503SOL    HW276530   0.037   5.395   1.024 -0.9705 -0.7750 -1.2299
24504SOL     OW76531   7.667   4.230   0.576  0.1091 -0.3520 -0.2232
24504SOL    HW176532   7.728   4.296   0.608 -0.8941  0.6269 -0.3027
24504SOL    HW276533   7.719   4.150   0.569  0.5712 -0.3749  3.0052
24505SOL     OW76534   4.090   7.418   2.336 -0.0098 -0.3033 -0.2194
24505SOL    HW176535   4.124   7.333   2.364 -0.0045  0.1540  1.2336
24505SOL    HW276536   4.157   7.481   2.363  0.2171  0.1306 -1.7293
24506SOL     OW76537   4.976   6.867   5.516 -0.3978 -0.4692  0.4250
24506SOL    HW176538   4.962   6.915   5.598 -1.2310 -0.3325  0.2074
24506SOL    HW276539   4.919   6.911   5.453  0.0738 -0.7159 -0.1761
24507SOL     OW76540   3.667   5.005   2.707 -0.1801  0.2580 -0.1359
24507SOL    HW176541   3.578   4.993   2.676 -0.9751  0.0406  2.1545
24507SOL    HW276542   3.702   4.917   2.719  0.0016  0.3346 -0.0863
24508SOL     OW76543   5.712   6.597   6.334 -0.2832 -0.0414 -0.7588
24508SOL    HW176544   5.631   6.648   6.337  0.3360  0.9842 -1.0397
24508SOL    HW276545   5.769   6.640   6.398 -0.5829 -1.8634  0.7484
24509SOL     OW76546   3.462   4.946   6.734 -0.1895 -0.2909 -0.2031
24509SOL    HW176547   3.525   5.005   6.776  1.8606 -1.5923 -1.3370
24509SOL    HW276548   3.479   4.861   6.775  0.3623 -1.1193 -2.0899
24510SOL     OW76549   7.432   6.573   0.812  0.0746 -0.1400 -0.3897
24510SOL    HW176550   7.371   6.512   0.853 -0.9527  2.1505  1.5984
24510SOL    HW276551   7.409   6.571   0.719 -1.1421 -1.4134 -0.0778
24511SOL     OW76552   6.725   1.737   3.285 -0.0811  0.2996  0.1039
24511SOL    HW176553   6.767   1.730   3.371 -0.5239 -1.5998  0.1905
24511SOL    HW276554   6.788   1.787   3.232  1.1878 -0.4154  0.9059
24512SOL     OW76555   3.338   6.456   2.968 -0.1769 -0.3837 -0.0044
24512SOL    HW176556   3.310   6.475   2.878 -0.0717 -0.0977  0.0230
24512SOL    HW276557   3.271   6.397   3.002 -1.2329  0.9928  0.3509
24513SOL     OW76558   2.028   8.179   9.140 -0.1161  0.1820  0.1296
24513SOL    HW176559   2.021   8.268   9.174  0.5698  0.5796 -0.7411
24513SOL    HW276560   2.054   8.190   9.048 -0.9394 -0.8920 -0.2414
24514SOL     OW76561   8.131   3.872   1.523  0.2992  0.3998 -0.4601
24514SOL    HW176562   8.206   3.814   1.514  1.5151  1.8343  0.3163
24514SOL    HW276563   8.078   3.832   1.592  1.7096  0.8291  0.8809
24515SOL     OW76564   4.415   8.491   5.438 -0.3540  0.0702 -0.4177
24515SOL    HW176565   4.459   8.490   5.524  0.1604  1.3364 -0.6533
24515SOL    HW276566   4.470   8.435   5.383 -0.4468 -0.3972 -0.0449
24516SOL     OW76567   5.354   5.614   3.451 -0.7165 -0.4156  0.0976
24516SOL    HW176568   5.434   5.626   3.400 -0.4629 -1.2858  0.2772
24516SOL    HW276569   5.331   5.702   3.482  0.6210 -0.2704  0.7004
24517SOL     OW76570   3.530   1.141   6.191  0.0580  0.1957 -0.3013
24517SOL    HW176571   3.571   1.072   6.243  1.8437 -0.7372 -2.8611
24517SOL    HW276572   3.592   1.214   6.195 -0.1008  0.3458 -0.6057
24518SOL     OW76573   8.987   3.112   6.198 -0.6304  0.1125 -0.0439
24518SOL    HW176574   8.969   3.038   6.139  3.0876 -0.8295 -0.1432
24518SOL    HW276575   9.013   3.071   6.281 -0.1121  1.3343  0.4103
24519SOL     OW76576   7.199   4.655   8.851 -0.6063  0.0868 -0.2683
24519SOL    HW176577   7.271   4.709   8.881 -0.3491 -0.6280  0.4283
24519SOL    HW276578   7.238   4.596   8.786 -0.2488 -1.2522  1.1327
24520SOL     OW76579   7.816   5.777   7.306 -0.2058 -0.3983 -0.0096
24520SOL    HW176580   7.879   5.807   7.240 -0.3878 -2.4733 -1.1773
24520SOL    HW276581   7.783   5.693   7.271 -1.5608 -0.6928  1.9108
24521SOL     OW76582   8.888   7.679   4.366 -0.3019  0.2623 -0.1153
24521SOL    HW176583   8.810   7.702   4.316 -1.1456  0.2264  1.1702
24521SOL    HW276584   8.863   7.601   4.415  1.1126 -0.7893 -1.0157
24522SOL     OW76585   0.562   7.350   5.304  0.3246 -0.4507  0.1384
24522SOL    HW176586   0.621   7.288   5.261  0.5210  0.0402 -0.2996
24522SOL    HW276587   0.620   7.418   5.338 -0.1987  1.5655 -2.8175
24523SOL     OW76588   3.045   9.362   2.251  0.3107 -0.3104  0.3527
24523SOL    HW176589   3.028   9.302   2.178 -2.2509 -0.1970  0.8032
24523SOL    HW276590   3.051   9.304   2.328  0.3959 -0.2135  0.4180
24524SOL     OW76591   8.493   4.496   1.856 -0.2590 -0.3766  0.3315
24524SOL    HW176592   8.540   4.527   1.779  0.2400 -2.0934 -0.0692
24524SOL    HW276593   8.493   4.571   1.916  0.5668  0.5130 -0.7608
24525SOL     OW76594   6.391   1.681   1.838 -0.0224 -0.0025  0.1635
24525SOL    HW176595   6.358   1.748   1.897 -0.1774  0.5528 -0.5451
24525SOL    HW276596   6.421   1.729   1.761 -2.5225 -0.9135 -1.4517
24526SOL     OW76597   4.469   5.401   7.772  0.3634 -0.2187  0.0216
24526SOL    HW176598   4.450   5.323   7.721  0.0567 -1.1828  1.5825
24526SOL    HW276599   4.448   5.474   7.714 -0.1164 -1.2909 -1.1632
24527SOL     OW76600   3.954   0.494   7.244 -0.6541 -0.0988 -0.8824
24527SOL    HW176601   3.965   0.488   7.149 -1.5891 -3.1621 -0.8374
24527SOL    HW276602   3.932   0.406   7.271 -1.0045  0.8728  2.1417
24528SOL     OW76603   6.053   4.393   7.410  0.1247 -0.2097  0.1245
24528SOL    HW176604   5.999   4.338   7.353  0.4429  0.1067 -0.4841
24528SOL    HW276605   6.143   4.374   7.383  0.2253  0.7701 -0.2371
24529SOL     OW76606   1.062   2.455   6.809 -0.2559  0.3968 -0.1770
24529SOL    HW176607   1.117   2.439   6.732  1.8545  0.2882  1.3432
24529SOL    HW276608   1.033   2.368   6.836  0.8492  0.2335  0.4950
24530SOL     OW76609   4.957   7.938   4.532  0.4682  0.3302  0.1606
24530SOL    HW176610   4.910   7.855   4.543  0.7298  0.1634  0.0210
24530SOL    HW276611   5.008   7.926   4.452  0.0690  0.8341 -0.1742
24531SOL     OW76612   3.482   6.249   3.307  0.2483 -0.3130 -0.2816
24531SOL    HW176613   3.483   6.155   3.290 -0.0208 -0.5223  0.8382
24531SOL    HW276614   3.391   6.269   3.328  0.5979 -0.1157  1.1282
24532SOL     OW76615   3.669   2.030   7.735 -0.6516  0.2629 -0.1180
24532SOL    HW176616   3.650   1.999   7.824 -1.7346 -1.2420 -0.8551
24532SOL    HW276617   3.603   2.097   7.718 -1.0959 -0.1943 -0.1841
24533SOL     OW76618   3.852   8.047   1.247  0.5378  0.5119  0.7421
24533SOL    HW176619   3.779   8.033   1.308 -1.5722  2.0396 -1.3663
24533SOL    HW276620   3.876   7.959   1.218 -1.7446  0.1184  0.0023
24534SOL     OW76621   3.359   0.246   7.996 -0.1349  0.3880 -0.0462
24534SOL    HW176622   3.302   0.268   7.922 -0.3126  1.1137  0.3020
24534SOL    HW276623   3.345   0.152   8.011  0.3874  0.0935 -1.3487
24535SOL     OW76624   4.933   4.176   8.853  0.4809  0.2291  0.4962
24535SOL    HW176625   4.859   4.153   8.909  0.2506 -1.2678 -0.3941
24535SOL    HW276626   4.955   4.266   8.878 -3.1857  1.6280 -0.9626
24536SOL     OW76627   1.060   5.197   3.093 -0.6992 -0.4140 -0.3057
24536SOL    HW176628   1.104   5.172   3.011 -2.0153 -1.3662 -0.7482
24536SOL    HW276629   1.128   5.238   3.145  0.6673 -1.6538 -1.0649
24537SOL     OW76630   0.129   1.113   8.305 -0.3459 -0.5047  0.5033
24537SOL    HW176631   0.119   1.198   8.347  1.1188  0.5919 -1.3339
24537SOL    HW276632   0.129   1.050   8.378 -1.9735  0.9877  1.8313
24538SOL     OW76633   4.732   4.438   6.361 -0.4131 -0.4969 -0.3122
24538SOL    HW176634   4.788   4.473   6.292 -1.0262  1.4440  0.1541
24538SOL    HW276635   4.763   4.481   6.441 -1.0902 -1.1272  0.2954
24539SOL     OW76636   3.940   3.851   9.058  0.0879  0.1291 -0.2127
24539SOL    HW176637   3.988   3.847   9.140  0.8735  0.0465 -0.6710
24539SOL    HW276638   3.917   3.761   9.038 -2.6017  0.4205  1.3629
24540SOL     OW76639   7.304   5.521   5.219  0.4000  0.0177  0.2754
24540SOL    HW176640   7.252   5.452   5.260 -0.3001  0.1711 -0.3443
24540SOL    HW276641   7.394   5.488   5.224  0.0686 -0.9663 -0.0462
24541SOL     OW76642   2.234   2.069   1.997 -0.1203 -0.0147 -0.6949
24541SOL    HW176643   2.231   1.993   1.939  1.2702  0.2542 -1.1481
24541SOL    HW276644   2.327   2.087   2.008 -0.3919  0.6461  0.7101
24542SOL     OW76645   8.938   4.140   1.629  0.0445 -0.1683 -0.0344
24542SOL    HW176646   8.965   4.217   1.579 -0.8957  0.0141 -0.2727
24542SOL    HW276647   9.011   4.078   1.620  0.7065  0.6065 -0.0205
24543SOL     OW76648   9.246   7.498   0.928  0.1294  0.5782 -0.1184
24543SOL    HW176649   9.209   7.583   0.903  0.2279  0.7646  0.3793
24543SOL    HW276650   9.340   7.508   0.913  0.1098  0.4603 -0.3276
24544SOL     OW76651   5.627   4.184   9.352 -0.1704  0.2663 -0.1480
24544SOL    HW176652   5.658   4.258   9.404 -2.1959  0.5743  0.6858
24544SOL    HW276653   5.603   4.117   9.417 -1.0788 -0.0058 -0.7484
24545SOL     OW76654   6.715   1.634   1.589  0.4195  0.4802  0.3507
24545SOL    HW176655   6.735   1.541   1.590  0.7502  0.5344  3.4864
24545SOL    HW276656   6.798   1.677   1.610  0.2684  1.5052 -1.0588
24546SOL     OW76657   3.706   5.086   5.040  0.6031 -0.2617 -0.3880
24546SOL    HW176658   3.685   5.134   4.960 -0.1411 -0.4793 -0.3239
24546SOL    HW276659   3.771   5.021   5.013 -0.0044 -0.6476 -0.9021
24547SOL     OW76660   1.301   3.571   5.431  0.1925  0.8796 -0.1704
24547SOL    HW176661   1.319   3.497   5.373 -0.1139  0.7015 -0.0371
24547SOL    HW276662   1.329   3.648   5.381 -1.2695  0.8324 -1.0665
24548SOL     OW76663   5.073   9.251   0.033  0.1825 -0.2284  0.2092
24548SOL    HW176664   5.138   9.235   0.102  1.3231 -1.1746 -1.0613
24548SOL    HW276665   5.023   9.326   0.064  1.2276 -0.1288  1.6863
24549SOL     OW76666   2.289   2.857   2.721  0.4600  0.3800  0.5713
24549SOL    HW176667   2.315   2.936   2.673 -0.4093  0.7906  0.7592
24549SOL    HW276668   2.371   2.811   2.740  0.8598  0.4774 -0.8600
24550SOL     OW76669   0.183   8.660   7.791  0.9029  0.0281  0.4058
24550SOL    HW176670   0.236   8.739   7.806 -0.1250  0.8402 -0.1254
24550SOL    HW276671   0.228   8.591   7.840  1.0436  1.2515  2.0582
24551SOL     OW76672   7.685   3.013   2.937  0.3526 -0.2004  0.2754
24551SOL    HW176673   7.602   3.007   2.889  0.4484  1.4765 -0.1353
24551SOL    HW276674   7.667   2.968   3.020 -0.9473  0.0600  0.1516
24552SOL     OW76675   6.822   8.494   7.649  0.6475 -0.1196  0.2762
24552SOL    HW176676   6.911   8.458   7.647  0.7335  0.1488 -1.9631
24552SOL    HW276677   6.765   8.417   7.658  1.0052 -0.4890 -0.5921
24553SOL     OW76678   7.857   9.014   8.455  0.2045  0.1480 -0.0750
24553SOL    HW176679   7.881   8.974   8.539  0.9109  1.5852  0.4135
24553SOL    HW276680   7.787   9.075   8.477  1.1804  1.3731 -0.3418
24554SOL     OW76681   2.678   3.807   0.054  0.0092  0.4118  0.6759
24554SOL    HW176682   2.765   3.834   0.086  0.6831  0.4674 -1.1394
24554SOL    HW276683   2.635   3.770   0.131  1.2844  1.2631  1.8378
24555SOL     OW76684   1.969   6.408   5.101  0.1916 -0.6358  0.4050
24555SOL    HW176685   1.965   6.380   5.192 -1.5795 -1.5772  0.0488
24555SOL    HW276686   2.056   6.379   5.071  1.0486  0.2653  1.9477
24556SOL     OW76687   7.625   5.716   3.376  0.3715 -0.1100 -0.0671
24556SOL    HW176688   7.678   5.660   3.432 -0.7299 -0.2252  0.8505
24556SOL    HW276689   7.636   5.679   3.288 -0.8379 -2.1193  0.6160
24557SOL     OW76690   4.347   9.255   9.084  0.1755 -0.0806 -0.2861
24557SOL    HW176691   4.394   9.218   9.159 -0.9306 -0.2728  0.3215
24557SOL    HW276692   4.321   9.178   9.033 -0.7006 -0.0738  0.1278
24558SOL     OW76693   3.252   0.932   6.838 -0.3480  0.2290  0.0532
24558SOL    HW176694   3.217   0.846   6.817  1.9154 -0.4105 -1.2378
24558SOL    HW276695   3.186   0.993   6.806 -1.1204 -0.9849 -0.7049
24559SOL     OW76696   2.751   8.485   2.365 -0.4147 -0.5142 -0.5258
24559SOL    HW176697   2.792   8.407   2.328 -1.9631 -1.0976 -1.0301
24559SOL    HW276698   2.785   8.490   2.454  0.6294 -1.0630 -0.8846
24560SOL     OW76699   8.220   1.314   2.714 -0.9338  0.3385  0.9144
24560SOL    HW176700   8.306   1.300   2.753 -0.3813 -2.0197 -1.0866
24560SOL    HW276701   8.159   1.296   2.786  0.1480 -1.1763  1.4870
24561SOL     OW76702   5.393   8.845   1.327 -0.0809 -0.4763  0.1435
24561SOL    HW176703   5.302   8.836   1.301 -0.6403  0.0812  1.8627
24561SOL    HW276704   5.395   8.921   1.385  1.5789 -0.1011 -0.3860
24562SOL     OW76705   8.289   2.237   4.619 -0.8589 -0.0185 -0.7548
24562SOL    HW176706   8.210   2.232   4.566 -0.0585 -0.0805 -1.9571
24562SOL    HW276707   8.267   2.191   4.700 -2.2877  0.6093 -0.7808
24563SOL     OW76708   6.265   9.183   4.961  1.1198  0.3548  0.6353
24563SOL    HW176709   6.258   9.277   4.977 -1.1230  0.0081  1.9378
24563SOL    HW276710   6.281   9.145   5.047  0.8215 -0.5556  0.2992
24564SOL     OW76711   4.286   5.135   9.285  0.1079 -0.1364  0.4705
24564SOL    HW176712   4.376   5.125   9.253 -0.6949 -2.7868 -1.1313
24564SOL    HW276713   4.291   5.108   9.376  1.1846  1.1302  0.8146
24565SOL     OW76714   9.405   3.431   6.846  0.2324 -0.7700  0.8244
24565SOL    HW176715   9.366   3.346   6.827 -3.2288  0.6917  1.1015
24565SOL    HW276716   9.372   3.455   6.932 -0.2882  1.6226  0.0078
24566SOL     OW76717   1.121   4.016   4.213 -0.1278  0.6024  0.0293
24566SOL    HW176718   1.194   4.044   4.157 -0.2624  1.7035  0.3852
24566SOL    HW276719   1.051   3.994   4.152  0.5826 -0.6993 -0.3258
24567SOL     OW76720   9.361   7.822   1.106  0.1353  0.7450  0.0537
24567SOL    HW176721   9.404   7.826   1.021  0.2076 -0.8392  0.0011
24567SOL    HW276722   9.272   7.793   1.087 -0.4669  2.3761  0.3271
24568SOL     OW76723   4.699   8.755   6.382  0.2693  0.2792  0.0565
24568SOL    HW176724   4.688   8.660   6.378 -0.8491  0.4561 -1.9229
24568SOL    HW276725   4.772   8.773   6.323  0.0939  0.6998 -0.0331
24569SOL     OW76726   1.844   2.653   3.013 -0.1900  0.1259 -0.0537
24569SOL    HW176727   1.897   2.664   3.092 -0.6125 -0.5253  0.3204
24569SOL    HW276728   1.806   2.740   2.998  0.2731  0.3727  0.1799
24570SOL     OW76729   7.959   3.612   0.975  0.0152 -0.0878  0.2874
24570SOL    HW176730   8.031   3.625   1.036  1.7749 -0.4649 -1.6445
24570SOL    HW276731   7.967   3.685   0.913 -0.8202 -0.5251 -0.3434
24571SOL     OW76732   5.344   6.345   8.128 -0.1046  0.3127 -0.6382
24571SOL    HW176733   5.340   6.393   8.045  0.4139 -0.2370 -0.9856
24571SOL    HW276734   5.328   6.253   8.104 -0.7108  0.2573 -0.0296
24572SOL     OW76735   0.041   6.389   7.034  0.1254 -0.0623 -0.1308
24572SOL    HW176736  -0.013   6.322   7.075 -2.4523  1.0902 -1.5163
24572SOL    HW276737   0.070   6.445   7.106 -1.2466 -0.2029  0.5393
24573SOL     OW76738   5.041   0.050   5.135  0.4470  0.1742  0.3163
24573SOL    HW176739   5.096  -0.028   5.148  0.6214 -0.0517 -1.7081
24573SOL    HW276740   4.958   0.028   5.176  0.5754 -0.9949 -0.0379
24574SOL     OW76741   0.406   6.016   4.858  0.5679  0.0136 -0.7662
24574SOL    HW176742   0.342   6.047   4.923  4.1653  1.3750  2.2899
24574SOL    HW276743   0.391   5.921   4.854 -1.5619  0.2908 -0.0291
24575SOL     OW76744   4.567   2.253   6.889 -0.2969  0.5549  0.1429
24575SOL    HW176745   4.634   2.192   6.857 -0.5088 -0.5580  1.7131
24575SOL    HW276746   4.576   2.331   6.834  2.4596  0.5309  0.4984
24576SOL     OW76747   1.072   8.502   2.747  0.3471  0.1557  0.6852
24576SOL    HW176748   1.134   8.567   2.715 -1.6821  1.3075 -1.0748
24576SOL    HW276749   0.993   8.554   2.767 -1.9254 -1.9451 -2.4329
24577SOL     OW76750   6.079   5.360   6.472  0.2664  1.0500  0.0039
24577SOL    HW176751   6.069   5.349   6.567  0.2304 -0.2624 -0.1453
24577SOL    HW276752   6.156   5.415   6.463  0.5121  0.8484  0.7936
24578SOL     OW76753   8.182   2.412   0.018  0.4500  0.0999  0.4528
24578SOL    HW176754   8.234   2.335  -0.006  1.7468  0.9434  0.4704
24578SOL    HW276755   8.163   2.455  -0.065  0.0182 -0.0476  0.4723
24579SOL     OW76756   2.638   1.945   6.582 -0.3518  0.3711  0.2503
24579SOL    HW176757   2.615   2.034   6.609  0.1279  1.1009 -1.6394
24579SOL    HW276758   2.676   1.905   6.661 -1.1565  1.6170  1.2900
24580SOL     OW76759   6.482   8.412   7.646  0.3459  0.1070 -0.6077
24580SOL    HW176760   6.456   8.459   7.567  0.1177 -0.0584 -0.6298
24580SOL    HW276761   6.465   8.320   7.627 -3.2753  0.3547  0.9645
24581SOL     OW76762   7.886   4.349   0.909  0.1109 -0.0504  0.0367
24581SOL    HW176763   7.977   4.345   0.879 -1.0576  1.5801 -3.9198
24581SOL    HW276764   7.871   4.441   0.929 -1.0322 -0.1383 -0.4084
24582SOL     OW76765   8.294   4.854   8.977 -0.6152 -0.3843  0.6713
24582SOL    HW176766   8.342   4.824   8.899 -2.4980 -2.2603  0.1919
24582SOL    HW276767   8.276   4.774   9.026 -4.0847  0.1337  0.3509
24583SOL     OW76768   6.935   4.857   1.208 -0.2978  0.0009 -0.9516
24583SOL    HW176769   6.872   4.803   1.256 -0.1985 -0.2715 -1.1301
24583SOL    HW276770   6.887   4.886   1.130 -1.0393  1.8672  0.1459
24584SOL     OW76771   0.188   6.692   2.592  0.4510 -0.5235  0.3623
24584SOL    HW176772   0.248   6.671   2.664  0.6304 -1.0883  0.0471
24584SOL    HW276773   0.103   6.659   2.622  0.8670 -2.3221 -0.4232
24585SOL     OW76774   0.926   8.068   0.430  0.4894 -0.1292  0.2556
24585SOL    HW176775   0.890   8.148   0.391  2.4448  0.6538  0.0111
24585SOL    HW276776   0.863   8.000   0.406  0.1536  0.8563 -1.8300
24586SOL     OW76777   0.714   2.771   7.451  0.1456  0.1727  0.6373
24586SOL    HW176778   0.677   2.853   7.485  1.2222  2.1657 -2.7903
24586SOL    HW276779   0.644   2.733   7.398  0.5122  0.2004  0.1291
24587SOL     OW76780   8.489   0.207   5.619  0.4578 -0.0483  0.1497
24587SOL    HW176781   8.402   0.166   5.620  0.0208  0.6647 -3.0734
24587SOL    HW276782   8.548   0.137   5.591  0.3249  0.4512 -1.4032
24588SOL     OW76783   8.583   1.932   5.552  0.1209  0.1686 -0.1907
24588SOL    HW176784   8.663   1.949   5.601  0.4653 -0.3071 -0.5834
24588SOL    HW276785   8.582   1.998   5.482  0.5969 -0.3464 -0.6886
24589SOL     OW76786   1.048   2.818   6.790  0.2270 -0.4284  0.0341
24589SOL    HW176787   0.984   2.794   6.723 -0.4487 -1.5705  1.0673
24589SOL    HW276788   1.129   2.777   6.761 -0.3726 -2.0426  0.5674
24590SOL     OW76789   4.982   1.904   5.468 -0.1229  0.6468  0.0406
24590SOL    HW176790   5.004   1.828   5.414 -1.9471  0.0247  0.1343
24590SOL    HW276791   4.887   1.913   5.459 -0.1690  1.8074  1.4982
24591SOL     OW76792   2.203   7.334   9.285 -0.0120  0.6042 -0.4000
24591SOL    HW176793   2.157   7.311   9.366  2.4834 -1.8942  0.4013
24591SOL    HW276794   2.165   7.276   9.218 -1.9342  2.5289 -1.0051
24592SOL     OW76795   6.126   6.072   2.546 -0.4350 -0.1623 -0.2111
24592SOL    HW176796   6.179   6.144   2.513  2.8782 -2.1332  0.5818
24592SOL    HW276797   6.076   6.042   2.470 -0.8611  2.0926 -0.8417
24593SOL     OW76798   4.297   4.335   8.544 -0.5749  0.2683  0.0129
24593SOL    HW176799   4.245   4.262   8.579 -1.0927 -0.3981 -2.0351
24593SOL    HW276800   4.386   4.318   8.574 -1.3653  1.0074  2.9304
24594SOL     OW76801   2.630   5.684   1.845 -0.0814  0.8617 -0.0530
24594SOL    HW176802   2.625   5.592   1.818  0.8976  0.6378  0.5295
24594SOL    HW276803   2.550   5.698   1.896  0.1620  0.1076  0.5469
24595SOL     OW76804   9.038   7.066   8.261 -0.7109 -0.2187  0.1498
24595SOL    HW176805   9.060   7.108   8.345  0.1965 -1.4923  0.5569
24595SOL    HW276806   9.093   7.111   8.197 -0.8513  0.2420  0.3453
24596SOL     OW76807   2.818   1.161   8.919 -0.3618 -0.4279 -0.1670
24596SOL    HW176808   2.912   1.173   8.906 -0.9873  1.8997 -3.1526
24596SOL    HW276809   2.786   1.131   8.834 -2.7113  1.7560 -0.1134
24597SOL     OW76810   7.495   3.975   2.316  0.0240 -0.0933 -0.2365
24597SOL    HW176811   7.536   4.055   2.282 -0.6189  0.6565  0.7115
24597SOL    HW276812   7.492   3.989   2.411 -0.8084 -0.9030 -0.1381
24598SOL     OW76813   1.762   5.850   5.615 -0.0574  0.2354  0.3012
24598SOL    HW176814   1.767   5.756   5.594 -0.8518  0.3590 -0.4924
24598SOL    HW276815   1.774   5.854   5.710 -2.8031 -0.9563  0.7492
24599SOL     OW76816   8.894   8.957   1.304 -0.1179  0.6132  0.3473
24599SOL    HW176817   8.848   8.980   1.385 -2.1100  0.6247 -0.7708
24599SOL    HW276818   8.899   9.039   1.255  0.9921  0.5821  0.4037
24600SOL     OW76819   3.529   6.566   6.966  0.2481  0.1778  0.1652
24600SOL    HW176820   3.587   6.490   6.957 -0.5243 -0.4683  0.5096
24600SOL    HW276821   3.442   6.527   6.980 -0.0880  1.1335  0.7500
24601SOL     OW76822   5.026   0.696   5.585  0.1894  0.1482 -0.6570
24601SOL    HW176823   5.100   0.638   5.604  1.2138  1.3960 -0.7687
24601SOL    HW276824   5.066   0.781   5.569 -1.0048  0.1304 -4.1269
24602SOL     OW76825   8.816   2.181   0.588  1.0145 -0.4588 -0.0066
24602SOL    HW176826   8.890   2.123   0.570  0.6042 -0.4006 -2.0282
24602SOL    HW276827   8.746   2.122   0.615  0.8276 -0.8435 -1.2983
24603SOL     OW76828   0.249   9.032   0.492  0.5410  0.1547 -0.0651
24603SOL    HW176829   0.187   9.010   0.561  0.2560 -1.7018 -0.8812
24603SOL    HW276830   0.335   9.030   0.535  0.2174  0.7294  0.6159
24604SOL     OW76831   1.152   9.356   2.869 -0.3725  0.0440 -0.9175
24604SOL    HW176832   1.147   9.450   2.881  0.1443 -0.1547  1.1631
24604SOL    HW276833   1.151   9.343   2.775 -1.4903  2.0590 -1.1963
24605SOL     OW76834   6.954   3.169   5.621  0.5322 -0.4603  0.2117
24605SOL    HW176835   6.996   3.103   5.676 -0.1933  0.7547  2.2987
24605SOL    HW276836   6.867   3.135   5.605  0.6020 -0.6198  0.1696
24606SOL     OW76837   6.145   0.005   3.565 -0.6422  0.2355 -0.0067
24606SOL    HW176838   6.204  -0.044   3.623 -0.2628 -0.8821 -1.3086
24606SOL    HW276839   6.073  -0.056   3.548  0.7230 -0.6106 -3.1227
24607SOL     OW76840   6.810   0.920   7.720 -0.2312  0.2743  0.2662
24607SOL    HW176841   6.734   0.951   7.769 -0.8701  0.6398 -0.9237
24607SOL    HW276842   6.825   0.831   7.753 -1.8418 -0.2008 -0.2274
24608SOL     OW76843   0.055   0.344   3.517 -0.4587 -0.1057  0.0728
24608SOL    HW176844   0.063   0.365   3.424 -2.4365  0.7272  0.0679
24608SOL    HW276845   0.081   0.252   3.523 -0.5576 -0.2385 -1.3544
24609SOL     OW76846   2.354   7.038   6.369 -0.2303  0.3079  0.2167
24609SOL    HW176847   2.309   7.073   6.292  0.8786 -1.6932 -1.3763
24609SOL    HW276848   2.436   7.088   6.374 -0.3672  0.5356  0.1858
24610SOL     OW76849   8.788   4.164   8.115 -0.1997  0.1555 -0.0051
24610SOL    HW176850   8.714   4.105   8.100  0.5375 -0.3910 -1.6404
24610SOL    HW276851   8.748   4.251   8.122 -1.1239 -0.3103  0.6360
24611SOL     OW76852   1.196   8.480   7.687 -0.1265 -0.3869  0.0224
24611SOL    HW176853   1.198   8.432   7.770 -1.4840 -1.2862 -0.4385
24611SOL    HW276854   1.287   8.500   7.668  0.2553 -0.7425  1.4001
24612SOL     OW76855   2.894   2.247   3.084 -0.3515 -0.3718  0.3568
24612SOL    HW176856   2.974   2.193   3.082  0.0907  0.3197 -2.1085
24612SOL    HW276857   2.829   2.195   3.037 -0.1902  0.7862 -1.1986
24613SOL     OW76858   5.820   6.689   5.322 -0.6402  0.2637 -0.2024
24613SOL    HW176859   5.861   6.629   5.384  0.2453  1.3127  0.2343
24613SOL    HW276860   5.809   6.637   5.242 -0.4442 -0.6536  0.3591
24614SOL     OW76861   3.929   7.062   1.204  0.0516 -0.1386 -0.1547
24614SOL    HW176862   4.019   7.085   1.223 -0.0831  0.0124  0.2933
24614SOL    HW276863   3.889   7.047   1.289 -0.3639 -0.1383 -0.3474
24615SOL     OW76864   7.984   7.209   4.578  0.5464 -0.2630 -0.7513
24615SOL    HW176865   8.057   7.261   4.610  0.1898  0.0647 -0.4604
24615SOL    HW276866   8.002   7.121   4.609  0.3786 -0.0132  0.0592
24616SOL     OW76867   7.725   7.164   4.594 -0.8722  0.1734 -0.2530
24616SOL    HW176868   7.816   7.191   4.587 -0.0643 -2.1937  0.4992
24616SOL    HW276869   7.700   7.185   4.684 -0.5884 -0.5767  0.0011
24617SOL     OW76870   1.534   5.781   1.760 -0.7345  0.2569 -0.6558
24617SOL    HW176871   1.574   5.809   1.678  1.4089  0.5769  0.4737
24617SOL    HW276872   1.515   5.689   1.747  2.3962 -0.4643 -0.4798
24618SOL     OW76873   1.802   7.522   1.737  0.2897  0.0094 -0.1503
24618SOL    HW176874   1.788   7.600   1.684 -0.3048 -1.6870 -2.5904
24618SOL    HW276875   1.727   7.521   1.797  0.4516  1.4370  0.0991
24619SOL     OW76876   7.202   2.271   4.837  0.2383  0.4612  0.3490
24619SOL    HW176877   7.175   2.275   4.745  0.0562  0.9657  0.4253
24619SOL    HW276878   7.177   2.356   4.874 -1.5828 -0.5074  1.3961
24620SOL     OW76879   8.802   0.907   4.548 -0.1823  0.4810 -0.0778
24620SOL    HW176880   8.786   0.866   4.463 -0.6182  0.0415  0.2152
24620SOL    HW276881   8.849   0.988   4.527  1.4902 -0.5878 -0.6145
24621SOL     OW76882   1.379   8.560   8.353 -0.1094  0.2661 -0.0773
24621SOL    HW176883   1.389   8.622   8.280 -1.7329 -0.7608 -1.1971
24621SOL    HW276884   1.294   8.519   8.338 -0.0590 -0.6044  1.9190
24622SOL     OW76885   5.435   0.429   2.742 -0.3304  0.2694  0.2672
24622SOL    HW176886   5.466   0.354   2.794 -0.8742  0.5285  0.9721
24622SOL    HW276887   5.341   0.414   2.733 -0.5349  1.1325  0.8586
24623SOL     OW76888   1.997   5.743   2.221  0.1035  0.0521  0.1047
24623SOL    HW176889   2.083   5.705   2.207  0.0183 -0.3528  0.6533
24623SOL    HW276890   2.013   5.837   2.231  0.3457  0.1289 -0.9516
24624SOL     OW76891   8.680   2.688   6.659  0.3708  0.4931 -0.2401
24624SOL    HW176892   8.592   2.705   6.625  0.1870  0.4960  0.2353
24624SOL    HW276893   8.738   2.709   6.586 -0.0655 -0.1781 -0.7837
24625SOL     OW76894   1.868   3.391   5.722 -0.0477  0.2262  0.3408
24625SOL    HW176895   1.813   3.329   5.771 -2.3970  1.4670 -0.6024
24625SOL    HW276896   1.827   3.476   5.738  0.0864  0.8615 -2.4009
24626SOL     OW76897   0.915   8.104   3.849 -1.0234  0.0642 -0.2834
24626SOL    HW176898   0.922   8.137   3.939  1.2061 -0.2826 -0.2976
24626SOL    HW276899   0.901   8.010   3.860 -0.2705 -0.0534 -0.2855
24627SOL     OW76900   5.674   5.561   1.799 -0.0213 -0.3313  0.0120
24627SOL    HW176901   5.587   5.526   1.780 -1.1063  2.1895  0.1966
24627SOL    HW276902   5.663   5.606   1.883  1.4036  0.2188 -0.0972
24628SOL     OW76903   6.133   4.168   5.678  0.4347  0.5513 -0.1976
24628SOL    HW176904   6.209   4.167   5.736  1.2163 -0.1443 -1.2261
24628SOL    HW276905   6.058   4.162   5.738  1.1810  1.1020  0.8080
24629SOL     OW76906   3.256   6.990   7.482  0.0636 -0.7910 -0.3815
24629SOL    HW176907   3.269   7.073   7.529 -0.4330 -0.2363 -1.2099
24629SOL    HW276908   3.209   6.935   7.545 -1.3547  0.2387 -0.4987
24630SOL     OW76909   7.818   9.182   6.851 -0.1733 -0.3380 -0.2310
24630SOL    HW176910   7.853   9.182   6.762 -1.7078  0.1000 -0.8464
24630SOL    HW276911   7.736   9.231   6.845 -0.3284 -0.3539  1.4138
24631SOL     OW76912   4.808   1.800   7.981  0.3365  0.3718  0.4681
24631SOL    HW176913   4.751   1.815   7.906  0.6705 -0.4136  0.0536
24631SOL    HW276914   4.773   1.858   8.049 -0.1815  0.8231 -0.1769
24632SOL     OW76915   1.577   2.658   4.585 -0.3742  0.1168 -0.5349
24632SOL    HW176916   1.589   2.568   4.555  0.1909  0.3169 -0.9166
24632SOL    HW276917   1.602   2.712   4.510 -1.9064  0.5735 -0.7221
24633SOL     OW76918   7.835   4.065   0.240 -0.2161  0.4156 -0.2622
24633SOL    HW176919   7.827   4.155   0.269 -0.8088  0.7445 -1.4018
24633SOL    HW276920   7.893   4.069   0.164 -1.1068 -0.0133 -0.9772
24634SOL     OW76921   9.240   9.145   7.040 -0.5389 -0.4269 -0.0506
24634SOL    HW176922   9.283   9.178   7.119  0.3807  0.6292 -0.9757
24634SOL    HW276923   9.180   9.077   7.072  1.4488 -1.5794  1.3047
24635SOL     OW76924   3.859   9.002   2.716 -0.1426 -0.2623  0.3269
24635SOL    HW176925   3.767   9.017   2.694 -0.5860 -0.7542  1.8115
24635SOL    HW276926   3.857   8.939   2.788  1.3324  0.1814  0.7762
24636SOL     OW76927   6.639   1.600   3.695 -0.0942 -0.8855 -0.4999
24636SOL    HW176928   6.669   1.553   3.772  1.3541  0.1265 -0.4172
24636SOL    HW276929   6.619   1.532   3.631 -0.4048 -1.6900  0.4387
24637SOL     OW76930   5.296   0.285   0.827  0.2798 -0.0499 -0.0872
24637SOL    HW176931   5.213   0.269   0.782 -0.5811 -0.1900  1.4974
24637SOL    HW276932   5.358   0.306   0.757 -1.3656  1.2401 -1.1865
24638SOL     OW76933   6.972   7.767   2.821  0.5357 -0.6727 -0.2112
24638SOL    HW176934   6.932   7.760   2.908  1.4447 -1.5828  0.1509
24638SOL    HW276935   7.028   7.845   2.826  0.6725 -0.7862  0.0612
24639SOL     OW76936   3.969   6.861   3.829 -0.2439  0.3123 -0.3467
24639SOL    HW176937   3.977   6.807   3.750 -1.2091  0.7686 -0.7582
24639SOL    HW276938   3.880   6.846   3.859  0.1642  0.0238  0.7522
24640SOL     OW76939   7.497   5.360   2.583 -0.1298 -0.4839  0.2310
24640SOL    HW176940   7.557   5.297   2.543  0.8438 -1.2286  2.7739
24640SOL    HW276941   7.426   5.305   2.619 -0.0666 -0.0038  1.0971
24641SOL     OW76942   6.206   6.267   1.819 -0.4233  0.0023  0.1446
24641SOL    HW176943   6.297   6.251   1.792 -1.7253 -1.9506 -3.4202
24641SOL    HW276944   6.186   6.354   1.785  0.2422  0.6704  1.4178
24642SOL     OW76945   1.040   9.070   8.399  0.5003 -0.9685  0.3719
24642SOL    HW176946   1.046   8.994   8.457  2.0930  0.4352  2.1177
24642SOL    HW276947   1.131   9.098   8.387 -0.1028  0.9769  0.1934
24643SOL     OW76948   7.765   6.618   8.103 -0.3649 -0.1088 -0.0699
24643SOL    HW176949   7.857   6.634   8.085 -0.1989 -1.6011 -0.6669
24643SOL    HW276950   7.763   6.582   8.191 -0.3683 -0.1653 -0.0934
24644SOL     OW76951   8.971   6.670   1.388  0.0221 -0.3551 -0.1496
24644SOL    HW176952   8.954   6.746   1.444 -2.4586 -0.0210 -1.3276
24644SOL    HW276953   9.019   6.610   1.445 -1.2908  0.5279  1.9576
24645SOL     OW76954   6.755   3.767   6.680 -0.4969 -0.1503  0.0585
24645SOL    HW176955   6.804   3.699   6.726 -0.6616 -0.5096 -0.2972
24645SOL    HW276956   6.690   3.720   6.628 -0.8802  0.2996  0.1276
24646SOL     OW76957   6.963   4.186   9.111 -0.1104  0.2007 -0.3755
24646SOL    HW176958   7.029   4.158   9.175 -0.7437  0.6567  0.4950
24646SOL    HW276959   7.006   4.177   9.026  0.4417 -1.2615  0.0432
24647SOL     OW76960   5.555   3.487   5.295  1.1250 -0.0935 -0.3579
24647SOL    HW176961   5.587   3.400   5.318 -0.8715 -0.8019 -0.2015
24647SOL    HW276962   5.507   3.474   5.213  1.1228  0.9241 -0.5233
24648SOL     OW76963   5.344   2.038   3.570  0.3498 -0.4190 -0.1497
24648SOL    HW176964   5.335   2.133   3.563 -1.9102 -0.6380 -0.4601
24648SOL    HW276965   5.373   2.010   3.484  1.9632  0.0734  0.2166
24649SOL     OW76966   6.158   4.375   2.611 -0.2477 -0.1753  0.4956
24649SOL    HW176967   6.075   4.424   2.612  0.3743  0.9141  0.1856
24649SOL    HW276968   6.156   4.328   2.527 -1.1336 -1.1859  1.0788
24650SOL     OW76969   4.450   6.466   2.757  0.3886 -0.0616 -0.1825
24650SOL    HW176970   4.528   6.514   2.731 -1.1772  1.9129 -1.4500
24650SOL    HW276971   4.460   6.380   2.716  1.8384  0.2038 -0.4227
24651SOL     OW76972   5.387   2.971   8.583 -0.3239 -0.8927  0.1473
24651SOL    HW176973   5.336   2.972   8.663  0.6910  0.2314  0.7851
24651SOL    HW276974   5.406   2.878   8.569 -1.8823 -1.2567  0.2964
24652SOL     OW76975   0.713   1.054   0.535 -0.1090 -0.1788  0.5617
24652SOL    HW176976   0.666   1.105   0.469 -1.6292 -0.5058  1.3768
24652SOL    HW276977   0.701   0.962   0.509 -3.6577 -0.5417  3.1295
24653SOL     OW76978   7.492   0.024   4.533 -0.9904 -0.0862 -0.3670
24653SOL    HW176979   7.569  -0.033   4.530 -1.4724 -0.8067  0.6040
24653SOL    HW276980   7.522   0.106   4.495  0.6219  0.0323  1.0899
24654SOL     OW76981   5.355   5.103   5.905  0.4978 -0.0097  0.5665
24654SOL    HW176982   5.290   5.033   5.912  1.8541 -1.3578 -0.1908
24654SOL    HW276983   5.302   5.182   5.893 -1.0207 -1.0699 -0.0102
24655SOL     OW76984   0.260   3.862   5.626 -0.1271 -0.2017 -0.8518
24655SOL    HW176985   0.257   3.904   5.712 -0.3484  0.3025 -1.1043
24655SOL    HW276986   0.235   3.931   5.565  1.8223 -0.0415 -1.5137
24656SOL     OW76987   2.290   5.965   6.069  0.2180 -0.6689  0.5008
24656SOL    HW176988   2.362   5.948   6.008  0.0722 -0.0985  0.1595
24656SOL    HW276989   2.301   6.057   6.094  0.1574 -0.8462  1.1768
24657SOL     OW76990   3.261   3.184   3.734  0.2998  0.1700 -0.4272
24657SOL    HW176991   3.172   3.218   3.748  0.3960  0.8865 -1.4919
24657SOL    HW276992   3.249   3.107   3.678  0.1718 -1.0214  1.1901
24658SOL     OW76993   9.055   4.328   3.078  0.4077 -0.0465  0.6253
24658SOL    HW176994   9.080   4.242   3.111  0.1974 -0.4798 -0.3301
24658SOL    HW276995   8.965   4.341   3.110 -0.3225 -1.0807 -0.9197
24659SOL     OW76996   2.177   8.643   0.117  0.1355 -0.4592  0.3982
24659SOL    HW176997   2.126   8.648   0.036 -2.1945 -0.6725  1.8298
24659SOL    HW276998   2.146   8.563   0.160  1.9447 -0.7856  1.1290
24660SOL     OW76999   3.815   5.755   7.039 -0.2685 -0.4654  0.3337
24660SOL    HW177000   3.843   5.699   6.967 -0.3274 -0.8304  0.5940
24660SOL    HW277001   3.756   5.700   7.091 -0.0436 -0.2818  0.7916
24661SOL     OW77002   6.519   1.235   3.787  0.3964 -0.2441  0.1968
24661SOL    HW177003   6.436   1.190   3.805  0.9684 -1.7093 -0.7731
24661SOL    HW277004   6.540   1.211   3.697  2.2077 -0.4069  0.6488
24662SOL     OW77005   6.362   3.114   1.824 -0.2235 -0.4612 -0.1585
24662SOL    HW177006   6.396   3.114   1.914  0.5838 -2.5660 -0.4321
24662SOL    HW277007   6.276   3.155   1.831  0.7501  1.4567  1.1944
24663SOL     OW77008   5.509   0.335   1.044  0.4455  0.2782 -0.2917
24663SOL    HW177009   5.528   0.428   1.044 -0.6926  0.5189 -0.6663
24663SOL    HW277010   5.427   0.327   0.996 -0.3190 -0.7350  1.1360
24664SOL     OW77011   1.749   6.695   8.103 -0.2913  0.4826 -0.1026
24664SOL    HW177012   1.760   6.600   8.109  3.3242  0.9355  1.2534
24664SOL    HW277013   1.732   6.723   8.193 -0.0436  1.2802 -0.2970
24665SOL     OW77014   3.601   7.923   2.282 -0.2282  0.3791  0.0031
24665SOL    HW177015   3.536   7.976   2.330  0.5186  0.9222  0.4205
24665SOL    HW277016   3.671   7.908   2.345 -0.5503 -1.3483 -0.0352
24666SOL     OW77017   6.956   3.687   4.559  0.3583 -0.4381 -0.0862
24666SOL    HW177018   7.033   3.744   4.560  0.1021 -0.0698 -1.1214
24666SOL    HW277019   6.887   3.741   4.523 -0.7537 -0.3311  2.0901
24667SOL     OW77020   9.047   4.260   5.453  0.6021  0.2464  0.2175
24667SOL    HW177021   9.080   4.341   5.493  1.0379  0.3411 -0.3388
24667SOL    HW277022   9.090   4.190   5.503  0.9122  0.3644  0.1207
24668SOL     OW77023   8.254   4.657   0.140 -0.2948  0.3054  0.3009
24668SOL    HW177024   8.275   4.596   0.212 -0.7476 -0.7323 -0.4334
24668SOL    HW277025   8.242   4.741   0.183 -1.8107 -0.5514  1.6253
24669SOL     OW77026   7.059   6.483   7.466 -0.2137 -0.0620  0.0022
24669SOL    HW177027   7.153   6.490   7.456 -0.1973  0.8893  0.7501
24669SOL    HW277028   7.036   6.552   7.528 -1.5653  0.5497 -1.1474
24670SOL     OW77029   4.490   8.334   8.402 -0.6079 -0.1171 -0.5032
24670SOL    HW177030   4.444   8.379   8.473 -0.0772  1.5794 -1.2118
24670SOL    HW277031   4.566   8.389   8.384 -0.7749 -0.4962 -2.4311
24671SOL     OW77032   5.380   0.076   7.846  0.1896  0.0803  0.0096
24671SOL    HW177033   5.465   0.119   7.857 -0.2900  1.6317 -2.1365
24671SOL    HW277034   5.316   0.140   7.877 -0.4128  0.1721 -1.4077
24672SOL     OW77035   2.609   3.875   1.033  0.3622 -0.4224 -0.3265
24672SOL    HW177036   2.590   3.969   1.043 -2.6689 -0.8164 -1.6928
24672SOL    HW277037   2.618   3.844   1.123  1.3742  1.1526  0.1483
24673SOL     OW77038   8.636   8.392   9.159 -0.3430  0.3398 -0.7638
24673SOL    HW177039   8.630   8.434   9.073 -2.6447  1.1626 -0.2339
24673SOL    HW277040   8.714   8.431   9.199  0.6417  0.0801 -2.3967
24674SOL     OW77041   5.577   9.247   7.625  0.0456  0.8698 -0.2575
24674SOL    HW177042   5.481   9.248   7.630  0.1258 -0.5041  3.2126
24674SOL    HW277043   5.602   9.338   7.643 -0.6003  1.0065 -0.0021
24675SOL     OW77044   3.729   4.203   0.348  1.1199  0.0613  0.7627
24675SOL    HW177045   3.739   4.284   0.297 -0.3213  0.1497  0.6177
24675SOL    HW277046   3.653   4.218   0.404 -0.1872 -1.8082 -0.4583
24676SOL     OW77047   7.766   3.842   0.740 -0.4220  0.1189  0.2472
24676SOL    HW177048   7.693   3.817   0.797 -0.4901 -0.4685 -0.1001
24676SOL    HW277049   7.826   3.767   0.743  0.0330  0.4769  0.2958
24677SOL     OW77050   9.313   3.007   0.261  0.1546  0.3964  0.3500
24677SOL    HW177051   9.360   2.931   0.229 -2.3548 -1.4146  0.8371
24677SOL    HW277052   9.366   3.082   0.233  1.5210 -1.4062 -2.0502
24678SOL     OW77053   3.645   5.801   2.326  0.4357 -0.4227  0.0717
24678SOL    HW177054   3.584   5.732   2.355 -0.6712 -0.1044 -1.4791
24678SOL    HW277055   3.639   5.800   2.231  0.4974  1.7646  0.0294
24679SOL     OW77056   3.964   0.649   4.315 -0.0107 -0.3470  0.1710
24679SOL    HW177057   3.986   0.620   4.404 -0.3375 -2.5359 -0.4207
24679SOL    HW277058   4.048   0.662   4.272  0.1902 -2.0138 -0.0067
24680SOL     OW77059   7.573   4.451   6.657 -0.1703  0.0836  0.3527
24680SOL    HW177060   7.480   4.452   6.638 -0.2374  0.9951  0.6941
24680SOL    HW277061   7.615   4.442   6.571 -0.5065  2.6241 -0.1185
24681SOL     OW77062   5.293   3.217   7.847 -0.8648  0.2064 -0.0322
24681SOL    HW177063   5.341   3.292   7.883 -0.1793  0.5973 -1.7082
24681SOL    HW277064   5.216   3.255   7.805 -0.0632  0.1082 -1.6643
24682SOL     OW77065   6.694   2.167   4.473  0.2201  0.6492 -0.2602
24682SOL    HW177066   6.737   2.102   4.529  0.5467  0.8541 -0.2750
24682SOL    HW277067   6.759   2.189   4.407  0.6076  2.0413  0.5698
24683SOL     OW77068   0.487   3.567   7.184  0.1875 -0.0545 -0.1522
24683SOL    HW177069   0.574   3.605   7.194  0.8734 -1.8690  0.8996
24683SOL    HW277070   0.502   3.474   7.170 -1.6177 -0.6183  1.3859
24684SOL     OW77071   5.065   7.891   4.774  0.4951 -0.2014 -0.5455
24684SOL    HW177072   5.006   7.833   4.821 -0.6900  1.8487  0.5776
24684SOL    HW277073   5.046   7.876   4.682 -0.4503 -0.9023 -0.2383
24685SOL     OW77074   5.707   1.311   3.714 -0.3149  0.2221  0.7753
24685SOL    HW177075   5.745   1.228   3.742  0.5658  0.1779 -0.5165
24685SOL    HW277076   5.617   1.289   3.690  0.5954 -0.8669 -1.8640
24686SOL     OW77077   3.379   4.185   0.318 -0.0099  0.1928  0.1530
24686SOL    HW177078   3.429   4.109   0.289  1.2846  1.0003  0.2448
24686SOL    HW277079   3.429   4.221   0.391 -2.0362 -0.4570  1.9079
24687SOL     OW77080   4.657   6.467   2.039  0.3183 -0.0130  0.0624
24687SOL    HW177081   4.694   6.391   2.084  0.9329  0.2836  0.0618
24687SOL    HW277082   4.610   6.514   2.108 -0.3721 -0.5892 -0.0155
24688SOL     OW77083   8.907   6.043   6.631 -0.3033 -0.3749  0.1232
24688SOL    HW177084   8.940   5.976   6.690  1.2136  0.3879  0.1635
24688SOL    HW277085   8.928   6.126   6.675  0.7396  0.1930 -1.4248
24689SOL     OW77086   7.016   7.196   5.279  0.3989 -0.2186  0.1081
24689SOL    HW177087   6.993   7.278   5.235  0.2868 -0.5595 -0.4729
24689SOL    HW277088   7.088   7.161   5.227 -1.3461 -1.8506 -1.2756
24690SOL     OW77089   3.711   3.555   6.039  0.3144 -0.2436  0.5767
24690SOL    HW177090   3.797   3.585   6.070  1.2125 -1.6153 -0.4751
24690SOL    HW277091   3.705   3.590   5.950 -0.3798  0.1536  0.7800
24691SOL     OW77092   2.121   1.023   8.223 -0.8414 -0.0648 -0.0107
24691SOL    HW177093   2.099   1.076   8.147 -1.4869 -0.8420 -0.3809
24691SOL    HW277094   2.059   1.051   8.291 -0.6766  0.1959  0.0292
24692SOL     OW77095   6.778   1.346   9.205  0.3359 -0.2256 -0.2519
24692SOL    HW177096   6.702   1.392   9.169  1.4755  1.2624 -0.7947
24692SOL    HW277097   6.780   1.370   9.297 -1.1762 -2.1278  0.3319
24693SOL     OW77098   0.924   0.812   2.219 -0.1162 -0.2577  0.5308
24693SOL    HW177099   0.951   0.816   2.310 -1.7561  1.0032  0.9920
24693SOL    HW277100   1.003   0.832   2.169  0.4685  0.4476  1.7194
24694SOL     OW77101   7.808   2.327   9.375  0.0507  0.6196  0.5103
24694SOL    HW177102   7.824   2.411   9.332  0.8241  0.2326  0.0207
24694SOL    HW277103   7.845   2.336   9.462  1.2557  0.3783  0.0340
24695SOL     OW77104   5.146   3.108   1.497  0.0365 -0.3159  0.0339
24695SOL    HW177105   5.153   3.202   1.512 -0.3036 -0.7908  3.4511
24695SOL    HW277106   5.087   3.100   1.422  0.8338  2.1908 -0.8883
24696SOL     OW77107   5.832   4.061   3.002 -0.3627  0.0930  0.0745
24696SOL    HW177108   5.747   4.041   3.040 -0.3460  0.5026  0.3267
24696SOL    HW277109   5.893   3.999   3.043 -0.0636  1.5281  1.8602
24697SOL     OW77110   8.676   1.471   4.730 -0.1825  0.0858 -0.3080
24697SOL    HW177111   8.733   1.521   4.670 -0.7729 -0.9698 -1.7829
24697SOL    HW277112   8.734   1.446   4.802  0.1545  2.7896  0.4276
24698SOL     OW77113   5.587   8.641   0.316  0.1275  0.4053  0.3887
24698SOL    HW177114   5.623   8.560   0.352  0.1011  0.6814  1.0393
24698SOL    HW277115   5.543   8.682   0.390 -0.2085  0.8198 -0.0388
24699SOL     OW77116   1.556   3.337   3.039 -0.1772 -0.2293  0.7089
24699SOL    HW177117   1.649   3.337   3.060 -0.3372  0.2987  1.4459
24699SOL    HW277118   1.544   3.414   2.984 -0.2391 -0.0792  0.9285
24700SOL     OW77119   2.594   4.784   7.075 -0.1754  0.5622 -0.4297
24700SOL    HW177120   2.643   4.801   6.995 -0.2228  3.9850  0.1704
24700SOL    HW277121   2.659   4.753   7.138  0.2062 -0.2056 -1.2022
24701SOL     OW77122   0.477   2.651   8.313  0.1992 -0.2665  0.4304
24701SOL    HW177123   0.386   2.654   8.284  0.4816 -1.3662 -0.5869
24701SOL    HW277124   0.504   2.561   8.298  1.3477 -0.0360  1.0852
24702SOL     OW77125   5.873   0.294   3.728 -0.4461  0.2006 -0.3368
24702SOL    HW177126   5.799   0.333   3.680 -0.0343  0.5636 -0.6849
24702SOL    HW277127   5.855   0.315   3.819 -0.0743  1.5022 -0.5478
24703SOL     OW77128   6.486   7.350   2.931 -0.0473  0.3984  0.5067
24703SOL    HW177129   6.424   7.279   2.913 -1.2451  1.7600 -0.8982
24703SOL    HW277130   6.481   7.363   3.026 -0.7981 -0.4904  0.5954
24704SOL     OW77131   0.392   9.313   4.253 -0.1189 -0.7411 -0.0597
24704SOL    HW177132   0.297   9.306   4.248 -0.1838 -0.1944  0.3922
24704SOL    HW277133   0.424   9.248   4.190 -0.8195  1.6694 -3.0765
24705SOL     OW77134   8.333   3.773   9.127  0.1245 -0.3704 -0.3913
24705SOL    HW177135   8.270   3.845   9.118  1.1550  0.5416 -0.4891
24705SOL    HW277136   8.319   3.719   9.050 -0.8993 -0.4629 -0.1460
24706SOL     OW77137   5.260   0.721   6.260 -0.1733  0.0615 -0.1792
24706SOL    HW177138   5.234   0.646   6.314 -0.0850  0.4707  0.4341
24706SOL    HW277139   5.283   0.682   6.176 -0.9471 -0.5135 -0.1399
24707SOL     OW77140   9.270   5.624   8.087 -0.4278  0.1120 -0.0466
24707SOL    HW177141   9.335   5.583   8.029 -2.5154 -0.7010 -1.8434
24707SOL    HW277142   9.304   5.712   8.102  0.9715 -0.2129 -1.1378
24708SOL     OW77143   8.765   7.089   6.649  0.3092  0.4836 -0.8246
24708SOL    HW177144   8.720   7.033   6.586  0.7988 -1.4235  0.4887
24708SOL    HW277145   8.695   7.122   6.706  0.2053 -0.1263 -0.5925
24709SOL     OW77146   5.812   5.473   3.413 -0.5317  0.6243 -0.3529
24709SOL    HW177147   5.875   5.545   3.413 -1.1429  1.2343  2.5947
24709SOL    HW277148   5.734   5.509   3.455 -1.5387 -1.1917 -0.5973
24710SOL     OW77149   4.083   8.215   0.886  0.1568 -0.1445 -0.0498
24710SOL    HW177150   4.096   8.305   0.916 -0.1215  0.0533 -0.5046
24710SOL    HW277151   4.171   8.184   0.865  0.1468  0.3846 -0.9015
24711SOL     OW77152   2.317   6.633   0.757  0.2230  0.3001  0.7511
24711SOL    HW177153   2.330   6.680   0.675 -0.4852  0.7660  0.8970
24711SOL    HW277154   2.402   6.594   0.776  0.3070 -0.0893 -0.3702
24712SOL     OW77155   7.642   6.898   6.084 -0.3182 -0.0475  0.3710
24712SOL    HW177156   7.696   6.898   6.163 -1.3518  2.1038  1.1262
24712SOL    HW277157   7.566   6.845   6.106  0.6294 -1.6146 -0.0881
24713SOL     OW77158   7.922   0.301   7.131  0.3067 -0.4941 -0.3798
24713SOL    HW177159   7.950   0.215   7.099 -0.4025 -1.3123  1.1690
24713SOL    HW277160   7.976   0.317   7.208 -0.4140 -0.1143  0.0504
24714SOL     OW77161   4.647   4.918   7.611  0.5345 -0.4203  0.3592
24714SOL    HW177162   4.699   4.860   7.557 -0.6668  0.6294 -2.0267
24714SOL    HW277163   4.705   4.991   7.631 -0.2267  1.3178 -3.2623
24715SOL     OW77164   7.629   0.971   5.368 -0.1001 -0.2932  0.7122
24715SOL    HW177165   7.539   0.980   5.400 -0.3896 -1.3986  0.2337
24715SOL    HW277166   7.648   0.877   5.377 -0.1176 -0.6116 -2.1438
24716SOL     OW77167   6.183   5.237   1.900  1.0272 -0.3850 -0.3162
24716SOL    HW177168   6.202   5.294   1.974  0.4335 -2.8407  1.7716
24716SOL    HW277169   6.095   5.263   1.872  1.6531  1.2299 -0.8295
24717SOL     OW77170   3.923   9.402   1.084 -0.1987 -0.3819  0.0922
24717SOL    HW177171   3.903   9.444   1.168  0.0009  0.9658 -0.5244
24717SOL    HW277172   3.844   9.351   1.064 -0.6022  0.0037  0.6660
24718SOL     OW77173   3.491   6.509   0.434  0.1557  1.0070  0.2245
24718SOL    HW177174   3.431   6.491   0.361  1.8608  0.4871 -1.0778
24718SOL    HW277175   3.563   6.558   0.394 -0.7650  4.2296  2.3066
24719SOL     OW77176   7.022   4.537   8.075 -0.1472  0.0899  0.0372
24719SOL    HW177177   7.105   4.527   8.121 -0.4110 -0.8013  0.3379
24719SOL    HW277178   7.016   4.630   8.055  2.3898 -0.2800 -2.7967
24720SOL     OW77179   5.555   1.770   0.444 -0.5259  0.7533 -0.0106
24720SOL    HW177180   5.557   1.840   0.379 -2.1594  0.0284 -0.8879
24720SOL    HW277181   5.531   1.813   0.526  0.8694  1.5706 -0.0206
24721SOL     OW77182   0.213   2.341   8.545  0.5011 -0.3750 -0.6875
24721SOL    HW177183   0.177   2.416   8.498 -1.3635 -1.1057 -0.4812
24721SOL    HW277184   0.282   2.378   8.601 -0.0501  1.0949 -0.9663
24722SOL     OW77185   8.245   6.918   8.222  0.4281 -0.3109 -0.6080
24722SOL    HW177186   8.252   6.972   8.300  1.9962 -0.3458 -0.7154
24722SOL    HW277187   8.334   6.911   8.189  0.3503 -3.2967 -0.3762
24723SOL     OW77188   1.171   7.804   0.649  0.3232 -0.1057 -0.1047
24723SOL    HW177189   1.166   7.848   0.734  1.8964  0.2653 -0.1826
24723SOL    HW277190   1.080   7.799   0.619 -0.2977 -0.7602  1.8460
24724SOL     OW77191   6.983   3.039   6.858 -0.0668 -0.0201  0.4748
24724SOL    HW177192   6.907   3.024   6.915 -0.8824  0.9624 -0.3343
24724SOL    HW277193   6.984   3.134   6.846 -0.6378 -0.3262 -2.1461
24725SOL     OW77194   4.525   8.996   0.920  0.6157  0.2524  0.4789
24725SOL    HW177195   4.542   8.945   0.999 -0.4244  2.0789  1.9292
24725SOL    HW277196   4.433   9.023   0.928  0.1197 -0.5277 -1.9570
24726SOL     OW77197   2.203   2.939   0.854 -0.8320 -0.1080  0.2103
24726SOL    HW177198   2.201   3.027   0.891  1.6234 -0.4127  1.1472
24726SOL    HW277199   2.174   2.950   0.763 -3.3778  1.1866  1.1250
24727SOL     OW77200   7.215   3.167   3.496 -0.0793 -0.0836  0.4525
24727SOL    HW177201   7.251   3.249   3.463  0.3261 -0.0213  1.0478
24727SOL    HW277202   7.120   3.183   3.503  0.2461  1.0238  2.5535
24728SOL     OW77203   6.234   1.799   6.441 -0.3556 -0.1525 -0.2634
24728SOL    HW177204   6.144   1.807   6.475 -0.7744  1.0151 -1.6121
24728SOL    HW277205   6.275   1.883   6.462  0.9537 -1.2691  1.7911
24729SOL     OW77206   2.469   3.658   8.039  0.2235  0.1271  0.0911
24729SOL    HW177207   2.501   3.748   8.042  1.5741 -0.3657  0.7680
24729SOL    HW277208   2.491   3.622   8.125  0.4706 -1.1031 -0.4862
24730SOL     OW77209   3.031   7.654   5.423 -0.7438 -0.7526 -0.2656
24730SOL    HW177210   2.976   7.580   5.399 -0.7052 -0.8597 -0.0207
24730SOL    HW277211   2.973   7.713   5.472 -0.8163 -0.5445 -0.5955
24731SOL     OW77212   8.528   3.417   6.203  0.6944  0.4837 -0.0108
24731SOL    HW177213   8.592   3.355   6.239 -0.2988  0.8728  2.5427
24731SOL    HW277214   8.568   3.503   6.218  0.9501  0.5978 -1.2794
24732SOL     OW77215   7.161   8.715   2.695 -0.2852 -0.1711 -0.3279
24732SOL    HW177216   7.182   8.676   2.780  1.7197  0.5060 -0.4863
24732SOL    HW277217   7.101   8.653   2.655  0.0726 -1.3448  0.8893
24733SOL     OW77218   3.827   6.703   5.759 -0.0468 -0.1634  0.2588
24733SOL    HW177219   3.821   6.795   5.786 -0.2376  0.4221 -1.7023
24733SOL    HW277220   3.887   6.664   5.822  0.6472  1.4897  0.6558
24734SOL     OW77221   7.168   2.594   8.664  0.7720  0.3394  0.3347
24734SOL    HW177222   7.221   2.618   8.740 -0.8653  0.1316  1.5574
24734SOL    HW277223   7.099   2.538   8.699 -0.2353  0.5566 -1.2421
24735SOL     OW77224   8.017   9.091   6.213  0.2689  0.2042  0.1008
24735SOL    HW177225   8.013   9.069   6.120  0.1500  0.3261  0.0773
24735SOL    HW277226   7.945   9.041   6.252 -0.0154  0.5665  0.0436
24736SOL     OW77227   6.865   8.650   8.083  0.2633 -0.5538 -0.2308
24736SOL    HW177228   6.884   8.672   8.174  0.0483 -1.9079  0.1448
24736SOL    HW277229   6.924   8.578   8.062 -1.4582 -1.9639 -0.3572
24737SOL     OW77230   2.793   0.919   4.476  0.3698 -0.7338 -0.3023
24737SOL    HW177231   2.833   0.902   4.390  0.3310 -1.0030 -0.2686
24737SOL    HW277232   2.868   0.932   4.534  0.4032 -0.8109 -0.3262
24738SOL     OW77233   0.189   4.409   8.446 -0.0540 -0.4929 -0.2670
24738SOL    HW177234   0.136   4.354   8.387  0.7644  0.7398 -2.2096
24738SOL    HW277235   0.268   4.428   8.395  0.2968  1.3031  0.9355
24739SOL     OW77236   5.542   6.265   1.077  0.6582 -0.1669 -0.3093
24739SOL    HW177237   5.536   6.171   1.061  0.4832 -0.4989  1.6499
24739SOL    HW277238   5.574   6.272   1.167  2.2826  1.6523 -1.0070
24740SOL     OW77239   4.943   3.094   1.309  0.4368 -0.3147  0.5030
24740SOL    HW177240   4.885   3.018   1.318  2.5112 -1.8278  1.6778
24740SOL    HW277241   4.940   3.116   1.216 -1.0622 -1.1272  0.3458
24741SOL     OW77242   3.086   4.640   7.432  0.1886  0.0265  0.1749
24741SOL    HW177243   3.158   4.587   7.467 -0.1500 -0.3707  0.2660
24741SOL    HW277244   3.010   4.582   7.434 -0.6665  1.1560  2.2723
24742SOL     OW77245   9.082   6.161   2.546 -0.1127  0.5337 -0.0935
24742SOL    HW177246   9.143   6.095   2.513  0.3284 -0.0782  1.8262
24742SOL    HW277247   9.073   6.139   2.639  1.4059  4.1878  1.0152
24743SOL     OW77248   1.058   8.445   0.359  0.4290 -0.1115  0.3328
24743SOL    HW177249   1.069   8.451   0.264 -0.6623  2.4441  0.3470
24743SOL    HW277250   0.982   8.387   0.370  1.2000 -1.2624 -0.3019
24744SOL     OW77251   4.218   3.633   9.106 -0.1043 -0.1670 -0.1649
24744SOL    HW177252   4.190   3.543   9.089 -0.3543 -0.0052 -0.6410
24744SOL    HW277253   4.211   3.676   9.020  0.1888  0.2539  0.0250
24745SOL     OW77254   6.042   6.774   5.151  0.3420 -0.4726  0.3402
24745SOL    HW177255   6.092   6.740   5.225  0.7916  2.5547  1.4972
24745SOL    HW277256   5.970   6.823   5.192  0.1887  0.6453 -1.2437
24746SOL     OW77257   3.193   3.139   9.112 -0.0626 -0.0388 -0.0101
24746SOL    HW177258   3.128   3.070   9.097 -0.4620  0.3191  0.0723
24746SOL    HW277259   3.160   3.187   9.188 -0.2447  0.8046 -0.6221
24747SOL     OW77260   8.338   3.518   3.441  0.1551 -0.0145 -0.1289
24747SOL    HW177261   8.373   3.583   3.380  0.7976 -0.1319  0.1099
24747SOL    HW277262   8.286   3.459   3.387  1.6227 -0.7681 -0.7515
24748SOL     OW77263   2.875   3.270   6.137  0.5052 -0.1404  0.2876
24748SOL    HW177264   2.821   3.285   6.214  0.1967  1.7978 -0.2659
24748SOL    HW277265   2.947   3.333   6.147  0.7017 -0.1924 -0.7678
24749SOL     OW77266   4.159   9.419   3.104 -0.6794 -0.0084 -0.0171
24749SOL    HW177267   4.168   9.504   3.148 -0.4191 -0.8826  1.6618
24749SOL    HW277268   4.071   9.422   3.065 -0.9116  0.8028  0.5485
24750SOL     OW77269   6.644   7.552   7.044 -0.1105  0.3458 -0.2271
24750SOL    HW177270   6.723   7.547   7.098 -0.2911 -2.1556 -0.1221
24750SOL    HW277271   6.665   7.503   6.965 -0.8655  1.4254 -1.1121
24751SOL     OW77272   6.417   3.178   4.564  0.5683 -0.6047 -0.0898
24751SOL    HW177273   6.415   3.107   4.500 -2.1554  1.3641 -2.3680
24751SOL    HW277274   6.504   3.217   4.555  0.1848 -0.2474 -2.8530
24752SOL     OW77275   2.059   3.963   5.620 -0.4071  0.6389  0.1362
24752SOL    HW177276   2.071   3.959   5.525  0.7914  0.6099  0.2841
24752SOL    HW277277   2.045   3.872   5.646  1.2101  0.3939  0.2205
24753SOL     OW77278   2.238   1.264   1.372 -0.1283  0.0118 -0.0337
24753SOL    HW177279   2.261   1.194   1.433 -0.2117 -2.1750 -2.4405
24753SOL    HW277280   2.306   1.331   1.385  0.0815 -0.5769  2.1136
24754SOL     OW77281   2.927   4.712   5.605 -0.2960 -0.0058 -0.3477
24754SOL    HW177282   2.860   4.657   5.563  0.1148 -0.6079 -0.2227
24754SOL    HW277283   2.984   4.650   5.650 -0.7661  0.6345  1.1663
24755SOL     OW77284   5.692   8.665   4.802 -0.0982  0.1977  0.4871
24755SOL    HW177285   5.610   8.714   4.804  0.3750  1.0402 -0.2889
24755SOL    HW277286   5.750   8.718   4.749  1.5884  0.5815  2.6363
24756SOL     OW77287   4.571   4.677   4.730 -0.2471  0.2749 -0.3186
24756SOL    HW177288   4.571   4.652   4.823  0.7032 -0.9455 -0.6356
24756SOL    HW277289   4.568   4.594   4.683  0.9833  0.8191 -1.3906
24757SOL     OW77290   5.979   2.900   1.716  0.7584 -0.6880 -0.2847
24757SOL    HW177291   6.038   2.878   1.788  1.4315  1.5131 -0.1373
24757SOL    HW277292   5.892   2.877   1.749  1.2108 -1.1384  0.6295
24758SOL     OW77293   1.789   5.434   5.263 -0.3214 -0.2556  0.0099
24758SOL    HW177294   1.792   5.371   5.191  1.5907 -1.4548  1.0813
24758SOL    HW277295   1.856   5.403   5.325 -1.3757  1.1793  1.9366
24759SOL     OW77296   1.009   3.277   7.620 -0.3614  0.0374 -0.1401
24759SOL    HW177297   0.991   3.326   7.540 -0.7217  1.8013  0.9842
24759SOL    HW277298   1.008   3.185   7.593 -0.1795  0.6149 -2.2024
24760SOL     OW77299   1.884   6.292   3.930  0.2317 -0.2414 -0.0875
24760SOL    HW177300   1.824   6.321   3.998 -0.3243 -0.1324 -0.6226
24760SOL    HW277301   1.958   6.255   3.978 -0.8168 -1.5177  0.5686
24761SOL     OW77302   1.523   7.784   1.026 -0.2481  0.0151 -0.1225
24761SOL    HW177303   1.547   7.706   1.075  0.3005  0.3666  0.1691
24761SOL    HW277304   1.520   7.755   0.935 -1.1443 -0.6046  0.1022
24762SOL     OW77305   1.002   1.180   6.574 -0.2086 -0.0818  0.1899
24762SOL    HW177306   0.962   1.261   6.541  0.1353 -0.0254 -0.0853
24762SOL    HW277307   0.929   1.132   6.612 -0.3195  0.6232  0.8871
24763SOL     OW77308   2.799   4.332   2.363  0.2841 -0.2254  0.1152
24763SOL    HW177309   2.841   4.253   2.398  0.1694 -0.3935 -0.1257
24763SOL    HW277310   2.740   4.360   2.434  1.3120  0.4171  0.7335
24764SOL     OW77311   2.662   0.135   0.331  0.4239 -0.8415  0.0510
24764SOL    HW177312   2.708   0.129   0.248 -0.7830 -0.3007 -0.6650
24764SOL    HW277313   2.616   0.051   0.340 -0.9018 -0.2083 -0.7054
24765SOL     OW77314   5.070   6.509   1.394  0.0436 -0.5862  0.2392
24765SOL    HW177315   5.019   6.590   1.386 -0.4487 -0.9248 -0.0841
24765SOL    HW277316   5.013   6.451   1.444  0.1418 -0.9485 -0.0723
24766SOL     OW77317   0.518   4.922   7.201  0.4059  0.2987 -0.7490
24766SOL    HW177318   0.492   5.014   7.193  0.2253  0.1565 -1.8567
24766SOL    HW277319   0.449   4.881   7.253 -0.1613  0.5138 -1.3358
24767SOL     OW77320   4.906   4.656   8.874 -0.0178 -0.5464  0.0972
24767SOL    HW177321   4.895   4.750   8.889 -0.6512 -0.3173 -1.6858
24767SOL    HW277322   4.961   4.651   8.797  1.2209 -1.6659  1.0378
24768SOL     OW77323   5.080   2.793   6.651  0.0089  0.1954  0.0691
24768SOL    HW177324   4.995   2.753   6.666  0.4423 -0.1239  1.8625
24768SOL    HW277325   5.080   2.817   6.558 -1.3413 -1.3973 -0.3681
24769SOL     OW77326   8.928   5.698   8.695 -0.6482 -0.2714 -0.0603
24769SOL    HW177327   8.964   5.708   8.607  0.2280  2.4645  0.5762
24769SOL    HW277328   8.987   5.749   8.751 -2.2105 -0.5261  1.8656
24770SOL     OW77329   7.514   3.662   5.432 -0.0040 -0.0087  0.5031
24770SOL    HW177330   7.526   3.581   5.382  1.9128  2.0011 -2.4721
24770SOL    HW277331   7.603   3.695   5.446 -0.7981  1.9432  1.0384
24771SOL     OW77332   5.620   0.617   5.875 -0.0386 -0.2642  0.3628
24771SOL    HW177333   5.598   0.694   5.927 -1.4585  0.0559 -0.6855
24771SOL    HW277334   5.604   0.543   5.933  1.0264  0.2002  1.2708
24772SOL     OW77335   8.793   8.454   0.592  0.1785  0.0644 -0.5533
24772SOL    HW177336   8.705   8.416   0.588  0.5284 -0.6934 -1.0241
24772SOL    HW277337   8.824   8.435   0.680  0.6194 -1.3379 -1.0038
24773SOL     OW77338   3.783   4.030   8.942  0.0237  0.5484  0.1231
24773SOL    HW177339   3.711   3.973   8.967  0.5079 -1.9071 -3.6935
24773SOL    HW277340   3.860   3.993   8.985 -0.5164  1.6072  2.0487
24774SOL     OW77341   2.437   5.657   7.038 -0.0116 -0.7413  0.4996
24774SOL    HW177342   2.387   5.716   6.983  0.4315 -1.2933 -0.5179
24774SOL    HW277343   2.434   5.696   7.125 -0.7690  0.1106  0.0943
24775SOL     OW77344   4.138   6.330   3.383  0.0796 -0.4694  0.0620
24775SOL    HW177345   4.091   6.247   3.397 -0.1415 -0.3921 -0.2244
24775SOL    HW277346   4.200   6.335   3.456 -0.4384 -0.5129  0.5075
24776SOL     OW77347   8.928   8.722   0.527  0.0691 -0.5882  0.0117
24776SOL    HW177348   8.927   8.756   0.616  0.0332  1.2075 -0.6716
24776SOL    HW277349   8.856   8.659   0.525 -0.2966 -0.2183  1.0742
24777SOL     OW77350   8.886   5.187   4.913 -0.0679 -0.0318 -0.0263
24777SOL    HW177351   8.852   5.267   4.873  0.3731 -0.0543 -0.4520
24777SOL    HW277352   8.851   5.116   4.859  1.2479 -0.0203 -0.9189
24778SOL     OW77353   2.792   7.903   4.377  0.0266 -0.2118 -0.0590
24778SOL    HW177354   2.751   7.987   4.397  1.1732  0.3988 -0.1838
24778SOL    HW277355   2.735   7.863   4.311 -1.6121 -0.4488  1.4651
24779SOL     OW77356   4.700   4.412   8.960 -0.6020 -0.6098 -0.0101
24779SOL    HW177357   4.688   4.411   8.865 -1.5067 -2.2846  0.0979
24779SOL    HW277358   4.792   4.436   8.973 -0.6475  0.2747 -1.2741
24780SOL     OW77359   2.487   1.784   6.815  0.5814 -0.2459 -0.0328
24780SOL    HW177360   2.488   1.741   6.730 -1.1746 -0.1716 -0.1062
24780SOL    HW277361   2.410   1.748   6.859  0.2038  1.3596  0.6540
24781SOL     OW77362   5.654   2.623   2.100  0.0189 -0.2482 -0.1779
24781SOL    HW177363   5.656   2.621   2.196 -1.0558 -0.8936 -0.1612
24781SOL    HW277364   5.682   2.536   2.074 -0.5690 -0.3555 -0.4384
24782SOL     OW77365   1.454   1.180   5.786 -0.2662  0.2689  0.2511
24782SOL    HW177366   1.441   1.199   5.879 -1.4413  0.5193  0.0501
24782SOL    HW277367   1.366   1.188   5.748  0.1986  0.1099 -0.8677
24783SOL     OW77368   3.187   5.415   2.569 -0.0560  0.2569 -0.2665
24783SOL    HW177369   3.131   5.358   2.622  1.5275 -0.1404  1.0405
24783SOL    HW277370   3.266   5.363   2.554  1.3609  2.0348  0.8375
24784SOL     OW77371   5.721   7.220   7.062 -0.2135 -0.1899  0.6447
24784SOL    HW177372   5.746   7.308   7.035 -0.3275 -0.2912  0.2000
24784SOL    HW277373   5.776   7.201   7.138  0.1392  0.0829  0.4589
24785SOL     OW77374   3.645   3.794   6.314  0.0488 -0.0601  0.0595
24785SOL    HW177375   3.594   3.714   6.321  1.5568 -1.0276  0.1170
24785SOL    HW277376   3.719   3.772   6.258  1.3909  0.7981  1.4279
24786SOL     OW77377   4.882   4.381   8.155  0.8497 -0.3010 -0.6484
24786SOL    HW177378   4.959   4.386   8.097  0.9135  1.4254 -0.4494
24786SOL    HW277379   4.914   4.413   8.239  0.4209 -1.5602  0.0032
24787SOL     OW77380   7.770   7.406   4.832  0.2235  0.4325 -0.3004
24787SOL    HW177381   7.820   7.346   4.887  0.6701  1.2574  0.1968
24787SOL    HW277382   7.681   7.370   4.832  0.4702 -0.1948  0.0354
24788SOL     OW77383   5.579   0.284   1.551 -0.6361 -0.3103 -0.3640
24788SOL    HW177384   5.500   0.258   1.504 -0.7745  0.4783 -0.5716
24788SOL    HW277385   5.547   0.335   1.626 -0.2351  2.0661 -1.7574
24789SOL     OW77386   5.353   3.560   7.300 -0.1125  0.0135 -0.4798
24789SOL    HW177387   5.375   3.601   7.383 -2.7932 -0.5783  0.5779
24789SOL    HW277388   5.356   3.466   7.319 -1.7813 -0.1038 -0.7368
24790SOL     OW77389   7.909   4.076   2.481  0.1010 -0.0215  0.2855
24790SOL    HW177390   7.848   4.149   2.483 -1.4094 -1.2675  1.0244
24790SOL    HW277391   7.960   4.084   2.561  0.4618  0.6368 -0.0058
24791SOL     OW77392   9.055   7.119   3.178 -0.0286  0.1151 -0.1715
24791SOL    HW177393   9.094   7.177   3.113  1.3530  0.2343  0.7514
24791SOL    HW277394   9.002   7.176   3.233 -0.3987  0.1668 -0.5812
24792SOL     OW77395   1.558   8.175   4.099 -0.0433  0.0618  0.0109
24792SOL    HW177396   1.568   8.152   4.191  1.4719 -0.7272 -0.3381
24792SOL    HW277397   1.615   8.252   4.087  1.2197 -0.9454 -0.6640
24793SOL     OW77398   0.677   4.602   7.144  0.9288  0.0152 -0.0001
24793SOL    HW177399   0.627   4.538   7.194  2.2256 -0.6917  0.4133
24793SOL    HW277400   0.746   4.551   7.101  0.8966  0.8678 -1.1088
24794SOL     OW77401   7.457   1.913   7.931  0.4198 -0.0514 -0.1034
24794SOL    HW177402   7.444   1.825   7.895 -0.1668 -0.5614  1.3051
24794SOL    HW277403   7.442   1.972   7.857 -1.1465 -1.0550 -0.6178
24795SOL     OW77404   8.400   6.489   3.139 -0.2236  0.0647  0.1141
24795SOL    HW177405   8.472   6.464   3.081  0.2280 -1.3703  1.2629
24795SOL    HW277406   8.441   6.501   3.224 -1.3455 -0.9198  0.8138
24796SOL     OW77407   0.827   0.271   7.721  0.1188 -0.4152 -0.4394
24796SOL    HW177408   0.784   0.229   7.646  0.9214 -0.5532 -0.8287
24796SOL    HW277409   0.899   0.212   7.744  0.6107  0.2197 -0.3248
24797SOL     OW77410   8.107   7.323   3.828  0.1203  0.0721 -0.0712
24797SOL    HW177411   8.071   7.362   3.907  1.3988  2.4127 -0.5864
24797SOL    HW277412   8.055   7.245   3.813 -1.9801  1.1434  1.5026
24798SOL     OW77413   0.317   2.934   6.680 -0.1591  0.2923  0.0988
24798SOL    HW177414   0.276   2.926   6.766 -0.2879 -0.7981 -0.0537
24798SOL    HW277415   0.408   2.908   6.695 -0.6804 -1.9994 -0.4908
24799SOL     OW77416   4.878   3.390   5.471 -0.4232  0.1097 -0.5291
24799SOL    HW177417   4.969   3.381   5.499 -0.8610 -1.7226  0.3608
24799SOL    HW277418   4.872   3.336   5.392 -0.6014  0.6662 -0.8970
24800SOL     OW77419   6.116   2.563   0.906  0.0056  0.1195 -0.3493
24800SOL    HW177420   6.070   2.647   0.917 -1.7882 -0.8992  0.2296
24800SOL    HW277421   6.129   2.532   0.996 -0.7570 -0.9505 -0.6016
24801SOL     OW77422   8.115   8.779   4.753  0.1496  0.1380 -0.0522
24801SOL    HW177423   8.097   8.694   4.713 -2.0260  1.1528 -1.3472
24801SOL    HW277424   8.159   8.759   4.835  0.3433 -2.1889 -0.6971
24802SOL     OW77425   7.842   5.184   7.601 -0.3593 -0.0757  0.1049
24802SOL    HW177426   7.916   5.224   7.647 -0.6485  1.1192 -0.4449
24802SOL    HW277427   7.813   5.252   7.540 -0.9363 -1.1030 -0.7638
24803SOL     OW77428   0.354   4.982   6.122 -0.0758 -0.3971  0.7703
24803SOL    HW177429   0.388   4.907   6.074  0.8121  0.2242  0.4110
24803SOL    HW277430   0.420   4.999   6.189  0.6805  1.2365 -0.3556
24804SOL     OW77431   7.543   3.879   9.409 -0.3405 -0.3262 -0.2402
24804SOL    HW177432   7.455   3.854   9.383 -0.8243  0.9127  0.1885
24804SOL    HW277433   7.558   3.964   9.368  0.5960 -0.4563 -0.1863
24805SOL     OW77434   2.241   4.772   2.230  0.1702  0.2448  0.0466
24805SOL    HW177435   2.157   4.749   2.190  0.9358 -0.9050 -0.9483
24805SOL    HW277436   2.266   4.855   2.189 -0.4214  0.5407  0.2760
24806SOL     OW77437   5.024   5.847   1.781 -0.3020  0.1520  0.2729
24806SOL    HW177438   5.114   5.869   1.758  0.1450 -0.7164  1.1442
24806SOL    HW277439   4.974   5.860   1.700  1.1162 -2.2039 -1.0115
24807SOL     OW77440   0.636   9.099   3.784  0.2218 -0.6014 -0.4574
24807SOL    HW177441   0.669   9.188   3.795  0.2760 -0.4981 -1.4148
24807SOL    HW277442   0.639   9.084   3.690 -0.0140 -1.5325 -0.3208
24808SOL     OW77443   4.818   4.668   8.511 -0.1132 -0.0414 -0.4847
24808SOL    HW177444   4.801   4.739   8.449  1.7715  0.1151 -0.8792
24808SOL    HW277445   4.914   4.667   8.520 -0.2558 -1.1022  1.2088
24809SOL     OW77446   3.230   7.433   6.554  0.4228  0.2434 -0.6582
24809SOL    HW177447   3.309   7.434   6.609  0.4360 -2.1755 -0.5817
24809SOL    HW277448   3.174   7.367   6.594 -1.4270  1.5501 -1.0486
24810SOL     OW77449   3.360   6.755   7.986 -0.4159 -0.1441  0.4937
24810SOL    HW177450   3.352   6.734   7.893 -0.1323  0.6266  0.2934
24810SOL    HW277451   3.409   6.681   8.023  0.0956 -0.1027 -0.0955
24811SOL     OW77452   7.960   3.573   6.189  0.6259  0.3567 -0.2711
24811SOL    HW177453   7.994   3.554   6.277  0.8043 -0.4014 -0.4988
24811SOL    HW277454   7.982   3.495   6.138  0.0411  0.5727 -0.8543
24812SOL     OW77455   2.425   5.254   9.423  0.1609 -0.3729  0.4604
24812SOL    HW177456   2.510   5.277   9.460 -0.2429  2.2156 -0.1167
24812SOL    HW277457   2.366   5.322   9.454 -1.3767 -1.2664 -0.4148
24813SOL     OW77458   2.216   8.421   3.889  0.5546 -0.8566 -0.3489
24813SOL    HW177459   2.247   8.366   3.961 -0.2785 -0.3922  0.3794
24813SOL    HW277460   2.230   8.511   3.920  0.5820 -0.6537 -0.9398
24814SOL     OW77461   6.748   7.654   3.845 -0.1486 -0.4907 -0.6958
24814SOL    HW177462   6.709   7.725   3.795 -1.1278  0.5502  1.4966
24814SOL    HW277463   6.773   7.589   3.779 -0.0364  1.4838 -2.6479
24815SOL     OW77464   1.095   4.034   5.362 -0.4887 -0.1027  0.7759
24815SOL    HW177465   1.012   4.055   5.321  1.1339  1.1955 -1.9752
24815SOL    HW277466   1.151   4.110   5.345  2.4012 -2.4426 -0.6717
24816SOL     OW77467   9.365   4.559   5.931 -0.0965  0.0597 -0.0666
24816SOL    HW177468   9.453   4.564   5.966 -0.5405 -0.4946  1.1471
24816SOL    HW277469   9.328   4.646   5.948  0.2961  0.3779 -0.8156
24817SOL     OW77470   4.706   2.378   8.631 -0.3953  0.5708  0.5656
24817SOL    HW177471   4.641   2.385   8.562 -0.4818  0.2492  0.6133
24817SOL    HW277472   4.790   2.390   8.587 -0.5799  2.8228  0.7891
24818SOL     OW77473   6.495   8.829   8.783 -0.0309  0.0744  0.5601
24818SOL    HW177474   6.412   8.871   8.759  0.2737  0.2621 -0.1968
24818SOL    HW277475   6.558   8.901   8.786  0.2321 -0.1531  0.4969
24819SOL     OW77476   0.985   6.517   6.148  0.4003 -0.2673  0.2947
24819SOL    HW177477   1.061   6.476   6.108  0.4623 -1.6825  1.8210
24819SOL    HW277478   1.018   6.552   6.231 -0.1059  1.1678 -0.0855
24820SOL     OW77479   6.571   1.218   0.381  0.0679  0.6348  0.2082
24820SOL    HW177480   6.557   1.161   0.305 -1.9289 -1.2766  1.9266
24820SOL    HW277481   6.500   1.195   0.441  2.1948  1.3505  3.1076
24821SOL     OW77482   0.094   7.353   6.743 -0.2253 -0.0643  0.2475
24821SOL    HW177483   0.002   7.323   6.747 -0.6297  0.9553 -1.0756
24821SOL    HW277484   0.120   7.336   6.652 -0.4268  3.4049 -0.5360
24822SOL     OW77485   7.652   7.621   2.151 -0.5592 -0.6168  0.2223
24822SOL    HW177486   7.604   7.546   2.116 -0.9658 -0.4235  0.3556
24822SOL    HW277487   7.584   7.686   2.168  0.0286  0.6539 -2.0662
24823SOL     OW77488   8.982   0.183   0.586  0.2086  0.1525  0.3878
24823SOL    HW177489   9.009   0.121   0.653  1.4950  1.8996  1.5088
24823SOL    HW277490   9.016   0.267   0.615 -0.9110  1.2855 -1.4620
24824SOL     OW77491   0.500   1.093   6.268  0.5197 -0.1996 -0.1560
24824SOL    HW177492   0.485   1.178   6.224  0.3823  0.4729  1.1771
24824SOL    HW277493   0.483   1.028   6.200 -0.9955  0.8012 -0.7581
24825SOL     OW77494   6.215   1.937   9.379  0.1776 -0.2454 -0.1316
24825SOL    HW177495   6.171   1.965   9.299  0.3978  0.2565 -0.0739
24825SOL    HW277496   6.302   1.908   9.349  1.1804  2.2835  0.2491
24826SOL     OW77497   9.131   6.336   7.804 -0.5926  0.4295 -0.4427
24826SOL    HW177498   9.043   6.351   7.839 -0.2602  1.3588  0.0181
24826SOL    HW277499   9.186   6.326   7.882 -0.1273  0.7820 -0.7253
24827SOL     OW77500   1.370   3.885   2.381 -0.2443  0.7666  0.1156
24827SOL    HW177501   1.295   3.855   2.328  1.1860  0.2267 -1.6459
24827SOL    HW277502   1.445   3.838   2.345  1.3991  3.3834  0.0193
24828SOL     OW77503   1.936   8.203   6.458  0.0182 -0.1147 -0.7441
24828SOL    HW177504   1.975   8.277   6.411  0.1152 -0.4227 -1.1504
24828SOL    HW277505   1.847   8.198   6.423 -0.2871  0.4006 -0.0367
24829SOL     OW77506   8.673   1.262   9.140  0.0304 -0.3482  0.1762
24829SOL    HW177507   8.688   1.346   9.183 -0.1190 -1.6722  2.9381
24829SOL    HW277508   8.655   1.284   9.048  4.1912  2.3191 -0.1242
24830SOL     OW77509   4.542   8.487   2.448  0.0283 -0.0934 -0.3711
24830SOL    HW177510   4.510   8.565   2.404 -1.8569  0.3430  1.6735
24830SOL    HW277511   4.479   8.419   2.424 -1.4904  0.3316  2.1816
24831SOL     OW77512   7.678   5.640   7.598 -0.3599  0.2620 -0.4554
24831SOL    HW177513   7.770   5.646   7.571 -0.6802 -0.3741 -1.7176
24831SOL    HW277514   7.662   5.546   7.607 -0.5040  0.4291  1.1547
24832SOL     OW77515   7.114   4.076   9.381  0.1289  0.3666 -0.1631
24832SOL    HW177516   7.179   4.076   9.311  0.1647  0.6591 -0.1288
24832SOL    HW277517   7.087   3.984   9.387 -0.9137  0.5694 -1.5233
24833SOL     OW77518   6.097   8.873   1.144  0.6639 -0.5279 -0.5832
24833SOL    HW177519   6.052   8.836   1.220 -0.3460  0.1177 -0.8569
24833SOL    HW277520   6.099   8.803   1.080 -1.5685 -0.0134 -1.2359
24834SOL     OW77521   6.629   8.057   7.376  0.2438  0.0523  0.0670
24834SOL    HW177522   6.647   8.150   7.362  0.6047  0.0391  0.4400
24834SOL    HW277523   6.606   8.023   7.290  0.9767  0.2920 -0.2220
24835SOL     OW77524   6.109   2.072   8.766  0.1016  0.1951 -0.7853
24835SOL    HW177525   6.040   2.061   8.700 -0.4736 -0.5432 -0.0674
24835SOL    HW277526   6.096   2.160   8.800  0.0678  0.3849 -1.2877
24836SOL     OW77527   7.003   6.217   5.820 -0.0037  0.4996  0.3576
24836SOL    HW177528   7.092   6.230   5.853  0.1900  1.6630 -0.6160
24836SOL    HW277529   6.952   6.288   5.858  0.0460  1.3753 -1.1653
24837SOL     OW77530   2.071   5.900   5.905 -0.1581  0.0539 -0.1846
24837SOL    HW177531   1.991   5.915   5.955 -0.5972 -1.4963 -0.3931
24837SOL    HW277532   2.140   5.939   5.959 -0.8676  0.1006  0.7019
24838SOL     OW77533   7.312   9.245   5.794 -0.0421  0.0027  0.1775
24838SOL    HW177534   7.388   9.304   5.802 -0.2287  0.1987  0.5540
24838SOL    HW277535   7.348   9.158   5.809  0.0792  0.1148  0.5643
24839SOL     OW77536   8.076   2.150   3.348 -0.4492  0.3320  0.3820
24839SOL    HW177537   8.138   2.102   3.403  1.3271 -0.9056 -2.5717
24839SOL    HW277538   8.030   2.082   3.298  1.2136  1.5130 -2.9507
24840SOL     OW77539   2.500   0.287   1.665  0.4128  0.3409 -0.4114
24840SOL    HW177540   2.507   0.337   1.746 -0.9881 -0.1625  0.0372
24840SOL    HW277541   2.575   0.315   1.612  1.1416  0.9176  0.9213
24841SOL     OW77542   0.347   2.523   2.642  0.3003 -0.1995 -0.0606
24841SOL    HW177543   0.340   2.565   2.557  2.4157  0.8199  0.2329
24841SOL    HW277544   0.441   2.526   2.663 -0.0480 -1.3872  1.8108
24842SOL     OW77545   3.937   5.993   6.680 -0.0192  0.0937  0.2741
24842SOL    HW177546   3.912   6.008   6.771  1.1094 -3.1070  1.1849
24842SOL    HW277547   4.032   5.982   6.683 -0.0712 -0.8428 -1.1581
24843SOL     OW77548   9.036   2.311   0.182  0.3575  0.0682  0.2601
24843SOL    HW177549   8.960   2.321   0.239  0.5721  0.3442  0.4973
24843SOL    HW277550   9.093   2.249   0.227  0.3308 -0.0462  0.1385
24844SOL     OW77551   2.263   6.893   3.853 -0.3678 -0.0339 -0.0321
24844SOL    HW177552   2.323   6.896   3.779  1.0686 -1.3505  1.0396
24844SOL    HW277553   2.300   6.956   3.916 -1.4698  0.9405 -0.3463
24845SOL     OW77554   8.703   1.941   3.430  0.1716  0.5728 -0.1935
24845SOL    HW177555   8.646   1.903   3.363  0.4142 -0.6903  0.3095
24845SOL    HW277556   8.650   1.940   3.510  0.3512  0.8261 -0.0708
24846SOL     OW77557   6.733   6.105   7.864 -0.1153  0.2248  0.8717
24846SOL    HW177558   6.741   6.041   7.935 -0.2406  1.4410  2.0021
24846SOL    HW277559   6.688   6.057   7.794  1.7258 -1.5670  0.8700
24847SOL     OW77560   4.933   2.937   8.080 -0.2489  0.0416  0.2801
24847SOL    HW177561   4.915   2.928   7.986  0.2688  2.4447 -0.0820
24847SOL    HW277562   5.001   2.871   8.097  1.6896  1.4187 -1.6695
24848SOL     OW77563   1.476   7.905   6.314  0.5125 -0.5561 -0.2151
24848SOL    HW177564   1.411   7.960   6.357  0.2348 -0.0267 -1.2913
24848SOL    HW277565   1.532   7.873   6.385  1.2564  1.8526  0.3267
24849SOL     OW77566   0.932   6.971   6.508  0.2047 -0.3578 -0.4255
24849SOL    HW177567   0.876   7.001   6.437 -0.6479  0.9445  0.7820
24849SOL    HW277568   0.884   6.898   6.548 -0.1218  0.0427 -0.0865
24850SOL     OW77569   4.593   5.097   0.339 -0.5865 -0.0377  0.2907
24850SOL    HW177570   4.685   5.124   0.344 -0.2781 -0.6612 -1.3740
24850SOL    HW277571   4.544   5.168   0.379  0.5528  0.8200  0.1791
24851SOL     OW77572   0.814   5.696   0.561  0.3085  0.9742 -0.1904
24851SOL    HW177573   0.837   5.783   0.594  0.0701  0.7245  0.6447
24851SOL    HW277574   0.891   5.642   0.579  0.8298  1.2342 -1.5827
24852SOL     OW77575   8.186   6.596   7.921 -0.3103  0.5371 -0.4340
24852SOL    HW177576   8.273   6.557   7.921 -0.2984  0.5719 -0.9949
24852SOL    HW277577   8.173   6.629   7.832 -2.1085 -2.1756 -1.2175
24853SOL     OW77578   5.850   6.031   4.825  0.0003  0.7086 -0.0466
24853SOL    HW177579   5.755   6.027   4.836  0.1010  1.0726  0.9657
24853SOL    HW277580   5.875   5.941   4.805 -0.4972  0.5120  0.1970
24854SOL     OW77581   2.701   3.893   9.113 -0.0237  0.5137 -0.1841
24854SOL    HW177582   2.669   3.950   9.183  0.4404 -2.1951  2.3359
24854SOL    HW277583   2.623   3.851   9.078 -0.1212  0.8576 -0.3824
24855SOL     OW77584   1.420   6.692   6.877  0.0129  0.4366 -0.7715
24855SOL    HW177585   1.458   6.606   6.896  0.5026  0.8341  0.0844
24855SOL    HW277586   1.440   6.707   6.785  3.0873  1.1987 -0.0456
24856SOL     OW77587   3.584   9.163   6.820 -0.2305 -0.3582 -0.1420
24856SOL    HW177588   3.546   9.144   6.905 -1.4630 -2.0079 -1.0260
24856SOL    HW277589   3.536   9.239   6.787  0.4255  0.4444  0.7162
24857SOL     OW77590   8.469   7.815   6.216 -0.3047 -0.3959  0.0939
24857SOL    HW177591   8.553   7.792   6.177 -0.5709 -2.4974  0.7060
24857SOL    HW277592   8.460   7.910   6.202  2.1652 -0.1566  0.0528
24858SOL     OW77593   1.086   8.282   2.248  0.2032  0.0053  0.5104
24858SOL    HW177594   1.003   8.257   2.290  0.1754 -0.1691  0.3494
24858SOL    HW277595   1.127   8.341   2.311 -0.7227  1.2771 -0.0451
24859SOL     OW77596   7.285   8.425   8.318 -0.4035  0.3461 -0.0328
24859SOL    HW177597   7.282   8.411   8.413 -0.4127  0.7873  0.0367
24859SOL    HW277598   7.378   8.435   8.298 -0.4173  0.4894 -0.0290
24860SOL     OW77599   3.497   3.182   5.114  0.0588 -0.5763 -0.1469
24860SOL    HW177600   3.416   3.191   5.163  0.7170  0.1977  0.8079
24860SOL    HW277601   3.469   3.173   5.023 -1.0348  4.2302 -0.4462
24861SOL     OW77602   0.712   7.942   1.446 -0.0183 -0.2714  0.2931
24861SOL    HW177603   0.622   7.967   1.467 -0.3696  0.4345 -1.9355
24861SOL    HW277604   0.762   8.024   1.451  0.7107 -0.8049  2.3988
24862SOL     OW77605   6.606   7.157   0.719 -0.5743 -0.0896 -0.7831
24862SOL    HW177606   6.555   7.159   0.801 -0.1464 -2.7111 -0.4277
24862SOL    HW277607   6.544   7.187   0.652 -1.1203  1.4607  0.3897
24863SOL     OW77608   7.785   4.337   7.097  0.0799  0.2849 -0.5006
24863SOL    HW177609   7.854   4.350   7.032  0.0057  0.8014 -0.4792
24863SOL    HW277610   7.831   4.331   7.181  0.0228  1.8320 -0.3419
24864SOL     OW77611   3.890   3.511   1.648 -0.0153 -0.3143 -0.1263
24864SOL    HW177612   3.983   3.489   1.640 -0.4067 -1.4752 -1.8660
24864SOL    HW277613   3.879   3.538   1.739  1.6103 -2.1215  0.6369
24865SOL     OW77614   6.966   9.135   4.365 -0.1424  0.1320 -0.2106
24865SOL    HW177615   6.884   9.152   4.412 -0.9145 -0.5998 -1.2728
24865SOL    HW277616   6.984   9.217   4.319 -0.7841 -0.0159 -0.7307
24866SOL     OW77617   8.282   9.018   6.276 -0.0329  0.1295  0.2650
24866SOL    HW177618   8.186   9.024   6.269  0.0703  1.7997  0.0259
24866SOL    HW277619   8.297   8.994   6.367 -0.6822 -0.3201  0.2622
24867SOL     OW77620   1.020   4.260   7.099  1.0144 -0.0038  0.2378
24867SOL    HW177621   0.986   4.250   7.010 -3.0684 -0.2359  1.7235
24867SOL    HW277622   1.090   4.195   7.105  0.5156 -0.8508 -2.3971
24868SOL     OW77623   4.555   4.956   2.755  0.1314  0.3289  0.2200
24868SOL    HW177624   4.569   4.977   2.663  2.9012  0.5530  0.6612
24868SOL    HW277625   4.480   5.009   2.781  0.8395  2.0822 -1.2652
24869SOL     OW77626   4.696   0.106   5.584  0.1533  0.3216  0.2122
24869SOL    HW177627   4.765   0.170   5.597  1.7712 -1.1172 -1.0993
24869SOL    HW277628   4.740   0.029   5.547 -2.0702 -0.7585 -0.3116
24870SOL     OW77629   7.543   4.889   3.561  0.0765 -0.6506 -0.9896
24870SOL    HW177630   7.545   4.907   3.655  0.3065 -0.4427 -1.0318
24870SOL    HW277631   7.530   4.975   3.521 -2.1426 -1.0023 -1.0666
24871SOL     OW77632   4.027   0.072   8.351 -0.4434 -0.1116  0.9071
24871SOL    HW177633   3.970   0.126   8.406 -0.7530  0.9207 -0.3884
24871SOL    HW277634   4.019   0.110   8.263  0.2052 -1.5837  0.1826
24872SOL     OW77635   3.219   4.600   4.724  0.2445 -0.1088 -0.3013
24872SOL    HW177636   3.297   4.628   4.773  0.3877  1.2762 -1.2886
24872SOL    HW277637   3.149   4.658   4.754  0.1956  0.3514 -1.2729
24873SOL     OW77638   6.828   5.612   7.874 -0.6146 -0.9220  0.3713
24873SOL    HW177639   6.739   5.608   7.839 -0.5546 -0.9231  0.2151
24873SOL    HW277640   6.883   5.574   7.805 -0.3556  0.1036 -0.0067
24874SOL     OW77641   6.617   0.692   7.000  0.0040  0.1185 -0.7624
24874SOL    HW177642   6.543   0.710   7.058 -0.0520 -1.5364 -0.2737
24874SOL    HW277643   6.661   0.776   6.989 -0.5224  0.6371  0.9472
24875SOL     OW77644   2.565   1.242   0.895  0.5486  0.2588 -0.2332
24875SOL    HW177645   2.484   1.227   0.846  0.2624  0.9630  0.0067
24875SOL    HW277646   2.635   1.213   0.836  0.1205 -0.3773 -0.4317
24876SOL     OW77647   5.319   2.445   6.919  0.2073  0.5591  0.0222
24876SOL    HW177648   5.316   2.493   6.836  0.6698 -0.1526 -0.4158
24876SOL    HW277649   5.309   2.353   6.893  0.5783  0.3172  0.7352
24877SOL     OW77650   7.894   0.649   7.654 -0.5994  0.1600 -0.1268
24877SOL    HW177651   7.904   0.700   7.734  0.7053 -1.5625  0.8458
24877SOL    HW277652   7.805   0.669   7.623 -0.3912  2.3720  0.6448
24878SOL     OW77653   2.114   1.097   3.151 -0.3916 -0.3996  0.8794
24878SOL    HW177654   2.110   1.025   3.215 -1.1066 -2.1233 -1.0531
24878SOL    HW277655   2.025   1.131   3.147 -0.7819 -1.5547 -0.5791
24879SOL     OW77656   3.782   2.345   9.010 -0.1129  0.0050 -0.0216
24879SOL    HW177657   3.746   2.305   9.089  2.5762 -1.1691  0.6842
24879SOL    HW277658   3.849   2.406   9.042 -0.1355  0.7183 -1.3219
24880SOL     OW77659   7.725   5.880   1.427  0.1210 -0.7858 -0.4789
24880SOL    HW177660   7.783   5.831   1.486  0.6395 -0.3937 -0.6561
24880SOL    HW277661   7.709   5.820   1.355  2.1650 -0.1066 -1.5550
24881SOL     OW77662   3.040   3.587   8.433 -0.5926  0.0064 -0.3712
24881SOL    HW177663   3.026   3.494   8.416 -2.0582  0.1786 -0.1475
24881SOL    HW277664   2.991   3.604   8.514  0.7390  0.6881  0.3031
24882SOL     OW77665   0.614   2.130   3.600  0.3691  0.0122 -0.2006
24882SOL    HW177666   0.536   2.152   3.650  1.2425 -1.7562  1.9773
24882SOL    HW277667   0.631   2.038   3.620  1.8962 -0.1818 -2.1963
24883SOL     OW77668   2.126   4.908   1.916  0.2412 -0.5789  0.1954
24883SOL    HW177669   2.035   4.937   1.926  0.1817 -0.7703  0.2044
24883SOL    HW277670   2.120   4.813   1.905  0.6751 -1.0561  3.6193
24884SOL     OW77671   4.308   7.888   5.587  0.1222  0.2423  0.1313
24884SOL    HW177672   4.239   7.943   5.625  1.5759  0.6044  2.2906
24884SOL    HW277673   4.266   7.802   5.575 -1.1069  0.8392  0.0592
24885SOL     OW77674   6.357   2.654   7.496  0.0297 -0.3600  0.1047
24885SOL    HW177675   6.418   2.642   7.424  1.2330  0.3490  0.9767
24885SOL    HW277676   6.384   2.589   7.561  0.2884  0.3770  0.7532
24886SOL     OW77677   4.124   0.600   0.880  0.7756 -0.2063  0.3121
24886SOL    HW177678   4.043   0.649   0.862  1.7980  0.8337 -1.6200
24886SOL    HW277679   4.139   0.549   0.801  0.4334 -2.6983  1.8121
24887SOL     OW77680   1.379   6.733   4.906  0.3926 -0.2255  0.5131
24887SOL    HW177681   1.299   6.681   4.915 -0.7814  1.8435  2.4409
24887SOL    HW277682   1.447   6.680   4.948 -0.7574 -0.2914  2.3155
24888SOL     OW77683   5.271   0.085   1.534 -0.0956 -0.4162  0.0395
24888SOL    HW177684   5.315   0.087   1.619 -3.4996 -0.9622  1.9080
24888SOL    HW277685   5.211   0.159   1.536  0.0943 -0.1793 -2.0825
24889SOL     OW77686   3.351   8.350   4.481  0.3692 -0.0011 -0.4651
24889SOL    HW177687   3.426   8.294   4.461  0.8060  0.0853  0.8234
24889SOL    HW277688   3.301   8.355   4.400 -0.1276 -2.9445 -0.4047
24890SOL     OW77689   7.844   0.046   4.830  1.1653  0.2747  0.2056
24890SOL    HW177690   7.827   0.140   4.827  3.0672  0.6031 -0.9063
24890SOL    HW277691   7.813   0.013   4.746  3.1162  0.3861 -0.5753
24891SOL     OW77692   6.457   5.742   4.599 -0.6430  0.2704  0.1082
24891SOL    HW177693   6.498   5.806   4.658 -0.1436  0.4644 -0.4375
24891SOL    HW277694   6.396   5.794   4.547 -0.6188  0.2128  0.0228
24892SOL     OW77695   6.467   7.964   4.898  0.4480  0.1624 -0.1723
24892SOL    HW177696   6.444   7.873   4.918 -0.3135  0.0899 -1.3378
24892SOL    HW277697   6.394   7.995   4.844  0.1907  1.7872  1.0958
24893SOL     OW77698   6.359   1.578   2.145 -0.2529 -0.0915 -0.1493
24893SOL    HW177699   6.431   1.567   2.082 -0.4352 -1.2562 -0.1624
24893SOL    HW277700   6.402   1.602   2.227  0.2342 -1.8276  0.1073
24894SOL     OW77701   8.531   8.040   3.235  0.3875  0.5428 -0.3329
24894SOL    HW177702   8.468   8.014   3.303 -1.3732 -0.8097 -2.4363
24894SOL    HW277703   8.532   8.136   3.239 -0.4056  0.5155  0.9535
24895SOL     OW77704   5.102   0.940   8.493  0.1761 -0.4766  0.4255
24895SOL    HW177705   5.051   0.863   8.467  1.8855 -0.8085 -2.1073
24895SOL    HW277706   5.038   0.996   8.538 -2.1570 -1.3938 -1.5886
24896SOL     OW77707   1.407   8.292   5.110 -0.1827  0.7121 -0.4861
24896SOL    HW177708   1.331   8.287   5.168 -1.3620  0.4529 -2.0106
24896SOL    HW277709   1.398   8.376   5.066  0.9473  1.1078  0.0355
24897SOL     OW77710   8.863   5.410   6.672  0.5006  0.1960 -0.0160
24897SOL    HW177711   8.858   5.397   6.767 -1.7655  0.6322 -0.0525
24897SOL    HW277712   8.778   5.382   6.640  0.7673  1.3699 -1.7858
24898SOL     OW77713   8.398   6.362   5.294  0.1715  0.2605  0.0761
24898SOL    HW177714   8.456   6.291   5.267  0.3158  0.2032  0.5534
24898SOL    HW277715   8.312   6.336   5.260  0.8325  1.4816 -2.7481
24899SOL     OW77716   3.226   2.995   2.477  0.7248  0.2159 -0.0870
24899SOL    HW177717   3.256   3.025   2.391  2.9829  0.4588  0.7498
24899SOL    HW277718   3.253   2.903   2.480 -1.8696 -0.6059 -0.7256
24900SOL     OW77719   3.714   1.362   7.844  0.3966 -0.7264  0.5144
24900SOL    HW177720   3.779   1.301   7.877 -0.6213 -2.3198 -0.3978
24900SOL    HW277721   3.676   1.402   7.923  0.1344 -2.2437  1.1647
24901SOL     OW77722   8.051   1.694   7.601  0.1561 -0.5427  0.1900
24901SOL    HW177723   8.067   1.614   7.650 -0.1710 -1.1070 -0.6204
24901SOL    HW277724   8.003   1.751   7.662  1.3373 -0.5329  1.1340
24902SOL     OW77725   0.222   8.062   6.223  0.3555  0.0347  0.1134
24902SOL    HW177726   0.241   8.139   6.170 -0.5115 -0.6868 -1.2991
24902SOL    HW277727   0.279   7.994   6.188 -1.0857 -0.7751 -0.7476
24903SOL     OW77728   7.007   2.571   5.363 -0.6263 -0.0586  0.0898
24903SOL    HW177729   7.064   2.500   5.393  0.3511 -0.2340 -2.0872
24903SOL    HW277730   6.921   2.531   5.354 -0.5191 -0.4556  0.8084
24904SOL     OW77731   8.557   1.448   5.171 -0.2101  0.3856  0.1728
24904SOL    HW177732   8.649   1.420   5.171 -0.2354  0.3011  0.2814
24904SOL    HW277733   8.516   1.394   5.239 -0.1268  1.1275  0.8220
24905SOL     OW77734   1.804   7.429   1.057 -0.1409  0.0484  0.0598
24905SOL    HW177735   1.826   7.522   1.052  0.2424 -0.0176  0.5775
24905SOL    HW277736   1.711   7.425   1.032 -0.2988  0.6268  0.5576
24906SOL     OW77737   3.588   0.008   4.511 -0.2625  0.8802  0.3827
24906SOL    HW177738   3.541   0.071   4.567 -0.6403  1.1637 -0.2532
24906SOL    HW277739   3.532  -0.070   4.511  0.6033  0.2292  1.8427
24907SOL     OW77740   0.488   1.845   1.280  0.4622 -0.1478  0.2576
24907SOL    HW177741   0.548   1.831   1.354  2.2308 -0.2127 -1.1459
24907SOL    HW277742   0.438   1.923   1.303  1.0875 -0.0991  1.4662
24908SOL     OW77743   5.903   9.306   4.658  0.2653  0.0307  0.5265
24908SOL    HW177744   5.907   9.374   4.591 -1.2871 -2.2734 -1.9944
24908SOL    HW277745   5.992   9.272   4.664  0.6978  1.1725  0.6532
24909SOL     OW77746   9.045   0.033   7.982  0.7960  0.1623 -0.4483
24909SOL    HW177747   9.040  -0.060   8.005  0.9149  0.3107  0.1930
24909SOL    HW277748   9.134   0.059   8.006  1.7632 -0.2665 -3.3634
24910SOL     OW77749   7.870   5.596   7.966  0.0758  0.3174 -0.2181
24910SOL    HW177750   7.805   5.526   7.961 -0.3860  0.6597  0.8817
24910SOL    HW277751   7.954   5.551   7.974  0.0780 -0.1451 -2.4983
24911SOL     OW77752   0.842   7.926   3.396  0.3654  0.2069 -0.0747
24911SOL    HW177753   0.895   7.985   3.450 -0.1746  0.4724  0.1759
24911SOL    HW277754   0.886   7.841   3.404  1.7213  0.7857 -1.2649
24912SOL     OW77755   8.796   5.468   1.164 -0.2062  0.1370 -0.8095
24912SOL    HW177756   8.792   5.373   1.159 -0.2815  0.1685 -1.4050
24912SOL    HW277757   8.743   5.499   1.091 -2.8486  0.6812  1.2746
24913SOL     OW77758   3.531   8.576   1.737  0.6275 -0.0323  0.1731
24913SOL    HW177759   3.438   8.565   1.754  1.0496 -0.9371  1.9962
24913SOL    HW277760   3.572   8.497   1.772  2.0052 -0.0301 -1.3553
24914SOL     OW77761   4.968   0.045   2.324 -0.0753  0.3155  0.2016
24914SOL    HW177762   4.959   0.036   2.229  1.7643  2.2390 -0.2003
24914SOL    HW277763   4.919   0.125   2.346  1.0750  0.9359  0.5687
24915SOL     OW77764   2.542   3.714   0.280  0.0344 -0.2349 -0.4862
24915SOL    HW177765   2.500   3.701   0.365 -2.1222 -0.1682 -1.4996
24915SOL    HW277766   2.577   3.628   0.257  0.4909 -0.2906  0.3859
24916SOL     OW77767   4.960   5.679   3.750 -0.9364 -0.1880 -0.1775
24916SOL    HW177768   4.956   5.598   3.700 -1.8204  0.0665 -0.5244
24916SOL    HW277769   4.876   5.684   3.795 -1.3701  1.1531 -1.1232
24917SOL     OW77770   8.885   1.343   3.262 -0.2918 -0.2906 -0.0059
24917SOL    HW177771   8.975   1.340   3.296 -0.7222 -1.3838  1.1031
24917SOL    HW277772   8.833   1.297   3.329 -1.6829  0.3688 -0.6146
24918SOL     OW77773   3.421   7.909   1.647  0.5860 -0.1832  0.1738
24918SOL    HW177774   3.392   7.976   1.708  0.8902 -0.3603  0.5145
24918SOL    HW277775   3.341   7.871   1.612  0.3452  2.3223 -2.2012
24919SOL     OW77776   7.858   3.626   7.629  0.6433 -0.0084 -0.1466
24919SOL    HW177777   7.763   3.642   7.627  0.3688 -1.5897 -0.0040
24919SOL    HW277778   7.892   3.694   7.687  0.0012  2.5239 -2.6162
24920SOL     OW77779   7.259   8.054   6.543  0.3248 -0.4758 -0.3311
24920SOL    HW177780   7.334   8.072   6.485  0.1080 -0.2758 -0.5535
24920SOL    HW277781   7.207   7.989   6.495  0.8256 -1.3031  0.2313
24921SOL     OW77782   0.868   5.948   9.351 -0.1279 -0.2354 -0.8646
24921SOL    HW177783   0.796   5.938   9.290  1.4145 -1.0810 -2.5954
24921SOL    HW277784   0.936   5.888   9.319  2.4390  2.5791 -0.9725
24922SOL     OW77785   7.834   7.342   8.594 -0.5625  0.1539 -0.2479
24922SOL    HW177786   7.792   7.360   8.678 -0.6741 -0.1292 -0.2443
24922SOL    HW277787   7.780   7.388   8.530 -0.7072  0.0369 -0.2093
24923SOL     OW77788   5.031   0.762   4.043 -0.5011 -0.0858 -0.2885
24923SOL    HW177789   5.074   0.845   4.021 -1.4766  0.3796 -0.4680
24923SOL    HW277790   4.970   0.786   4.113 -0.5894 -0.7088 -0.1554
24924SOL     OW77791   8.909   1.261   3.647 -0.2257  0.3263 -0.7403
24924SOL    HW177792   8.993   1.284   3.688  0.4388 -1.8414 -0.8149
24924SOL    HW277793   8.847   1.259   3.719  0.3216 -0.5321 -0.2808
24925SOL     OW77794   0.384   1.168   4.188  0.0087  0.2315  0.2384
24925SOL    HW177795   0.354   1.206   4.271 -1.1858  0.0478 -0.1031
24925SOL    HW277796   0.314   1.109   4.162 -0.0996  1.0761 -1.4291
24926SOL     OW77797   6.275   4.881   6.009 -0.2589 -0.0720 -0.1049
24926SOL    HW177798   6.282   4.811   5.945  0.9137  0.4863 -0.5983
24926SOL    HW277799   6.280   4.837   6.094  2.5616 -0.4148 -0.4104
24927SOL     OW77800   7.479   2.995   6.865 -1.0986  0.4916 -0.1979
24927SOL    HW177801   7.499   2.902   6.872  1.2948  1.0116  0.0894
24927SOL    HW277802   7.411   3.010   6.930 -0.2769 -0.6990  0.9494
24928SOL     OW77803   6.997   7.524   6.824  0.1781  0.2934 -0.1960
24928SOL    HW177804   7.032   7.602   6.866 -1.3914  1.1308 -0.3785
24928SOL    HW277805   6.904   7.524   6.847  0.1623 -1.5596 -0.1486
24929SOL     OW77806   2.978   7.819   2.260 -0.1347  0.1644 -0.1177
24929SOL    HW177807   2.921   7.895   2.247  0.9230  0.9672 -0.1718
24929SOL    HW277808   2.999   7.821   2.354 -1.7979 -1.3049  0.3171
24930SOL     OW77809   1.709   5.752   0.301 -0.6326  0.6312 -0.2775
24930SOL    HW177810   1.775   5.688   0.274  0.3052  1.5441 -0.1962
24930SOL    HW277811   1.625   5.710   0.284 -0.0324 -0.0112 -1.6523
24931SOL     OW77812   1.908   7.779   3.690 -0.5888 -0.7683  0.0584
24931SOL    HW177813   1.891   7.802   3.599 -0.6889  0.2564  0.3274
24931SOL    HW277814   1.993   7.818   3.709 -2.1196  2.0271  1.4180
24932SOL     OW77815   1.554   1.143   6.905 -0.2676 -0.3635 -0.1523
24932SOL    HW177816   1.599   1.100   6.832 -0.7983  0.7100 -1.1369
24932SOL    HW277817   1.523   1.071   6.960 -1.6304 -1.2543 -2.0538
24933SOL     OW77818   2.209   3.965   6.611  0.0225  0.4335 -0.4186
24933SOL    HW177819   2.217   4.043   6.557  0.8620  0.7121  0.1028
24933SOL    HW277820   2.115   3.960   6.632  0.0535  1.6240  0.0291
24934SOL     OW77821   1.828   4.602   5.363  0.0844 -0.1007 -0.0266
24934SOL    HW177822   1.788   4.516   5.350  0.0862  0.0401 -1.0625
24934SOL    HW277823   1.852   4.630   5.274  1.0804  0.4894  0.4302
24935SOL     OW77824   6.266   1.914   2.005  0.0885  0.0828  0.2509
24935SOL    HW177825   6.186   1.959   1.980 -1.2002 -2.6699 -0.7530
24935SOL    HW277826   6.334   1.955   1.951 -0.9084  1.2627 -0.1424
24936SOL     OW77827   7.889   4.195   8.880  0.0924 -0.3601  0.0831
24936SOL    HW177828   7.864   4.284   8.906  0.7052 -0.1539 -0.0072
24936SOL    HW277829   7.839   4.178   8.801  0.8911  0.3894 -0.6017
24937SOL     OW77830   8.863   0.701   6.615 -0.1977 -0.0182 -0.0699
24937SOL    HW177831   8.911   0.630   6.658 -1.0207 -0.5590 -0.0111
24937SOL    HW277832   8.785   0.712   6.669 -0.1045  0.8912 -0.1235
24938SOL     OW77833   3.396   2.385   0.397  0.3570 -0.6013 -0.0924
24938SOL    HW177834   3.318   2.365   0.448 -0.5112  3.1165  0.2197
24938SOL    HW277835   3.370   2.371   0.306 -0.1946 -0.8183  0.0976
24939SOL     OW77836   7.919   7.699   1.722 -0.2445  0.0818  0.1290
24939SOL    HW177837   7.927   7.770   1.786  0.3239 -0.9293  1.2092
24939SOL    HW277838   7.849   7.726   1.663 -1.1007  0.8183  1.4761
24940SOL     OW77839   4.212   7.886   1.455  0.2773 -0.2762 -0.0197
24940SOL    HW177840   4.167   7.866   1.537  0.4615 -2.1998 -0.3634
24940SOL    HW277841   4.149   7.861   1.387  0.1914  1.1376 -0.4732
24941SOL     OW77842   7.255   1.439   4.551 -0.0015  0.2117  0.2652
24941SOL    HW177843   7.167   1.436   4.512  0.9330  0.0913 -1.9098
24941SOL    HW277844   7.256   1.520   4.602 -1.1294  0.5834 -0.2787
24942SOL     OW77845   0.792   5.375   6.153  0.0596  0.0032 -0.7590
24942SOL    HW177846   0.728   5.331   6.209  0.2068  0.6150 -0.0951
24942SOL    HW277847   0.788   5.467   6.180  3.2953 -0.3656  1.4193
24943SOL     OW77848   8.890   1.600   2.105 -0.4862 -0.0278  0.0622
24943SOL    HW177849   8.968   1.656   2.103 -0.4672 -0.0436  0.3111
24943SOL    HW277850   8.883   1.573   2.197  0.7979 -2.2810 -0.4811
24944SOL     OW77851   5.959   1.657   8.248  0.1055 -0.0758 -0.3548
24944SOL    HW177852   5.963   1.747   8.214  0.8876  0.3971  0.9437
24944SOL    HW277853   5.996   1.603   8.178 -0.0243  0.6545 -1.0001
24945SOL     OW77854   2.312   8.105   0.920 -0.3615 -0.1467  0.4527
24945SOL    HW177855   2.300   8.071   1.008  0.2621  0.4647  0.7865
24945SOL    HW277856   2.383   8.169   0.929  1.3614 -1.7920 -0.9268
24946SOL     OW77857   4.894   0.142   6.579 -0.1309  0.1621  0.1929
24946SOL    HW177858   4.835   0.145   6.654  0.3434 -1.6253  0.6576
24946SOL    HW277859   4.865   0.065   6.529 -1.6213  2.3567 -2.4754
24947SOL     OW77860   2.833   7.879   7.368 -0.4205  0.1797 -0.6953
24947SOL    HW177861   2.766   7.947   7.357 -1.0870 -0.4314 -0.4054
24947SOL    HW277862   2.825   7.825   7.289 -2.7272 -2.0376  1.0139
24948SOL     OW77863   7.345   3.287   5.534  0.1572  0.0988 -0.0390
24948SOL    HW177864   7.302   3.358   5.582  0.1684  0.2981 -0.3233
24948SOL    HW277865   7.375   3.226   5.602  0.8900  0.7826  0.2606
24949SOL     OW77866   0.031   6.440   7.803 -0.4536 -0.2245  0.0025
24949SOL    HW177867   0.034   6.423   7.897  0.3823 -0.3599 -0.0440
24949SOL    HW277868  -0.057   6.475   7.787 -0.8860 -1.0029  0.6946
24950SOL     OW77869   9.052   7.761   9.216  0.2735 -0.0940  0.2040
24950SOL    HW177870   8.974   7.795   9.172  1.7062  2.1216 -0.7068
24950SOL    HW277871   9.048   7.797   9.304  2.1595  3.1803 -0.9744
24951SOL     OW77872   2.106   0.562   9.196  0.2184  0.2018  0.0889
24951SOL    HW177873   2.082   0.609   9.276 -0.2555  0.7746 -0.3843
24951SOL    HW277874   2.177   0.613   9.158 -1.0751  1.2138 -1.0365
24952SOL     OW77875   3.716   8.458   9.182 -0.0765 -0.7235  0.5703
24952SOL    HW177876   3.790   8.475   9.124 -0.6022  0.4794  0.2235
24952SOL    HW277877   3.692   8.545   9.216 -2.2631 -0.8644 -0.5071
24953SOL     OW77878   2.283   2.326   0.741 -0.5065 -0.1747 -0.4952
24953SOL    HW177879   2.247   2.381   0.671 -1.7550 -0.9285 -0.4540
24953SOL    HW277880   2.376   2.347   0.742 -0.9297  1.8068 -0.6144
24954SOL     OW77881   6.038   1.075   5.165  0.2097  0.1041  0.8563
24954SOL    HW177882   5.948   1.072   5.133 -0.3510  1.4903  2.2751
24954SOL    HW277883   6.078   1.149   5.118 -0.1861  1.2021  2.2303
24955SOL     OW77884   5.879   0.201   1.278 -0.4090  0.1263 -0.4730
24955SOL    HW177885   5.898   0.270   1.342 -0.4803 -0.0030 -0.3102
24955SOL    HW277886   5.936   0.128   1.303  0.0104  0.2961 -0.9347
24956SOL     OW77887   4.588   1.397   3.193 -0.2125  0.0998  0.0130
24956SOL    HW177888   4.607   1.308   3.224 -0.9049 -0.0646 -0.0266
24956SOL    HW277889   4.665   1.448   3.219 -1.7660  0.5191  4.1892
24957SOL     OW77890   3.388   7.439   2.129  0.5051  0.0926  0.1428
24957SOL    HW177891   3.472   7.482   2.108  0.7582  0.6800  2.2749
24957SOL    HW277892   3.333   7.509   2.163 -0.9252 -0.2748 -1.3503
24958SOL     OW77893   7.580   3.344   0.470  0.2502  0.0595 -0.2617
24958SOL    HW177894   7.502   3.395   0.488 -0.0397 -0.3957 -0.2313
24958SOL    HW277895   7.623   3.390   0.398  0.2955  0.6739  0.1594
24959SOL     OW77896   6.359   1.851   9.050 -0.5278  0.6089  0.1110
24959SOL    HW177897   6.320   1.916   8.992 -1.8685 -1.2941 -1.1635
24959SOL    HW277898   6.421   1.803   8.995 -0.2681  0.1715  0.7783
24960SOL     OW77899   0.508   0.671   2.657 -0.8506  0.0674  0.3396
24960SOL    HW177900   0.446   0.632   2.719 -0.8128  1.5312  1.3430
24960SOL    HW277901   0.474   0.648   2.571  0.0798 -3.5535  0.8718
24961SOL     OW77902   5.844   7.026   8.866 -0.0850  0.3402 -0.0965
24961SOL    HW177903   5.921   7.077   8.841  0.6900  0.0151  1.5793
24961SOL    HW277904   5.834   6.962   8.795 -0.5986  2.2672 -1.8053
24962SOL     OW77905   1.549   7.794   2.478 -0.2529 -0.3649 -0.3337
24962SOL    HW177906   1.564   7.740   2.401 -2.6123 -0.0530 -1.0522
24962SOL    HW277907   1.549   7.733   2.551  1.5091 -0.7268 -0.6212
24963SOL     OW77908   5.801   1.480   9.356  0.3189 -0.3446  0.4588
24963SOL    HW177909   5.813   1.566   9.398 -1.4269  0.7043 -1.1230
24963SOL    HW277910   5.707   1.473   9.343  0.7023 -1.2997 -1.9281
24964SOL     OW77911   1.824   3.913   4.982 -0.3745 -0.3551  0.4400
24964SOL    HW177912   1.738   3.928   4.942 -0.7833  1.2853  1.8605
24964SOL    HW277913   1.821   3.963   5.063  2.0349 -0.0785  0.3872
24965SOL     OW77914   7.261   2.774   6.324 -0.1969 -0.3297 -0.0735
24965SOL    HW177915   7.322   2.847   6.314 -2.1256  1.3049 -0.2931
24965SOL    HW277916   7.220   2.764   6.238 -0.6341 -1.0324  0.2083
24966SOL     OW77917   5.649   6.630   4.490  0.5012 -0.0901 -0.1305
24966SOL    HW177918   5.559   6.596   4.489  0.2259  0.6371 -0.9553
24966SOL    HW277919   5.645   6.707   4.546  0.4915  0.2239 -0.5544
24967SOL     OW77920   8.398   0.309   1.811 -0.1440  0.0139  0.1248
24967SOL    HW177921   8.484   0.310   1.769  0.9251  0.0985  2.2461
24967SOL    HW277922   8.384   0.217   1.833 -1.5798 -0.3374 -2.1043
24968SOL     OW77923   5.097   0.978   5.325 -0.0693  0.2908  0.2333
24968SOL    HW177924   5.165   1.036   5.359 -0.2429  1.6922 -1.6855
24968SOL    HW277925   5.137   0.936   5.250 -0.4264 -1.0205  0.7713
24969SOL     OW77926   8.005   2.077   2.515  0.1437 -0.4619  0.0184
24969SOL    HW177927   7.971   2.045   2.432 -1.2299 -0.4670  0.5678
24969SOL    HW277928   8.100   2.064   2.510  0.2132  0.6703 -2.0301
24970SOL     OW77929   6.072   4.164   8.341  0.3291  0.3624 -0.6888
24970SOL    HW177930   6.055   4.124   8.256 -1.7151 -0.3318  0.0060
24970SOL    HW277931   6.165   4.183   8.341  0.7333 -1.4973 -2.2816
24971SOL     OW77932   5.126   8.704   2.105  0.1223  0.4084 -0.4617
24971SOL    HW177933   5.064   8.743   2.166  1.0889  1.4891 -0.1235
24971SOL    HW277934   5.146   8.618   2.141  0.3743  0.8782  0.5366
24972SOL     OW77935   4.252   0.534   7.191  0.3507  0.5603  0.7292
24972SOL    HW177936   4.166   0.494   7.203  0.9191 -0.6189  0.9549
24972SOL    HW277937   4.239   0.596   7.119 -0.3305 -0.7163 -0.2814
24973SOL     OW77938   2.116   8.729   3.436  0.4194 -0.2621  0.1670
24973SOL    HW177939   2.171   8.735   3.513 -0.0469  0.7680  0.4262
24973SOL    HW277940   2.041   8.677   3.464 -0.1809  0.8573  0.6758
24974SOL     OW77941   8.873   7.055   1.215 -0.2950 -0.4831  0.5374
24974SOL    HW177942   8.783   7.050   1.248 -0.2980 -0.3999  0.5418
24974SOL    HW277943   8.871   7.125   1.150 -0.3462 -0.8264  0.1693
24975SOL     OW77944   2.077   2.555   5.265 -0.1891  0.4797 -0.2629
24975SOL    HW177945   2.038   2.643   5.271  0.2719  0.6861 -0.2932
24975SOL    HW277946   2.081   2.525   5.356  0.5554  0.8863 -0.1557
24976SOL     OW77947   8.453   8.431   7.606  0.5964 -0.1193 -1.0715
24976SOL    HW177948   8.445   8.372   7.681  1.1786  0.9339 -0.1619
24976SOL    HW277949   8.418   8.514   7.638 -1.0617 -0.1928 -2.6202
24977SOL     OW77950   5.893   6.623   1.678  0.3611 -0.0395  0.1388
24977SOL    HW177951   5.880   6.717   1.685  2.4793  0.2368  0.6712
24977SOL    HW277952   5.977   6.606   1.722  1.5830 -1.7006 -2.6478
24978SOL     OW77953   1.418   4.352   7.431  0.3863  0.2303  0.3605
24978SOL    HW177954   1.415   4.358   7.335 -1.0967 -1.5537  0.2591
24978SOL    HW277955   1.331   4.382   7.459 -0.2657 -2.0327  0.9182
24979SOL     OW77956   6.439   7.339   6.231 -0.0751  0.4288 -0.4527
24979SOL    HW177957   6.427   7.266   6.170  0.9983  0.0370 -0.2011
24979SOL    HW277958   6.405   7.415   6.184 -0.8804 -0.1651 -0.8532
24980SOL     OW77959   2.260   5.109   8.771  0.3252 -0.0602  0.2335
24980SOL    HW177960   2.310   5.170   8.825  0.7578 -1.4674  1.4685
24980SOL    HW277961   2.321   5.036   8.754 -0.5175 -0.6567 -0.2984
24981SOL     OW77962   2.423   6.047   8.114 -0.1925  0.7171  0.0649
24981SOL    HW177963   2.496   6.083   8.063 -1.0843  0.6943 -1.2682
24981SOL    HW277964   2.354   6.113   8.107 -0.4918  0.4901  0.8386
24982SOL     OW77965   8.987   9.066   5.042  0.2718  0.3105 -0.2129
24982SOL    HW177966   9.047   8.992   5.033  0.9056  0.9369 -1.2750
24982SOL    HW277967   8.921   9.053   4.974  1.0221  1.3029 -1.1425
24983SOL     OW77968   2.370   7.971   6.472  0.0010 -0.3065  0.3768
24983SOL    HW177969   2.384   8.045   6.412  0.2196 -0.5522  0.1249
24983SOL    HW277970   2.275   7.964   6.480 -0.0598 -1.0635 -0.9201
24984SOL     OW77971   7.834   6.143   5.948 -0.2798  0.6566  0.1318
24984SOL    HW177972   7.880   6.068   5.911  0.1882  1.1780 -0.3514
24984SOL    HW277973   7.891   6.218   5.930 -0.4786  1.0549  1.0915
24985SOL     OW77974   2.981   3.183   2.858 -0.4288 -0.2777 -0.4109
24985SOL    HW177975   2.989   3.178   2.762  0.1712 -1.2311 -0.3172
24985SOL    HW277976   3.026   3.264   2.882 -2.1929  0.9469 -1.1036
24986SOL     OW77977   6.093   2.630   2.625  0.2569 -0.5055  0.2847
24986SOL    HW177978   6.134   2.698   2.679 -0.8076 -1.2601  2.0953
24986SOL    HW277979   6.005   2.663   2.608 -0.2332 -1.3712  1.0881
24987SOL     OW77980   0.183   2.003   8.968  0.7510  0.6478 -0.6352
24987SOL    HW177981   0.171   2.058   9.045 -1.0652  0.4230 -0.7304
24987SOL    HW277982   0.138   2.050   8.898  0.4271 -0.2386 -1.0350
24988SOL     OW77983   6.009   2.502   2.924  0.6239  0.0647 -0.4698
24988SOL    HW177984   5.981   2.418   2.960  0.0003 -0.0500 -1.2113
24988SOL    HW277985   6.054   2.480   2.842  2.4418  0.2870  0.4309
24989SOL     OW77986   2.675   5.787   0.879 -0.2033 -0.7261 -0.1882
24989SOL    HW177987   2.753   5.805   0.826 -1.7831 -0.8795 -2.6199
24989SOL    HW277988   2.667   5.692   0.878  0.1933 -0.7830  1.0089
24990SOL     OW77989   3.920   2.548   7.464  0.4609 -0.3687 -0.6060
24990SOL    HW177990   3.866   2.543   7.386 -0.6151  0.8270  0.0473
24990SOL    HW277991   3.883   2.480   7.522  0.7511 -0.7126 -0.8221
24991SOL     OW77992   7.223   4.562   7.024 -0.1248  0.0676 -0.1550
24991SOL    HW177993   7.267   4.616   6.959 -3.7888 -0.9353 -3.6787
24991SOL    HW277994   7.285   4.492   7.043  1.0863  0.4511 -2.4671
24992SOL     OW77995   7.959   6.521   4.234  0.5142  0.2790 -0.3146
24992SOL    HW177996   8.003   6.602   4.261  0.1665  1.2630 -2.5761
24992SOL    HW277997   8.027   6.468   4.194  0.9282 -0.9694  1.9700
24993SOL     OW77998   1.105   8.810   3.204  0.7322 -0.1054 -0.2579
24993SOL    HW177999   1.098   8.834   3.111  1.0758  0.5183 -0.1245
24993SOL    HW278000   1.167   8.873   3.240 -0.5046  0.5546  0.7202
24994SOL     OW78001   7.822   4.568   6.093  0.7037  0.2921  0.2498
24994SOL    HW178002   7.846   4.622   6.168 -0.3149  0.8658  0.1775
24994SOL    HW278003   7.755   4.509   6.127 -1.4897  2.1229 -0.7313
24995SOL     OW78004   6.034   7.248   2.288  0.6599  0.2025 -0.1266
24995SOL    HW178005   5.958   7.290   2.248  0.4568 -0.0832 -0.0397
24995SOL    HW278006   6.100   7.248   2.219  0.0802 -0.9127 -0.6958
24996SOL     OW78007   1.942   5.373   3.371  0.4706  0.3297 -0.1421
24996SOL    HW178008   1.980   5.326   3.446  0.4782 -0.7021 -0.7808
24996SOL    HW278009   2.000   5.448   3.358 -0.6736  1.6772  2.1699
24997SOL     OW78010   1.721   5.725   6.597  0.0981 -0.0619  0.1583
24997SOL    HW178011   1.711   5.746   6.690 -0.8923  1.2458 -0.2270
24997SOL    HW278012   1.815   5.717   6.584  0.3869  1.9957  0.8245
24998SOL     OW78013   1.300   1.042   4.450  0.4410 -0.2191 -0.1288
24998SOL    HW178014   1.353   0.998   4.384 -0.6160  3.3458 -3.5556
24998SOL    HW278015   1.210   1.016   4.431  0.2267 -0.0681  0.6477
24999SOL     OW78016   6.048   6.531   4.022 -0.5242 -0.2744 -0.0226
24999SOL    HW178017   6.107   6.512   3.949 -0.2504 -1.4138  0.4757
24999SOL    HW278018   6.025   6.444   4.057 -3.0441  0.1145 -0.6300
25000SOL     OW78019   6.713   4.272   9.040  0.1261 -0.1599 -0.3442
25000SOL    HW178020   6.781   4.225   9.088 -1.4677 -0.7468  1.4122
25000SOL    HW278021   6.757   4.305   8.962  1.7938 -2.7722 -0.5827
25001SOL     OW78022   5.972   1.304   1.960  0.4408  0.2763 -0.3469
25001SOL    HW178023   5.949   1.380   2.015 -0.2879 -1.0244  1.1818
25001SOL    HW278024   5.915   1.312   1.884  0.7458  1.5570 -0.4609
25002SOL     OW78025   4.524   5.900   3.965  0.4486  0.4651  0.1005
25002SOL    HW178026   4.441   5.929   3.928  0.6391 -0.6254 -1.2395
25002SOL    HW278027   4.513   5.911   4.059 -0.9043  1.1221 -0.1164
25003SOL     OW78028   6.353   5.721   7.865  0.2890 -0.1892 -0.6181
25003SOL    HW178029   6.377   5.809   7.836 -1.4249  0.7326  0.6893
25003SOL    HW278030   6.282   5.696   7.806  0.0567 -0.2655 -0.3024
25004SOL     OW78031   1.532   8.153   9.150  0.5905  0.0194  0.1165
25004SOL    HW178032   1.453   8.134   9.201  1.9280  0.6429  2.4905
25004SOL    HW278033   1.558   8.069   9.113 -0.5901 -0.3860  0.2017
25005SOL     OW78034   8.479   1.018   7.485  0.3248 -0.4118  0.1902
25005SOL    HW178035   8.500   1.108   7.509 -1.4702  0.4875 -1.5103
25005SOL    HW278036   8.484   1.017   7.390 -1.4006 -1.6586  0.0926
25006SOL     OW78037   8.958   7.724   1.203 -0.6686  0.1038  0.0884
25006SOL    HW178038   8.904   7.684   1.271 -1.6210 -0.8025 -1.1507
25006SOL    HW278039   9.005   7.650   1.164 -2.0918  0.2043 -1.9300
25007SOL     OW78040   1.880   7.147   1.619 -0.0787 -0.2833  0.8218
25007SOL    HW178041   1.849   7.182   1.535  1.0054  0.0468  0.5379
25007SOL    HW278042   1.933   7.218   1.655 -0.4040 -0.4927  1.7121
25008SOL     OW78043   2.032   2.560   1.626  0.1891  0.0289 -0.3506
25008SOL    HW178044   1.963   2.623   1.603 -0.5221 -0.5219  0.2449
25008SOL    HW278045   2.103   2.614   1.661  0.7070  0.7408 -2.4297
25009SOL     OW78046   0.510   4.063   1.395 -0.6391  0.4133 -0.4122
25009SOL    HW178047   0.577   4.116   1.351 -1.3548  1.0611 -0.7338
25009SOL    HW278048   0.444   4.048   1.327 -0.5837 -0.6307 -0.2294
25010SOL     OW78049   6.155   2.400   4.906 -0.1125 -0.0362 -0.0291
25010SOL    HW178050   6.224   2.465   4.891  2.0019 -2.2343 -0.0695
25010SOL    HW278051   6.171   2.368   4.995 -1.8777  0.3396  0.4464
25011SOL     OW78052   6.491   9.217   4.194  0.1663 -0.1629  0.1816
25011SOL    HW178053   6.483   9.270   4.273 -0.9252  0.6964 -0.5078
25011SOL    HW278054   6.450   9.269   4.125 -0.6323 -1.7587 -0.5634
25012SOL     OW78055   1.333   9.246   4.339 -0.1824 -0.2681 -0.4985
25012SOL    HW178056   1.421   9.278   4.358  0.3954 -1.3419 -1.3172
25012SOL    HW278057   1.337   9.153   4.359 -0.9437 -0.4519 -1.1833
25013SOL     OW78058   9.437   5.412   4.994  0.0027  0.3496  0.0172
25013SOL    HW178059   9.524   5.427   4.957  0.8699  3.5630  3.1379
25013SOL    HW278060   9.448   5.339   5.055  0.6328  1.1312  0.8354
25014SOL     OW78061   8.744   9.205   5.106  0.6771  0.0921 -0.0823
25014SOL    HW178062   8.754   9.288   5.059  0.6863 -0.2306 -0.6645
25014SOL    HW278063   8.830   9.163   5.099  1.1441  0.7419  1.5988
25015SOL     OW78064   4.279   4.531   5.479 -0.1093 -0.7750 -0.0917
25015SOL    HW178065   4.348   4.522   5.413  2.1143 -0.7562  2.1160
25015SOL    HW278066   4.225   4.603   5.448  1.0834 -0.5378 -1.7183
25016SOL     OW78067   4.523   4.168   1.755  0.0816  0.5281 -0.5513
25016SOL    HW178068   4.486   4.255   1.770 -1.1730 -0.0865 -0.0093
25016SOL    HW278069   4.573   4.177   1.674 -2.2480  1.0827 -1.9761
25017SOL     OW78070   6.895   0.677   8.242  0.1191 -0.3447 -0.3530
25017SOL    HW178071   6.931   0.655   8.328 -0.1086 -0.4111 -0.2716
25017SOL    HW278072   6.859   0.766   8.253 -1.1676 -0.8917  0.0260
25018SOL     OW78073   7.630   2.913   0.868  0.0637  0.3408  0.4339
25018SOL    HW178074   7.615   2.884   0.958  0.3168  0.2752  0.4553
25018SOL    HW278075   7.692   2.985   0.875  0.1517  0.2790  0.3062
25019SOL     OW78076   4.400   0.639   9.220 -0.3782  0.4421  0.0669
25019SOL    HW178077   4.459   0.663   9.291  1.7169 -1.5726 -0.9232
25019SOL    HW278078   4.353   0.562   9.252 -1.8206  1.4711  0.4869
25020SOL     OW78079   1.951   2.744   7.258 -0.3843  0.3115  0.4144
25020SOL    HW178080   1.907   2.759   7.174  1.1485 -1.4283 -0.7386
25020SOL    HW278081   2.036   2.789   7.248 -0.1728  0.0387  1.0075
25021SOL     OW78082   6.590   3.135   1.324  0.1332 -0.3310  0.1208
25021SOL    HW178083   6.524   3.143   1.255 -0.4233 -1.4847  0.5038
25021SOL    HW278084   6.637   3.218   1.322  1.4298 -1.0910 -2.9478
25022SOL     OW78085   9.233   8.282   3.522 -0.2307  0.2674 -0.5368
25022SOL    HW178086   9.196   8.216   3.463  1.1045 -0.6447 -0.3783
25022SOL    HW278087   9.324   8.255   3.535 -0.1223  1.2167  0.8600
25023SOL     OW78088   7.781   3.433   7.199 -0.2603 -0.6816  0.1961
25023SOL    HW178089   7.778   3.373   7.125  0.9925  1.0119 -1.2659
25023SOL    HW278090   7.866   3.477   7.192 -0.7466  0.5957  1.7633
25024SOL     OW78091   5.166   8.480   1.458 -0.3542  0.1192  0.4426
25024SOL    HW178092   5.181   8.492   1.552 -1.6226  0.0954  0.6565
25024SOL    HW278093   5.218   8.403   1.435  1.3770  1.1664  0.7498
25025SOL     OW78094   0.219   7.497   8.057 -0.2437  0.3606 -0.4328
25025SOL    HW178095   0.314   7.494   8.043 -0.0423  0.0242  0.9008
25025SOL    HW278096   0.208   7.469   8.148 -1.7606 -1.4616 -1.1549
25026SOL     OW78097   6.589   4.699   7.188  0.6007 -0.5617  0.4164
25026SOL    HW178098   6.630   4.772   7.234 -0.5187  0.2621  0.1383
25026SOL    HW278099   6.605   4.623   7.244  2.7308 -0.3203  0.1660
25027SOL     OW78100   4.785   5.673   2.508  0.1887 -0.7241  0.3266
25027SOL    HW178101   4.794   5.631   2.594 -0.3262  1.6810  1.6094
25027SOL    HW278102   4.871   5.710   2.490 -0.4880  1.4909  1.3462
25028SOL     OW78103   2.365   8.442   4.836  0.4083 -0.9282 -0.3532
25028SOL    HW178104   2.419   8.364   4.828  0.8449 -0.7027  0.2993
25028SOL    HW278105   2.404   8.491   4.909  2.9551  2.1045 -3.5341
25029SOL     OW78106   5.623   5.085   6.385  0.0279  0.3392 -0.4125
25029SOL    HW178107   5.544   5.046   6.349  0.1059 -0.1477 -0.0567
25029SOL    HW278108   5.593   5.142   6.455 -0.1116  1.1668 -1.1323
25030SOL     OW78109   7.897   3.834   7.826  0.3375 -0.2935  0.1805
25030SOL    HW178110   7.845   3.890   7.883  0.0946 -0.1352 -0.2020
25030SOL    HW278111   7.925   3.762   7.883  0.5183  0.1300  0.6261
25031SOL     OW78112   2.938   5.988   0.432  0.1457  1.2799  0.2045
25031SOL    HW178113   2.983   5.924   0.377 -1.5733  1.3972 -1.3864
25031SOL    HW278114   2.962   6.073   0.397 -1.3703  1.3410 -0.7287
25032SOL     OW78115   2.202   4.191   4.833  0.0792 -0.7046  0.1061
25032SOL    HW178116   2.282   4.180   4.783 -0.4548 -0.2235 -0.8630
25032SOL    HW278117   2.134   4.204   4.767 -0.3943  1.4285  0.9940
25033SOL     OW78118   0.637   4.138   6.703  0.3196 -0.1362  0.0883
25033SOL    HW178119   0.680   4.149   6.618  1.2557 -1.2325  0.4028
25033SOL    HW278120   0.675   4.058   6.739  0.4165  0.6733  1.8383
25034SOL     OW78121   1.263   5.833   2.691 -0.5670  0.1227  0.2254
25034SOL    HW178122   1.259   5.929   2.695  0.9274  0.3003 -1.6882
25034SOL    HW278123   1.257   5.805   2.783  0.0790  2.1176  0.9067
25035SOL     OW78124   7.661   0.135   6.768 -0.3959  0.1288  0.5777
25035SOL    HW178125   7.689   0.227   6.770 -2.4181  0.8521 -1.7697
25035SOL    HW278126   7.707   0.099   6.692 -1.6522 -0.0823 -0.0891
25036SOL     OW78127   3.055   0.071   8.613 -0.2259  0.3786 -0.3108
25036SOL    HW178128   3.065  -0.021   8.591  0.0105  0.4199 -0.3837
25036SOL    HW278129   3.123   0.087   8.679 -0.4802  0.4208 -0.0602
25037SOL     OW78130   7.976   4.812   7.522 -0.0962 -0.2289  0.4338
25037SOL    HW178131   7.908   4.768   7.573 -1.4320 -0.0275 -1.1110
25037SOL    HW278132   7.942   4.811   7.432  0.7809  2.1130  0.0477
25038SOL     OW78133   1.217   7.689   3.487  0.0074  0.0149 -0.1424
25038SOL    HW178134   1.124   7.711   3.488  0.2674  1.1157  1.2083
25038SOL    HW278135   1.260   7.765   3.447  0.3044 -0.6191 -1.0516
25039SOL     OW78136   5.685   6.428   3.406  0.4685 -0.6950  0.4693
25039SOL    HW178137   5.742   6.502   3.427  0.7807 -0.6624 -0.4854
25039SOL    HW278138   5.610   6.468   3.361  1.2712 -1.1000 -1.2527
25040SOL     OW78139   5.498   0.944   2.146  0.2045 -0.5881 -0.3759
25040SOL    HW178140   5.458   0.999   2.079 -0.8185 -1.7808 -0.7565
25040SOL    HW278141   5.426   0.921   2.205  1.2395  1.1247  1.6210
25041SOL     OW78142   9.434   3.037   7.760  0.3815 -0.0645  0.0201
25041SOL    HW178143   9.339   3.040   7.746  0.2912 -0.9244  0.4192
25041SOL    HW278144   9.458   3.128   7.777 -0.3580  0.1731 -0.1495
25042SOL     OW78145   4.496   8.756   2.359  0.1979  0.0299  0.0217
25042SOL    HW178146   4.521   8.838   2.402 -2.2864 -0.3779  2.3456
25042SOL    HW278147   4.472   8.783   2.270  1.0280  1.5595  0.2294
25043SOL     OW78148   2.857   7.204   2.223  0.3402  0.0441  0.1392
25043SOL    HW178149   2.813   7.232   2.303  0.9323  0.0451  0.4588
25043SOL    HW278150   2.949   7.195   2.247  0.1283 -2.5076  0.1338
25044SOL     OW78151   3.088   7.825   5.681 -0.0243  0.2655  0.1774
25044SOL    HW178152   3.006   7.814   5.634  0.6407 -0.9737 -0.7203
25044SOL    HW278153   3.075   7.780   5.765  1.0208 -3.3392 -1.5163
25045SOL     OW78154   0.687   6.679   8.401 -0.0250  0.4159 -0.5019
25045SOL    HW178155   0.652   6.678   8.490  1.4832 -0.4131  0.1007
25045SOL    HW278156   0.697   6.772   8.380  1.1953  0.5988  0.8401
25046SOL     OW78157   8.691   3.411   8.661 -0.0374  0.2335 -0.0710
25046SOL    HW178158   8.649   3.459   8.733  1.7747  1.1425  0.4199
25046SOL    HW278159   8.720   3.329   8.701 -0.2804  0.1272 -0.1127
25047SOL     OW78160   7.855   3.515   2.265 -0.0312 -0.0057  0.7672
25047SOL    HW178161   7.920   3.445   2.256  2.2004  1.7662  2.5346
25047SOL    HW278162   7.844   3.548   2.176  3.0514  0.9501  0.6578
25048SOL     OW78163   4.982   3.199   5.031 -0.2618 -0.2539  0.6028
25048SOL    HW178164   4.944   3.259   5.095 -1.0972 -0.1764  0.0446
25048SOL    HW278165   5.033   3.137   5.083 -0.9511 -0.2068  1.3420
25049SOL     OW78166   4.749   6.989   1.768 -0.0622  0.0178  0.4984
25049SOL    HW178167   4.759   6.895   1.783  0.0179 -0.4319 -2.1365
25049SOL    HW278168   4.675   7.015   1.823  0.0204 -1.5434  1.3686
25050SOL     OW78169   0.656   0.788   4.327 -0.1413 -0.7526  0.2511
25050SOL    HW178170   0.687   0.878   4.318  1.7642 -1.4907 -0.7680
25050SOL    HW278171   0.571   0.796   4.370 -0.0930  1.5464 -0.0349
25051SOL     OW78172   9.359   2.551   3.003 -0.5021  0.1604 -0.3305
25051SOL    HW178173   9.301   2.588   3.070 -0.0746  1.5045 -0.6744
25051SOL    HW278174   9.447   2.578   3.031 -0.0766 -1.5364 -0.0143
25052SOL     OW78175   8.244   0.100   5.638  0.0866  1.1016 -0.1391
25052SOL    HW178176   8.247   0.073   5.546 -0.3204 -2.5825  0.8174
25052SOL    HW278177   8.151   0.119   5.655 -0.2626 -0.6573  0.0776
25053SOL     OW78178   0.067   1.233   8.715 -0.7592 -0.4736 -0.2070
25053SOL    HW178179   0.111   1.152   8.740  1.4083  0.3858 -1.1206
25053SOL    HW278180   0.067   1.286   8.794  1.6462  0.2855 -0.6799
25054SOL     OW78181   6.806   6.706   2.075 -0.2058 -0.2879  0.2292
25054SOL    HW178182   6.782   6.730   1.986  2.9241  1.5774 -0.1849
25054SOL    HW278183   6.827   6.613   2.070 -1.9520 -0.6612 -0.5254
25055SOL     OW78184   1.274   0.835   3.989 -0.1430 -0.1333  0.3025
25055SOL    HW178185   1.291   0.921   4.026 -1.4172 -0.1519  0.9336
25055SOL    HW278186   1.343   0.780   4.025  1.1593  0.7748 -0.7331
25056SOL     OW78187   8.759   5.776   3.986  0.5232  0.0712  0.6119
25056SOL    HW178188   8.755   5.689   3.945  0.7051  0.1455  0.4369
25056SOL    HW278189   8.697   5.771   4.058  0.0661 -0.0033  0.2173
25057SOL     OW78190   8.476   5.128   8.890 -0.3954 -0.6034  0.2495
25057SOL    HW178191   8.413   5.106   8.959 -1.7026 -0.0674 -0.7440
25057SOL    HW278192   8.436   5.202   8.844  1.8445  0.9986  0.7493
25058SOL     OW78193   2.254   1.134   7.889 -0.3197 -0.3573  0.0225
25058SOL    HW178194   2.212   1.071   7.832  1.6277 -1.8911  0.2178
25058SOL    HW278195   2.188   1.154   7.956 -1.7836 -0.3290 -1.4185
25059SOL     OW78196   5.784   3.886   7.130  0.3917  0.4145  0.2901
25059SOL    HW178197   5.702   3.840   7.112  0.9471 -0.3583 -0.2718
25059SOL    HW278198   5.758   3.963   7.180 -0.8469  1.0323 -1.2798
25060SOL     OW78199   6.245   4.907   4.174 -0.1742 -0.7384  0.0728
25060SOL    HW178200   6.298   4.987   4.181  1.1326 -1.5174 -0.5994
25060SOL    HW278201   6.157   4.933   4.200 -0.5343  1.7192 -3.2824
25061SOL     OW78202   0.082   3.950   0.118 -0.1543  0.0919  0.1256
25061SOL    HW178203   0.067   3.963   0.211  1.9797 -1.9761  0.8014
25061SOL    HW278204   0.048   3.862   0.100 -0.4093  0.4102 -1.0045
25062SOL     OW78205   4.004   5.058   6.900 -0.2816 -0.0934 -0.1770
25062SOL    HW178206   4.076   5.009   6.861 -0.3187  1.8770 -2.8905
25062SOL    HW278207   4.045   5.111   6.969  0.7312  0.3872 -1.1373
25063SOL     OW78208   9.020   0.652   5.285 -0.3036  0.2183 -0.0591
25063SOL    HW178209   9.114   0.659   5.269 -0.2646 -0.6983 -0.2740
25063SOL    HW278210   8.980   0.699   5.212 -0.0475 -1.1420 -1.1103
25064SOL     OW78211   8.846   7.114   6.119  0.0782  0.3822 -0.2934
25064SOL    HW178212   8.762   7.157   6.133  0.1242  0.3716  0.0275
25064SOL    HW278213   8.824   7.033   6.072  0.0015  0.7774 -0.9332
25065SOL     OW78214   8.041   3.867   5.616 -0.1027 -0.2684 -0.4211
25065SOL    HW178215   7.948   3.861   5.640 -0.2213  1.0309 -0.5587
25065SOL    HW278216   8.042   3.922   5.538  0.6339 -1.6187 -1.3923
25066SOL     OW78217   8.191   7.493   5.819  0.4941 -0.3653  0.0680
25066SOL    HW178218   8.233   7.480   5.734  0.5366 -0.7572  0.1498
25066SOL    HW278219   8.115   7.549   5.800  0.5059 -0.4476 -0.2250
25067SOL     OW78220   7.488   5.952   5.597 -0.3925 -0.7375 -0.1355
25067SOL    HW178221   7.528   5.902   5.668 -0.4220 -0.9924 -0.2961
25067SOL    HW278222   7.397   5.922   5.595 -0.8666  0.5520  0.8760
25068SOL     OW78223   3.167   8.528   1.207  0.0224  0.6503  0.0730
25068SOL    HW178224   3.203   8.440   1.215 -0.4542  0.2900 -1.5668
25068SOL    HW278225   3.205   8.576   1.280 -0.5809 -1.1960  1.6602
25069SOL     OW78226   6.926   5.417   8.288 -0.5390 -0.2527 -0.1825
25069SOL    HW178227   6.848   5.433   8.234 -0.5228  0.0507 -0.1176
25069SOL    HW278228   6.940   5.322   8.282 -0.5724 -0.2265 -0.6583
25070SOL     OW78229   0.130   6.593   6.112 -0.2109  0.3100 -0.3139
25070SOL    HW178230   0.144   6.686   6.093  0.1956  0.2486 -0.3197
25070SOL    HW278231   0.125   6.551   6.025 -2.8187  0.6729 -0.3646
25071SOL     OW78232   7.919   5.311   3.508  0.7012  0.6459 -0.4428
25071SOL    HW178233   7.932   5.285   3.599  1.0952 -1.1352 -0.9778
25071SOL    HW278234   8.007   5.311   3.471  0.4104  0.0166 -1.1524
25072SOL     OW78235   1.561   9.345   3.261 -0.6653 -0.0053 -0.7433
25072SOL    HW178236   1.579   9.320   3.352 -0.5366  0.2230 -0.7067
25072SOL    HW278237   1.531   9.264   3.220 -1.5973  0.0963 -0.2680
25073SOL     OW78238   2.299   4.228   3.274 -0.3638  0.1540 -0.2014
25073SOL    HW178239   2.266   4.311   3.241 -0.4054 -0.0556 -0.6946
25073SOL    HW278240   2.294   4.169   3.199  0.9646  0.0689 -0.2308
25074SOL     OW78241   7.011   5.888   5.987  0.0593  0.2185  0.6920
25074SOL    HW178242   7.074   5.918   6.052  0.3014 -0.3954  0.7355
25074SOL    HW278243   7.029   5.795   5.976  0.5905  0.4919 -0.8877
25075SOL     OW78244   2.823   6.566   6.338  0.3163 -0.1714  0.0946
25075SOL    HW178245   2.915   6.544   6.351  0.8529  0.9800 -1.4755
25075SOL    HW278246   2.776   6.483   6.348  1.5217 -0.7591  0.9487
25076SOL     OW78247   9.242   8.555   7.083  0.9380  0.6236 -0.3192
25076SOL    HW178248   9.315   8.499   7.057  1.3743  0.2047  1.6789
25076SOL    HW278249   9.269   8.591   7.168 -0.7178  1.3206 -0.0678
25077SOL     OW78250   8.576   7.239   7.357 -0.4793  0.4206  0.4665
25077SOL    HW178251   8.566   7.148   7.387  0.9902 -0.0470 -0.4214
25077SOL    HW278252   8.578   7.290   7.437  3.5905 -0.8303  1.2650
25078SOL     OW78253   6.202   4.383   0.789 -0.0577  0.3083  0.2888
25078SOL    HW178254   6.255   4.357   0.714  0.9105 -0.4008  1.2049
25078SOL    HW278255   6.153   4.304   0.812 -0.1091  0.4295  0.5960
25079SOL     OW78256   8.187   4.194   1.115  0.0920  0.8220  0.1141
25079SOL    HW178257   8.277   4.198   1.147 -0.6028  0.1557  2.2657
25079SOL    HW278258   8.153   4.282   1.130 -0.0681  0.6589  0.7159
25080SOL     OW78259   2.074   7.367   1.023 -0.1996 -0.1467  0.0194
25080SOL    HW178260   1.984   7.400   1.016 -0.8989 -1.8099  0.8433
25080SOL    HW278261   2.128   7.437   0.987 -1.8831  0.5754 -1.2077
25081SOL     OW78262   6.035   6.867   5.540 -0.3282 -0.1925  0.1486
25081SOL    HW178263   6.117   6.837   5.580  0.1623  0.4059 -0.3909
25081SOL    HW278264   5.973   6.797   5.558  0.3263 -0.6969  0.4888
25082SOL     OW78265   0.062   4.553   8.068 -0.4072  0.0945 -0.0220
25082SOL    HW178266   0.008   4.530   8.144 -1.0586  1.7106  0.0178
25082SOL    HW278267   0.149   4.522   8.090 -0.6514  0.2943  1.2727
25083SOL     OW78268   0.469   6.814   0.005 -0.1014  0.7792  0.0849
25083SOL    HW178269   0.443   6.850   0.089  0.0049 -0.2538  0.5614
25083SOL    HW278270   0.405   6.849  -0.057 -1.6332 -0.3905  0.9783
25084SOL     OW78271   1.022   3.865   5.736  0.2560  0.3785  0.1503
25084SOL    HW178272   0.985   3.797   5.792 -0.3635 -1.8148 -2.8079
25084SOL    HW278273   1.115   3.845   5.733  0.3241  0.6298  0.5660
25085SOL     OW78274   7.313   2.714   4.761 -0.3103  0.2043 -0.0681
25085SOL    HW178275   7.229   2.746   4.728 -0.0045  0.4967 -0.5604
25085SOL    HW278276   7.367   2.702   4.683  0.9876  2.5449  0.4072
25086SOL     OW78277   5.606   9.107   3.700  0.5325  0.1265 -0.1810
25086SOL    HW178278   5.674   9.093   3.635  0.8715 -1.0464  0.4204
25086SOL    HW278279   5.573   9.195   3.682 -0.1503 -0.6055 -2.6292
25087SOL     OW78280   0.610   6.633   3.118 -0.4171  0.0928 -0.0648
25087SOL    HW178281   0.554   6.710   3.121 -0.0649  0.2977  2.0479
25087SOL    HW278282   0.688   6.662   3.071  0.2727  1.4523  1.8144
25088SOL     OW78283   1.444   6.338   3.619 -0.4229  0.0134 -0.3042
25088SOL    HW178284   1.539   6.332   3.630 -0.1336  1.2949 -1.8888
25088SOL    HW278285   1.412   6.363   3.705  0.6148 -0.9710  0.3887
25089SOL     OW78286   6.103   4.163   2.818 -0.8231  0.5758  0.1116
25089SOL    HW178287   6.008   4.165   2.807 -1.1714  2.1381  2.8366
25089SOL    HW278288   6.128   4.255   2.827  0.7859  0.1042  0.6517
25090SOL     OW78289   5.763   9.119   3.210 -0.3316 -0.1320  0.5881
25090SOL    HW178290   5.816   9.073   3.144  0.0704  1.3279 -0.1145
25090SOL    HW278291   5.704   9.051   3.244  1.0068 -1.4318  0.3621
25091SOL     OW78292   8.097   2.658   6.716 -0.2477  0.2942  0.3820
25091SOL    HW178293   8.032   2.589   6.726  0.7865 -0.5189  1.5724
25091SOL    HW278294   8.049   2.739   6.732 -1.3625 -0.1730 -0.5763
25092SOL     OW78295   5.605   0.399   7.316  0.6682 -0.5783  0.3962
25092SOL    HW178296   5.649   0.402   7.401 -0.8777  0.6995  1.1848
25092SOL    HW278297   5.556   0.481   7.312 -3.5919 -2.9968  0.6256
25093SOL     OW78298   2.305   1.849   2.546  0.1669  0.5312 -0.3076
25093SOL    HW178299   2.384   1.898   2.521 -1.4932  3.0814 -0.7383
25093SOL    HW278300   2.266   1.823   2.462  0.4627 -0.6153 -0.0975
25094SOL     OW78301   0.057   5.613   6.221 -0.4439  0.2026 -0.8070
25094SOL    HW178302   0.005   5.553   6.168  0.2516 -0.9867 -0.1874
25094SOL    HW278303  -0.006   5.674   6.258 -1.0431  0.4618 -2.2464
25095SOL     OW78304   4.251   2.741   0.204 -0.1142 -0.0027  0.0065
25095SOL    HW178305   4.214   2.783   0.125 -2.2590  1.3777  1.6847
25095SOL    HW278306   4.175   2.708   0.251  1.1032 -0.2385  1.8348
25096SOL     OW78307   5.811   3.013   4.270 -0.1504  0.6380  0.2216
25096SOL    HW178308   5.807   2.984   4.179  0.3675 -0.6287  0.5957
25096SOL    HW278309   5.755   3.091   4.273  0.8475  1.4548 -1.4710
25097SOL     OW78310   0.980   0.293   8.741  0.6869  0.3877  0.4115
25097SOL    HW178311   1.034   0.371   8.731  0.7597  0.4027  0.9116
25097SOL    HW278312   1.009   0.253   8.823 -1.4711  1.5164  1.7755
25098SOL     OW78313   0.721   5.722   5.531 -0.0060 -0.2393  0.0414
25098SOL    HW178314   0.751   5.703   5.443 -2.1982 -0.5628 -0.6776
25098SOL    HW278315   0.799   5.754   5.577  1.7459 -2.5006 -1.2632
25099SOL     OW78316   3.448   0.297   3.240  0.1401  0.2590  0.3240
25099SOL    HW178317   3.483   0.225   3.190 -0.3401  0.6534 -0.5866
25099SOL    HW278318   3.518   0.322   3.300  0.0248 -1.4715  1.1985
25100SOL     OW78319   1.953   1.779   1.956  0.0834  0.2704  0.3156
25100SOL    HW178320   2.032   1.759   2.007 -0.5155 -1.4380  0.6118
25100SOL    HW278321   1.968   1.736   1.872  0.1751  1.3336 -0.2125
25101SOL     OW78322   4.529   6.091   3.624  0.5513 -0.0519  0.4013
25101SOL    HW178323   4.560   6.181   3.614  1.7829 -0.5260 -0.1977
25101SOL    HW278324   4.498   6.086   3.714 -0.5030  1.2614  0.1212
25102SOL     OW78325   8.248   5.012   5.695  0.2471 -0.1060  0.0148
25102SOL    HW178326   8.243   4.983   5.604  0.1410 -0.8225  0.2525
25102SOL    HW278327   8.158   5.006   5.727  0.3311 -0.1040  0.2496
25103SOL     OW78328   3.065   4.498   5.096  0.2921 -0.4717 -0.1457
25103SOL    HW178329   3.125   4.567   5.067 -0.2796 -0.0356 -0.3120
25103SOL    HW278330   3.027   4.532   5.177 -1.1067  0.0866 -0.9973
25104SOL     OW78331   8.612   2.144   6.952  0.4737 -0.2655 -0.5420
25104SOL    HW178332   8.587   2.201   6.879  0.4165 -0.5515 -0.7456
25104SOL    HW278333   8.609   2.201   7.028 -1.2679 -0.3908 -0.4898
25105SOL     OW78334   1.681   4.722   8.360  0.3934 -0.1529  0.2964
25105SOL    HW178335   1.768   4.699   8.394 -0.0076 -1.4463  0.5097
25105SOL    HW278336   1.623   4.656   8.399  0.1498 -2.8268 -4.2146
25106SOL     OW78337   1.828   8.711   7.283 -0.0450  0.1178  0.0974
25106SOL    HW178338   1.890   8.639   7.277  1.5288  1.4996 -0.7207
25106SOL    HW278339   1.870   8.783   7.234 -2.0521  1.2352 -0.0513
25107SOL     OW78340   7.596   3.891   7.418 -0.5617 -0.0298 -0.3753
25107SOL    HW178341   7.577   3.806   7.379  0.4709 -0.4596  0.0409
25107SOL    HW278342   7.578   3.880   7.511  1.6978 -0.4704  0.0473
25108SOL     OW78343   0.543   0.962   7.582 -0.4330 -0.6003 -0.5071
25108SOL    HW178344   0.533   0.881   7.531  0.0969 -0.0024 -1.5629
25108SOL    HW278345   0.619   1.005   7.544 -0.0877 -0.0977  0.7333
25109SOL     OW78346   3.604   2.536   9.298  0.0605  0.0213  0.9671
25109SOL    HW178347   3.643   2.450   9.282  0.2339 -0.0878  1.9363
25109SOL    HW278348   3.613   2.549   9.392 -1.3744  0.4257  1.0633
25110SOL     OW78349   1.366   8.458   0.301  0.3394 -0.6940 -0.4081
25110SOL    HW178350   1.357   8.546   0.338 -0.1157 -0.3338 -1.3742
25110SOL    HW278351   1.459   8.449   0.282  0.5870 -0.8938  0.8402
25111SOL     OW78352   7.995   4.305   3.821 -0.4030 -0.5259  0.4964
25111SOL    HW178353   8.025   4.288   3.911  0.4899 -0.7529  0.1543
25111SOL    HW278354   7.974   4.399   3.821 -3.0442 -1.0711  1.7078
25112SOL     OW78355   4.031   9.029   5.637  0.1778 -0.0589  0.0224
25112SOL    HW178356   4.073   9.078   5.567 -1.7435 -0.5434 -1.4951
25112SOL    HW278357   3.941   9.062   5.640 -0.3831 -1.5736  0.7865
25113SOL     OW78358   1.976   0.729   2.575  0.0503 -0.2459  0.1787
25113SOL    HW178359   1.898   0.782   2.591 -0.3102 -0.4727 -0.7400
25113SOL    HW278360   1.980   0.669   2.649 -0.3052  0.1707  0.5413
25114SOL     OW78361   4.411   2.057   0.740  0.1968 -0.0482  0.1134
25114SOL    HW178362   4.504   2.034   0.745  0.4076  0.7378 -0.1498
25114SOL    HW278363   4.405   2.116   0.666 -0.1147  1.7838  1.5549
25115SOL     OW78364   5.123   2.698   7.394 -0.0718 -0.2112 -0.0357
25115SOL    HW178365   5.141   2.627   7.331  0.5620 -0.6959  0.6752
25115SOL    HW278366   5.077   2.655   7.466  1.8204 -0.2526  1.1842
25116SOL     OW78367   6.479   1.725   6.303  0.6189 -0.2950  0.3937
25116SOL    HW178368   6.390   1.746   6.330  1.7700  3.8260  1.2615
25116SOL    HW278369   6.480   1.740   6.209  0.4816 -0.1312  0.4193
25117SOL     OW78370   5.205   3.614   0.953 -0.3573  0.3692 -0.2781
25117SOL    HW178371   5.142   3.663   0.902 -0.5240  1.2176  0.7198
25117SOL    HW278372   5.165   3.606   1.040  0.4766  0.0732  0.0860
25118SOL     OW78373   5.010   7.465   3.833  0.2619  0.2917 -0.2997
25118SOL    HW178374   4.952   7.451   3.758 -0.2068  1.2894 -0.1295
25118SOL    HW278375   5.098   7.468   3.794  0.0514  0.4749 -0.7729
25119SOL     OW78376   0.853   0.559   2.463  0.5049  0.3170  0.5836
25119SOL    HW178377   0.795   0.566   2.539  1.0953 -1.0557  1.1650
25119SOL    HW278378   0.906   0.639   2.467  0.3168  0.4091  1.4254
25120SOL     OW78379   0.313   4.673   5.626  0.1316  0.2749  0.2186
25120SOL    HW178380   0.295   4.743   5.563  0.3282 -0.9624 -1.2194
25120SOL    HW278381   0.394   4.633   5.595  0.9717  0.5103  2.0170
25121SOL     OW78382   2.812   0.169   3.060  0.6830  0.0645  0.5861
25121SOL    HW178383   2.760   0.127   3.128  1.1892 -1.4077  0.0721
25121SOL    HW278384   2.838   0.098   3.002 -0.4204  1.4069 -1.6200
25122SOL     OW78385   3.731   7.429   8.060 -0.2406  0.4095 -0.5506
25122SOL    HW178386   3.783   7.354   8.090  0.2976  0.3063 -1.7014
25122SOL    HW278387   3.649   7.422   8.108  0.1282 -0.4520 -0.0337
25123SOL     OW78388   2.211   5.067   5.524 -0.5139  0.1918 -0.0796
25123SOL    HW178389   2.152   5.018   5.466 -1.0588  0.4797  0.2278
25123SOL    HW278390   2.193   5.032   5.611 -1.1156  1.1381  0.1824
25124SOL     OW78391   1.728   3.291   0.515 -0.4926  0.4485 -0.3212
25124SOL    HW178392   1.702   3.209   0.473  0.3115 -0.1567  0.3439
25124SOL    HW278393   1.778   3.264   0.592 -0.1211  1.5684 -0.1576
25125SOL     OW78394   9.331   4.664   2.443 -0.7567  0.0929 -0.0249
25125SOL    HW178395   9.245   4.627   2.462 -1.0291  0.7682  0.0855
25125SOL    HW278396   9.383   4.644   2.520  0.5509 -4.2864 -1.8876
25126SOL     OW78397   8.497   8.210   4.702  1.1081  0.2363  0.0602
25126SOL    HW178398   8.438   8.184   4.631  0.2379 -0.1050  0.8902
25126SOL    HW278399   8.552   8.278   4.664 -0.3240  1.0882 -0.5345
25127SOL     OW78400   2.963   3.058   6.510  0.0876 -0.3796  0.5407
25127SOL    HW178401   3.019   3.021   6.443  0.0803 -3.1578  1.9965
25127SOL    HW278402   2.886   3.089   6.463  1.3948  0.5058 -1.0653
25128SOL     OW78403   8.123   0.064   4.750  0.4386 -1.2151 -0.3002
25128SOL    HW178404   8.030   0.074   4.772  0.2745  0.3380 -1.6144
25128SOL    HW278405   8.132  -0.028   4.727 -0.8978 -1.2764 -0.6363
25129SOL     OW78406   6.938   1.528   4.117  0.4549 -0.2242  0.4178
25129SOL    HW178407   6.958   1.618   4.092 -1.1272 -0.3276 -1.2518
25129SOL    HW278408   7.020   1.480   4.101  1.3442  0.9252  1.4517
25130SOL     OW78409   1.323   1.959   4.794 -0.0375  0.1066 -0.1305
25130SOL    HW178410   1.377   1.909   4.733 -1.0832 -1.3967  0.1534
25130SOL    HW278411   1.266   1.894   4.835 -1.8854  1.6015 -0.2368
25131SOL     OW78412   3.001   9.316   6.896  0.2112 -0.0872 -0.5056
25131SOL    HW178413   2.911   9.320   6.865  0.2279  1.3313 -0.4209
25131SOL    HW278414   3.009   9.231   6.939 -0.9279 -0.4320 -0.9787
25132SOL     OW78415   8.969   8.471   1.812  0.6366  0.2103 -0.3254
25132SOL    HW178416   8.985   8.552   1.860  0.7566  1.0143 -1.7161
25132SOL    HW278417   9.012   8.403   1.864  0.3034  0.9894  0.9826
25133SOL     OW78418   5.512   7.233   4.006  0.2076 -0.2215 -0.0445
25133SOL    HW178419   5.474   7.319   4.024 -0.1400 -0.0866 -1.3896
25133SOL    HW278420   5.576   7.220   4.077  0.9974  1.5952 -0.3991
25134SOL     OW78421   7.813   8.234   3.288  0.1477 -0.4477 -0.5564
25134SOL    HW178422   7.880   8.232   3.356  0.6583  0.7798 -1.0227
25134SOL    HW278423   7.747   8.172   3.318  0.3084  0.1765  1.1211
25135SOL     OW78424   1.685   5.132   9.422 -0.0865 -0.0276 -0.1057
25135SOL    HW178425   1.612   5.115   9.481 -0.3921 -0.6509 -0.6515
25135SOL    HW278426   1.645   5.180   9.349  0.2226  0.4421  0.0371
25136SOL     OW78427   7.229   2.225   6.144  0.3712 -0.2713  0.1091
25136SOL    HW178428   7.181   2.247   6.064  0.0418 -1.8351 -0.1394
25136SOL    HW278429   7.321   2.243   6.123  0.0452  1.5717  0.1786
25137SOL     OW78430   8.437   8.258   2.947  0.0241  0.1136  0.6698
25137SOL    HW178431   8.418   8.320   3.018 -0.4722 -0.2920  0.8937
25137SOL    HW278432   8.532   8.248   2.949 -0.0809 -0.7856  2.0451
25138SOL     OW78433   3.448   4.231   0.770 -0.6511 -0.0742  0.5781
25138SOL    HW178434   3.488   4.236   0.856 -0.3717 -2.3537  0.6189
25138SOL    HW278435   3.362   4.190   0.786 -0.4085 -0.9351 -0.2635
25139SOL     OW78436   1.038   4.624   1.672  0.1536 -0.6576  0.7841
25139SOL    HW178437   1.073   4.537   1.691  1.3075  0.1059  2.2749
25139SOL    HW278438   1.066   4.678   1.746 -1.9462  0.6076  0.6861
25140SOL     OW78439   0.283   5.695   2.233 -0.2948  0.6072  0.1617
25140SOL    HW178440   0.372   5.665   2.215  0.1516  2.2457 -0.4229
25140SOL    HW278441   0.293   5.754   2.308 -0.8897  0.7221  0.1499
25141SOL     OW78442   2.191   8.314   1.446 -0.0311  0.6360  0.1754
25141SOL    HW178443   2.217   8.234   1.401  0.8527  0.7701  0.4350
25141SOL    HW278444   2.101   8.329   1.419 -0.6120 -1.1167  1.0697
25142SOL     OW78445   5.823   1.973   0.025 -0.1605  0.0218  0.1979
25142SOL    HW178446   5.732   2.003   0.020  0.5543  2.0495 -1.4684
25142SOL    HW278447   5.874   2.054   0.025  1.6755 -1.1281 -0.0127
25143SOL     OW78448   4.528   0.714   0.830  0.0957  0.4323  0.5907
25143SOL    HW178449   4.505   0.714   0.738  3.7423  0.4985 -0.3959
25143SOL    HW278450   4.448   0.742   0.875 -0.7989  3.7847 -2.7965
25144SOL     OW78451   0.056   6.429   8.140 -0.6546 -0.9613  0.5430
25144SOL    HW178452  -0.029   6.388   8.124 -0.5171 -0.7292 -0.8936
25144SOL    HW278453   0.082   6.398   8.227 -1.2145 -2.7523  0.0977
25145SOL     OW78454   8.295   1.204   5.780  0.7673  1.1773 -0.2842
25145SOL    HW178455   8.303   1.208   5.685  0.3263 -0.2392 -0.3974
25145SOL    HW278456   8.361   1.140   5.807 -0.0711  0.5171  0.2214
25146SOL     OW78457   3.480   0.016   3.480  0.2697 -0.0177  0.1823
25146SOL    HW178458   3.482  -0.067   3.433  0.5881 -1.2844  2.3680
25146SOL    HW278459   3.551   0.068   3.440 -1.7228  0.3372 -3.0966
25147SOL     OW78460   0.474   6.993   1.906 -0.5642 -0.1640 -0.0418
25147SOL    HW178461   0.403   6.941   1.944  0.4458 -0.8539  0.9380
25147SOL    HW278462   0.550   6.935   1.909 -0.2188  0.1549 -2.1564
25148SOL     OW78463   2.633   5.938   5.162 -0.3652  0.0881  0.1676
25148SOL    HW178464   2.644   6.016   5.108 -0.7036 -0.0535 -0.1028
25148SOL    HW278465   2.711   5.885   5.144  0.1080  0.5893  0.7255
25149SOL     OW78466   0.993   0.650   3.673  0.0304  0.0858 -0.1155
25149SOL    HW178467   0.953   0.724   3.628  1.5839  0.0957 -1.5220
25149SOL    HW278468   0.920   0.593   3.696 -1.2514  2.3021  1.4911
25150SOL     OW78469   7.866   0.146   8.974  0.0438 -0.5355 -0.2978
25150SOL    HW178470   7.927   0.201   8.925 -0.4465  0.5742  0.3099
25150SOL    HW278471   7.864   0.185   9.061 -0.4879 -1.3952  0.0834
25151SOL     OW78472   1.508   7.827   8.325  0.1929  0.4447  0.6077
25151SOL    HW178473   1.530   7.877   8.246  0.9583 -0.9866 -0.1177
25151SOL    HW278474   1.569   7.753   8.324  0.0852  0.3186  2.4627
25152SOL     OW78475   6.449   1.746   5.233  0.0291 -0.6020  0.4323
25152SOL    HW178476   6.385   1.708   5.294  0.9491 -1.8935  0.6223
25152SOL    HW278477   6.461   1.836   5.264 -2.0088 -0.2027  0.1303
25153SOL     OW78478   9.385   6.887   8.883 -0.1228  0.0371  0.1380
25153SOL    HW178479   9.313   6.833   8.851 -1.6846  2.2366 -0.1928
25153SOL    HW278480   9.425   6.835   8.953 -0.3497 -2.3293 -1.4483
25154SOL     OW78481   0.423   3.927   6.256  0.0145 -0.0031  0.0409
25154SOL    HW178482   0.484   3.999   6.272 -2.1695  1.8018  0.5841
25154SOL    HW278483   0.427   3.914   6.161 -0.4168  1.6596 -0.2312
25155SOL     OW78484   1.572   7.471   1.855  0.2558  1.0168  0.1352
25155SOL    HW178485   1.624   7.392   1.865  0.8995  1.4586  0.3455
25155SOL    HW278486   1.482   7.440   1.844  0.6177  0.2204 -0.6847
25156SOL     OW78487   8.695   3.865   9.096 -0.1834 -0.1962  0.4880
25156SOL    HW178488   8.712   3.958   9.115  0.0729 -0.4294  1.3907
25156SOL    HW278489   8.682   3.863   9.001 -1.6059  0.9766  0.6462
25157SOL     OW78490   8.107   2.316   7.669  0.0531  0.3691  0.0615
25157SOL    HW178491   8.159   2.368   7.607  1.6050 -1.6777 -0.4008
25157SOL    HW278492   8.118   2.226   7.640 -3.3688 -0.1849  0.2897
25158SOL     OW78493   6.535   5.171   8.175  0.7126 -0.0293  0.1310
25158SOL    HW178494   6.617   5.170   8.124  0.3586  0.2751 -0.4458
25158SOL    HW278495   6.482   5.101   8.136  0.8103 -0.4212  0.6957
25159SOL     OW78496   9.288   4.677   3.129 -0.0299  0.3278 -0.3163
25159SOL    HW178497   9.274   4.661   3.035 -0.5881  1.0383 -0.3608
25159SOL    HW278498   9.382   4.689   3.137  0.0746 -0.1840 -0.7179
25160SOL     OW78499   3.803   2.499   3.935 -0.3058  0.1572 -0.8860
25160SOL    HW178500   3.740   2.433   3.906  1.8476 -2.8118  1.0088
25160SOL    HW278501   3.782   2.513   4.027  1.1579 -0.1111 -0.5086
25161SOL     OW78502   6.660   6.961   4.508 -0.5040  0.5276  0.1817
25161SOL    HW178503   6.754   6.959   4.523 -0.4399  0.6681 -0.1964
25161SOL    HW278504   6.649   7.018   4.432 -0.5511 -2.5072 -2.2189
25162SOL     OW78505   5.322   0.528   1.928 -0.1122 -0.2837  0.0293
25162SOL    HW178506   5.406   0.529   1.973  0.1935 -0.9799 -0.5166
25162SOL    HW278507   5.301   0.620   1.914  0.7059 -0.1175 -0.1068
25163SOL     OW78508   6.187   7.417   1.832 -0.1358 -0.4511  0.1565
25163SOL    HW178509   6.219   7.506   1.848 -0.7821 -0.1398 -0.2549
25163SOL    HW278510   6.254   7.377   1.776 -0.1456 -0.0130 -0.1743
25164SOL     OW78511   5.925   6.233   4.981 -0.4659 -0.2573  0.5963
25164SOL    HW178512   6.006   6.204   5.024 -0.5511 -0.9417  0.3123
25164SOL    HW278513   5.895   6.156   4.932 -0.0210  0.6963 -1.2206
25165SOL     OW78514   6.248   0.759   7.646 -0.1836 -0.3578  0.0302
25165SOL    HW178515   6.335   0.750   7.685 -0.6000 -1.7716  0.6591
25165SOL    HW278516   6.234   0.853   7.640  1.2979 -0.1203  0.1418
25166SOL     OW78517   0.838   0.726   2.912 -0.7820 -0.1033 -0.0315
25166SOL    HW178518   0.904   0.796   2.915  1.7570 -2.3482 -1.2107
25166SOL    HW278519   0.772   0.752   2.976 -0.0727  3.5102 -0.6527
25167SOL     OW78520   4.906   1.159   6.459  0.2287  0.4741  0.7219
25167SOL    HW178521   4.979   1.153   6.520  1.7498 -0.2674 -1.1460
25167SOL    HW278522   4.942   1.199   6.380 -1.1029 -0.8697 -0.6136
25168SOL     OW78523   3.860   5.879   2.457  0.0158 -0.1424 -0.0517
25168SOL    HW178524   3.867   5.846   2.546 -0.1285  0.3131  0.1320
25168SOL    HW278525   3.785   5.833   2.420 -2.6414  2.8008  1.4787
25169SOL     OW78526   1.994   6.518   2.197  0.0068  0.4838  0.2239
25169SOL    HW178527   1.992   6.483   2.108  0.9103  1.1644 -0.0728
25169SOL    HW278528   1.925   6.470   2.244  0.5928 -1.0012 -0.4163
25170SOL     OW78529   3.989   6.150   2.829  0.1922  0.5142  0.2588
25170SOL    HW178530   4.015   6.060   2.850 -0.4568  0.1342 -0.5766
25170SOL    HW278531   4.072   6.198   2.823  0.4972  0.1923  1.6499
25171SOL     OW78532   4.522   1.655   4.748  0.2014  0.0041 -0.0980
25171SOL    HW178533   4.518   1.736   4.696 -0.8695 -0.3883 -0.6269
25171SOL    HW278534   4.487   1.680   4.833 -1.4045 -0.2242 -0.6804
25172SOL     OW78535   5.387   3.735   6.011  0.0700 -0.5402  0.4489
25172SOL    HW178536   5.293   3.728   5.998  0.0611 -0.8107  0.6744
25172SOL    HW278537   5.397   3.792   6.087  0.0930 -0.4148  0.3535
25173SOL     OW78538   8.923   7.390   4.521  0.5735  0.2267  0.2247
25173SOL    HW178539   9.001   7.353   4.563 -0.8986 -0.9682  1.9761
25173SOL    HW278540   8.881   7.443   4.589 -1.4951 -1.2147  0.1300
25174SOL     OW78541   4.978   8.433   6.472  0.4221 -0.0547  0.0419
25174SOL    HW178542   4.925   8.443   6.551 -0.2125 -2.8140  0.0232
25174SOL    HW278543   5.068   8.423   6.504  0.6261  2.0579  0.2065
25175SOL     OW78544   9.117   8.908   1.734 -0.2392 -0.3734 -0.0017
25175SOL    HW178545   9.088   8.840   1.796 -0.5484  0.0305  0.2970
25175SOL    HW278546   9.210   8.917   1.751 -0.3242 -0.2614  0.4058
25176SOL     OW78547   5.578   6.496   1.766 -0.1211  0.2492 -0.3640
25176SOL    HW178548   5.596   6.412   1.724  2.0955  0.3047  0.4378
25176SOL    HW278549   5.606   6.561   1.702  0.4076  0.3536 -0.0293
25177SOL     OW78550   0.947   1.284   7.120 -0.5449 -0.2990  0.2665
25177SOL    HW178551   0.861   1.257   7.087 -0.2730  0.3410 -0.9814
25177SOL    HW278552   1.009   1.247   7.057  0.0584 -0.1751  0.7868
25178SOL     OW78553   2.342   4.024   5.848  0.6252  0.1925 -0.0539
25178SOL    HW178554   2.410   4.090   5.836  1.9224 -1.1326 -0.1112
25178SOL    HW278555   2.330   3.987   5.760  0.2531  0.0004  0.0765
25179SOL     OW78556   6.350   3.369   8.766 -0.7682 -0.8465 -0.0038
25179SOL    HW178557   6.343   3.411   8.680  0.5339  0.1525  0.3420
25179SOL    HW278558   6.353   3.442   8.828 -0.3187 -1.5051  0.7690
25180SOL     OW78559   6.006   8.784   6.578  0.5674  0.0192 -0.0954
25180SOL    HW178560   5.949   8.818   6.509  0.9840  1.2420  0.1599
25180SOL    HW278561   6.000   8.849   6.648  0.7305 -0.8481  0.7242
25181SOL     OW78562   3.609   1.923   5.454 -0.0897 -0.1410 -0.0414
25181SOL    HW178563   3.648   1.845   5.494 -0.0659 -0.2945 -0.3660
25181SOL    HW278564   3.605   1.987   5.526  0.0602 -0.3776  0.1787
25182SOL     OW78565   3.612   4.858   7.379  0.2078  0.1410 -0.0600
25182SOL    HW178566   3.653   4.790   7.432  1.0397 -1.1710 -2.3480
25182SOL    HW278567   3.684   4.917   7.356 -0.0249  0.3451 -0.2655
25183SOL     OW78568   4.557   8.763   1.959  0.4528  0.3677  0.1205
25183SOL    HW178569   4.622   8.721   2.016  1.9741  2.1813 -0.1844
25183SOL    HW278570   4.567   8.720   1.875 -0.2166 -0.7912  0.6312
25184SOL     OW78571   8.868   3.293   2.982 -0.1833  0.3709 -0.1545
25184SOL    HW178572   8.946   3.343   2.954  0.6286 -1.0823 -0.5165
25184SOL    HW278573   8.867   3.301   3.077  0.7058 -0.0273 -0.1057
25185SOL     OW78574   6.698   8.351   5.427 -0.5674 -0.3833 -0.2424
25185SOL    HW178575   6.756   8.309   5.490  1.1765  2.2620  0.0112
25185SOL    HW278576   6.757   8.383   5.359 -1.9839  0.4482 -1.0937
25186SOL     OW78577   9.391   6.465   5.261 -0.1364 -0.4004  0.0537
25186SOL    HW178578   9.424   6.550   5.235  0.9251 -0.3701  1.4258
25186SOL    HW278579   9.465   6.405   5.248 -0.4074 -0.8381  0.4858
25187SOL     OW78580   0.125   1.433   5.113  0.0827  0.1136  0.5162
25187SOL    HW178581   0.184   1.380   5.167  2.5753  0.6493 -1.5932
25187SOL    HW278582   0.183   1.480   5.053 -2.3650  2.3172 -0.1958
25188SOL     OW78583   8.842   5.433   8.383  0.0424 -0.6358  0.3625
25188SOL    HW178584   8.920   5.457   8.434 -1.1769  1.8233  1.1052
25188SOL    HW278585   8.858   5.469   8.296 -1.1221  1.6233  1.0619
25189SOL     OW78586   8.029   6.039   2.853 -0.4369 -0.3582  0.0058
25189SOL    HW178587   7.943   6.001   2.870 -0.4191 -0.1573  0.5748
25189SOL    HW278588   8.012   6.127   2.822 -0.4260 -0.1467  0.5932
25190SOL     OW78589   4.833   8.386   8.924  0.4141  0.4544 -0.2044
25190SOL    HW178590   4.837   8.309   8.980  1.2563  1.2356  0.8121
25190SOL    HW278591   4.806   8.457   8.981 -1.7002  0.6678 -1.4205
25191SOL     OW78592   5.764   1.540   6.692 -0.1988 -0.0589  0.6652
25191SOL    HW178593   5.675   1.538   6.726 -0.5987  2.3290 -0.1313
25191SOL    HW278594   5.820   1.535   6.770 -1.0234 -1.1165  1.1955
25192SOL     OW78595   5.925   3.818   1.626  0.3436  0.2824 -0.4270
25192SOL    HW178596   5.918   3.723   1.632 -0.0058  0.4560  2.8089
25192SOL    HW278597   5.990   3.834   1.558  0.8023 -2.2685 -0.6111
25193SOL     OW78598   8.824   8.432   0.147 -0.1595 -0.5210 -0.1243
25193SOL    HW178599   8.753   8.373   0.170 -1.2622  0.4057 -1.0723
25193SOL    HW278600   8.868   8.451   0.230 -1.4856 -0.5177  0.5854
25194SOL     OW78601   4.680   2.238   3.893 -0.2247 -0.3747  0.2444
25194SOL    HW178602   4.593   2.204   3.874 -0.4852 -0.0214  0.8008
25194SOL    HW278603   4.739   2.165   3.874 -0.4997 -0.1834 -1.4812
25195SOL     OW78604   1.211   7.341   3.347  0.2966 -0.3540  0.1502
25195SOL    HW178605   1.289   7.320   3.295  1.0522 -0.7620  1.4364
25195SOL    HW278606   1.236   7.416   3.400 -0.9857  1.0688 -1.1784
25196SOL     OW78607   9.185   7.192   8.064 -0.0585 -0.0695  0.1751
25196SOL    HW178608   9.255   7.144   8.107  1.5932  0.1695 -2.1374
25196SOL    HW278609   9.218   7.281   8.056  0.2740 -0.4037 -2.7480
25197SOL     OW78610   4.951   3.548   0.661 -0.6503  0.2850  0.2847
25197SOL    HW178611   4.992   3.634   0.649  0.5656 -0.3545 -0.2635
25197SOL    HW278612   4.859   3.562   0.639  0.1388  0.7567 -2.9923
25198SOL     OW78613   7.645   7.050   2.304  0.2304  0.7788 -0.2110
25198SOL    HW178614   7.637   6.959   2.335 -4.2206  0.8994 -0.6384
25198SOL    HW278615   7.660   7.101   2.384  3.5898 -0.3309 -0.0531
25199SOL     OW78616   0.620   1.295   4.400 -0.2138  1.0350  0.1166
25199SOL    HW178617   0.634   1.347   4.480 -1.8875 -0.3583  1.3381
25199SOL    HW278618   0.525   1.287   4.393  0.0233 -2.0735  0.0764
25200SOL     OW78619   9.027   7.844   0.699  0.3927 -0.2159  0.4623
25200SOL    HW178620   8.988   7.761   0.726 -0.1900  0.0159  0.3389
25200SOL    HW278621   9.050   7.831   0.607 -1.6747  0.4657 -0.1851
25201SOL     OW78622   5.844   5.995   5.400 -0.4605  0.5164  0.1765
25201SOL    HW178623   5.790   5.999   5.479 -0.4968  1.0441  0.1287
25201SOL    HW278624   5.928   5.960   5.430 -0.8927 -0.5066  0.2111
25202SOL     OW78625   2.658   3.497   7.930  0.1182 -0.2308  0.6526
25202SOL    HW178626   2.694   3.415   7.966 -1.0684 -0.2567  1.8010
25202SOL    HW278627   2.658   3.558   8.003  1.7808  1.0821 -0.4086
25203SOL     OW78628   2.396   3.637   0.565  0.8390 -0.0080  0.4450
25203SOL    HW178629   2.385   3.702   0.634  2.2175 -0.3765  1.0297
25203SOL    HW278630   2.326   3.573   0.581 -0.1053  0.9666  0.2690
25204SOL     OW78631   0.357   4.467   2.752  0.4810  0.6834 -0.4443
25204SOL    HW178632   0.355   4.457   2.847  0.0193  1.0465 -0.4115
25204SOL    HW278633   0.450   4.457   2.728  0.1754 -2.6499 -0.3453
25205SOL     OW78634   5.955   2.476   8.323 -0.0196 -0.0998 -0.1753
25205SOL    HW178635   5.876   2.530   8.321  0.9433  1.3348 -1.2556
25205SOL    HW278636   5.977   2.469   8.415 -0.7360  0.5287  0.0494
25206SOL     OW78637   8.780   4.152   7.130 -0.6121  0.9300 -0.0560
25206SOL    HW178638   8.844   4.221   7.117 -0.1684  0.8798  1.7082
25206SOL    HW278639   8.713   4.192   7.187  0.2435 -0.4101  1.9544
25207SOL     OW78640   5.976   3.253   6.614  0.1242 -0.0303 -0.2345
25207SOL    HW178641   6.040   3.324   6.606 -0.3559  0.4109 -0.1995
25207SOL    HW278642   5.928   3.274   6.694 -0.3756 -0.1051 -0.5146
25208SOL     OW78643   9.249   5.866   1.789 -0.8085 -0.3715  0.1327
25208SOL    HW178644   9.251   5.774   1.763  1.5196 -0.5152  0.7125
25208SOL    HW278645   9.303   5.910   1.723 -0.6675  0.3360  0.7111
25209SOL     OW78646   0.014   0.964   6.820 -0.5449  0.1718 -0.2312
25209SOL    HW178647   0.005   1.006   6.906 -0.6417 -0.3062 -0.0105
25209SOL    HW278648  -0.040   1.018   6.762  0.9709  1.5915 -0.3708
25210SOL     OW78649   5.951   5.244   7.144 -0.2606  0.0516 -0.0726
25210SOL    HW178650   5.889   5.269   7.213 -0.4077  1.1374 -0.5792
25210SOL    HW278651   6.024   5.304   7.155  0.3586 -0.7160  0.0280
25211SOL     OW78652   4.229   4.539   3.547 -0.1112 -0.1055  0.2151
25211SOL    HW178653   4.293   4.547   3.617  0.8130 -0.2275 -0.6071
25211SOL    HW278654   4.277   4.501   3.473 -0.7885  1.0189 -0.8373
25212SOL     OW78655   0.390   0.560   2.880  0.2525  0.2080 -0.5597
25212SOL    HW178656   0.448   0.576   2.954  0.4400 -1.7131 -0.2457
25212SOL    HW278657   0.398   0.466   2.864  0.0533  0.5595 -2.9024
25213SOL     OW78658   4.274   3.612   2.717  0.1220  0.4608  0.5439
25213SOL    HW178659   4.334   3.676   2.754 -0.3305  1.8048 -0.9698
25213SOL    HW278660   4.195   3.662   2.697 -0.1870 -0.5277 -0.8079
25214SOL     OW78661   6.717   2.939   7.515  0.3935  0.2689  0.1647
25214SOL    HW178662   6.701   2.885   7.438  0.0112  0.9715 -0.2563
25214SOL    HW278663   6.677   3.024   7.494 -1.1474 -0.0194  1.7853
25215SOL     OW78664   6.725   1.090   2.880 -0.1221 -0.1061 -0.3799
25215SOL    HW178665   6.715   1.106   2.974 -0.9459 -2.0241 -0.1132
25215SOL    HW278666   6.642   1.117   2.842  0.8489  2.3751 -0.8358
25216SOL     OW78667   3.938   0.410   3.083  0.5115  0.0962  0.1463
25216SOL    HW178668   3.933   0.456   2.999  0.0182 -1.5426 -0.7311
25216SOL    HW278669   3.865   0.349   3.081  1.1463 -0.7179  1.3203
25217SOL     OW78670   3.222   1.127   1.785  0.2052 -0.1757  0.5304
25217SOL    HW178671   3.261   1.076   1.857 -0.1562 -0.5802  0.4393
25217SOL    HW278672   3.255   1.216   1.799  0.5996 -0.3704  0.8639
25218SOL     OW78673   7.771   6.614   9.039 -0.3722  0.2159 -0.2840
25218SOL    HW178674   7.722   6.609   8.957  0.2277 -0.8988 -0.5699
25218SOL    HW278675   7.862   6.629   9.013 -0.2819  0.5692  0.2053
25219SOL     OW78676   1.686   8.209   4.860  0.1742  0.2557 -0.0431
25219SOL    HW178677   1.751   8.152   4.819 -1.7246 -1.7266 -0.3555
25219SOL    HW278678   1.736   8.260   4.924  1.5062 -3.6054  2.1572
25220SOL     OW78679   9.187   3.951   3.708 -0.5110 -0.2311  0.1150
25220SOL    HW178680   9.105   3.949   3.657 -0.6014 -1.9020  0.3063
25220SOL    HW278681   9.164   3.909   3.791  0.5736 -0.8691  0.0989
25221SOL     OW78682   3.324   6.483   3.429 -0.3635  0.2627 -0.0954
25221SOL    HW178683   3.345   6.467   3.521  2.0128  0.3394 -0.6014
25221SOL    HW278684   3.258   6.416   3.407 -1.0839  0.3680  1.6899
25222SOL     OW78685   0.963   1.012   6.102  0.2908 -0.2126  0.8644
25222SOL    HW178686   0.933   1.052   6.183 -0.6313 -1.3632  1.0985
25222SOL    HW278687   0.905   1.049   6.035  0.8984  0.5538  0.7513
25223SOL     OW78688   5.233   0.003   1.881  0.0049  0.5158  0.2718
25223SOL    HW178689   5.273  -0.017   1.796  1.1907 -0.7505  1.1241
25223SOL    HW278690   5.304   0.042   1.932 -0.2631 -0.2897  1.2588
25224SOL     OW78691   6.281   7.308   3.751 -0.5651 -0.4205  0.3150
25224SOL    HW178692   6.257   7.300   3.658 -2.8773 -0.4089  0.8908
25224SOL    HW278693   6.377   7.311   3.750 -0.5626  0.3263 -2.1403
25225SOL     OW78694   3.509   8.875   8.722 -0.2524  0.0696  0.0221
25225SOL    HW178695   3.581   8.834   8.771 -0.5842 -2.5616 -1.6152
25225SOL    HW278696   3.455   8.916   8.790  1.9761  0.8394  1.4109
25226SOL     OW78697   1.078   9.175   0.943 -0.2871 -0.0587  0.1794
25226SOL    HW178698   1.094   9.262   0.981 -0.6141  0.0853 -0.0118
25226SOL    HW278699   1.105   9.114   1.011 -0.6893  0.1976  0.5749
25227SOL     OW78700   8.247   0.893   6.262  0.2830 -0.4491  0.1335
25227SOL    HW178701   8.163   0.934   6.243  0.7772  0.3448 -0.3448
25227SOL    HW278702   8.297   0.901   6.181  1.2998  0.2744  0.8105
25228SOL     OW78703   3.677   3.239   5.618  0.2342  0.0258 -0.0021
25228SOL    HW178704   3.741   3.215   5.685  0.5172  0.6589 -0.0461
25228SOL    HW278705   3.608   3.173   5.628  0.1664  0.2381  1.0559
25229SOL     OW78706   7.492   7.940   6.160 -0.0983  0.2099  0.2263
25229SOL    HW178707   7.402   7.911   6.143  0.0253 -0.0458 -0.0019
25229SOL    HW278708   7.543   7.859   6.165 -0.0890  0.2997  1.6157
25230SOL     OW78709   3.385   5.414   5.785  0.0157  0.2048  0.3888
25230SOL    HW178710   3.434   5.354   5.841  1.2484 -0.8401 -1.7462
25230SOL    HW278711   3.353   5.360   5.713 -0.0384  1.8373 -0.8568
25231SOL     OW78712   6.518   8.970   1.892 -0.3392 -0.1746  0.0382
25231SOL    HW178713   6.538   8.879   1.870 -0.1411 -0.4708  1.3794
25231SOL    HW278714   6.443   8.964   1.951 -0.3049  0.5300  0.1560
25232SOL     OW78715   7.475   4.258   0.022 -0.4426 -0.3818  0.2538
25232SOL    HW178716   7.407   4.302   0.073 -0.3684  0.5463 -0.4387
25232SOL    HW278717   7.556   4.276   0.070 -0.2159  1.4415 -0.7806
25233SOL     OW78718   4.924   1.889   4.932  0.0674  0.8347  0.4396
25233SOL    HW178719   4.981   1.939   4.991 -0.3106  2.2718 -0.3811
25233SOL    HW278720   4.887   1.820   4.987  1.9488  0.3918  1.1760
25234SOL     OW78721   1.096   2.207   0.671 -0.4907  0.0961 -0.5808
25234SOL    HW178722   1.009   2.238   0.696 -0.5301  0.5507 -1.2663
25234SOL    HW278723   1.137   2.281   0.628  0.4236  0.0365  0.1565
25235SOL     OW78724   2.785   6.892   1.249 -0.2592  0.5891 -0.4730
25235SOL    HW178725   2.835   6.966   1.284 -0.3454  0.8753 -0.9439
25235SOL    HW278726   2.741   6.854   1.325 -0.2596  1.0586 -0.2353
25236SOL     OW78727   0.914   1.889   1.597  0.0502 -0.4299  0.0814
25236SOL    HW178728   0.950   1.874   1.510  2.7364  0.9043  0.8840
25236SOL    HW278729   0.965   1.832   1.654  0.6383  1.1607  1.2022
25237SOL     OW78730   4.516   0.037   8.806  0.2204 -0.4732 -0.0454
25237SOL    HW178731   4.600   0.076   8.780  0.7449 -1.3816  0.2788
25237SOL    HW278732   4.531   0.007   8.896 -0.6574 -0.0422  0.2453
25238SOL     OW78733   4.472   3.080   8.682 -0.1993 -0.2242 -0.0163
25238SOL    HW178734   4.525   3.158   8.699  0.3903 -0.4745 -0.7017
25238SOL    HW278735   4.505   3.046   8.599 -0.9193 -0.8173 -0.0598
25239SOL     OW78736   4.557   3.536   6.276  0.0362 -0.3951  0.6085
25239SOL    HW178737   4.494   3.485   6.225 -3.0812  2.1585  1.7174
25239SOL    HW278738   4.589   3.603   6.216  0.1192 -0.4387  0.6047
25240SOL     OW78739   1.386   4.759   3.768 -0.5785 -0.3235 -0.8367
25240SOL    HW178740   1.320   4.697   3.798 -1.4926  1.2266  0.4299
25240SOL    HW278741   1.468   4.726   3.804 -1.6122  1.3334  3.2882
25241SOL     OW78742   5.167   2.042   7.274 -0.0476  0.4169 -0.2805
25241SOL    HW178743   5.173   2.036   7.370  1.1640 -3.2072 -0.4959
25241SOL    HW278744   5.258   2.032   7.245 -0.5650  0.1699 -1.8319
25242SOL     OW78745   3.003   5.620   7.589  0.1480  0.3816 -0.1973
25242SOL    HW178746   3.011   5.601   7.683  1.8876  0.1249 -0.3848
25242SOL    HW278747   2.970   5.709   7.586 -0.6279  0.1376  0.6592
25243SOL     OW78748   1.161   8.329   3.713  0.1702  0.1768  0.1894
25243SOL    HW178749   1.159   8.244   3.758  0.2085  1.1419  2.0479
25243SOL    HW278750   1.239   8.325   3.658  0.3517 -0.8713  0.5134
25244SOL     OW78751   3.526   7.539   1.483 -0.3277  0.1350 -0.2051
25244SOL    HW178752   3.561   7.571   1.566 -0.3185  1.9516 -0.8820
25244SOL    HW278753   3.597   7.488   1.444 -0.1681 -0.3171  0.6824
25245SOL     OW78754   2.610   6.082   2.416  0.3082  0.0810  0.0781
25245SOL    HW178755   2.695   6.123   2.405  0.5922 -0.7203 -0.7541
25245SOL    HW278756   2.570   6.128   2.490  1.3628  0.6115  0.3167
25246SOL     OW78757   4.647   7.584   5.209  0.2081 -0.2673  0.1562
25246SOL    HW178758   4.565   7.626   5.234  0.2297  0.7300 -1.3995
25246SOL    HW278759   4.715   7.630   5.258  0.0229  0.1244  0.0406
25247SOL     OW78760   3.086   4.280   7.981  1.0289 -0.2951  0.5186
25247SOL    HW178761   3.143   4.295   8.057 -1.1691  1.5555  1.8413
25247SOL    HW278762   3.088   4.363   7.933 -2.6384  0.7696  2.0387
25248SOL     OW78763   9.166   3.399   2.626  0.0183  0.1326 -0.1508
25248SOL    HW178764   9.149   3.467   2.561  1.1397 -0.3408 -0.9593
25248SOL    HW278765   9.214   3.332   2.578 -0.3168 -0.8331  0.8540
25249SOL     OW78766   3.310   7.560   5.852  0.3611 -0.5286  0.0301
25249SOL    HW178767   3.271   7.553   5.765 -0.1724 -3.0030  0.4250
25249SOL    HW278768   3.403   7.545   5.838  0.0954 -2.3283  0.0166
25250SOL     OW78769   0.402   5.253   4.332 -0.2181 -0.7991  0.1299
25250SOL    HW178770   0.322   5.304   4.320  0.6036  0.7382  1.1486
25250SOL    HW278771   0.458   5.279   4.259  0.3968  0.1253  0.9351
25251SOL     OW78772   7.471   8.319   8.039  0.4677 -0.1742 -0.1092
25251SOL    HW178773   7.528   8.353   8.108  1.0138  0.3339 -0.7859
25251SOL    HW278774   7.431   8.241   8.076  0.2717  0.4397  0.9956
25252SOL     OW78775   2.070   8.945   6.920 -0.1752 -0.3573  0.3454
25252SOL    HW178776   2.006   8.989   6.864 -0.4155 -0.7061  0.3516
25252SOL    HW278777   2.154   8.986   6.896 -0.1984 -0.8708 -0.6418
25253SOL     OW78778   6.148   9.090   7.268  0.1590  0.1173 -0.1466
25253SOL    HW178779   6.184   9.172   7.301  1.0215  0.8737 -2.8731
25253SOL    HW278780   6.105   9.114   7.186 -0.6613 -1.9598 -0.3530
25254SOL     OW78781   3.354   3.305   1.997  0.2874  0.4625 -0.5705
25254SOL    HW178782   3.285   3.242   1.977  1.3178 -0.2876 -1.8970
25254SOL    HW278783   3.398   3.268   2.074 -0.4662  0.6778 -0.0347
25255SOL     OW78784   0.797   4.595   7.535 -0.0584 -0.3639 -0.3299
25255SOL    HW178785   0.792   4.638   7.450 -0.7137  0.3168  0.0594
25255SOL    HW278786   0.858   4.648   7.586  2.3078 -2.1566 -1.1885
25256SOL     OW78787   9.412   5.866   8.133  0.3593  0.0832 -0.8233
25256SOL    HW178788   9.495   5.829   8.105  0.0627  0.3525 -2.1002
25256SOL    HW278789   9.420   5.875   8.228  1.2008 -1.3189 -0.7557
25257SOL     OW78790   3.157   1.070   0.254  0.3827  0.7066 -0.4669
25257SOL    HW178791   3.243   1.033   0.273  0.0913  0.1664 -0.1898
25257SOL    HW278792   3.134   1.037   0.167 -0.0571 -0.0995 -0.0470
25258SOL     OW78793   4.153   3.262   1.952 -0.4369 -0.0701  0.3493
25258SOL    HW178794   4.230   3.317   1.968  0.1946 -0.7547 -0.3115
25258SOL    HW278795   4.186   3.189   1.900 -1.2475 -1.1509  1.3250
25259SOL     OW78796   4.187   2.406   1.198  0.3003  0.2445  0.5302
25259SOL    HW178797   4.246   2.344   1.240  0.0482 -1.0012 -0.8809
25259SOL    HW278798   4.239   2.484   1.183  0.8706  0.0671  1.5381
25260SOL     OW78799   9.412   8.442   4.498 -0.1914 -0.1184 -0.0317
25260SOL    HW178800   9.341   8.379   4.506 -0.1889 -0.3581 -1.8174
25260SOL    HW278801   9.374   8.524   4.530 -1.1845 -0.3057 -0.7137
25261SOL     OW78802   7.693   0.278   3.758 -0.2610  0.1290  0.2550
25261SOL    HW178803   7.756   0.223   3.804  0.2016  1.4844  1.2813
25261SOL    HW278804   7.623   0.293   3.821 -0.6616  0.2545 -0.2119
25262SOL     OW78805   0.843   4.624   3.346  0.2355 -0.5284  0.0847
25262SOL    HW178806   0.893   4.553   3.388 -0.6796  0.0504  2.2504
25262SOL    HW278807   0.761   4.626   3.394 -0.6863  0.4823 -1.5056
25263SOL     OW78808   7.021   5.264   6.701 -0.4054  0.4754  0.5168
25263SOL    HW178809   7.003   5.212   6.779  0.3455  0.3038  0.5766
25263SOL    HW278810   7.077   5.208   6.647 -0.8218  0.6415 -0.0898
25264SOL     OW78811   5.462   8.769   3.411 -0.5269 -0.2912  0.5283
25264SOL    HW178812   5.483   8.732   3.497 -0.2256 -0.3065  0.4502
25264SOL    HW278813   5.369   8.789   3.415 -0.5937 -0.6404  0.7304
25265SOL     OW78814   7.738   2.781   6.459 -0.0419 -0.0393  0.2591
25265SOL    HW178815   7.745   2.696   6.503  1.2402  0.3570  0.8593
25265SOL    HW278816   7.794   2.774   6.382  0.0152  0.2396  0.2731
25266SOL     OW78817   0.727   4.035   3.034  0.4782  0.2910 -1.1516
25266SOL    HW178818   0.818   4.024   3.062  0.4804 -0.6775 -1.5100
25266SOL    HW278819   0.681   3.961   3.073 -0.3228  1.2311 -0.2972
25267SOL     OW78820   0.794   3.558   7.876 -0.0776 -0.3627  0.4338
25267SOL    HW178821   0.704   3.550   7.845  0.0346 -0.7309  0.1928
25267SOL    HW278822   0.791   3.626   7.943 -0.5705 -0.5115  0.5628
25268SOL     OW78823   6.831   1.695   5.886 -0.5004 -0.1765  0.2755
25268SOL    HW178824   6.780   1.679   5.807 -1.3342  1.6878  0.4056
25268SOL    HW278825   6.782   1.650   5.955  0.7247 -2.5952 -0.3773
25269SOL     OW78826   6.025   0.577   5.112  0.0678  0.6583 -0.1580
25269SOL    HW178827   6.003   0.655   5.162  2.3152  0.1550  1.6880
25269SOL    HW278828   6.042   0.510   5.179 -1.2231 -1.2537 -1.6915
25270SOL     OW78829   5.369   1.704   1.737  0.3781  0.1586  0.1120
25270SOL    HW178830   5.308   1.777   1.742  1.9525  1.4996  0.0975
25270SOL    HW278831   5.385   1.680   1.829 -1.0457 -0.9586  0.0825
25271SOL     OW78832   2.296   4.028   0.932 -0.0003 -1.0711 -0.1628
25271SOL    HW178833   2.245   4.017   0.852  0.9761  0.1010 -0.9639
25271SOL    HW278834   2.231   4.039   1.001 -0.8288 -0.4794 -1.0358
25272SOL     OW78835   6.279   0.878   1.836 -0.2692  0.3633 -0.1205
25272SOL    HW178836   6.223   0.904   1.909  0.7244 -0.7412  1.0613
25272SOL    HW278837   6.237   0.800   1.800 -0.4079  0.5227 -0.3004
25273SOL     OW78838   4.825   0.872   1.036  0.4110  0.5244 -0.6539
25273SOL    HW178839   4.799   0.854   0.946 -0.3743  0.4170 -0.4068
25273SOL    HW278840   4.824   0.967   1.044  2.0974  0.6148 -1.2288
25274SOL     OW78841   9.071   8.127   8.036 -0.2251 -0.2460 -0.2564
25274SOL    HW178842   8.996   8.082   8.075  0.3249 -0.8559  0.1016
25274SOL    HW278843   9.127   8.057   8.003 -0.0670  0.2281 -0.9984
25275SOL     OW78844   7.876   5.709   0.368 -0.1047  0.1155 -0.4071
25275SOL    HW178845   7.842   5.693   0.456 -0.4819 -0.8310 -0.7207
25275SOL    HW278846   7.916   5.796   0.373 -1.3384  0.6606  0.3392
25276SOL     OW78847   1.318   4.904   2.360  0.2353 -0.0102  0.0083
25276SOL    HW178848   1.351   4.890   2.449  1.6531  1.2823 -0.2927
25276SOL    HW278849   1.373   4.847   2.306  0.0926  0.0185 -0.1670
25277SOL     OW78850   1.717   7.692   0.159  0.3662 -0.1555  0.5486
25277SOL    HW178851   1.774   7.668   0.086  0.6228  1.7960  0.0823
25277SOL    HW278852   1.777   7.717   0.229  0.1175 -1.8233  1.3896
25278SOL     OW78853   0.844   8.850   4.333  0.1291  0.0286 -0.4302
25278SOL    HW178854   0.776   8.866   4.398  0.0484  1.5446 -0.8774
25278SOL    HW278855   0.799   8.860   4.249  0.6880  0.0606 -0.7248
25279SOL     OW78856   9.296   3.066   3.281 -0.1744 -0.5661 -0.0158
25279SOL    HW178857   9.258   2.985   3.248 -0.7889 -1.0098  1.7368
25279SOL    HW278858   9.223   3.112   3.323  0.3469  0.5018 -0.2492
25280SOL     OW78859   2.555   7.410   4.442  0.5712 -0.5319  0.3178
25280SOL    HW178860   2.461   7.402   4.458  0.4412 -1.8996 -1.0712
25280SOL    HW278861   2.582   7.323   4.413  2.3040 -0.1983  0.8805
25281SOL     OW78862   7.472   8.718   1.965 -0.0594  0.4297 -0.2262
25281SOL    HW178863   7.509   8.800   1.932  0.1504  0.2946 -0.3265
25281SOL    HW278864   7.412   8.746   2.035 -0.9116  0.7495 -1.0820
25282SOL     OW78865   0.475   3.882   8.937 -0.3585 -0.6386  0.1004
25282SOL    HW178866   0.553   3.828   8.946 -0.0533 -0.2439 -0.2097
25282SOL    HW278867   0.504   3.961   8.892 -1.1481 -0.9864 -1.0480
25283SOL     OW78868   5.346   0.875   3.393  0.3229  0.5342 -0.4274
25283SOL    HW178869   5.439   0.869   3.369  0.6026 -0.2656  0.7765
25283SOL    HW278870   5.344   0.847   3.485 -1.0682  0.8809 -0.3499
25284SOL     OW78871   3.396   6.516   8.156 -0.0999  0.1721 -0.8266
25284SOL    HW178872   3.317   6.512   8.210  1.1323 -0.7303  0.9770
25284SOL    HW278873   3.414   6.425   8.133  0.6417  0.3298 -0.8872
25285SOL     OW78874   2.164   1.786   2.325 -0.8180 -0.7085 -0.0863
25285SOL    HW178875   2.138   1.707   2.278 -1.4635  0.3765 -1.5925
25285SOL    HW278876   2.082   1.831   2.345 -0.3358  0.6854 -1.2122
25286SOL     OW78877   3.434   0.723   1.871 -0.4716 -0.1747  0.0086
25286SOL    HW178878   3.498   0.776   1.823  0.2346  0.9312  2.1506
25286SOL    HW278879   3.377   0.688   1.802  2.1482 -0.8347 -1.8974
25287SOL     OW78880   1.302   5.285   7.198  0.0414 -0.1178  0.0047
25287SOL    HW178881   1.279   5.334   7.277  0.6155 -1.5984  1.1189
25287SOL    HW278882   1.246   5.207   7.200 -1.8100  1.0805 -2.4282
25288SOL     OW78883   7.782   8.389   8.873 -0.1346  0.1706  0.0091
25288SOL    HW178884   7.729   8.420   8.947  0.7987 -1.3720  1.3581
25288SOL    HW278885   7.871   8.415   8.895  0.3665 -1.6127  0.1615
25289SOL     OW78886   2.405   1.170   7.238 -0.2286 -0.3192 -0.3892
25289SOL    HW178887   2.429   1.263   7.241 -3.4823  0.5615 -0.2299
25289SOL    HW278888   2.352   1.156   7.316 -3.2583 -1.2707 -2.5384
25290SOL     OW78889   0.926   8.555   7.691  0.1973 -0.3200 -0.0780
25290SOL    HW178890   0.870   8.481   7.716 -0.9345  1.3289  2.4449
25290SOL    HW278891   1.015   8.520   7.695 -0.2257 -1.1756  2.6035
25291SOL     OW78892   8.705   8.863   2.944 -0.1835 -0.4832 -0.6395
25291SOL    HW178893   8.633   8.925   2.939 -0.0029 -0.1353  0.7849
25291SOL    HW278894   8.746   8.880   3.029  0.5353 -1.8164 -0.6945
25292SOL     OW78895   6.234   5.898   2.201  0.1850 -0.5332 -0.3048
25292SOL    HW178896   6.262   5.818   2.155  2.6283 -0.0298  0.2247
25292SOL    HW278897   6.254   5.968   2.139 -1.9127 -0.2954 -0.7458
25293SOL     OW78898   8.531   9.236   1.595 -0.1042  0.0022 -0.1543
25293SOL    HW178899   8.473   9.199   1.528  0.8711 -0.1944 -0.9156
25293SOL    HW278900   8.508   9.189   1.675 -0.7871 -0.2826 -0.5096
25294SOL     OW78901   5.860   2.152   6.908  0.4777 -0.2752  0.3852
25294SOL    HW178902   5.876   2.243   6.883  0.6264 -0.1626  0.8854
25294SOL    HW278903   5.945   2.109   6.898  0.1245 -0.6368 -1.0348
25295SOL     OW78904   4.453   6.469   3.290  0.3890  0.6346  0.3081
25295SOL    HW178905   4.421   6.513   3.368  0.5532  1.7391 -0.2446
25295SOL    HW278906   4.378   6.468   3.230 -0.5136 -2.4124  1.3701
25296SOL     OW78907   3.452   6.541   0.738 -0.1298  0.0346 -0.1939
25296SOL    HW178908   3.438   6.458   0.784  1.1526 -0.2585 -0.3232
25296SOL    HW278909   3.480   6.515   0.651  1.6249  0.5989  0.1851
25297SOL     OW78910   4.405   9.143   4.092 -0.2689  0.0375 -0.2692
25297SOL    HW178911   4.462   9.219   4.105  0.6125 -0.4824 -1.0116
25297SOL    HW278912   4.376   9.119   4.180  0.7078  0.2820  0.1270
25298SOL     OW78913   5.367   1.987   0.924  0.0155  0.6840 -0.1075
25298SOL    HW178914   5.373   2.060   0.985  0.0478 -0.9995  1.9563
25298SOL    HW278915   5.451   1.941   0.933 -0.5370 -0.3935 -0.3903
25299SOL     OW78916   5.906   1.950   7.561  0.1004  0.1614 -0.0009
25299SOL    HW178917   5.932   1.909   7.643 -0.5012 -2.0690 -0.8720
25299SOL    HW278918   5.942   1.893   7.493 -2.5621 -0.1561 -1.2404
25300SOL     OW78919   0.012   7.900   6.165  0.5114  0.1130  0.2800
25300SOL    HW178920  -0.070   7.945   6.187  0.0325  1.1446 -3.3211
25300SOL    HW278921   0.079   7.968   6.170  0.5869  0.0801 -0.2909
25301SOL     OW78922   1.800   2.865   7.558  0.0386 -0.6162  0.3633
25301SOL    HW178923   1.844   2.788   7.520  0.7417 -0.6052  1.1460
25301SOL    HW278924   1.872   2.925   7.580 -0.4831  0.1122  0.0982
25302SOL     OW78925   7.787   3.127   4.973 -0.2103 -0.1968 -0.3831
25302SOL    HW178926   7.835   3.198   4.930 -0.7131  0.7894  0.6692
25302SOL    HW278927   7.705   3.120   4.924 -0.3367  0.2254 -0.2342
25303SOL     OW78928   1.029   2.144   2.499 -0.6656  0.1318  0.6349
25303SOL    HW178929   1.086   2.127   2.424 -1.0894 -0.4607  0.4441
25303SOL    HW278930   1.083   2.121   2.575 -0.5190 -0.0443  0.4787
25304SOL     OW78931   3.765   3.480   8.656 -0.3478  0.0847 -0.1404
25304SOL    HW178932   3.804   3.433   8.730 -0.7843  0.6238  0.4336
25304SOL    HW278933   3.810   3.565   8.655 -0.0648 -0.0683 -0.7398
25305SOL     OW78934   5.784   3.629   8.064 -0.6433  0.0281 -0.0707
25305SOL    HW178935   5.812   3.571   8.135  2.2861  1.6239  0.1300
25305SOL    HW278936   5.771   3.570   7.989  0.2442 -1.1435  0.6824
25306SOL     OW78937   1.955   4.632   8.408 -0.1352  0.1994 -0.0019
25306SOL    HW178938   2.021   4.691   8.445  0.0156 -0.0269  0.0916
25306SOL    HW278939   1.963   4.643   8.313  1.4278 -1.3143 -0.0764
25307SOL     OW78940   1.338   9.252   7.784  0.4491  0.0747 -0.1137
25307SOL    HW178941   1.321   9.254   7.878  0.4141  1.1704 -0.1347
25307SOL    HW278942   1.426   9.288   7.775  0.6282 -0.4561 -0.4615
25308SOL     OW78943   5.169   1.622   9.323 -0.4742 -0.0020  0.2964
25308SOL    HW178944   5.191   1.573   9.244 -1.7334  0.3381 -0.2755
25308SOL    HW278945   5.178   1.558   9.394  0.1770 -0.4366 -0.1731
25309SOL     OW78946   6.149   6.149   3.653  0.3428  0.2795 -0.2776
25309SOL    HW178947   6.228   6.096   3.642  0.2829  0.0365  0.4493
25309SOL    HW278948   6.162   6.195   3.736 -0.4290 -0.0309  0.0221
25310SOL     OW78949   8.770   8.665   3.889  0.1366 -0.3602 -0.2280
25310SOL    HW178950   8.812   8.691   3.971  0.0701 -2.5140  0.5211
25310SOL    HW278951   8.722   8.585   3.910  1.0837 -1.6488 -2.6072
25311SOL     OW78952   2.547   5.973   0.140  0.2542 -0.3785 -0.6453
25311SOL    HW178953   2.590   5.892   0.112 -1.1392 -1.5053  0.4210
25311SOL    HW278954   2.466   5.976   0.088 -0.0882 -0.0776 -0.0948
25312SOL     OW78955   4.447   0.014   8.249 -0.4230  0.4490  0.1708
25312SOL    HW178956   4.489   0.027   8.334  0.4865 -3.9430  0.5200
25312SOL    HW278957   4.381  -0.054   8.265 -1.4128  0.7708 -2.2916
25313SOL     OW78958   5.035   8.134   3.102 -0.5246 -0.3144 -0.7929
25313SOL    HW178959   5.130   8.128   3.093 -0.2221  0.7071  1.4952
25313SOL    HW278960   5.010   8.052   3.145 -0.4486  0.2629  0.3485
25314SOL     OW78961   0.277   6.748   1.651 -0.0389  0.4805 -0.0303
25314SOL    HW178962   0.324   6.668   1.676 -2.0610 -0.7526 -0.0199
25314SOL    HW278963   0.325   6.781   1.575  2.3612  0.7064  1.5352
25315SOL     OW78964   2.447   2.640   3.713  0.1894  0.1074 -0.4066
25315SOL    HW178965   2.378   2.577   3.735 -0.9857  1.6526  0.4165
25315SOL    HW278966   2.429   2.664   3.622 -0.0129  0.0609 -0.3796
25316SOL     OW78967   6.918   9.281   8.131 -0.6576 -0.4641 -0.0337
25316SOL    HW178968   6.898   9.311   8.042  1.0734  1.5167  0.2080
25316SOL    HW278969   6.852   9.214   8.149 -1.7428 -0.0782 -2.3796
25317SOL     OW78970   8.760   3.950   1.552  0.2482  0.6649 -0.0086
25317SOL    HW178971   8.824   4.018   1.571  1.3123 -0.3114 -0.0165
25317SOL    HW278972   8.808   3.868   1.566 -0.9547 -0.0791 -0.1744
25318SOL     OW78973   3.367   8.913   5.395 -0.1137 -0.2065  0.0527
25318SOL    HW178974   3.290   8.955   5.356  1.3327  1.8826 -0.6706
25318SOL    HW278975   3.413   8.984   5.440  2.1483 -1.0799 -0.7891
25319SOL     OW78976   0.935   2.060   8.158  0.1838 -0.2795 -0.3562
25319SOL    HW178977   0.927   2.092   8.068 -1.0875 -1.3976 -0.6605
25319SOL    HW278978   0.920   1.966   8.151 -0.8048 -0.2431  1.1431
25320SOL     OW78979   8.272   2.184   6.156 -0.3797 -0.3066  0.6041
25320SOL    HW178980   8.274   2.201   6.250 -0.3032  1.3350  0.3194
25320SOL    HW278981   8.207   2.114   6.145 -0.5158 -0.3726  1.8468
25321SOL     OW78982   7.423   2.875   4.971  0.0934 -0.1928  0.1459
25321SOL    HW178983   7.445   2.960   4.934 -3.0538  0.9609  0.7334
25321SOL    HW278984   7.377   2.829   4.901  0.6629 -0.9109  0.2393
25322SOL     OW78985   7.074   9.189   0.681 -0.3672 -0.5748  0.3399
25322SOL    HW178986   7.047   9.149   0.598  0.0949 -0.0465 -0.0681
25322SOL    HW278987   7.159   9.151   0.700 -0.4678 -0.6849  0.5647
25323SOL     OW78988   2.652   1.728   1.034  0.8507  0.2692 -0.0877
25323SOL    HW178989   2.742   1.726   0.999  1.4739 -0.7077  1.5014
25323SOL    HW278990   2.646   1.812   1.078  1.0277  0.2869 -0.0947
25324SOL     OW78991   9.143   7.258   2.070 -0.0012  0.0877 -0.5625
25324SOL    HW178992   9.131   7.175   2.116 -2.7504 -0.0581 -1.4256
25324SOL    HW278993   9.095   7.322   2.122  0.5033  0.7703 -0.9283
25325SOL     OW78994   3.586   1.350   5.339 -0.2797  0.2126 -0.2043
25325SOL    HW178995   3.651   1.283   5.319 -0.1352 -0.4267  2.1928
25325SOL    HW278996   3.517   1.302   5.386 -1.5492  1.2345 -1.0088
25326SOL     OW78997   3.677   1.128   4.587  0.0626 -0.2879 -0.9383
25326SOL    HW178998   3.615   1.108   4.657  1.1383 -1.8328 -0.4026
25326SOL    HW278999   3.720   1.208   4.616 -0.8112  0.1168 -0.7313
25327SOL     OW79000   7.636   5.065   1.999 -0.4506 -0.2201  0.3132
25327SOL    HW179001   7.612   5.048   1.907 -0.9795 -0.8606  0.5662
25327SOL    HW279002   7.730   5.080   1.997 -0.3803 -0.7173 -0.2735
25328SOL     OW79003   4.166   4.510   8.338  0.0380 -0.0016 -0.1819
25328SOL    HW179004   4.201   4.458   8.410  0.1617 -0.2625 -0.4262
25328SOL    HW279005   4.090   4.554   8.375  0.3942  0.2597  0.2466
25329SOL     OW79006   8.675   7.837   8.263  0.0122  0.2085 -0.2972
25329SOL    HW179007   8.624   7.805   8.189 -1.4724  1.4215  0.1772
25329SOL    HW279008   8.640   7.789   8.338  0.8418 -0.2973 -0.2235
25330SOL     OW79009   7.773   5.552   4.069 -0.0884  0.1251 -0.2214
25330SOL    HW179010   7.692   5.502   4.079  0.5007 -1.2791 -2.0802
25330SOL    HW279011   7.749   5.642   4.091 -1.7442 -0.5666  0.8836
25331SOL     OW79012   0.485   2.335   9.265 -0.5064  0.3363  0.2145
25331SOL    HW179013   0.402   2.383   9.267 -1.2366 -0.9424  2.1025
25331SOL    HW279014   0.469   2.263   9.205 -1.2522 -0.6947  1.6080
25332SOL     OW79015   3.431   9.357   4.262  0.1078 -0.0933  0.6164
25332SOL    HW179016   3.475   9.399   4.188  0.0186 -0.0373  0.5949
25332SOL    HW279017   3.399   9.430   4.315 -1.3526 -0.1162 -0.1991
25333SOL     OW79018   2.600   6.177   1.181  0.0770  0.3145  0.4919
25333SOL    HW179019   2.614   6.180   1.276 -0.5152  2.7108  0.5111
25333SOL    HW279020   2.685   6.199   1.143  0.5162 -1.4073  0.4348
25334SOL     OW79021   2.821   1.739   1.936  0.4681  0.0820 -0.3281
25334SOL    HW179022   2.825   1.811   1.998  0.2208 -0.5242  0.3974
25334SOL    HW279023   2.902   1.690   1.951  0.0561 -0.4951  0.0528
25335SOL     OW79024   3.685   4.659   3.299 -0.0213 -0.1569 -0.3603
25335SOL    HW179025   3.677   4.731   3.236  0.5140 -0.4504 -0.7768
25335SOL    HW279026   3.597   4.624   3.307 -0.4133  0.9894  0.3711
25336SOL     OW79027   5.870   2.639   5.494 -0.0748  0.6201 -0.0515
25336SOL    HW179028   5.892   2.563   5.441  2.2153  1.2461 -0.0672
25336SOL    HW279029   5.897   2.714   5.440 -0.9455  1.3910  0.5655
25337SOL     OW79030   1.639   1.009   2.385 -0.3862  0.1729  0.0063
25337SOL    HW179031   1.678   0.949   2.448 -1.8142  0.9153  1.6328
25337SOL    HW279032   1.712   1.038   2.331  1.1840  0.9588  2.5060
25338SOL     OW79033   8.036   3.014   3.916  0.0155 -0.1946  0.0218
25338SOL    HW179034   8.062   3.058   3.997 -1.6006 -1.6486  1.3671
25338SOL    HW279035   8.069   2.925   3.926 -1.6221 -0.8319 -0.1897
25339SOL     OW79036   1.759   1.726   4.640  0.0994  0.1999  0.6032
25339SOL    HW179037   1.717   1.788   4.700  0.4481  1.4140 -0.3857
25339SOL    HW279038   1.755   1.769   4.555  2.4675 -0.0658  0.3075
25340SOL     OW79039   8.347   7.843   4.177  0.2221  0.4322  0.4634
25340SOL    HW179040   8.273   7.848   4.117  1.9731 -0.8076 -1.8474
25340SOL    HW279041   8.313   7.880   4.259 -3.2966 -1.2396 -0.1449
25341SOL     OW79042   4.467   6.892   2.834  0.1634  0.1368 -0.2983
25341SOL    HW179043   4.462   6.797   2.831 -2.6427  0.2398  0.3245
25341SOL    HW279044   4.440   6.915   2.923  1.6789  1.4819 -0.1650
25342SOL     OW79045   1.221   8.604   7.262  0.2211  0.1150  0.1779
25342SOL    HW179046   1.151   8.602   7.196 -1.0877  1.1047  1.4969
25342SOL    HW279047   1.200   8.533   7.322 -0.0408  0.8488  0.9609
25343SOL     OW79048   4.238   4.644   9.103 -0.0301 -0.0695  0.1157
25343SOL    HW179049   4.193   4.587   9.041  0.7443  0.4847 -0.9689
25343SOL    HW279050   4.326   4.607   9.111  1.0775  1.9390 -1.9799
25344SOL     OW79051   6.747   0.953   2.492 -0.2942  0.1388 -0.5442
25344SOL    HW179052   6.812   0.977   2.425  1.4557 -0.2963  0.9356
25344SOL    HW279053   6.793   0.969   2.575 -0.8265 -3.5274  0.5337
25345SOL     OW79054   4.622   1.934   5.260 -0.1047 -0.1471  0.5885
25345SOL    HW179055   4.599   1.874   5.330 -0.9794 -1.3144 -0.6892
25345SOL    HW279056   4.703   1.898   5.223  0.8379  0.9373  1.5069
25346SOL     OW79057   2.206   0.440   7.641  0.4727 -0.0915 -0.2543
25346SOL    HW179058   2.260   0.410   7.714  1.5922  2.1711 -0.0886
25346SOL    HW279059   2.119   0.453   7.679  1.1633  1.5409  0.8354
25347SOL     OW79060   0.684   6.890   6.796  0.1739 -0.4605  0.1781
25347SOL    HW179061   0.597   6.919   6.769 -0.1335  0.7849  2.3428
25347SOL    HW279062   0.732   6.876   6.715 -1.1325  1.7010 -0.9936
25348SOL     OW79063   7.787   7.429   6.399  0.4868  1.1325  0.6225
25348SOL    HW179064   7.745   7.434   6.485  0.7551  0.5998  0.7873
25348SOL    HW279065   7.800   7.520   6.373 -0.3535  1.2982  0.7730
25349SOL     OW79066   1.753   4.121   7.520  0.0948  0.4836 -0.2123
25349SOL    HW179067   1.686   4.163   7.574 -1.9653  0.2274 -2.4903
25349SOL    HW279068   1.789   4.192   7.467  0.4860  0.3127 -0.1826
25350SOL     OW79069   6.089   3.668   7.679  0.0835  0.1729  0.2175
25350SOL    HW179070   6.067   3.755   7.647 -0.0391  0.0920  0.0832
25350SOL    HW279071   6.040   3.608   7.623  0.8765 -0.0181 -0.2857
25351SOL     OW79072   0.756   2.252   2.286  0.4300 -0.4121 -0.3215
25351SOL    HW179073   0.808   2.219   2.213  1.6379 -2.5080  1.4098
25351SOL    HW279074   0.819   2.289   2.347 -0.7665  3.4412 -1.3165
25352SOL     OW79075   3.838   4.451   0.820 -0.1744  0.1887  0.0922
25352SOL    HW179076   3.742   4.457   0.821 -0.1664  0.3107  0.8538
25352SOL    HW279077   3.866   4.538   0.792 -0.2370  1.2412  3.0643
25353SOL     OW79078   9.298   2.428   3.844 -0.1737  0.1767 -0.5826
25353SOL    HW179079   9.332   2.472   3.922  0.9614  1.1918 -1.6208
25353SOL    HW279080   9.205   2.414   3.863  0.5370 -1.5558  1.8074
25354SOL     OW79081   4.870   1.883   7.668  0.4134  0.1635  0.2467
25354SOL    HW179082   4.961   1.877   7.696  1.4523 -0.3895 -2.9794
25354SOL    HW279083   4.875   1.909   7.576 -2.6963  0.2987  0.0518
25355SOL     OW79084   4.827   6.741   3.073  0.1986  0.4015  0.2405
25355SOL    HW179085   4.765   6.768   3.004  0.3427  0.1110 -0.0034
25355SOL    HW279086   4.891   6.812   3.076  0.6533  0.0213 -0.4943
25356SOL     OW79087   8.190   3.684   7.387  0.1362  0.0006  0.2174
25356SOL    HW179088   8.276   3.687   7.430 -0.0093  0.0588  0.5086
25356SOL    HW279089   8.139   3.624   7.441  0.3215 -0.8630 -0.5630
25357SOL     OW79090   3.961   8.245   9.377 -0.2896 -0.2883 -0.0751
25357SOL    HW179091   4.000   8.185   9.441 -0.2465 -0.4858 -0.2840
25357SOL    HW279092   3.906   8.303   9.428  0.6260  0.2748  0.2754
25358SOL     OW79093   0.744   1.359   8.680 -0.4042  0.0811  0.5016
25358SOL    HW179094   0.686   1.368   8.756 -0.6761  2.8721  0.0103
25358SOL    HW279095   0.832   1.353   8.718 -0.4511  2.3572  1.0519
25359SOL     OW79096   6.239   2.075   6.990  0.5797  0.6058 -0.1639
25359SOL    HW179097   6.329   2.057   7.017  0.8560 -0.2917 -1.6678
25359SOL    HW279098   6.220   2.010   6.922 -1.7961 -0.3548  1.3410
25360SOL     OW79099   7.640   1.233   3.508 -0.2549 -0.0929  0.2871
25360SOL    HW179100   7.614   1.283   3.585  1.7325  2.2278 -0.5088
25360SOL    HW279101   7.558   1.194   3.476 -1.8406  2.5494  1.0026
25361SOL     OW79102   6.946   7.666   1.566 -0.0970  0.4207  0.6814
25361SOL    HW179103   6.996   7.639   1.644 -1.7455 -0.3186  1.5210
25361SOL    HW279104   6.855   7.664   1.595 -0.9115 -1.9197 -1.8774
25362SOL     OW79105   1.088   0.078   2.618  0.1277 -0.8845  0.0095
25362SOL    HW179106   1.101   0.126   2.700  1.7590 -1.3708  0.0620
25362SOL    HW279107   1.166   0.100   2.566 -0.9709 -0.4526 -1.4734
25363SOL     OW79108   8.659   4.848   1.496  0.1979 -0.1158  0.0256
25363SOL    HW179109   8.613   4.843   1.412 -0.1782 -0.7215  0.2680
25363SOL    HW279110   8.739   4.897   1.476 -0.0436  0.0273 -0.6180
25364SOL     OW79111   7.120   6.420   1.370 -0.0938 -0.0893  0.2458
25364SOL    HW179112   7.043   6.386   1.325 -0.6425  1.1064  0.2790
25364SOL    HW279113   7.164   6.474   1.305 -0.7317  1.4043  1.0372
25365SOL     OW79114   1.531   3.707   2.846  0.1983  0.8629 -0.5539
25365SOL    HW179115   1.492   3.624   2.819 -2.2797  2.6465 -2.7232
25365SOL    HW279116   1.562   3.691   2.935  2.7627 -3.3328 -2.0788
25366SOL     OW79117   5.540   9.273   3.111  0.5780  0.2033  0.0642
25366SOL    HW179118   5.586   9.321   3.043  1.6904  0.1673  0.7806
25366SOL    HW279119   5.602   9.206   3.140 -0.2040 -0.3422  0.5088
25367SOL     OW79120   2.797   2.848   5.932 -0.2547 -0.5981  0.0809
25367SOL    HW179121   2.852   2.927   5.931 -0.5008 -0.3873  1.6546
25367SOL    HW279122   2.722   2.870   5.876  1.3523 -0.9772 -2.2909
25368SOL     OW79123   0.283   3.550   7.977 -0.5995  0.8358  0.7634
25368SOL    HW179124   0.262   3.641   7.998  1.6937  1.1313  2.0092
25368SOL    HW279125   0.276   3.504   8.061  0.0665  0.2481  0.5029
25369SOL     OW79126   8.761   5.343   2.598 -0.2650  0.4748 -0.3473
25369SOL    HW179127   8.759   5.406   2.526  0.1619  0.9414  0.0532
25369SOL    HW279128   8.809   5.268   2.562  0.1237  0.7869 -0.4809
25370SOL     OW79129   4.144   5.410   2.807  0.3446  0.1324  0.5676
25370SOL    HW179130   4.077   5.357   2.763 -0.4638 -1.4665  3.5661
25370SOL    HW279131   4.141   5.494   2.762 -1.4584 -0.9443 -1.4285
25371SOL     OW79132   2.135   2.211   6.228  0.6480 -0.2681 -0.0489
25371SOL    HW179133   2.209   2.195   6.288 -1.4314 -0.3661  2.5785
25371SOL    HW279134   2.158   2.291   6.182  2.7407 -0.7170  0.1563
25372SOL     OW79135   7.779   6.487   3.345 -0.0470  0.1987  0.0811
25372SOL    HW179136   7.823   6.444   3.419  2.2278  0.4886 -1.0439
25372SOL    HW279137   7.741   6.415   3.295  0.7896 -0.2325  0.0546
25373SOL     OW79138   3.075   6.242   1.372  0.1067 -0.1122 -0.7668
25373SOL    HW179139   3.144   6.251   1.306 -1.6993  0.3747 -2.6379
25373SOL    HW279140   3.026   6.164   1.346  0.5238 -1.0348  1.1163
25374SOL     OW79141   4.862   5.189   0.427  0.1841  0.1928 -0.0893
25374SOL    HW179142   4.809   5.257   0.466  0.1702  0.1512 -0.0355
25374SOL    HW279143   4.915   5.234   0.361  1.5434  0.5906  1.2409
25375SOL     OW79144   5.534   7.553   3.509 -0.3320 -0.5801 -0.4823
25375SOL    HW179145   5.546   7.489   3.580 -1.8247 -2.4885 -1.9019
25375SOL    HW279146   5.522   7.499   3.431 -0.9134  1.4805 -1.8294
25376SOL     OW79147   7.353   6.632   5.370 -0.2121 -0.1008  0.3865
25376SOL    HW179148   7.298   6.702   5.406  0.5660  0.9777 -0.4797
25376SOL    HW279149   7.435   6.639   5.419 -0.4796 -1.0507  0.9771
25377SOL     OW79150   3.532   7.344   7.722  0.2303  0.2088  0.1085
25377SOL    HW179151   3.469   7.387   7.780  0.9298 -0.2198  1.1977
25377SOL    HW279152   3.580   7.284   7.779 -0.3902 -1.6707 -1.2886
25378SOL     OW79153   0.401   0.721   6.288  0.6288 -0.3815  0.2124
25378SOL    HW179154   0.464   0.749   6.354  1.8341 -1.3474 -0.5073
25378SOL    HW279155   0.417   0.779   6.213  1.8570 -1.7226 -0.5961
25379SOL     OW79156   8.126   1.577   6.440  0.0457 -0.2192  0.3066
25379SOL    HW179157   8.123   1.484   6.462  1.9594 -0.2108  0.6155
25379SOL    HW279158   8.216   1.603   6.456  0.2773  0.9763 -2.6838
25380SOL     OW79159   3.323   6.610   7.465 -0.0244  0.7271  0.0647
25380SOL    HW179160   3.231   6.586   7.454  0.6118 -2.3350  1.0397
25380SOL    HW279161   3.332   6.632   7.558  0.3079  0.7981  0.0176
25381SOL     OW79162   2.512   2.691   5.047 -0.0499 -0.2495 -0.4173
25381SOL    HW179163   2.497   2.695   5.141 -0.0254  0.4305 -0.4392
25381SOL    HW279164   2.540   2.600   5.031 -2.0079 -0.9392 -0.0702
25382SOL     OW79165   0.965   0.033   5.711 -0.0732 -0.1348 -0.0908
25382SOL    HW179166   1.059   0.023   5.694 -0.2794 -1.0184 -0.7666
25382SOL    HW279167   0.949  -0.017   5.790  0.0794  0.2955  0.2181
25383SOL     OW79168   2.915   2.491   8.014 -0.1980  0.5721  0.4702
25383SOL    HW179169   2.988   2.474   8.074  0.0247  0.3464  0.1367
25383SOL    HW279170   2.871   2.407   8.006  0.0894  0.4756 -0.0992
25384SOL     OW79171   2.138   6.779   2.339  0.2223  0.2180  0.5485
25384SOL    HW179172   2.050   6.766   2.304  0.6650  0.8308 -0.8458
25384SOL    HW279173   2.141   6.725   2.418 -1.0864 -0.5637  0.0845
25385SOL     OW79174   5.195   1.141   2.598 -0.0700 -0.2488  0.1497
25385SOL    HW179175   5.218   1.234   2.596  3.4271 -0.9982  1.9371
25385SOL    HW279176   5.260   1.099   2.541 -1.3233 -1.6890 -0.2724
25386SOL     OW79177   7.296   2.223   0.456  0.1405  0.2778  0.3339
25386SOL    HW179178   7.300   2.197   0.364 -0.0550  1.9215 -0.1518
25386SOL    HW279179   7.204   2.215   0.479  0.1471  0.1243  0.3079
25387SOL     OW79180   0.760   1.055   4.323 -0.0070  0.2583 -0.0883
25387SOL    HW179181   0.726   1.136   4.360  0.3711 -0.1445  1.1663
25387SOL    HW279182   0.764   1.071   4.229 -0.1049  1.6282  0.1356
25388SOL     OW79183   2.749   5.756   7.500 -0.3620  0.7412 -0.3826
25388SOL    HW179184   2.784   5.823   7.558  0.1714 -0.4676  0.7022
25388SOL    HW279185   2.754   5.795   7.413 -0.5293  2.2976  0.2877
25389SOL     OW79186   2.195   2.404   7.831  0.3303  0.3200 -0.3247
25389SOL    HW179187   2.181   2.343   7.904  0.4192  1.6542  0.8206
25389SOL    HW279188   2.290   2.407   7.819  0.3693  0.8371  0.1303
25390SOL     OW79189   7.127   7.346   5.749 -0.7310  0.1236 -0.0439
25390SOL    HW179190   7.200   7.325   5.691  0.2312 -0.7044  1.4361
25390SOL    HW279191   7.162   7.412   5.809 -0.7889 -1.2277  1.5088
25391SOL     OW79192   2.653   4.886   9.229  0.6725 -0.4272 -0.3071
25391SOL    HW179193   2.627   4.802   9.267 -1.2996 -0.3568 -1.4286
25391SOL    HW279194   2.668   4.943   9.304  0.3962 -1.3010  0.4271
25392SOL     OW79195   3.967   5.085   8.799 -0.1102  0.3717 -0.1728
25392SOL    HW179196   4.015   5.165   8.778 -1.1047  1.1456  0.4494
25392SOL    HW279197   3.876   5.113   8.808 -0.3612 -0.6908  0.8142
25393SOL     OW79198   4.947   0.181   1.417 -0.1581  0.1986  0.5838
25393SOL    HW179199   4.925   0.095   1.453  0.7691  0.3413  1.5238
25393SOL    HW279200   4.899   0.186   1.334  0.3542 -1.5109  0.1717
25394SOL     OW79201   2.383   8.258   2.608  0.7609  0.6894  0.3604
25394SOL    HW179202   2.351   8.329   2.663  0.4868  0.8541 -0.0076
25394SOL    HW279203   2.441   8.208   2.665  2.3019  2.1743  0.1538
25395SOL     OW79204   8.639   1.390   5.703  0.0443 -0.2210 -0.5683
25395SOL    HW179205   8.568   1.380   5.767 -0.9521 -0.4416 -1.6993
25395SOL    HW279206   8.605   1.350   5.623  1.3474 -0.0847 -1.1906
25396SOL     OW79207   7.670   9.207   8.916 -0.1739 -0.4598  0.2059
25396SOL    HW179208   7.644   9.287   8.960 -1.8023  0.5870 -2.5827
25396SOL    HW279209   7.590   9.156   8.909  0.6884 -1.9979  1.2227
25397SOL     OW79210   5.380   2.920   7.204 -0.2579 -0.1197 -0.1298
25397SOL    HW179211   5.398   2.907   7.297 -2.1575 -0.0972  0.2523
25397SOL    HW279212   5.435   2.994   7.180 -0.5811  0.5936  1.2476
25398SOL     OW79213   5.772   7.858   1.458  0.1779  0.0984 -0.6687
25398SOL    HW179214   5.695   7.809   1.428  0.7784 -0.4541 -1.3425
25398SOL    HW279215   5.742   7.949   1.464 -0.4607 -0.0725 -1.1640
25399SOL     OW79216   9.296   5.274   0.541 -0.7768 -0.6285 -0.0958
25399SOL    HW179217   9.214   5.280   0.590 -0.3912  0.6370  0.4370
25399SOL    HW279218   9.364   5.282   0.608 -0.2297 -0.6785 -0.6388
25400SOL     OW79219   4.653   9.091   2.844 -0.2787  0.4449  0.4065
25400SOL    HW179220   4.569   9.134   2.863 -0.3286  0.4055  0.2797
25400SOL    HW279221   4.672   9.040   2.922  0.2791  1.4817  0.9572
25401SOL     OW79222   1.001   1.143   7.360 -0.3571  0.3585 -0.3637
25401SOL    HW179223   1.047   1.212   7.408  1.0199 -0.5391 -0.3841
25401SOL    HW279224   0.986   1.182   7.273  2.0557  0.0145 -0.9846
25402SOL     OW79225   2.880   2.539   3.448 -0.0240  0.3957  0.0663
25402SOL    HW179226   2.828   2.603   3.399  1.5805  0.2554 -1.9157
25402SOL    HW279227   2.842   2.454   3.425  0.8356  0.3168 -1.1207
25403SOL     OW79228   5.240   2.730   4.518 -0.5810 -0.2263  0.4107
25403SOL    HW179229   5.158   2.716   4.565 -0.8129  1.3895  0.5353
25403SOL    HW279230   5.308   2.697   4.576 -0.8359  2.0137  2.0363
25404SOL     OW79231   6.639   3.737   3.037  0.2112 -0.2717 -0.1680
25404SOL    HW179232   6.635   3.760   2.944 -1.6968 -0.6107 -0.1854
25404SOL    HW279233   6.680   3.651   3.039 -0.5993 -0.6768 -0.7736
25405SOL     OW79234   7.327   1.414   6.890 -0.6232  0.2537 -0.1013
25405SOL    HW179235   7.337   1.499   6.933 -2.8642  1.7803 -2.4678
25405SOL    HW279236   7.243   1.381   6.921 -0.8374 -0.0328 -0.9791
25406SOL     OW79237   3.559   2.110   5.661  0.6994 -0.1384 -0.0730
25406SOL    HW179238   3.636   2.167   5.659  0.4392  0.2589  1.2081
25406SOL    HW279239   3.507   2.141   5.735 -0.6831 -0.4295 -0.9030
25407SOL     OW79240   1.590   4.261   2.253  0.0754  0.2120 -0.1102
25407SOL    HW179241   1.577   4.279   2.346  1.2384  0.3353  0.0429
25407SOL    HW279242   1.507   4.282   2.212 -0.9667 -1.3429  1.1159
25408SOL     OW79243   0.676   8.832   2.095  0.6146  0.4111 -0.4848
25408SOL    HW179244   0.662   8.922   2.063 -0.3503  0.9677  1.4363
25408SOL    HW279245   0.598   8.813   2.147  1.4702 -1.0291  0.2954
25409SOL     OW79246   0.008   7.402   2.656 -0.6185 -0.6119 -0.1617
25409SOL    HW179247  -0.035   7.417   2.572 -0.6259 -3.0158 -0.6263
25409SOL    HW279248  -0.061   7.413   2.721 -1.5847 -2.7733 -0.7832
25410SOL     OW79249   7.159   0.226   4.925 -0.0182  0.1075  0.0454
25410SOL    HW179250   7.133   0.246   5.015  2.4546  0.5613  0.7121
25410SOL    HW279251   7.231   0.164   4.934  0.0993 -0.0360 -1.6360
25411SOL     OW79252   2.041   4.012   0.089 -0.0875  0.1334  0.2411
25411SOL    HW179253   2.124   4.059   0.082 -0.8744  1.7152  1.2780
25411SOL    HW279254   2.067   3.920   0.097  1.5269  0.5101 -0.3915
25412SOL     OW79255   5.295   4.481   8.047  0.0872 -0.5209 -0.0822
25412SOL    HW179256   5.350   4.403   8.045  1.4570  0.4085  0.2654
25412SOL    HW279257   5.242   4.470   8.126  1.0140 -0.6259  0.5405
25413SOL     OW79258   2.648   2.848   5.446  0.3274 -0.1891  0.6535
25413SOL    HW179259   2.664   2.859   5.352 -0.6664 -1.4158  0.3338
25413SOL    HW279260   2.571   2.902   5.463 -0.1622 -0.8444  0.5351
25414SOL     OW79261   3.608   8.451   6.909  0.0410 -0.1422 -0.4343
25414SOL    HW179262   3.602   8.399   6.829  0.9206 -0.1570 -0.4883
25414SOL    HW279263   3.610   8.387   6.980 -1.7662 -0.1120 -0.3195
25415SOL     OW79264   9.309   0.228   4.292 -0.0704  0.2242  0.0130
25415SOL    HW179265   9.265   0.157   4.338  1.1335 -0.6630 -0.1747
25415SOL    HW279266   9.255   0.305   4.310 -1.4108 -0.7284  0.1999
25416SOL     OW79267   7.961   1.168   4.109 -0.3083  0.3141  0.1343
25416SOL    HW179268   7.988   1.246   4.060 -2.9255  2.0865  1.3884
25416SOL    HW279269   7.996   1.181   4.197 -1.2567  0.3966  0.5098
25417SOL     OW79270   6.721   3.025   8.031  0.3170  0.4890 -0.4399
25417SOL    HW179271   6.725   3.113   8.067  1.6762  0.6455 -0.9483
25417SOL    HW279272   6.730   3.037   7.937  0.5934 -0.1965 -0.5037
25418SOL     OW79273   3.409   9.157   0.309  0.1897  0.1469 -0.3136
25418SOL    HW179274   3.489   9.125   0.350  0.9739  1.6307 -0.6445
25418SOL    HW279275   3.374   9.082   0.262  0.5892 -0.9132  1.0618
25419SOL     OW79276   8.365   9.035   1.123 -0.4424  0.4104  0.2727
25419SOL    HW179277   8.403   8.951   1.100  0.5828  1.1210 -0.6635
25419SOL    HW279278   8.272   9.026   1.102 -0.1069 -0.0518 -1.0380
25420SOL     OW79279   7.664   3.991   1.193 -0.2245  0.1578 -0.6926
25420SOL    HW179280   7.733   4.053   1.167 -0.3685  0.7429  0.3130
25420SOL    HW279281   7.708   3.930   1.253 -0.3969  0.0628 -0.6624
25421SOL     OW79282   2.315   2.767   4.865  0.4657 -0.3685  0.8236
25421SOL    HW179283   2.295   2.673   4.869  2.2048 -0.9218 -2.2388
25421SOL    HW279284   2.399   2.775   4.910  1.9947 -0.8747 -1.8258
25422SOL     OW79285   6.569   6.079   1.253 -0.0283  0.3002  0.5468
25422SOL    HW179286   6.656   6.089   1.213  0.2998  0.4054  1.2775
25422SOL    HW279287   6.525   6.014   1.199 -0.1042  1.4784 -0.8494
25423SOL     OW79288   8.044   5.977   8.665 -0.0083 -0.5942 -0.0249
25423SOL    HW179289   7.984   5.921   8.615 -0.5524 -0.4555  0.4662
25423SOL    HW279290   8.015   6.066   8.645  1.3470 -0.4496 -1.4272
25424SOL     OW79291   1.854   6.670   3.934 -0.2509  0.5444 -0.1420
25424SOL    HW179292   1.802   6.598   3.899 -0.9396  1.4449 -1.0016
25424SOL    HW279293   1.945   6.641   3.923 -0.5237 -0.2823 -0.2720
25425SOL     OW79294   2.131   8.920   1.163  0.2855 -0.2879  0.4146
25425SOL    HW179295   2.176   8.995   1.123 -2.3572  1.7195  1.0598
25425SOL    HW279296   2.065   8.894   1.100  1.5994 -2.5558 -0.0825
25426SOL     OW79297   3.938   6.576   4.603  0.2224  0.0294  0.3270
25426SOL    HW179298   3.887   6.508   4.648 -0.7252  1.0570  0.8253
25426SOL    HW279299   3.873   6.641   4.577  1.1589  0.8508  0.0321
25427SOL     OW79300   2.403   8.471   0.210  0.3713 -0.5224 -0.5410
25427SOL    HW179301   2.352   8.550   0.194 -1.9456 -2.1750 -1.6179
25427SOL    HW279302   2.443   8.486   0.296 -0.6660  1.4926 -0.3748
25428SOL     OW79303   5.225   8.825   7.964 -0.0835  0.0326 -0.5266
25428SOL    HW179304   5.264   8.889   8.024 -2.1213  0.9923 -0.1874
25428SOL    HW279305   5.300   8.785   7.920  1.3093  1.3885  0.5480
25429SOL     OW79306   6.042   6.307   1.267 -0.3462  0.2604 -0.2987
25429SOL    HW179307   6.077   6.297   1.179 -0.4886  2.4217 -0.6335
25429SOL    HW279308   5.971   6.370   1.258 -0.6557  0.1688  1.2921
25430SOL     OW79309   5.471   5.148   4.547 -0.0803 -0.1421 -0.3735
25430SOL    HW179310   5.551   5.122   4.501  1.8394  1.3256  1.9712
25430SOL    HW279311   5.437   5.066   4.584  1.7892 -0.4582  0.7217
25431SOL     OW79312   9.350   1.143   3.803 -0.0064 -0.4351  0.1931
25431SOL    HW179313   9.334   1.112   3.893  0.1287  0.7290  0.6300
25431SOL    HW279314   9.313   1.231   3.802  1.9453  0.4077 -0.2375
25432SOL     OW79315   3.790   3.213   8.598 -0.2952  0.1194  0.3221
25432SOL    HW179316   3.748   3.192   8.681 -2.3099  2.0293 -0.1877
25432SOL    HW279317   3.808   3.307   8.603 -0.6483  0.2948 -1.4839
25433SOL     OW79318   8.554   8.676   0.709  0.7536  0.2037 -0.0669
25433SOL    HW179319   8.577   8.767   0.692 -0.7699  0.4246 -1.0419
25433SOL    HW279320   8.554   8.634   0.622  0.3129 -0.4403  0.2346
25434SOL     OW79321   1.649   4.491   1.218 -0.4804  0.9671  0.1589
25434SOL    HW179322   1.686   4.579   1.223  0.0734  1.1356 -4.5502
25434SOL    HW279323   1.566   4.502   1.171 -0.8478 -0.8938  0.2997
25435SOL     OW79324   0.897   6.018   8.362 -0.0482 -0.1933 -0.2620
25435SOL    HW179325   0.842   6.093   8.380  0.9689  0.0890  1.8586
25435SOL    HW279326   0.965   6.051   8.303 -0.3514  0.2089 -0.3873
25436SOL     OW79327   6.717   3.831   2.329 -0.3020 -0.5994 -0.4744
25436SOL    HW179328   6.758   3.858   2.247 -1.2432  0.4317 -0.6222
25436SOL    HW279329   6.636   3.787   2.302  0.6865 -2.6292 -0.1868
25437SOL     OW79330   5.877   7.195   7.279 -0.2626  0.3288 -0.2646
25437SOL    HW179331   5.947   7.133   7.263  1.3336  2.2581 -0.9082
25437SOL    HW279332   5.869   7.197   7.375 -0.4563 -0.9553 -0.2357
25438SOL     OW79333   3.980   9.155   6.466  0.1698 -0.1987  0.6359
25438SOL    HW179334   3.919   9.187   6.532 -0.3304 -1.9964  1.0669
25438SOL    HW279335   3.959   9.205   6.387 -2.0930 -1.0273  0.6981
25439SOL     OW79336   8.521   8.872   0.339  0.3405 -0.0365  0.6830
25439SOL    HW179337   8.562   8.785   0.340 -0.3792 -0.3733  0.9971
25439SOL    HW279338   8.568   8.919   0.270  1.3464 -0.3738  1.1222
25440SOL     OW79339   3.835   2.292   4.470  0.8268 -0.4941  0.5570
25440SOL    HW179340   3.917   2.341   4.476  1.3964 -1.4851  0.9827
25440SOL    HW279341   3.798   2.296   4.558  0.5246 -0.2345  0.4181
25441SOL     OW79342   4.230   2.917   2.325  0.7656 -0.4830  0.0853
25441SOL    HW179343   4.194   2.828   2.322  0.6969 -0.4092 -2.2153
25441SOL    HW279344   4.314   2.911   2.280  0.2645  0.8072 -1.0902
25442SOL     OW79345   8.292   4.213   9.259 -0.5074 -0.3834 -0.1033
25442SOL    HW179346   8.259   4.196   9.171 -1.0616 -0.6138  0.1485
25442SOL    HW279347   8.358   4.144   9.274 -0.5687 -0.4726 -0.2547
25443SOL     OW79348   5.442   6.047   7.919 -0.5501  0.1547  0.0288
25443SOL    HW179349   5.423   6.105   7.845  1.0251  0.6320 -0.0326
25443SOL    HW279350   5.370   6.062   7.980 -1.6791  0.0261 -1.2405
25444SOL     OW79351   3.058   0.790   5.113  0.6916  0.3261 -0.1330
25444SOL    HW179352   3.137   0.753   5.074  0.4668 -0.5283  0.2084
25444SOL    HW279353   3.016   0.836   5.042  1.1805  0.2522 -0.4739
25445SOL     OW79354   4.935   0.723   4.887 -0.8773  0.2049 -0.1297
25445SOL    HW179355   4.993   0.669   4.834 -1.4324 -0.4286 -0.1028
25445SOL    HW279356   4.947   0.690   4.977 -0.2750  0.9715  0.0703
25446SOL     OW79357   4.448   2.725   0.973  0.1505  0.0147  1.3438
25446SOL    HW179358   4.512   2.791   0.948  0.2659 -0.3378  0.6991
25446SOL    HW279359   4.421   2.685   0.891 -1.4411  0.6530  1.5399
25447SOL     OW79360   1.909   4.514   8.867  0.3228  0.0830  0.4039
25447SOL    HW179361   1.876   4.603   8.878  1.4098  0.5393  0.0158
25447SOL    HW279362   1.900   4.496   8.774  2.0480  0.5674  0.1314
25448SOL     OW79363   3.440   6.930   1.882  0.1459 -0.1571 -0.2195
25448SOL    HW179364   3.427   7.008   1.936  0.9295 -1.0002  1.2116
25448SOL    HW279365   3.432   6.962   1.792 -2.3160  1.0735  0.3829
25449SOL     OW79366   7.463   1.222   5.501 -0.1263 -0.1049  0.2449
25449SOL    HW179367   7.481   1.310   5.466  1.8348 -1.6127 -2.7655
25449SOL    HW279368   7.369   1.211   5.490 -0.1671  1.0793 -0.7147
25450SOL     OW79369   4.860   4.312   2.415 -0.0285 -0.2018 -0.6171
25450SOL    HW179370   4.845   4.319   2.509 -0.0808  1.4355 -0.7169
25450SOL    HW279371   4.947   4.274   2.407 -0.6538 -1.7878  0.0706
25451SOL     OW79372   3.517   1.611   6.900 -0.2660  0.3417  0.4200
25451SOL    HW179373   3.480   1.631   6.986  0.7898 -0.1788  0.9979
25451SOL    HW279374   3.610   1.631   6.909  0.1777 -1.4826 -0.0562
25452SOL     OW79375   1.366   6.575   8.265  0.5766 -0.2118 -0.1523
25452SOL    HW179376   1.429   6.551   8.197  0.4837  2.1748 -1.1364
25452SOL    HW279377   1.286   6.595   8.218 -0.4706 -1.6583  0.9702
25453SOL     OW79378   6.190   1.781   2.977  0.2234 -0.3696 -0.3816
25453SOL    HW179379   6.267   1.730   2.953 -0.2552 -0.9728 -0.6489
25453SOL    HW279380   6.117   1.720   2.967 -0.3376  0.3309 -0.5764
25454SOL     OW79381   3.524   4.281   1.014 -0.5512  0.3651  0.1614
25454SOL    HW179382   3.514   4.186   1.014 -1.2360  0.4253  1.7758
25454SOL    HW279383   3.584   4.299   1.086  2.7300  0.8779 -2.5712
25455SOL     OW79384   5.832   1.099   9.293  0.5530 -0.4514  0.2251
25455SOL    HW179385   5.816   1.090   9.199  0.3019  0.0196  0.2210
25455SOL    HW279386   5.914   1.148   9.298  0.1691  0.1872  0.2526
25456SOL     OW79387   8.714   9.362   0.031 -0.0878 -0.0695  0.1610
25456SOL    HW179388   8.803   9.330   0.022 -0.2469 -0.3546 -0.4013
25456SOL    HW279389   8.709   9.438  -0.028 -0.7888 -1.2331 -1.2965
25457SOL     OW79390   5.294   8.424   3.004 -0.0642 -0.1411  0.0720
25457SOL    HW179391   5.262   8.416   2.914  0.2913 -1.2584  0.0480
25457SOL    HW279392   5.220   8.395   3.058  0.0210 -0.2853  0.1101
25458SOL     OW79393   1.620   3.726   6.140  0.3942  0.1190  0.4723
25458SOL    HW179394   1.659   3.663   6.079 -0.4070 -0.6638  0.7610
25458SOL    HW279395   1.680   3.800   6.139  1.2501 -0.5726 -0.0139
25459SOL     OW79396   5.539   6.927   1.888  0.4843  0.0066  0.0683
25459SOL    HW179397   5.543   6.912   1.793  1.2947  1.6336 -0.1730
25459SOL    HW279398   5.630   6.923   1.916  0.2551 -0.3334  0.7637
25460SOL     OW79399   8.399   5.662   6.819 -0.2424  0.5687  0.6005
25460SOL    HW179400   8.478   5.649   6.871 -0.1804 -0.3876  0.2645
25460SOL    HW279401   8.330   5.677   6.883 -0.2023 -0.7889  0.9756
25461SOL     OW79402   3.311   1.456   2.128  0.1858  0.3766 -0.0516
25461SOL    HW179403   3.392   1.507   2.129 -0.1592  0.9293  1.9389
25461SOL    HW279404   3.339   1.366   2.113  1.0427  0.7303 -0.6437
25462SOL     OW79405   5.304   7.931   5.904 -0.4310 -0.8451 -0.2158
25462SOL    HW179406   5.252   7.980   5.840  2.6691  0.4679 -1.8455
25462SOL    HW279407   5.345   7.860   5.853  1.1241 -0.4992  0.5086
25463SOL     OW79408   1.466   2.702   4.898  0.1380 -0.0195  0.1975
25463SOL    HW179409   1.387   2.753   4.911 -1.1728 -2.3493  1.7557
25463SOL    HW279410   1.469   2.642   4.972  1.3330 -2.5507 -1.8058
25464SOL     OW79411   9.288   8.843   3.041  0.2178  0.1943  0.5667
25464SOL    HW179412   9.373   8.802   3.024 -0.1959  0.6715 -3.1237
25464SOL    HW279413   9.225   8.785   2.998 -0.8167  2.3262 -0.8812
25465SOL     OW79414   5.322   7.176   6.224 -0.0440  0.1062 -0.0115
25465SOL    HW179415   5.353   7.143   6.139 -1.0422  1.2719 -0.8458
25465SOL    HW279416   5.315   7.271   6.211 -1.2033  0.1741  1.0544
25466SOL     OW79417   6.751   2.730   0.737  0.0619 -0.4950  0.1396
25466SOL    HW179418   6.817   2.680   0.785  0.2006  0.1715  0.6510
25466SOL    HW279419   6.690   2.759   0.804  0.9393  1.5048  0.1005
25467SOL     OW79420   5.602   0.719   8.141  0.1562 -0.1916  0.6509
25467SOL    HW179421   5.516   0.690   8.170  0.3126 -2.2023 -0.7741
25467SOL    HW279422   5.586   0.759   8.055  0.8930 -2.4437 -0.5687
25468SOL     OW79423   1.767   6.561   0.832 -0.1057  0.3313 -0.0288
25468SOL    HW179424   1.810   6.513   0.903 -1.8148 -0.2225  0.6378
25468SOL    HW279425   1.718   6.630   0.876 -1.2760 -0.0939 -0.6543
25469SOL     OW79426   0.699   3.798   6.312  0.3932  0.2500 -0.4492
25469SOL    HW179427   0.620   3.850   6.295 -0.3752 -0.7927 -0.1473
25469SOL    HW279428   0.771   3.854   6.285 -0.4844  1.0274 -1.2303
25470SOL     OW79429   3.785   8.237   2.098  0.2483  0.1890  0.5182
25470SOL    HW179430   3.776   8.206   2.008  2.1780 -2.7030  1.2898
25470SOL    HW279431   3.695   8.254   2.126 -0.5270 -0.8931 -1.2434
25471SOL     OW79432   2.431   4.877   8.665 -0.0366 -0.0791  0.3823
25471SOL    HW179433   2.501   4.901   8.603  0.3002 -0.3091  0.6706
25471SOL    HW279434   2.478   4.844   8.742 -0.4894 -1.8439 -0.0835
25472SOL     OW79435   8.199   8.665   4.405 -0.8889  0.3049  0.0213
25472SOL    HW179436   8.250   8.745   4.419 -1.5210  0.4102  1.7591
25472SOL    HW279437   8.249   8.616   4.339  1.1137  0.7007  1.2150
25473SOL     OW79438   0.107   2.916   5.124  0.5624  0.0061 -0.2035
25473SOL    HW179439   0.077   2.966   5.048 -1.8923  0.0900  0.7771
25473SOL    HW279440   0.079   2.968   5.199 -1.7393 -2.6306  0.8345
25474SOL     OW79441   5.739   4.952   7.453  0.1359 -0.4436 -0.4843
25474SOL    HW179442   5.707   4.871   7.493 -0.2110 -1.3139 -2.4775
25474SOL    HW279443   5.660   5.004   7.439 -0.0681 -1.2397 -2.4180
25475SOL     OW79444   8.313   6.556   5.090  0.2336 -0.1131  0.0638
25475SOL    HW179445   8.257   6.529   5.163 -0.3014 -0.4300 -0.4508
25475SOL    HW279446   8.269   6.632   5.052  0.8561  0.4535  0.4779
25476SOL     OW79447   4.849   6.492   2.557  0.1865 -0.1904  0.4193
25476SOL    HW179448   4.816   6.556   2.620  2.0706 -0.1113  1.3573
25476SOL    HW279449   4.809   6.409   2.583  0.1498  0.0370  1.0991
25477SOL     OW79450   6.655   4.058   6.980  0.3382 -0.5030 -1.0512
25477SOL    HW179451   6.616   3.992   7.038 -1.1712  1.0553 -0.2443
25477SOL    HW279452   6.748   4.055   6.999 -0.0081 -0.7614  0.7152
25478SOL     OW79453   1.398   1.329   6.463 -0.2931  0.4950 -0.2557
25478SOL    HW179454   1.493   1.334   6.466 -0.2689  1.6979 -2.0027
25478SOL    HW279455   1.374   1.275   6.538  1.6551  1.6702  1.2596
25479SOL     OW79456   7.979   6.549   1.287 -0.0579  0.2511  0.9144
25479SOL    HW179457   8.059   6.498   1.297 -0.3065 -0.3613 -0.2483
25479SOL    HW279458   7.928   6.529   1.366  0.3985 -0.2791  1.0749
25480SOL     OW79459   6.337   8.379   5.126 -0.1847 -0.5712 -0.1795
25480SOL    HW179460   6.245   8.405   5.129 -0.4151 -1.1838 -1.3893
25480SOL    HW279461   6.343   8.306   5.188 -0.4937 -0.4527 -0.0091
25481SOL     OW79462   0.185   3.773   0.414 -0.1858 -0.0214 -0.0827
25481SOL    HW179463   0.165   3.863   0.390 -0.3848 -0.4435 -1.5693
25481SOL    HW279464   0.269   3.755   0.372 -0.7072 -0.8936 -0.7623
25482SOL     OW79465   7.510   2.116   0.153 -0.0691 -0.0264 -0.4364
25482SOL    HW179466   7.538   2.208   0.159 -0.9919  0.1227  2.8532
25482SOL    HW279467   7.415   2.120   0.153 -0.1139 -0.9228 -2.0477
25483SOL     OW79468   4.542   8.551   7.693 -0.3873 -0.4272  0.3541
25483SOL    HW179469   4.524   8.465   7.655  0.8173 -1.4422  2.0239
25483SOL    HW279470   4.629   8.573   7.659 -1.0521  0.5501 -0.7627
25484SOL     OW79471   7.382   6.183   5.266  0.3035  0.0810 -0.2684
25484SOL    HW179472   7.326   6.258   5.245  2.2053  1.6365  0.0500
25484SOL    HW279473   7.423   6.207   5.349  1.8724 -0.7751 -0.7816
25485SOL     OW79474   8.138   7.881   5.776  0.7399  0.2014 -0.1233
25485SOL    HW179475   8.181   7.966   5.768  0.8105  0.2534  0.7129
25485SOL    HW279476   8.177   7.843   5.855 -0.7711  0.2651  0.6682
25486SOL     OW79477   4.656   5.249   1.647  0.1908  0.3672  0.3373
25486SOL    HW179478   4.576   5.273   1.600 -1.1365 -0.5482  2.0762
25486SOL    HW279479   4.640   5.276   1.738  1.0789 -1.5378  1.0866
25487SOL     OW79480   1.460   7.405   8.703 -0.1528  0.1986  0.0449
25487SOL    HW179481   1.375   7.446   8.716  0.0953  0.6002  0.4592
25487SOL    HW279482   1.453   7.358   8.620 -0.9670 -0.2751  0.3842
25488SOL     OW79483   6.823   8.716   7.818  0.2414 -0.0765 -0.2284
25488SOL    HW179484   6.834   8.698   7.911 -0.7921 -0.4856 -0.1826
25488SOL    HW279485   6.827   8.631   7.775  0.7045  0.1085 -0.5585
25489SOL     OW79486   3.608   8.261   5.461 -0.4163  0.2727 -0.4058
25489SOL    HW179487   3.517   8.238   5.443 -0.4207 -0.7100  0.8367
25489SOL    HW279488   3.648   8.180   5.492  0.3268  1.2120  1.1431
25490SOL     OW79489   9.157   0.158   2.302 -0.2140 -0.3334  0.7686
25490SOL    HW179490   9.103   0.236   2.317 -1.4081 -1.0652  0.4096
25490SOL    HW279491   9.093   0.087   2.294  0.7459 -1.0336 -0.8842
25491SOL     OW79492   1.213   7.822   5.938 -0.8259 -0.1375 -0.4430
25491SOL    HW179493   1.290   7.878   5.949 -1.2603  0.6558 -1.3370
25491SOL    HW279494   1.216   7.762   6.012  1.3787 -0.9769 -1.1497
25492SOL     OW79495   9.046   8.742   7.429 -0.4430 -0.4873  0.4903
25492SOL    HW179496   9.056   8.648   7.417 -0.2792 -0.4677  0.4705
25492SOL    HW279497   9.065   8.780   7.343  0.0107 -0.3988  0.6294
25493SOL     OW79498   0.201   2.008   7.648 -0.2858  0.4012  0.6343
25493SOL    HW179499   0.199   2.103   7.650 -2.6369  0.3838 -0.5508
25493SOL    HW279500   0.206   1.985   7.555 -1.2787 -0.6498  0.8285
25494SOL     OW79501   0.934   5.847   5.677 -0.1828 -0.3132  0.5543
25494SOL    HW179502   1.026   5.842   5.704  0.7906  0.9526 -2.2506
25494SOL    HW279503   0.908   5.937   5.695 -0.3983 -0.2612  0.0060
25495SOL     OW79504   2.055   0.744   9.392 -0.6324 -0.4234  0.2342
25495SOL    HW179505   2.031   0.819   9.447 -2.1511 -0.3181 -0.5272
25495SOL    HW279506   2.125   0.700   9.440  1.1326  2.1405  0.1521
25496SOL     OW79507   0.688   1.071   6.751  0.2465  0.7634  0.4801
25496SOL    HW179508   0.723   0.996   6.799 -0.1975  0.9557  1.1100
25496SOL    HW279509   0.744   1.144   6.778 -0.1871  0.9296  0.9368
25497SOL     OW79510   9.005   9.327   3.336 -0.7929  0.3560 -0.2655
25497SOL    HW179511   9.076   9.287   3.285 -1.6208 -1.5184  0.0177
25497SOL    HW279512   9.025   9.304   3.427 -0.4777  1.8872  0.0715
25498SOL     OW79513   1.730   6.160   6.828 -0.5170 -0.2993  0.5164
25498SOL    HW179514   1.745   6.136   6.737 -0.1855 -2.9839  1.2215
25498SOL    HW279515   1.775   6.244   6.839 -0.8649  0.2341 -1.8546
25499SOL     OW79516   0.544   1.110   5.807  0.0179 -0.3277  0.8927
25499SOL    HW179517   0.465   1.158   5.784  0.3150  0.7647  2.1153
25499SOL    HW279518   0.520   1.018   5.799 -0.5698 -0.0152 -1.4418
25500SOL     OW79519   3.407   0.043   5.297 -0.7997  0.4036  0.1424
25500SOL    HW179520   3.402   0.029   5.391  0.0633  1.3142  0.3303
25500SOL    HW279521   3.427   0.136   5.287 -3.1616  0.8268 -0.9984
25501SOL     OW79522   0.706   6.674   7.951  0.0772 -0.0668 -0.4580
25501SOL    HW179523   0.781   6.635   7.995 -0.6762 -0.4735  0.4939
25501SOL    HW279524   0.711   6.641   7.861 -0.3636 -2.1187  0.2391
25502SOL     OW79525   2.014   6.955   0.889 -0.1285 -0.2979  0.4496
25502SOL    HW179526   2.048   6.973   0.801 -0.7713 -1.1267  0.0273
25502SOL    HW279527   2.068   7.009   0.947 -0.0972  0.7122 -0.5065
25503SOL     OW79528   2.607   4.633   2.809 -0.5990  0.1438 -0.8481
25503SOL    HW179529   2.642   4.645   2.898 -0.3714  1.1332 -1.0738
25503SOL    HW279530   2.649   4.701   2.757  0.6327 -1.5151 -2.1168
25504SOL     OW79531   0.083   0.891   3.999 -0.0542 -0.2633 -0.4633
25504SOL    HW179532   0.167   0.862   4.031 -0.1298 -0.7459 -0.6990
25504SOL    HW279533   0.019   0.836   4.044 -0.2647  0.3807  0.0247
25505SOL     OW79534   2.425   3.158   2.602 -0.2150 -0.0058 -0.5491
25505SOL    HW179535   2.392   3.153   2.512 -1.8525  0.7725 -0.0091
25505SOL    HW279536   2.393   3.243   2.634 -0.2834 -0.6098  1.0104
25506SOL     OW79537   8.070   7.876   7.518  0.6669  0.1081 -0.0132
25506SOL    HW179538   8.146   7.901   7.571 -0.8852  1.3507  1.6953
25506SOL    HW279539   7.997   7.873   7.581 -0.5406 -1.9283 -1.4509
25507SOL     OW79540   8.332   1.186   3.578 -0.1683  0.4112 -0.6609
25507SOL    HW179541   8.345   1.098   3.612  1.0919  0.9443  0.2479
25507SOL    HW279542   8.275   1.174   3.502 -0.7471 -1.0789 -0.0042
25508SOL     OW79543   6.226   1.836   7.943 -0.1100  0.1180  0.5081
25508SOL    HW179544   6.259   1.899   7.879  0.3467  0.9173  1.5084
25508SOL    HW279545   6.136   1.818   7.916 -0.1185  0.9175 -0.0006
25509SOL     OW79546   8.579   9.286   6.855  0.0305  0.7804 -0.0581
25509SOL    HW179547   8.618   9.349   6.915 -1.2755  1.6287 -0.0819
25509SOL    HW279548   8.528   9.339   6.794 -2.6457 -0.3917  1.0645
25510SOL     OW79549   6.437   8.661   6.163  0.0276  0.1654  0.2150
25510SOL    HW179550   6.457   8.690   6.074 -0.9261  2.0422  0.5930
25510SOL    HW279551   6.462   8.734   6.219 -1.1843 -0.2214  1.3045
25511SOL     OW79552   1.263   5.475   0.291 -0.1496  0.0176 -0.2986
25511SOL    HW179553   1.344   5.526   0.299 -0.2182  0.2896 -1.3517
25511SOL    HW279554   1.235   5.462   0.382  1.3044 -0.4724  0.0993
25512SOL     OW79555   0.949   8.400   2.480  0.4974  0.3289  0.1786
25512SOL    HW179556   0.905   8.461   2.422  1.3858  1.6654  0.8941
25512SOL    HW279557   0.951   8.444   2.565  0.7285 -0.8883  0.8286
25513SOL     OW79558   6.480   6.868   5.615  0.5889  0.6104  0.4164
25513SOL    HW179559   6.467   6.918   5.535  0.9980  0.5041  0.2806
25513SOL    HW279560   6.540   6.922   5.667  2.7172 -0.7061 -0.6234
25514SOL     OW79561   9.036   0.495   1.216 -0.2254 -0.3848  0.5118
25514SOL    HW179562   9.086   0.526   1.291 -0.6257 -0.2871  0.7364
25514SOL    HW279563   9.051   0.400   1.215  0.2576 -0.3086  0.3614
25515SOL     OW79564   0.543   7.161   8.562  0.0360  0.9718 -0.2579
25515SOL    HW179565   0.632   7.129   8.566  0.1563  1.1027 -1.8082
25515SOL    HW279566   0.505   7.138   8.647  0.9310 -0.8307 -0.3441
25516SOL     OW79567   1.220   4.651   5.336 -0.6642 -0.3099  0.8865
25516SOL    HW179568   1.234   4.671   5.244 -1.1225  1.0583  1.1037
25516SOL    HW279569   1.307   4.630   5.370 -0.4225 -0.3214  0.2584
25517SOL     OW79570   4.228   3.698   3.067  0.0011  0.6912 -0.5160
25517SOL    HW179571   4.192   3.784   3.088  2.1433  1.1252  1.7276
25517SOL    HW279572   4.173   3.636   3.115 -1.7691  0.7373 -2.4256
25518SOL     OW79573   3.561   1.520   0.711 -0.2142 -0.3355  0.3237
25518SOL    HW179574   3.498   1.552   0.646  0.1912 -0.9118 -0.3662
25518SOL    HW279575   3.509   1.503   0.789 -1.0588 -1.5695 -0.4913
25519SOL     OW79576   8.280   4.479   2.708  0.0615 -0.0922 -0.4028
25519SOL    HW179577   8.246   4.567   2.690 -0.8456 -0.9425 -3.0517
25519SOL    HW279578   8.375   4.490   2.709 -0.0585  0.9970 -0.3063
25520SOL     OW79579   3.856   4.361   1.313  0.2334 -0.2277 -0.0222
25520SOL    HW179580   3.773   4.339   1.271  0.1179  0.2237 -0.0364
25520SOL    HW279581   3.866   4.297   1.384 -0.4593  0.1409  0.4088
25521SOL     OW79582   3.717   6.787   7.278  0.7754 -0.7963 -0.5513
25521SOL    HW179583   3.757   6.856   7.331 -1.7776  0.8741 -0.6997
25521SOL    HW279584   3.631   6.773   7.319  1.1265 -3.6929 -0.7137
25522SOL     OW79585   4.265   1.971   3.413 -0.1369 -0.0963 -0.1629
25522SOL    HW179586   4.300   1.889   3.450 -0.2542 -0.4998 -0.9378
25522SOL    HW279587   4.186   1.988   3.464 -1.3566 -1.6780 -1.4791
25523SOL     OW79588   4.189   2.806   7.148 -0.2874 -0.2930  0.2748
25523SOL    HW179589   4.161   2.865   7.219  0.7550  1.0088 -0.3708
25523SOL    HW279590   4.244   2.741   7.192  1.5019  1.3238  0.4785
25524SOL     OW79591   3.917   7.567   4.157 -0.0188  0.0789 -0.0001
25524SOL    HW179592   3.838   7.530   4.119 -0.6690  0.9794  0.4540
25524SOL    HW279593   3.979   7.494   4.160 -0.9712 -0.7394  0.0489
25525SOL     OW79594   6.342   5.640   5.531 -0.4871  0.1347  0.2415
25525SOL    HW179595   6.292   5.684   5.462  0.0868 -0.4371 -0.5325
25525SOL    HW279596   6.399   5.579   5.485  1.2097  1.0385  1.0875
25526SOL     OW79597   7.347   1.477   6.625 -0.4570  0.3203 -0.7251
25526SOL    HW179598   7.256   1.505   6.625  0.0950  2.2296  0.8318
25526SOL    HW279599   7.360   1.435   6.709  0.5609  1.7781 -0.1181
25527SOL     OW79600   3.667   3.779   7.568  0.0978  0.0654 -0.1392
25527SOL    HW179601   3.639   3.727   7.643  0.8833  0.0970  0.1749
25527SOL    HW279602   3.750   3.818   7.594 -1.0956  2.5410  0.1217
25528SOL     OW79603   8.256   2.030   7.107 -0.2327 -0.2317 -0.6971
25528SOL    HW179604   8.256   2.007   7.014 -0.4642 -0.3529 -0.6680
25528SOL    HW279605   8.308   2.110   7.112  0.6019 -0.7683 -0.7906
25529SOL     OW79606   0.701   7.595   3.944  0.3044 -0.0847  0.0310
25529SOL    HW179607   0.721   7.541   3.868 -1.4423  0.1907 -0.6263
25529SOL    HW279608   0.743   7.549   4.017  2.3493 -0.1291 -1.1175
25530SOL     OW79609   3.086   2.470   8.225 -0.0017  0.5284  0.2917
25530SOL    HW179610   3.143   2.402   8.263 -0.2166  0.3011  0.2037
25530SOL    HW279611   3.147   2.537   8.194  0.2323  0.1220 -0.1181
25531SOL     OW79612   5.448   7.150   4.350  0.6165  0.1326  1.0747
25531SOL    HW179613   5.479   7.074   4.301  0.1685  0.7099 -0.1372
25531SOL    HW279614   5.360   7.166   4.314  1.1053  1.8238  0.6050
25532SOL     OW79615   2.526   4.861   6.613  0.3918 -0.1893  0.4619
25532SOL    HW179616   2.507   4.954   6.625 -1.6416 -0.3413 -1.2237
25532SOL    HW279617   2.619   4.858   6.590  0.7927  1.2815  1.8093
25533SOL     OW79618   2.726   9.405   4.025  0.1107  0.8185  0.0491
25533SOL    HW179619   2.810   9.358   4.030 -0.6048 -0.4956 -0.0530
25533SOL    HW279620   2.710   9.413   3.931 -0.4457  0.0075  0.0661
25534SOL     OW79621   8.202   0.604   5.933 -0.0458  0.3273  0.0213
25534SOL    HW179622   8.230   0.579   6.021  0.7888  1.6920  0.1632
25534SOL    HW279623   8.212   0.525   5.881 -0.9385 -0.6092  1.2411
25535SOL     OW79624   0.672   5.492   1.662 -0.0356  0.1027  0.3068
25535SOL    HW179625   0.763   5.510   1.688  0.3013  0.0385 -0.8127
25535SOL    HW279626   0.657   5.547   1.586 -0.4036 -1.0913 -0.5035
25536SOL     OW79627   5.512   2.737   8.592 -0.2449  0.4872 -0.3389
25536SOL    HW179628   5.535   2.718   8.683  0.8380  2.6419 -0.1369
25536SOL    HW279629   5.520   2.652   8.548  1.0069 -0.2346  1.2038
25537SOL     OW79630   2.350   8.038   8.634  0.2632  0.2145 -0.4930
25537SOL    HW179631   2.326   7.959   8.586  1.7543  0.3185 -1.4571
25537SOL    HW279632   2.290   8.105   8.601 -0.8321 -0.4417  0.1389
25538SOL     OW79633   0.638   2.565   8.042 -0.0318  0.0337 -0.2172
25538SOL    HW179634   0.721   2.523   8.061  0.2826  0.0759 -1.4341
25538SOL    HW279635   0.572   2.510   8.084  0.5121 -0.7113 -0.3437
25539SOL     OW79636   3.181   6.256   9.396  0.0515 -0.0390  0.6938
25539SOL    HW179637   3.129   6.336   9.389 -1.1627 -0.7732  1.0630
25539SOL    HW279638   3.204   6.234   9.306 -0.6144  0.0824  0.4935
25540SOL     OW79639   6.021   2.580   3.578  0.1986 -0.5102 -0.1675
25540SOL    HW179640   5.939   2.625   3.598  0.1673 -0.5750 -0.1505
25540SOL    HW279641   6.066   2.573   3.662  1.4744  2.0245 -0.6056
25541SOL     OW79642   8.728   4.653   8.994 -0.2059  0.2391 -0.0859
25541SOL    HW179643   8.786   4.582   8.965 -0.0826 -0.8676  2.7402
25541SOL    HW279644   8.672   4.669   8.918  1.1169 -1.4752 -1.4855
25542SOL     OW79645   6.115   0.756   2.702  0.2627  0.6088  0.4706
25542SOL    HW179646   6.145   0.714   2.782  1.4117  1.9456  0.7607
25542SOL    HW279647   6.091   0.845   2.728  0.8658  1.1329 -0.6947
25543SOL     OW79648   5.651   6.933   2.267 -0.3425 -0.0341  0.3526
25543SOL    HW179649   5.713   6.950   2.337  1.9461 -1.1779 -1.3411
25543SOL    HW279650   5.638   6.838   2.269  0.4308 -0.1882 -1.3345
25544SOL     OW79651   9.087   0.116   0.053  0.1271 -0.4225 -0.4525
25544SOL    HW179652   9.059   0.125   0.144 -0.6875 -3.4173 -0.3329
25544SOL    HW279653   9.024   0.167   0.003 -0.8422 -0.6723  0.4919
25545SOL     OW79654   6.053   5.401   5.180 -0.5636  0.7376 -0.0725
25545SOL    HW179655   5.974   5.346   5.184 -0.9426  1.0439 -2.5377
25545SOL    HW279656   6.065   5.418   5.087  2.2915  0.9189  0.2867
25546SOL     OW79657   6.171   4.909   0.541 -0.2727  0.4829  0.2477
25546SOL    HW179658   6.120   4.989   0.545 -0.6666  0.1678  2.0396
25546SOL    HW279659   6.122   4.852   0.482 -0.9615  0.8975  0.4194
25547SOL     OW79660   5.729   8.338   5.806  0.1023 -0.4004  0.6353
25547SOL    HW179661   5.732   8.399   5.732  0.1076 -2.3254 -0.9807
25547SOL    HW279662   5.646   8.292   5.796  1.5519 -2.9378 -0.0294
25548SOL     OW79663   1.398   1.774   7.000  0.1600  0.0297 -0.3943
25548SOL    HW179664   1.349   1.696   7.025  1.2726 -0.7450 -0.5817
25548SOL    HW279665   1.425   1.757   6.909 -2.4689  2.1017 -1.6219
25549SOL     OW79666   8.390   2.883   4.179 -0.2795  0.0428  0.1319
25549SOL    HW179667   8.390   2.855   4.088  0.7306  1.1336 -0.2135
25549SOL    HW279668   8.449   2.822   4.223  0.8424  0.7709 -0.3537
25550SOL     OW79669   8.670   8.286   2.006  0.2410  0.5318 -0.3630
25550SOL    HW179670   8.713   8.250   2.084 -0.2637 -0.0793 -0.3607
25550SOL    HW279671   8.712   8.240   1.933  0.5206  0.9018 -0.4351
25551SOL     OW79672   8.827   8.687   8.146 -0.4768 -0.2822 -0.4612
25551SOL    HW179673   8.884   8.638   8.205  1.7045  0.8748 -1.5345
25551SOL    HW279674   8.837   8.778   8.173 -1.1610  0.0313 -1.2414
25552SOL     OW79675   0.853   0.782   1.661  0.0943  0.1241 -0.4309
25552SOL    HW179676   0.773   0.785   1.610 -0.4515 -1.1940  0.3297
25552SOL    HW279677   0.915   0.733   1.606 -0.2605 -0.6398 -0.1549
25553SOL     OW79678   8.465   2.392   1.244 -0.5231 -0.0375 -0.3667
25553SOL    HW179679   8.491   2.396   1.152  0.0206  1.9033 -0.1614
25553SOL    HW279680   8.528   2.332   1.284  1.7684  2.1717 -0.5157
25554SOL     OW79681   2.588   5.909   4.564  0.6574 -0.0232  0.1061
25554SOL    HW179682   2.669   5.861   4.586  0.3663 -0.3640  0.4419
25554SOL    HW279683   2.615   6.001   4.562  1.0240 -0.1224  0.3683
25555SOL     OW79684   7.988   7.758   4.838  0.4840  0.1063 -0.1056
25555SOL    HW179685   7.973   7.699   4.912  0.7621 -0.6545 -0.6452
25555SOL    HW279686   8.025   7.837   4.877 -0.1250  0.0254  0.6544
25556SOL     OW79687   0.704   8.380   9.241  0.0069 -0.4920  0.3418
25556SOL    HW179688   0.788   8.408   9.204 -0.6609 -1.0162 -1.6507
25556SOL    HW279689   0.727   8.313   9.305  1.1849  0.1710  0.6153
25557SOL     OW79690   7.186   0.993   7.713  0.1333  0.5938  0.1409
25557SOL    HW179691   7.179   0.957   7.801 -1.3626  0.0703 -0.1736
25557SOL    HW279692   7.229   1.078   7.725  2.5192 -0.6777  1.0361
25558SOL     OW79693   7.695   8.174   8.542 -0.4005  0.6943  0.3756
25558SOL    HW179694   7.657   8.162   8.455  1.0419  0.2362 -0.2042
25558SOL    HW279695   7.743   8.093   8.559  1.0997  1.6263  0.6742
25559SOL     OW79696   6.143   4.954   7.946 -0.3981  0.0491 -0.1578
25559SOL    HW179697   6.198   4.875   7.943 -1.1981 -0.4872 -1.0834
25559SOL    HW279698   6.146   4.982   8.038  1.7616  0.2850 -0.2675
25560SOL     OW79699   7.628   4.256   0.854  0.8038  0.3649 -0.4665
25560SOL    HW179700   7.654   4.237   0.764  1.7489 -0.8283  0.0301
25560SOL    HW279701   7.704   4.300   0.893  0.3795  0.9301 -0.2653
25561SOL     OW79702   4.569   5.554   3.618 -0.4520  0.2173  0.6315
25561SOL    HW179703   4.566   5.648   3.599 -1.8947  0.1242  0.3361
25561SOL    HW279704   4.515   5.514   3.550 -0.8647 -0.7043  1.4821
25562SOL     OW79705   3.571   4.851   4.033 -0.2913 -0.0615 -0.6238
25562SOL    HW179706   3.503   4.806   4.083 -0.3926  0.2837 -0.4519
25562SOL    HW279707   3.570   4.808   3.947 -0.3141 -0.4595 -0.4244
25563SOL     OW79708   9.115   7.767   8.680 -0.1942 -0.0936  0.5025
25563SOL    HW179709   9.123   7.843   8.738  0.2282  0.7318 -0.6285
25563SOL    HW279710   9.035   7.782   8.630  0.2550 -0.0630 -0.2100
25564SOL     OW79711   0.675   8.272   7.483  0.1362 -0.3298  0.6347
25564SOL    HW179712   0.699   8.345   7.425  0.4158 -0.6027  0.4060
25564SOL    HW279713   0.742   8.273   7.551 -0.3215  0.1339  1.0784
25565SOL     OW79714   1.375   8.440   5.896 -0.3869 -0.6599  0.6303
25565SOL    HW179715   1.395   8.370   5.960 -0.5287 -0.2710  1.1022
25565SOL    HW279716   1.444   8.505   5.910 -0.4146 -0.5778  0.3809
25566SOL     OW79717   2.825   7.973   4.678  0.2113 -0.1789  0.2202
25566SOL    HW179718   2.916   8.002   4.684  0.3821 -0.9323  1.5053
25566SOL    HW279719   2.784   8.035   4.618  0.7203  2.3449  2.3975
25567SOL     OW79720   1.231   3.656   4.296  0.5321  0.0562 -0.1594
25567SOL    HW179721   1.240   3.566   4.263  1.5209  0.7260 -1.7937
25567SOL    HW279722   1.279   3.709   4.232  0.6073  1.6627  1.2186
25568SOL     OW79723   0.139   1.035   6.004  0.1286  0.2758  0.6306
25568SOL    HW179724   0.129   1.128   6.021  0.5287  0.3900  0.2477
25568SOL    HW279725   0.073   0.993   6.059 -0.5528  0.8263  0.2349
25569SOL     OW79726   7.028   7.877   1.417  0.4392  0.4465  0.0086
25569SOL    HW179727   6.984   7.811   1.470  1.1122 -2.3756 -2.7958
25569SOL    HW279728   6.957   7.936   1.389 -0.3187  0.3879  1.7450
25570SOL     OW79729   7.361   7.981   8.998  0.3196  0.5936  0.0895
25570SOL    HW179730   7.275   7.942   8.981 -0.1591  1.4650  0.4764
25570SOL    HW279731   7.346   8.075   8.992  0.9260  0.8013  1.6884
25571SOL     OW79732   5.493   1.836   7.719 -0.0030  0.0004 -0.0633
25571SOL    HW179733   5.538   1.824   7.802  3.0907  0.9608 -1.5279
25571SOL    HW279734   5.454   1.751   7.700  0.3381 -0.5733  1.7083
25572SOL     OW79735   8.559   3.186   3.855  0.3293  0.0051 -0.0926
25572SOL    HW179736   8.556   3.117   3.788 -0.7987 -0.5879  0.5511
25572SOL    HW279737   8.644   3.228   3.843  0.7188 -1.0235 -0.9734
25573SOL     OW79738   6.505   4.872   3.046  0.2803 -0.1277  0.3357
25573SOL    HW179739   6.412   4.863   3.026 -0.3357  1.5707  2.2182
25573SOL    HW279740   6.536   4.783   3.058 -1.7061 -0.6337  2.0994
25574SOL     OW79741   6.847   7.708   5.420  0.4236  0.0038 -0.4963
25574SOL    HW179742   6.847   7.621   5.459 -0.6340  0.4308  0.4506
25574SOL    HW279743   6.861   7.768   5.493 -3.4957  0.9459 -0.4140
25575SOL     OW79744   5.561   3.217   5.968 -0.2628 -0.0887 -0.3669
25575SOL    HW179745   5.541   3.152   5.901 -3.0647 -1.0295  1.3298
25575SOL    HW279746   5.502   3.291   5.948  0.4665  0.5440 -0.2217
25576SOL     OW79747   1.130   6.191   3.738 -0.0532 -0.0173  0.2092
25576SOL    HW179748   1.149   6.150   3.822 -0.0627  0.2705  0.3534
25576SOL    HW279749   1.072   6.264   3.759 -0.9771 -0.6396 -0.1841
25577SOL     OW79750   7.360   9.118   8.551  0.5746 -0.0003 -0.4889
25577SOL    HW179751   7.309   9.182   8.502  0.2965 -0.0955 -0.3231
25577SOL    HW279752   7.411   9.072   8.484 -0.5509 -0.8098 -0.8183
25578SOL     OW79753   0.968   9.279   2.363  0.1174 -0.0780  0.1717
25578SOL    HW179754   0.993   9.362   2.404  1.6468 -0.1689 -0.5408
25578SOL    HW279755   1.011   9.212   2.416 -0.1259 -0.3445  0.0307
25579SOL     OW79756   6.610   0.106   5.847 -0.1202  0.2460 -0.4188
25579SOL    HW179757   6.580   0.068   5.765  0.6704 -0.7928 -0.2373
25579SOL    HW279758   6.643   0.193   5.823 -1.2474  0.5342 -0.9540
25580SOL     OW79759   2.763   3.232   0.022  0.1996  0.0177  0.0592
25580SOL    HW179760   2.821   3.250  -0.051  0.4015 -1.0280 -0.0503
25580SOL    HW279761   2.820   3.233   0.099  0.4169 -1.1906 -0.0674
25581SOL     OW79762   6.106   0.817   0.146  0.1204 -0.4409  0.1611
25581SOL    HW179763   6.100   0.865   0.063 -0.7394  1.9422  1.5511
25581SOL    HW279764   6.194   0.838   0.179  0.8400 -2.1802 -0.5751
25582SOL     OW79765   7.895   8.364   7.937  0.4781  0.4441  0.4997
25582SOL    HW179766   7.880   8.340   8.028  0.2850  0.9324  0.5968
25582SOL    HW279767   7.899   8.459   7.937  0.5141  0.4454  0.0055
25583SOL     OW79768   7.475   1.965   8.378 -0.0106 -0.0419 -0.3330
25583SOL    HW179769   7.517   1.879   8.383  1.4487  0.6603 -0.1919
25583SOL    HW279770   7.450   1.984   8.468  1.1714  0.4016 -0.0879
25584SOL     OW79771   0.851   5.058   2.895 -0.3306 -0.7197 -0.4133
25584SOL    HW179772   0.870   5.150   2.912 -1.2420 -0.6204  0.1085
25584SOL    HW279773   0.905   5.011   2.958 -0.2702 -0.5147 -0.3112
25585SOL     OW79774   0.958   8.814   2.023 -0.0147  0.2147 -0.2123
25585SOL    HW179775   0.983   8.762   1.947 -1.7020  0.2698 -0.8254
25585SOL    HW279776   0.863   8.803   2.030 -0.0034  0.8858  1.3877
25586SOL     OW79777   8.488   5.615   4.115  0.3169 -0.5073  0.2778
25586SOL    HW179778   8.526   5.577   4.194  0.2455 -0.0025  0.5512
25586SOL    HW279779   8.411   5.561   4.097  1.1864 -1.5774 -0.3163
25587SOL     OW79780   9.225   8.076   6.196 -0.4711  0.4169 -0.1574
25587SOL    HW179781   9.159   8.138   6.164  0.1695  1.7275  0.9875
25587SOL    HW279782   9.214   8.076   6.291  0.2091 -0.4559 -0.0748
25588SOL     OW79783   4.393   3.838   6.247  0.2867 -0.2391 -0.5176
25588SOL    HW179784   4.370   3.787   6.325  0.7725 -0.0478 -0.2480
25588SOL    HW279785   4.356   3.925   6.262  0.0145 -0.3235 -0.6911
25589SOL     OW79786   8.659   2.991   0.121  0.9306  0.8927 -0.4195
25589SOL    HW179787   8.625   3.078   0.100  2.2175  1.7157  0.8310
25589SOL    HW279788   8.594   2.955   0.182  0.2061  0.8129 -1.2221
25590SOL     OW79789   0.661   6.772   4.860  0.6064 -0.0968  0.5012
25590SOL    HW179790   0.624   6.806   4.941 -2.3160 -2.4480  0.2478
25590SOL    HW279791   0.676   6.679   4.878  1.7994 -0.2288 -1.0268
25591SOL     OW79792   6.240   7.958   5.112 -0.3544  0.4507  0.0709
25591SOL    HW179793   6.191   7.884   5.076  0.0364  0.1414  0.1684
25591SOL    HW279794   6.325   7.955   5.068 -0.3104  0.7996  0.1280
25592SOL     OW79795   5.369   6.208   5.512 -0.1257  0.1134 -0.6616
25592SOL    HW179796   5.331   6.253   5.588  0.4145  0.5747 -0.6678
25592SOL    HW279797   5.455   6.247   5.501  0.0370 -0.3790 -1.1460
25593SOL     OW79798   7.422   4.813   4.388 -0.6331  0.7014 -0.1194
25593SOL    HW179799   7.395   4.778   4.303 -0.3118  0.3440 -0.0768
25593SOL    HW279800   7.367   4.767   4.451  0.5414 -0.5419  0.0233
25594SOL     OW79801   4.589   1.558   6.364 -1.2188  0.7204 -0.0716
25594SOL    HW179802   4.494   1.547   6.371 -1.1334 -0.9845 -1.3497
25594SOL    HW279803   4.625   1.491   6.422 -0.7753 -0.0350 -1.2206
25595SOL     OW79804   1.002   9.006   4.196  0.5085  0.4869  0.0693
25595SOL    HW179805   0.947   9.083   4.210 -0.7599 -0.4409  0.2035
25595SOL    HW279806   0.965   8.938   4.252 -0.7974 -1.3847 -2.9017
25596SOL     OW79807   1.077   3.377   0.196 -0.0117  0.2690  0.1031
25596SOL    HW179808   1.137   3.446   0.223 -1.7083  1.5146  0.8128
25596SOL    HW279809   1.017   3.368   0.270 -0.7176 -0.9299 -0.5966
25597SOL     OW79810   7.296   0.139   7.149 -0.0983  0.1324  0.0376
25597SOL    HW179811   7.375   0.172   7.193  0.5854 -1.3343 -0.0592
25597SOL    HW279812   7.299   0.179   7.062 -0.1286  1.0680  0.4570
25598SOL     OW79813   5.114   4.798   7.721  0.1265  0.1073  0.0668
25598SOL    HW179814   5.159   4.719   7.749  1.8984 -0.1249 -3.2718
25598SOL    HW279815   5.022   4.782   7.744  0.9985 -1.2700  2.8687
25599SOL     OW79816   0.145   7.743   4.130 -0.2622  0.4565  0.1111
25599SOL    HW179817   0.136   7.818   4.071 -1.5207  0.3326  0.1361
25599SOL    HW279818   0.061   7.738   4.176 -0.5881 -1.5876 -0.6427
25600SOL     OW79819   2.241   2.189   4.707  0.4633  0.0744 -0.8286
25600SOL    HW179820   2.163   2.187   4.652  0.7688  0.5652 -1.2777
25600SOL    HW279821   2.314   2.191   4.646  0.7702  3.2453 -0.4522
25601SOL     OW79822   9.126   5.930   8.305 -0.3263  0.1252  0.5089
25601SOL    HW179823   9.165   5.928   8.218 -0.3696 -0.2010  0.4967
25601SOL    HW279824   9.145   6.018   8.338  0.4927 -0.0652  0.5427
25602SOL     OW79825   8.555   8.886   6.841 -0.5147  0.2668 -0.0663
25602SOL    HW179826   8.651   8.888   6.840 -0.4671 -1.3779 -0.3530
25602SOL    HW279827   8.533   8.793   6.847 -2.0979  0.6765  0.7223
25603SOL     OW79828   3.811   0.506   2.670  0.5322  0.5576 -0.6241
25603SOL    HW179829   3.730   0.515   2.621 -0.2863  0.0492  0.6087
25603SOL    HW279830   3.869   0.455   2.613 -0.2366  0.3757 -1.2467
25604SOL     OW79831   2.438   5.741   8.537  0.0359  0.0080  0.7510
25604SOL    HW179832   2.446   5.822   8.486  0.1824  0.2655  1.1858
25604SOL    HW279833   2.392   5.767   8.616  1.5346  0.0064  1.6475
25605SOL     OW79834   4.948   2.563   7.802 -0.0596  0.1566  0.3388
25605SOL    HW179835   4.859   2.536   7.826 -0.5919  0.2944 -1.3882
25605SOL    HW279836   4.971   2.630   7.866 -0.6237 -0.9077  1.6936
25606SOL     OW79837   8.355   0.308   3.094  0.0282 -0.2521  0.2240
25606SOL    HW179838   8.282   0.335   3.150 -0.3906  1.2807 -1.0125
25606SOL    HW279839   8.321   0.233   3.045 -0.2881 -0.3434  0.5792
25607SOL     OW79840   6.443   0.946   4.764  0.4247 -0.5094 -0.2397
25607SOL    HW179841   6.444   0.852   4.780 -0.7673 -0.3446  0.8721
25607SOL    HW279842   6.351   0.971   4.770  0.7629  0.7910 -0.1744
25608SOL     OW79843   5.940   1.512   7.361  0.3875  0.4794 -0.2185
25608SOL    HW179844   5.864   1.569   7.347  0.5110  0.9600  1.0294
25608SOL    HW279845   5.933   1.446   7.291 -1.1467  0.5564 -0.1690
25609SOL     OW79846   9.271   1.785   8.890 -1.0239 -0.0800 -0.0389
25609SOL    HW179847   9.346   1.794   8.831 -1.0672  1.7938  0.1593
25609SOL    HW279848   9.200   1.833   8.845 -1.4113  0.2649  0.9342
25610SOL     OW79849   3.911   5.879   0.242 -0.0269  0.3900 -0.4334
25610SOL    HW179850   3.992   5.880   0.292 -1.5189  0.3786  2.0967
25610SOL    HW279851   3.898   5.971   0.216  0.6190  0.4387 -0.5987
25611SOL     OW79852   0.462   3.301   9.096  0.2589 -0.3934  1.0069
25611SOL    HW179853   0.405   3.270   9.166 -1.8254 -0.4117 -0.6480
25611SOL    HW279854   0.430   3.257   9.017  2.4014 -0.1857 -0.0327
25612SOL     OW79855   8.526   7.495   7.226 -0.0381  0.9000  0.2818
25612SOL    HW179856   8.523   7.411   7.273 -1.4450  0.3810 -0.7259
25612SOL    HW279857   8.594   7.545   7.272  0.7371 -0.7411  0.9716
25613SOL     OW79858   4.983   8.361   1.989  0.2903 -0.2103 -0.2546
25613SOL    HW179859   5.055   8.411   2.028 -0.3479  0.3544  0.2202
25613SOL    HW279860   4.910   8.423   1.986 -0.0688 -0.6623 -1.0829
25614SOL     OW79861   7.582   3.743   3.543  0.5947 -0.1000 -0.6354
25614SOL    HW179862   7.581   3.707   3.631  2.1054  0.4248 -0.3881
25614SOL    HW279863   7.491   3.744   3.516  0.1403 -0.3952  0.8699
25615SOL     OW79864   7.533   0.116   4.766 -0.7330  0.0396 -0.3350
25615SOL    HW179865   7.557   0.202   4.733 -0.6664 -0.4745 -1.6544
25615SOL    HW279866   7.491   0.072   4.691  0.2771 -1.4925 -0.0318
25616SOL     OW79867   2.956   6.054   6.179  0.0510  0.0997  0.1508
25616SOL    HW179868   2.970   5.973   6.131  1.9613 -0.2054  1.1986
25616SOL    HW279869   2.872   6.041   6.224 -0.2163 -0.8337 -0.6110
25617SOL     OW79870   8.588   9.283   9.199  0.9716  0.0583  1.0153
25617SOL    HW179871   8.620   9.199   9.230  0.8139  0.0376  1.1204
25617SOL    HW279872   8.523   9.261   9.132  2.0720  0.1026 -0.1001
25618SOL     OW79873   8.737   3.095   4.685  0.0421  0.3937 -0.1928
25618SOL    HW179874   8.711   3.073   4.595  3.1133 -0.7276 -0.8703
25618SOL    HW279875   8.729   3.190   4.690  0.7473  0.5700 -1.9759
25619SOL     OW79876   5.762   0.870   6.667  0.3521  0.2957 -0.6765
25619SOL    HW179877   5.695   0.923   6.623 -0.8537 -0.2400  0.4957
25619SOL    HW279878   5.816   0.934   6.714 -0.4645  0.5779 -0.1162
25620SOL     OW79879   0.645   4.762   5.905 -0.6833  0.0394 -0.1393
25620SOL    HW179880   0.651   4.811   5.987 -0.6884  0.3000 -0.2947
25620SOL    HW279881   0.553   4.766   5.881 -0.3414  1.7436 -1.2452
25621SOL     OW79882   6.781   6.679   3.184 -0.4223  0.1178  0.0595
25621SOL    HW179883   6.772   6.595   3.228  0.0247 -0.3258 -0.6782
25621SOL    HW279884   6.722   6.673   3.108  1.8621 -0.6952 -1.6914
25622SOL     OW79885   7.069   2.485   8.364 -0.6722  0.1515 -0.0390
25622SOL    HW179886   7.109   2.496   8.277  2.5475 -1.1713  1.1801
25622SOL    HW279887   7.100   2.560   8.414 -0.1925 -0.5628  0.7508
25623SOL     OW79888   2.718   0.623   0.561 -0.1933  0.2331  0.0325
25623SOL    HW179889   2.810   0.609   0.585 -0.6403  0.5160  2.0422
25623SOL    HW279890   2.694   0.545   0.511  1.1411  0.1568 -0.5034
25624SOL     OW79891   7.526   1.671   4.840 -0.0566  0.4404  0.4513
25624SOL    HW179892   7.604   1.655   4.787 -0.6014 -1.0182  0.0614
25624SOL    HW279893   7.495   1.584   4.864 -1.4632  1.0104  0.7589
25625SOL     OW79894   8.599   1.899   9.206  0.6297 -0.5121 -0.4796
25625SOL    HW179895   8.516   1.936   9.175  0.4910 -1.3470 -1.1099
25625SOL    HW279896   8.654   1.895   9.128  1.1459 -0.3054 -0.1316
25626SOL     OW79897   6.180   4.449   4.666 -0.5297 -0.7894  0.2036
25626SOL    HW179898   6.209   4.393   4.595  1.0729 -1.4341  1.3306
25626SOL    HW279899   6.121   4.394   4.718 -0.5359 -0.7920  0.1939
25627SOL     OW79900   0.800   0.749   4.771 -0.4899 -0.0868  0.3693
25627SOL    HW179901   0.731   0.772   4.708  0.7355  0.7714 -0.6720
25627SOL    HW279902   0.852   0.828   4.780  1.3501 -1.1954 -0.1389
25628SOL     OW79903   1.329   8.404   6.634  0.2504  0.0400  0.4937
25628SOL    HW179904   1.328   8.310   6.612 -2.0103 -0.0444  0.8520
25628SOL    HW279905   1.375   8.408   6.718 -0.6021 -0.8859  1.0185
25629SOL     OW79906   5.648   1.214   4.721 -0.9531 -0.2916  0.4019
25629SOL    HW179907   5.675   1.185   4.634 -0.9781  0.0674  0.2746
25629SOL    HW279908   5.730   1.230   4.768 -0.9274 -1.2417  0.7033
25630SOL     OW79909   4.404   2.533   4.456 -0.3982  0.4847 -0.2226
25630SOL    HW179910   4.410   2.586   4.535  2.1476  0.1701 -0.1468
25630SOL    HW279911   4.449   2.584   4.389 -1.4379  0.1886 -1.1686
25631SOL     OW79912   8.708   2.935   6.925 -0.1911 -0.2527  0.4938
25631SOL    HW179913   8.768   2.895   6.861 -2.6265 -1.7035 -0.9748
25631SOL    HW279914   8.720   3.029   6.913  0.5395 -0.5150 -0.9980
25632SOL     OW79915   3.203   0.859   5.700 -0.3938 -0.1852  0.2978
25632SOL    HW179916   3.107   0.861   5.697 -0.3888 -0.6395 -0.0893
25632SOL    HW279917   3.224   0.873   5.793 -0.8105  0.8143  0.2483
25633SOL     OW79918   7.495   8.761   0.290  0.1183 -0.5851 -0.0153
25633SOL    HW179919   7.479   8.786   0.199  0.2677  3.2951  0.9156
25633SOL    HW279920   7.586   8.732   0.291  0.2340 -0.2848 -1.0725
25634SOL     OW79921   0.833   1.336   6.385  0.2503  0.1918 -0.1239
25634SOL    HW179922   0.762   1.399   6.393 -0.6373 -0.7739 -0.2932
25634SOL    HW279923   0.896   1.377   6.325 -0.0494  1.1462  0.2175
25635SOL     OW79924   9.163   1.836   3.200 -0.1966  0.2730 -0.0247
25635SOL    HW179925   9.209   1.917   3.223 -0.6667  0.2184  1.1255
25635SOL    HW279926   9.181   1.824   3.107  0.9726  0.9942  0.0991
25636SOL     OW79927   3.567   1.579   7.237 -0.1112 -0.0434  0.2513
25636SOL    HW179928   3.588   1.593   7.330 -1.4352  0.0055  0.5547
25636SOL    HW279929   3.545   1.667   7.204  1.1066  0.0553 -0.3036
25637SOL     OW79930   2.212   0.021   1.376 -0.0895  0.8644 -0.1668
25637SOL    HW179931   2.136   0.022   1.317 -0.8131  2.1023  0.7517
25637SOL    HW279932   2.249   0.109   1.369  0.0633  0.8943  0.8891
25638SOL     OW79933   8.085   8.266   1.499 -0.3590  0.6727  0.2496
25638SOL    HW179934   8.106   8.205   1.569 -0.2706 -2.0069 -2.0484
25638SOL    HW279935   8.002   8.306   1.525 -2.1408 -2.8813  0.2460
25639SOL     OW79936   2.561   2.565   1.800 -0.1185  0.1618  0.7172
25639SOL    HW179937   2.651   2.538   1.816  1.3186  3.3125 -1.6379
25639SOL    HW279938   2.538   2.523   1.717  0.0028  1.2889  0.1147
25640SOL     OW79939   2.720   8.465   8.396 -0.6776  0.8445  0.0608
25640SOL    HW179940   2.695   8.517   8.319 -0.6023  1.1051  0.2142
25640SOL    HW279941   2.661   8.390   8.394  0.3255  0.0457 -1.1305
25641SOL     OW79942   7.028   4.117   6.367  0.2257  0.1821 -0.0259
25641SOL    HW179943   6.977   4.096   6.445 -1.2269 -1.2256 -1.3338
25641SOL    HW279944   6.966   4.159   6.308  1.0788  0.3049 -0.8402
25642SOL     OW79945   1.283   3.600   8.175 -0.0797  0.1869  0.2827
25642SOL    HW179946   1.375   3.597   8.148  0.1285  0.4452  0.9608
25642SOL    HW279947   1.234   3.570   8.098  0.5581  0.2475 -0.1462
25643SOL     OW79948   5.184   0.110   3.141 -0.1097 -0.0772 -0.3330
25643SOL    HW179949   5.219   0.192   3.108  0.6625  0.0416  0.7467
25643SOL    HW279950   5.231   0.042   3.092 -1.0454  0.1110 -1.5221
25644SOL     OW79951   8.464   8.916   9.384  0.1869  0.2167  0.2643
25644SOL    HW179952   8.370   8.925   9.397  0.1302 -0.1158  0.0789
25644SOL    HW279953   8.473   8.848   9.318  0.5061  1.2863 -0.8111
25645SOL     OW79954   0.641   7.296   4.266 -0.3533  0.5416  0.2267
25645SOL    HW179955   0.667   7.383   4.233  0.7354  0.1703  0.0743
25645SOL    HW279956   0.637   7.307   4.361 -0.8861  0.9274  0.1654
25646SOL     OW79957   4.012   7.555   1.896 -0.4105  0.2325  0.3981
25646SOL    HW179958   4.107   7.544   1.901 -0.5618 -1.0876  0.6043
25646SOL    HW279959   3.978   7.503   1.969 -1.2643  1.1247  0.6460
25647SOL     OW79960   4.539   1.386   4.388  0.0369  0.4628 -0.4310
25647SOL    HW179961   4.515   1.410   4.477 -0.0897 -2.0342  0.2343
25647SOL    HW279962   4.631   1.413   4.380  0.2091  0.2114  0.6363
25648SOL     OW79963   2.066   6.910   7.198 -0.1149 -0.0913 -0.2018
25648SOL    HW179964   1.982   6.866   7.203 -0.6723  1.1701  1.9948
25648SOL    HW279965   2.116   6.858   7.135 -2.5048 -0.8610 -1.5305
25649SOL     OW79966   2.482   5.671   7.893 -0.3607  0.3225 -0.1322
25649SOL    HW179967   2.448   5.702   7.977 -0.7317  1.3055 -0.6467
25649SOL    HW279968   2.412   5.689   7.830  0.1986  0.2290 -0.7832
25650SOL     OW79969   4.638   1.560   0.706  0.1630  0.3831  0.7554
25650SOL    HW179970   4.640   1.472   0.668 -0.1590  0.1027  1.3888
25650SOL    HW279971   4.698   1.611   0.651  0.2074 -0.1851  0.2755
25651SOL     OW79972   4.635   5.792   0.906  0.1551  0.1392  0.1870
25651SOL    HW179973   4.670   5.791   0.995 -1.1285 -1.7261  0.6957
25651SOL    HW279974   4.593   5.878   0.897  1.4966  0.8847  0.8716
25652SOL     OW79975   3.526   1.547   3.186 -0.0458  0.2766 -0.6987
25652SOL    HW179976   3.507   1.516   3.274  0.0815  2.8935  0.2929
25652SOL    HW279977   3.440   1.556   3.145 -0.3639  2.1533  0.2930
25653SOL     OW79978   2.121   3.704   1.726 -0.2640  0.3243  0.0561
25653SOL    HW179979   2.130   3.731   1.817 -0.8170  1.9757 -0.3678
25653SOL    HW279980   2.067   3.625   1.730  2.0103 -1.2248  1.3676
25654SOL     OW79981   6.183   0.300   2.066  0.0329  0.6132  0.0874
25654SOL    HW179982   6.186   0.214   2.108 -1.7027  0.5198  0.0700
25654SOL    HW279983   6.272   0.316   2.036  0.4158 -1.0756  0.3049
25655SOL     OW79984   8.040   7.631   8.574  0.2843 -0.1884  0.2839
25655SOL    HW179985   8.007   7.552   8.531  0.3340 -0.2031  0.2733
25655SOL    HW279986   8.013   7.622   8.665 -0.8291  0.3787  0.0258
25656SOL     OW79987   0.036   6.698   5.119 -0.3628  0.0784  0.6074
25656SOL    HW179988  -0.030   6.766   5.131  0.0307  0.9129 -1.6410
25656SOL    HW279989   0.110   6.726   5.172  0.1789  1.9845 -1.0857
25657SOL     OW79990   2.902   2.629   2.737 -0.0200 -0.3367  0.3535
25657SOL    HW179991   2.829   2.686   2.762  0.4696  0.2309  0.4994
25657SOL    HW279992   2.864   2.541   2.735 -0.5688 -0.1180  0.9922
25658SOL     OW79993   8.775   4.028   7.712  0.1003  0.0977  0.3507
25658SOL    HW179994   8.745   4.079   7.636  2.3320 -1.1284 -1.4071
25658SOL    HW279995   8.709   3.960   7.724 -0.1894  0.2190 -0.5634
25659SOL     OW79996   8.041   9.385   3.183  0.5130 -0.2354  0.7459
25659SOL    HW179997   7.971   9.447   3.204  1.0336  0.3147  0.8780
25659SOL    HW279998   8.041   9.380   3.087  0.7852  0.3429  0.7137
25660SOL     OW79999   5.430   2.053   5.826 -0.5174  0.2513 -0.0865
25660SOL    HW180000   5.410   1.974   5.777 -0.6251  1.4015 -1.9570
25660SOL    HW280001   5.382   2.122   5.780  0.2813  1.5365  0.9867
25661SOL     OW80002   8.374   7.281   6.022 -0.6255 -0.2186  0.1118
25661SOL    HW180003   8.345   7.236   5.943 -1.8417 -1.2432  1.1073
25661SOL    HW280004   8.329   7.235   6.093  1.6698 -0.3194  1.5337
25662SOL     OW80005   3.910   5.105   6.633  0.1028  0.0663 -0.0465
25662SOL    HW180006   3.905   5.070   6.721 -1.8849  0.6807  0.1054
25662SOL    HW280007   3.926   5.029   6.577  1.2093 -0.3403  0.8036
25663SOL     OW80008   6.036   3.514   5.472  0.5935 -0.4505  0.6893
25663SOL    HW180009   5.959   3.475   5.514  0.0149 -2.0155 -1.6742
25663SOL    HW280010   6.106   3.450   5.487  1.4875  1.0140  2.9127
25664SOL     OW80011   6.255   4.172   8.697  0.3923  0.6674 -0.5957
25664SOL    HW180012   6.164   4.199   8.707  0.2957  0.1737 -0.0565
25664SOL    HW280013   6.306   4.252   8.712  0.1064  0.6156  0.7754
25665SOL     OW80014   9.433   2.543   5.615  0.0860 -0.2237  0.3499
25665SOL    HW180015   9.464   2.527   5.526 -0.3567  1.9962 -0.2353
25665SOL    HW280016   9.501   2.598   5.655  0.7490 -1.9708  1.7345
25666SOL     OW80017   0.712   6.403   5.898 -0.3153 -0.0370  0.5824
25666SOL    HW180018   0.807   6.400   5.889 -0.3731 -0.5866  0.1596
25666SOL    HW280019   0.695   6.485   5.944  0.2037  1.3010 -1.5320
25667SOL     OW80020   1.659   0.118   5.702  0.7789  0.4679  0.0061
25667SOL    HW180021   1.699   0.204   5.695 -0.4812  1.0105 -0.5948
25667SOL    HW280022   1.599   0.125   5.777 -1.2550  0.9165 -1.6209
25668SOL     OW80023   4.556   6.766   0.305  0.3463  0.2805  0.3744
25668SOL    HW180024   4.468   6.746   0.340  0.1506 -0.1445 -0.3448
25668SOL    HW280025   4.600   6.813   0.376 -0.3320  0.1499  0.8881
25669SOL     OW80026   3.114   3.308   1.206  0.1392 -0.0324 -0.6425
25669SOL    HW180027   3.142   3.299   1.114 -0.1551 -2.1474 -0.5655
25669SOL    HW280028   3.122   3.219   1.241 -2.8425  0.0843  0.4740
25670SOL     OW80029   1.339   3.497   7.586  0.1180 -0.0696 -0.1597
25670SOL    HW180030   1.293   3.439   7.647  0.6798 -0.9277 -0.5388
25670SOL    HW280031   1.349   3.579   7.633 -0.7655 -0.2513  0.3559
25671SOL     OW80032   8.828   8.792   0.046  0.0343 -0.2976 -0.2919
25671SOL    HW180033   8.735   8.808   0.029  0.0804  0.5150  0.2164
25671SOL    HW280034   8.865   8.878   0.063  0.5429 -0.7780  1.1547
25672SOL     OW80035   0.477   4.856   3.735 -0.8493 -0.7185  0.3389
25672SOL    HW180036   0.421   4.884   3.807 -1.2775 -1.3312  0.2520
25672SOL    HW280037   0.536   4.930   3.720  1.4534 -1.8317  3.5059
25673SOL     OW80038   9.024   5.554   3.880 -0.4889 -0.7018  0.1106
25673SOL    HW180039   8.964   5.480   3.880 -0.2217 -0.9170  0.3489
25673SOL    HW280040   9.112   5.515   3.876 -0.3888 -0.3676 -1.2985
25674SOL     OW80041   0.210   7.360   3.528 -0.1336  0.1962 -0.7166
25674SOL    HW180042   0.217   7.454   3.543 -0.4473  0.2003 -0.6001
25674SOL    HW280043   0.165   7.326   3.605  0.3201 -0.1070 -0.5763
25675SOL     OW80044   6.228   0.871   8.929 -0.4308 -0.3124 -0.2849
25675SOL    HW180045   6.149   0.868   8.874  0.2366  0.2183 -1.2873
25675SOL    HW280046   6.300   0.860   8.867  0.2777 -0.8553  0.6404
25676SOL     OW80047   0.868   0.874   3.575  0.4543  0.0837  0.5737
25676SOL    HW180048   0.785   0.875   3.529 -0.5763 -1.8454  2.3083
25676SOL    HW280049   0.893   0.966   3.581 -2.4843  0.8648  1.6121
25677SOL     OW80050   6.368   4.477   3.104  0.1507 -0.8904  0.0683
25677SOL    HW180051   6.316   4.437   3.034  0.1543 -1.8195  0.5933
25677SOL    HW280052   6.336   4.436   3.184  1.1653 -0.9109  0.4711
25678SOL     OW80053   0.720   8.842   5.895  0.0468 -0.3028 -0.2010
25678SOL    HW180054   0.702   8.749   5.905 -0.8769 -0.0378  0.6494
25678SOL    HW280055   0.635   8.885   5.906  0.6475  0.7191  0.5778
25679SOL     OW80056   2.061   8.781   8.848  0.3538 -0.2417 -0.0611
25679SOL    HW180057   2.054   8.787   8.943 -0.6331  1.4009 -0.2153
25679SOL    HW280058   2.001   8.709   8.824  1.8320 -1.7452  0.6795
25680SOL     OW80059   6.804   7.679   3.025 -0.1061 -0.0098  0.3147
25680SOL    HW180060   6.774   7.595   3.060 -0.6493  1.0307  2.4629
25680SOL    HW280061   6.816   7.734   3.103  0.2719  1.8822 -1.0483
25681SOL     OW80062   0.653   8.415   8.844  0.5580 -0.4544 -0.2893
25681SOL    HW180063   0.581   8.447   8.898  0.9594 -0.1244  0.0483
25681SOL    HW280064   0.643   8.320   8.843 -0.3727 -0.3593 -0.9259
25682SOL     OW80065   9.248   2.553   6.232  0.0182  0.3145 -0.6425
25682SOL    HW180066   9.216   2.639   6.203 -1.1741 -0.0201 -0.3071
25682SOL    HW280067   9.197   2.490   6.182  0.5550 -0.2133 -0.5256
25683SOL     OW80068   6.252   9.305   8.013  0.1615 -0.0146  0.0636
25683SOL    HW180069   6.280   9.215   8.029 -0.3145 -0.0343  0.7913
25683SOL    HW280070   6.226   9.338   8.098  0.7910  0.9816 -0.1148
25684SOL     OW80071   1.402   2.157   3.198  0.4265  0.5957  0.3730
25684SOL    HW180072   1.491   2.135   3.227  0.0771 -1.4029  0.0161
25684SOL    HW280073   1.349   2.154   3.277  0.2072 -0.8566  0.1836
25685SOL     OW80074   2.502   9.269   5.793  0.2724  0.2138  0.1710
25685SOL    HW180075   2.457   9.287   5.711  2.3724  0.2145 -1.0101
25685SOL    HW280076   2.593   9.254   5.768  0.7105 -1.0417  2.3540
25686SOL     OW80077   3.855   9.248   2.354 -0.0619  0.1014 -0.1340
25686SOL    HW180078   3.850   9.241   2.449 -0.4324 -1.8682 -0.2769
25686SOL    HW280079   3.949   9.252   2.335  0.0162  0.3831  0.3090
25687SOL     OW80080   7.611   5.811   6.141  0.4352  0.3863 -0.5893
25687SOL    HW180081   7.644   5.792   6.229  0.9767 -1.2432 -1.1355
25687SOL    HW280082   7.531   5.861   6.156 -0.3457 -1.2578  0.8708
25688SOL     OW80083   4.437   6.841   5.256  0.4896 -0.5844  0.0388
25688SOL    HW180084   4.480   6.825   5.341  1.4613 -2.1396 -0.7191
25688SOL    HW280085   4.373   6.910   5.274  0.0621 -1.5142  2.2391
25689SOL     OW80086   3.864   5.031   5.541  0.1040 -0.3278 -0.7007
25689SOL    HW180087   3.856   4.935   5.537  0.4983 -0.2903 -4.4046
25689SOL    HW280088   3.941   5.050   5.488  0.1000  2.0663  0.1128
25690SOL     OW80089   6.561   0.138   7.561  0.3236  0.6936 -0.5185
25690SOL    HW180090   6.568   0.045   7.585 -0.0115  0.7568 -0.1807
25690SOL    HW280091   6.646   0.158   7.522  1.0320  0.7011  0.9944
25691SOL     OW80092   2.321   7.155   8.018 -0.4019  0.0540  0.2133
25691SOL    HW180093   2.392   7.151   8.082  0.0436 -2.6360 -0.4038
25691SOL    HW280094   2.324   7.244   7.984  0.9957  0.7432  2.0695
25692SOL     OW80095   8.365   4.024   4.298 -0.6669  0.0872  0.7570
25692SOL    HW180096   8.392   3.983   4.216 -1.5107  1.3163 -0.1441
25692SOL    HW280097   8.398   4.113   4.293 -1.7477  0.5231  1.2308
25693SOL     OW80098   1.620   8.455   8.550 -0.4729 -0.0988  0.1573
25693SOL    HW180099   1.680   8.529   8.545  0.8760 -1.1541  0.7361
25693SOL    HW280100   1.628   8.423   8.639 -1.8896 -0.2699  0.2360
25694SOL     OW80101   8.666   0.010   6.271 -0.7745  0.1798  0.6511
25694SOL    HW180102   8.702  -0.013   6.185 -0.7292 -0.1768  0.7642
25694SOL    HW280103   8.595  -0.052   6.285 -1.3420  0.7993  0.4898
25695SOL     OW80104   5.860   4.686   7.868  0.6079 -0.0097  0.2671
25695SOL    HW180105   5.886   4.740   7.943 -0.8492  0.7188  0.2667
25695SOL    HW280106   5.825   4.606   7.907 -3.1643  1.6560  0.5781
25696SOL     OW80107   2.928   7.035   7.929 -0.5570 -0.5869  0.2559
25696SOL    HW180108   2.917   7.115   7.978 -1.4863 -0.4160 -0.2240
25696SOL    HW280109   3.023   7.027   7.916 -0.4760  0.4992  0.1860
25697SOL     OW80110   1.322   0.680   8.856 -0.6156 -0.3982 -0.1179
25697SOL    HW180111   1.266   0.620   8.806 -2.1166  1.4834 -0.7754
25697SOL    HW280112   1.290   0.767   8.832  0.4748  0.6166  2.0145
25698SOL     OW80113   2.355   0.130   8.155  0.7883 -0.0899 -0.5833
25698SOL    HW180114   2.396   0.191   8.217  1.1198 -0.0083 -0.8812
25698SOL    HW280115   2.422   0.063   8.140  0.7416 -0.0570 -0.9263
25699SOL     OW80116   5.775   8.741   7.324 -0.6587 -0.1320 -0.0214
25699SOL    HW180117   5.770   8.661   7.377 -0.0734 -0.0152  0.2151
25699SOL    HW280118   5.693   8.787   7.342 -1.7590 -1.4669 -1.4282
25700SOL     OW80119   3.065   3.195   5.400  0.0422  0.0715  0.6027
25700SOL    HW180120   3.013   3.212   5.479 -0.1594  0.7544  0.3224
25700SOL    HW280121   3.003   3.208   5.328  0.2660 -0.4043  0.3204
25701SOL     OW80122   8.277   2.508   6.589  0.6202  0.2895 -0.1003
25701SOL    HW180123   8.359   2.554   6.571  0.6723 -0.0801 -0.8150
25701SOL    HW280124   8.239   2.555   6.664  2.0511 -0.2499  0.9959
25702SOL     OW80125   1.039   4.631   0.039 -0.0613  0.4305  0.5104
25702SOL    HW180126   0.986   4.644  -0.040  0.8937  0.4644 -0.1348
25702SOL    HW280127   1.010   4.699   0.099 -2.2994 -0.9112  1.0105
25703SOL     OW80128   0.030   7.727   5.937 -0.1543 -0.5696 -0.4979
25703SOL    HW180129   0.043   7.820   5.920  0.4407 -0.5900 -0.1731
25703SOL    HW280130   0.110   7.699   5.982 -0.8399 -0.9649  0.4967
25704SOL     OW80131   5.620   1.236   7.226  0.0006  0.1775  0.5589
25704SOL    HW180132   5.715   1.248   7.230  0.1785 -1.2860  0.8404
25704SOL    HW280133   5.606   1.186   7.145 -0.4882 -0.1112  0.8233
25705SOL     OW80134   7.487   8.491   5.336 -0.3826  0.0486  0.3730
25705SOL    HW180135   7.423   8.537   5.389 -2.2812  0.9935 -2.5855
25705SOL    HW280136   7.437   8.426   5.288  1.0021  0.1342 -1.2675
25706SOL     OW80137   3.882   6.322   2.283  0.2565  0.4764 -0.0510
25706SOL    HW180138   3.858   6.230   2.298  1.8934 -0.0907 -0.7620
25706SOL    HW280139   3.967   6.317   2.239  0.0628  2.3241 -0.6588
25707SOL     OW80140   1.562   4.075   0.137 -0.1685 -0.4657  0.2112
25707SOL    HW180141   1.641   4.110   0.096  0.2126  0.6016  1.8056
25707SOL    HW280142   1.503   4.151   0.144 -1.7041 -1.4339 -1.7707
25708SOL     OW80143   0.917   1.263   2.187 -0.1823  0.1337 -0.0174
25708SOL    HW180144   0.871   1.345   2.171 -1.0319 -0.3592 -0.1630
25708SOL    HW280145   0.907   1.213   2.106  0.5669 -0.0066 -0.0298
25709SOL     OW80146   3.839   0.114   3.886  0.1654 -0.4418 -0.4775
25709SOL    HW180147   3.801   0.188   3.839  0.2040  0.7501  1.3111
25709SOL    HW280148   3.784   0.039   3.862 -1.2226  0.6047 -0.6083
25710SOL     OW80149   6.010   6.979   1.317  0.6276  0.5708  0.0302
25710SOL    HW180150   6.042   6.946   1.401 -1.3576 -2.6183 -0.3916
25710SOL    HW280151   5.936   7.035   1.340 -0.8472 -1.4696  0.3789
25711SOL     OW80152   7.656   1.388   8.208  0.0268 -0.0813 -0.0338
25711SOL    HW180153   7.669   1.319   8.273 -1.5074  0.5575  0.9599
25711SOL    HW280154   7.707   1.462   8.241 -0.9558  0.3274  0.5940
25712SOL     OW80155   9.285   3.725   2.036 -0.0894 -0.0508  0.4017
25712SOL    HW180156   9.191   3.710   2.044 -0.1585  0.8877  1.4199
25712SOL    HW280157   9.293   3.817   2.011  0.5801  0.1060  1.1671
25713SOL     OW80158   3.745   7.153   2.875 -0.4525  0.2654 -0.9227
25713SOL    HW180159   3.736   7.058   2.871  0.1423  0.2009 -0.8333
25713SOL    HW280160   3.804   7.169   2.949 -2.2861  0.8351  0.4425
25714SOL     OW80161   9.188   6.418   7.210  0.2446 -0.3311 -0.6961
25714SOL    HW180162   9.154   6.383   7.292 -0.7803  0.1431 -0.9041
25714SOL    HW280163   9.283   6.415   7.219  0.1565  1.4830  1.2873
25715SOL     OW80164   5.005   3.070   6.813 -0.0609 -0.5743  0.1797
25715SOL    HW180165   5.013   3.017   6.734 -0.1168 -1.0293  0.4786
25715SOL    HW280166   5.072   3.035   6.873 -2.7006 -2.9521  1.8683
25716SOL     OW80167   6.457   0.259   2.348  0.5048  0.1371 -0.2151
25716SOL    HW180168   6.448   0.199   2.422  0.4377 -0.1188 -0.4300
25716SOL    HW280169   6.431   0.344   2.382  2.2393  0.3706  0.5658
25717SOL     OW80170   3.103   3.627   1.942  0.3438  0.1407  0.4083
25717SOL    HW180171   3.009   3.622   1.960  0.0389  0.7637 -0.9669
25717SOL    HW280172   3.112   3.596   1.852  1.2687  1.4116  0.0480
25718SOL     OW80173   3.566   7.764   6.536 -0.5845  0.0088 -0.0047
25718SOL    HW180174   3.506   7.815   6.591 -0.2306 -1.0861  1.4353
25718SOL    HW280175   3.599   7.695   6.594 -0.6552 -1.5598 -1.7646
25719SOL     OW80176   5.976   0.231   8.769  0.4472 -0.4077  0.3809
25719SOL    HW180177   6.051   0.261   8.820 -0.4185  1.2709  0.6894
25719SOL    HW280178   5.900   0.261   8.818 -0.4030  0.6031 -1.5126
25720SOL     OW80179   8.177   7.122   9.062  0.5059  0.4541 -0.1742
25720SOL    HW180180   8.122   7.045   9.078  0.4203  0.2968 -1.2278
25720SOL    HW280181   8.200   7.153   9.150 -2.0113  1.0756  0.2921
25721SOL     OW80182   5.871   3.754   2.573 -0.1086  0.2364  0.0126
25721SOL    HW180183   5.901   3.669   2.605  0.9762  0.7913  0.4818
25721SOL    HW280184   5.926   3.817   2.618 -1.3450  1.2256  0.1574
25722SOL     OW80185   3.785   0.967   8.426  0.3483  0.1104 -0.1484
25722SOL    HW180186   3.772   0.997   8.516  2.8795 -1.3999  0.7887
25722SOL    HW280187   3.717   0.901   8.413  0.1504  0.1218  0.7795
25723SOL     OW80188   5.565   5.729   5.552 -0.2433  0.0568  0.5865
25723SOL    HW180189   5.536   5.687   5.634  1.6139 -1.4400  0.5082
25723SOL    HW280190   5.493   5.787   5.529 -2.2644 -1.9782  1.5251
25724SOL     OW80191   4.371   3.391   2.595  0.1183 -0.7673 -0.2909
25724SOL    HW180192   4.446   3.349   2.639 -1.1496 -1.9530  0.7888
25724SOL    HW280193   4.352   3.467   2.649 -0.2514 -1.1799  0.1678
25725SOL     OW80194   6.647   5.325   4.224 -0.4705  0.3738  0.2263
25725SOL    HW180195   6.629   5.279   4.142  0.6172 -0.6377  0.5446
25725SOL    HW280196   6.629   5.260   4.292  0.9038  0.4634  0.6891
25726SOL     OW80197   5.940   3.361   0.526  0.1883  0.6187 -0.1568
25726SOL    HW180198   5.865   3.353   0.467  0.3815  0.1217 -0.3392
25726SOL    HW280199   5.906   3.407   0.602 -0.2770  0.4876 -0.2837
25727SOL     OW80200   2.165   4.209   5.948  0.6303 -0.2118 -0.2552
25727SOL    HW180201   2.230   4.147   5.917 -0.6976 -2.0144  0.4846
25727SOL    HW280202   2.215   4.271   6.002  1.9295 -0.7905 -0.7769
25728SOL     OW80203   6.337   3.959   8.834 -0.4689  0.5352 -0.4372
25728SOL    HW180204   6.242   3.966   8.819 -0.4828 -0.0308 -0.6188
25728SOL    HW280205   6.371   4.046   8.812 -0.8533  0.5226 -1.0816
25729SOL     OW80206   4.380   6.776   4.204 -0.1282  0.6490 -0.6229
25729SOL    HW180207   4.299   6.778   4.153 -0.4664 -1.5154 -0.2252
25729SOL    HW280208   4.449   6.763   4.139 -0.1746  1.6262 -0.8774
25730SOL     OW80209   7.368   9.122   4.515 -0.6684  0.3459 -0.4995
25730SOL    HW180210   7.386   9.070   4.593 -1.6753  0.9469  0.1454
25730SOL    HW280211   7.452   9.130   4.471 -0.0262  0.2970  0.7087
25731SOL     OW80212   3.811   3.817   9.438 -0.5861 -0.4122  0.3562
25731SOL    HW180213   3.857   3.898   9.461 -0.1777 -0.0272 -1.6835
25731SOL    HW280214   3.874   3.767   9.386 -0.5326 -2.4502  2.3077
25732SOL     OW80215   0.625   4.143   2.816  0.9498  0.6647 -0.0336
25732SOL    HW180216   0.656   4.132   2.906  0.2725 -2.8014 -0.1521
25732SOL    HW280217   0.685   4.090   2.764  0.3173  1.2802 -1.3969
25733SOL     OW80218   0.199   6.082   7.056 -0.5809 -0.5872  0.2637
25733SOL    HW180219   0.290   6.110   7.071 -0.2772 -1.2622 -0.3089
25733SOL    HW280220   0.192   6.072   6.961 -0.8967 -1.7392  0.3983
25734SOL     OW80221   5.432   1.883   6.661 -0.5096  0.4600  0.4232
25734SOL    HW180222   5.503   1.948   6.660  0.1802 -0.2787  0.8176
25734SOL    HW280223   5.408   1.872   6.570  0.4976  0.0587  0.1972
25735SOL     OW80224   0.146   8.179   4.828  0.5133  0.2352 -0.4035
25735SOL    HW180225   0.068   8.126   4.811  0.3667  0.3404 -0.0611
25735SOL    HW280226   0.202   8.164   4.752  0.0286  0.3986 -0.7944
25736SOL     OW80227   5.951   1.112   6.376 -0.6973 -0.1338  1.0139
25736SOL    HW180228   5.979   1.181   6.436 -0.5832  2.4154 -1.8668
25736SOL    HW280229   6.029   1.057   6.364  0.8626  2.4302 -0.9150
25737SOL     OW80230   3.236   7.872   3.137  0.2891  0.2695 -0.6006
25737SOL    HW180231   3.198   7.959   3.125 -1.7236 -0.7137 -1.5908
25737SOL    HW280232   3.161   7.814   3.152  1.4578 -1.5566 -1.5158
25738SOL     OW80233   8.090   2.739   3.939 -0.3120  0.6039 -0.5369
25738SOL    HW180234   8.122   2.657   3.977 -3.2684  0.3451  1.5105
25738SOL    HW280235   8.099   2.726   3.844 -2.0804 -2.7070 -0.3380
25739SOL     OW80236   7.682   3.296   9.442  0.3526 -0.3538  0.4510
25739SOL    HW180237   7.746   3.278   9.511 -0.0373  0.1288  0.9419
25739SOL    HW280238   7.675   3.391   9.440  0.1599 -0.3763 -0.0717
25740SOL     OW80239   2.525   2.310   9.058  0.6008 -0.4627 -0.1087
25740SOL    HW180240   2.449   2.264   9.094 -0.2259  1.0994  0.1707
25740SOL    HW280241   2.490   2.359   8.984  1.3809  0.0880 -0.1215
25741SOL     OW80242   2.599   7.216   6.400  0.2992  0.2748  0.0609
25741SOL    HW180243   2.690   7.248   6.401  0.3223  0.1939  1.2224
25741SOL    HW280244   2.550   7.281   6.450  0.0148 -0.5286  0.8495
25742SOL     OW80245   1.760   8.341   5.117  0.1385  0.2021  0.2740
25742SOL    HW180246   1.690   8.402   5.141 -0.9736 -1.4051  1.2012
25742SOL    HW280247   1.747   8.266   5.175  0.1147 -1.9058 -2.3741
25743SOL     OW80248   9.019   4.500   7.935  0.0374 -0.1453  0.5748
25743SOL    HW180249   9.071   4.448   7.874  0.7034  0.7806  0.3445
25743SOL    HW280250   8.931   4.503   7.896 -0.2180 -1.7530  0.9884
25744SOL     OW80251   5.655   0.783   0.903 -0.2648 -0.4281 -0.0470
25744SOL    HW180252   5.692   0.865   0.933  0.0078 -0.2468 -0.8770
25744SOL    HW280253   5.687   0.718   0.965 -2.4062  0.4267  2.0336
25745SOL     OW80254   3.523   5.088   2.040 -0.4240 -0.5460  0.4626
25745SOL    HW180255   3.472   5.033   1.980  2.1563 -1.7221 -0.7237
25745SOL    HW280256   3.566   5.152   1.984  1.9799 -1.6306  0.9882
25746SOL     OW80257   8.108   7.482   6.095  0.1221  0.4880  0.4689
25746SOL    HW180258   8.158   7.500   6.016  1.1610 -2.2862  0.4460
25746SOL    HW280259   8.092   7.388   6.092 -1.6594  0.6921  2.5044
25747SOL     OW80260   9.257   8.690   6.004  0.1940 -0.3923 -0.0561
25747SOL    HW180261   9.224   8.726   6.086  1.5263  1.9723 -0.5344
25747SOL    HW280262   9.352   8.695   6.013  0.4124 -2.7341 -0.6348
25748SOL     OW80263   6.394   1.226   4.138  0.2915  0.2100 -0.2293
25748SOL    HW180264   6.413   1.188   4.053 -0.0022 -0.8313  0.1676
25748SOL    HW280265   6.299   1.229   4.144  0.2900 -1.0954  0.6543
25749SOL     OW80266   7.229   6.304   5.925 -0.0985 -0.6221 -0.5859
25749SOL    HW180267   7.206   6.282   6.015  0.3760  1.6056  0.1107
25749SOL    HW280268   7.307   6.252   5.907  0.6170 -0.0405  0.7681
25750SOL     OW80269   4.435   3.030   5.453  0.6624 -0.1402  0.0427
25750SOL    HW180270   4.523   3.057   5.429  0.4935  0.6412  0.2776
25750SOL    HW280271   4.419   2.951   5.403  1.8463 -0.8055  0.6944
25751SOL     OW80272   6.841   0.860   3.375  0.2460 -0.5178  0.3290
25751SOL    HW180273   6.879   0.773   3.391 -0.7875 -1.1663 -0.5845
25751SOL    HW280274   6.804   0.887   3.459 -1.4655 -2.0132  0.1008
25752SOL     OW80275   8.654   7.660   7.396 -0.0331  0.4965  0.2860
25752SOL    HW180276   8.593   7.717   7.349  0.5139  0.7629 -0.1062
25752SOL    HW280277   8.739   7.679   7.358 -0.0672 -1.7792 -0.9914
25753SOL     OW80278   7.345   6.530   8.996  0.1889  0.0810  0.5142
25753SOL    HW180279   7.374   6.445   8.962 -0.0451  0.5365 -0.8711
25753SOL    HW280280   7.268   6.551   8.942 -0.0097  0.9670  1.1444
25754SOL     OW80281   5.544   2.526   2.806 -0.1962  0.1919 -0.2455
25754SOL    HW180282   5.580   2.440   2.785 -2.6885 -0.6530 -1.1499
25754SOL    HW280283   5.581   2.546   2.893  2.2401 -0.7040 -1.0195
25755SOL     OW80284   0.141   7.278   9.111 -0.5588 -0.3055  0.1341
25755SOL    HW180285   0.177   7.191   9.093  0.4967 -0.0836  1.1303
25755SOL    HW280286   0.156   7.327   9.030 -0.9653 -0.9768 -0.3565
25756SOL     OW80287   3.290   5.907   3.052 -0.7199  0.4845 -0.0981
25756SOL    HW180288   3.196   5.887   3.055 -0.6720  0.1663 -0.5784
25756SOL    HW280289   3.296   5.986   2.998 -0.6483  0.0734 -0.6967
25757SOL     OW80290   6.431   6.179   3.577  0.7221 -0.2269  0.0683
25757SOL    HW180291   6.485   6.150   3.650  1.2174 -0.8947 -0.5646
25757SOL    HW280292   6.438   6.109   3.512 -0.0793  0.1520 -0.4385
25758SOL     OW80293   5.846   2.185   6.498  0.4558 -1.2783  0.3355
25758SOL    HW180294   5.812   2.270   6.468  1.9329 -0.0568  2.0284
25758SOL    HW280295   5.868   2.139   6.417  0.3017  0.2453 -0.5993
25759SOL     OW80296   0.039   4.256   2.949 -0.6545 -0.1723  0.1670
25759SOL    HW180297  -0.040   4.228   2.995 -0.1917 -1.4845  0.2114
25759SOL    HW280298   0.104   4.188   2.970  0.4370  0.8187  0.0264
25760SOL     OW80299   2.129   7.736   1.555 -0.6335  0.0234 -0.5294
25760SOL    HW180300   2.168   7.775   1.633  1.2471 -2.4245 -0.1887
25760SOL    HW280301   2.081   7.808   1.514  1.2916  2.2484  0.9647
25761SOL     OW80302   6.989   1.915   5.757  0.2634  0.0985  0.4305
25761SOL    HW180303   6.997   1.834   5.807  0.4406  0.0016  0.2458
25761SOL    HW280304   7.047   1.903   5.682  0.3983  0.4543  0.4767
25762SOL     OW80305   8.961   2.188   3.938  0.1238 -0.3140  0.1743
25762SOL    HW180306   8.908   2.108   3.941 -1.4897  0.7040 -0.5519
25762SOL    HW280307   8.979   2.207   4.030 -0.3648 -0.9413  0.4121
25763SOL     OW80308   3.232   5.824   4.777 -0.2297 -0.2717 -0.0973
25763SOL    HW180309   3.184   5.834   4.859  0.7285  0.1304  0.4195
25763SOL    HW280310   3.164   5.806   4.712 -0.9245 -1.3218  0.9044
25764SOL     OW80311   0.391   4.083   6.647 -1.0343  0.4729  0.2620
25764SOL    HW180312   0.395   3.992   6.679 -2.4820  0.0028 -0.8448
25764SOL    HW280313   0.474   4.121   6.675 -0.4553 -1.1565  0.8580
25765SOL     OW80314   1.079   1.565   3.237  0.4838 -0.4247  0.7313
25765SOL    HW180315   1.066   1.657   3.258 -2.1172 -0.2611 -1.2718
25765SOL    HW280316   1.144   1.565   3.166  0.0739 -0.0900  0.3563
25766SOL     OW80317   2.323   4.937   2.462 -0.2568  0.0799  0.2273
25766SOL    HW180318   2.340   4.857   2.510 -0.3308  0.0167  0.1491
25766SOL    HW280319   2.268   4.910   2.389  0.4814  0.0529 -0.3190
25767SOL     OW80320   7.004   2.686   5.604  0.4396  0.3362  0.1430
25767SOL    HW180321   7.093   2.723   5.602  0.0261  1.3113 -0.8872
25767SOL    HW280322   6.983   2.668   5.513  0.6117 -2.5025  0.6301
25768SOL     OW80323   3.195   1.283   7.940  0.0311  0.4400  0.0213
25768SOL    HW180324   3.256   1.332   7.885  0.9531 -1.6737 -0.9086
25768SOL    HW280325   3.252   1.233   7.999 -0.8530  0.0925  0.5919
25769SOL     OW80326   8.686   1.978   0.364 -0.2365  0.7354 -0.3013
25769SOL    HW180327   8.737   1.906   0.327 -1.1542  0.9062 -1.9487
25769SOL    HW280328   8.699   1.970   0.459  0.2288 -1.1839 -0.4989
25770SOL     OW80329   9.336   5.420   7.140 -0.0879 -0.0172 -0.0410
25770SOL    HW180330   9.402   5.415   7.209 -0.0832  1.3651  0.0738
25770SOL    HW280331   9.384   5.450   7.063 -0.5292  0.7780 -0.0131
25771SOL     OW80332   4.051   0.670   8.134  0.5361  0.3051  0.3695
25771SOL    HW180333   4.133   0.624   8.119 -0.3451 -1.3991  0.6276
25771SOL    HW280334   4.050   0.741   8.069  0.6728 -1.7469 -1.9110
25772SOL     OW80335   2.578   3.426   9.094 -0.0863  0.1102  0.4921
25772SOL    HW180336   2.591   3.488   9.166 -1.6265 -0.3507  1.1826
25772SOL    HW280337   2.484   3.406   9.096 -0.2449  0.4214 -1.9208
25773SOL     OW80338   2.371   5.601   2.623  0.1197 -0.1610 -0.6640
25773SOL    HW180339   2.396   5.583   2.532 -0.0234  0.9273 -0.9189
25773SOL    HW280340   2.282   5.633   2.617  0.9650  2.3529 -0.3960
25774SOL     OW80341   6.478   9.390   4.397 -0.2993 -0.4809  0.4372
25774SOL    HW180342   6.568   9.423   4.403  0.4273 -1.9939 -1.6132
25774SOL    HW280343   6.425   9.459   4.435  1.6020  1.1398  0.2419
25775SOL     OW80344   3.255   0.654   6.016  0.0420 -0.0238  0.2169
25775SOL    HW180345   3.256   0.748   5.999  1.0310 -0.1746 -0.6575
25775SOL    HW280346   3.348   0.630   6.024 -0.1359 -1.1452 -0.8841
25776SOL     OW80347   2.325   5.939   3.079 -0.4235  0.3908 -0.0434
25776SOL    HW180348   2.318   5.891   2.996  1.5093 -1.8882  1.0340
25776SOL    HW280349   2.251   5.907   3.131  0.1465 -0.5254  0.2198
25777SOL     OW80350   4.944   9.428   8.036 -0.5542  0.0226 -0.2422
25777SOL    HW180351   4.980   9.507   8.075 -0.6134  1.7843 -3.5580
25777SOL    HW280352   4.859   9.417   8.079  0.6337  0.1507  2.2093
25778SOL     OW80353   3.383   9.157   4.983 -1.1616 -0.2448 -0.1914
25778SOL    HW180354   3.290   9.165   4.961 -0.7296  1.4585 -1.4939
25778SOL    HW280355   3.407   9.243   5.018 -0.1959 -0.8581  0.7139
25779SOL     OW80356   2.151   4.599   0.330 -0.2751 -0.0897 -0.0510
25779SOL    HW180357   2.217   4.645   0.380  0.1544 -1.7862  0.9891
25779SOL    HW280358   2.201   4.543   0.270 -0.7306 -1.3087  0.6766
25780SOL     OW80359   2.537   2.793   9.375  0.1413 -0.2451 -0.3509
25780SOL    HW180360   2.554   2.704   9.404 -1.3083 -0.2628  0.4803
25780SOL    HW280361   2.623   2.827   9.351  1.0538 -1.0862  1.5754
25781SOL     OW80362   7.221   7.268   4.873  0.5331 -0.5488  0.1062
25781SOL    HW180363   7.246   7.197   4.814  0.5753  0.3366 -0.9555
25781SOL    HW280364   7.126   7.265   4.875  0.4217  0.8325 -1.8023
25782SOL     OW80365   6.814   4.625   8.526 -0.1410 -0.3760 -0.7833
25782SOL    HW180366   6.816   4.530   8.527 -0.1878 -0.3735 -0.1596
25782SOL    HW280367   6.743   4.648   8.587  0.8774  0.0774  0.2456
25783SOL     OW80368   6.879   3.153   2.312 -0.1827 -0.1075 -0.7582
25783SOL    HW180369   6.949   3.196   2.263 -0.6285  1.1286 -0.3261
25783SOL    HW280370   6.906   3.061   2.318  0.9050  0.1650 -1.4619
25784SOL     OW80371   5.410   1.041   5.361  0.2038 -0.8501 -0.1406
25784SOL    HW180372   5.358   1.118   5.383  2.8094  0.2223  2.6509
25784SOL    HW280373   5.456   1.065   5.281  0.8963  0.4765  0.6394
25785SOL     OW80374   0.824   6.165   3.583  0.0638 -0.2843 -0.7110
25785SOL    HW180375   0.900   6.176   3.525  0.1516 -0.2733 -0.5932
25785SOL    HW280376   0.749   6.168   3.524  0.1601 -0.3822 -0.8382
25786SOL     OW80377   1.430   2.257   6.295 -0.1340 -0.3205  0.0269
25786SOL    HW180378   1.503   2.283   6.352  2.6575 -0.5322 -3.3309
25786SOL    HW280379   1.411   2.335   6.243 -1.0172 -0.8405 -0.4420
25787SOL     OW80380   6.906   2.818   1.706 -0.5407  0.1775  0.1808
25787SOL    HW180381   6.939   2.868   1.780 -1.1895  1.7946 -0.6104
25787SOL    HW280382   6.872   2.883   1.645 -0.8899 -1.1823 -1.1260
25788SOL     OW80383   8.084   3.120   7.662  0.1851 -0.9802  0.4077
25788SOL    HW180384   8.015   3.063   7.697 -0.6916  0.1362  0.5351
25788SOL    HW280385   8.142   3.060   7.614 -0.9855 -1.9100  0.1178
25789SOL     OW80386   4.068   0.517   1.203  0.3190 -0.0414 -0.0493
25789SOL    HW180387   4.141   0.505   1.263 -1.1038 -2.5283  1.2547
25789SOL    HW280388   4.062   0.434   1.156 -1.9844 -0.0781  0.2402
25790SOL     OW80389   4.414   2.057   7.994 -0.3675 -0.0780  0.2813
25790SOL    HW180390   4.467   2.134   8.013  0.7897 -1.0200  0.9695
25790SOL    HW280391   4.352   2.085   7.927  0.8468  1.1107 -0.3503
25791SOL     OW80392   3.282   4.084   3.948 -0.2276  0.0428 -0.2768
25791SOL    HW180393   3.342   4.068   4.021 -0.2408  0.4276 -0.1847
25791SOL    HW280394   3.266   4.178   3.950 -0.7297 -0.0413 -0.3815
25792SOL     OW80395   1.665   4.829   5.555 -0.2014  0.7999 -0.0526
25792SOL    HW180396   1.732   4.807   5.620 -0.0855  1.9613  0.2385
25792SOL    HW280397   1.588   4.852   5.608  0.0936  2.4041 -0.2882
25793SOL     OW80398   6.148   3.533   3.522 -0.0510 -0.5799 -0.6402
25793SOL    HW180399   6.089   3.594   3.566  1.4627  0.4861 -0.0404
25793SOL    HW280400   6.184   3.479   3.593  0.8411 -0.2165 -0.8114
25794SOL     OW80401   8.672   5.510   2.350 -0.4193 -0.3443  0.4776
25794SOL    HW180402   8.762   5.480   2.341 -0.2237  0.3772 -0.1337
25794SOL    HW280403   8.629   5.480   2.270 -0.5795 -0.2536  0.5305
25795SOL     OW80404   8.757   8.795   8.430 -0.1871  0.8542  1.1067
25795SOL    HW180405   8.801   8.805   8.515  0.6676  0.5273  0.7052
25795SOL    HW280406   8.735   8.702   8.426  2.6942  0.1800 -0.4368
25796SOL     OW80407   5.761   7.500   2.482 -0.6529 -0.2925 -0.1307
25796SOL    HW180408   5.745   7.594   2.471 -0.4113 -0.3922 -1.3336
25796SOL    HW280409   5.835   7.496   2.543 -0.4372  0.3001 -0.3503
25797SOL     OW80410   8.303   9.189   1.347 -0.1701  0.0682 -0.0591
25797SOL    HW180411   8.349   9.157   1.270  0.2081 -0.2288  0.2877
25797SOL    HW280412   8.296   9.283   1.333  0.4628  0.1051 -0.1586
25798SOL     OW80413   3.708   5.727   7.293 -0.3801 -0.8281  0.3896
25798SOL    HW180414   3.631   5.772   7.329 -0.8597 -1.3155 -0.0199
25798SOL    HW280415   3.782   5.781   7.320 -0.9335  0.1066  0.0603
25799SOL     OW80416   4.029   9.411   6.931 -0.3846 -0.2587  0.2032
25799SOL    HW180417   4.025   9.380   7.022 -0.3686 -0.2944  0.1918
25799SOL    HW280418   4.098   9.358   6.890 -1.8281 -1.7153 -0.3883
25800SOL     OW80419   8.070   0.547   0.873 -0.2677  0.4854 -0.4217
25800SOL    HW180420   8.036   0.457   0.872 -0.6603  0.6147  1.0222
25800SOL    HW280421   8.011   0.594   0.931 -0.4461  1.8467 -1.6751
25801SOL     OW80422   5.325   9.397   3.743  0.0205 -0.1718  0.4550
25801SOL    HW180423   5.294   9.442   3.663 -1.8614 -1.6890  0.2894
25801SOL    HW280424   5.420   9.400   3.736 -0.0981  0.8319 -1.2373
25802SOL     OW80425   3.244   6.508   0.234  0.0995  0.1817  0.0075
25802SOL    HW180426   3.223   6.513   0.328  0.7794  1.5646  0.0976
25802SOL    HW280427   3.168   6.547   0.191 -0.3297 -0.6946 -0.0401
25803SOL     OW80428   8.611   7.058   9.236 -0.4237 -0.1147  0.2416
25803SOL    HW180429   8.546   7.085   9.302  0.2828 -0.5513  1.1216
25803SOL    HW280430   8.680   7.015   9.286  0.2876 -0.1581 -0.7548
25804SOL     OW80431   7.123   5.700   0.185 -0.6966  0.3947  0.1149
25804SOL    HW180432   7.184   5.643   0.139  0.3568  1.7185 -0.1533
25804SOL    HW280433   7.121   5.666   0.275  1.1282  0.8817  0.3564
25805SOL     OW80434   4.516   9.325   4.801 -0.0280  0.3460  0.4308
25805SOL    HW180435   4.513   9.417   4.826  0.5310  0.8915 -1.4088
25805SOL    HW280436   4.473   9.322   4.716 -1.8901 -1.4465  1.3948
25806SOL     OW80437   2.154   5.129   8.074 -0.2788 -0.3008 -0.5800
25806SOL    HW180438   2.213   5.073   8.125 -2.6840 -1.3021  1.2029
25806SOL    HW280439   2.207   5.205   8.052  1.0816 -0.1223  2.8955
25807SOL     OW80440   6.105   1.358   0.768  0.3709  0.3211 -0.0142
25807SOL    HW180441   6.078   1.354   0.677  2.9757  2.3676 -0.9576
25807SOL    HW280442   6.177   1.295   0.775  0.7172  0.7534  0.4084
25808SOL     OW80443   0.244   1.548   2.423 -0.2338 -0.4188  0.4884
25808SOL    HW180444   0.160   1.506   2.405 -0.2755  0.0723 -0.4393
25808SOL    HW280445   0.224   1.641   2.434  0.1146 -0.3748  0.8026
25809SOL     OW80446   1.099   2.668   4.387  0.5946  0.0755  0.0958
25809SOL    HW180447   1.014   2.651   4.428  0.8064  0.3447  0.6483
25809SOL    HW280448   1.115   2.591   4.332 -0.9058  0.8767 -1.5163
25810SOL     OW80449   0.163   7.175   2.767  0.1348  0.1652  1.0654
25810SOL    HW180450   0.252   7.205   2.747 -0.4032 -0.9037 -3.4036
25810SOL    HW280451   0.107   7.250   2.747 -0.3729 -0.7392 -1.0022
25811SOL     OW80452   5.092   3.468   6.223  0.0208 -0.5897  0.4095
25811SOL    HW180453   5.025   3.443   6.159  0.4812  0.0423 -0.3296
25811SOL    HW280454   5.078   3.562   6.237  1.4086 -0.2283 -0.5473
25812SOL     OW80455   3.943   2.292   2.707  0.2891 -0.0817  0.4084
25812SOL    HW180456   3.874   2.240   2.749 -0.3207  0.1142 -0.3302
25812SOL    HW280457   3.917   2.295   2.614  0.3044  1.5479  0.4490
25813SOL     OW80458   4.924   7.721   7.455  0.2513 -0.1659  0.4079
25813SOL    HW180459   4.891   7.785   7.517 -0.2197 -1.0918  1.1089
25813SOL    HW280460   4.899   7.636   7.491  1.7766 -0.7998  0.0184
25814SOL     OW80461   1.861   6.645   2.510 -0.1127  0.4524 -0.2885
25814SOL    HW180462   1.825   6.721   2.464 -1.1939 -0.7148 -1.3872
25814SOL    HW280463   1.922   6.683   2.573 -2.0345  2.3724  0.4844
25815SOL     OW80464   5.047   6.299   1.073 -0.0461 -0.2947  0.4397
25815SOL    HW180465   5.067   6.358   1.001 -0.4400 -0.7241 -0.0284
25815SOL    HW280466   5.114   6.316   1.139  1.0264 -0.7426 -0.5256
25816SOL     OW80467   1.298   1.863   1.585  0.2658  0.2252  0.0013
25816SOL    HW180468   1.331   1.951   1.569 -1.4789  0.6032 -1.8844
25816SOL    HW280469   1.302   1.821   1.499  0.3675 -1.2788  0.7303
25817SOL     OW80470   0.279   8.096   4.604 -0.1126  0.3073  0.1851
25817SOL    HW180471   0.369   8.074   4.627  0.3680  0.5975 -1.3192
25817SOL    HW280472   0.257   8.036   4.533 -1.9184 -1.3049  2.0548
25818SOL     OW80473   3.512   1.505   4.600 -0.3424  0.0746 -0.2312
25818SOL    HW180474   3.463   1.587   4.592  3.0801  2.3604  0.7635
25818SOL    HW280475   3.550   1.509   4.688 -0.8206 -3.0372  0.1706
25819SOL     OW80476   9.308   0.001   0.501  0.2595  0.3743 -0.2670
25819SOL    HW180477   9.317   0.020   0.408 -1.6116 -0.4748 -0.6369
25819SOL    HW280478   9.312   0.087   0.543  0.8490  0.7862 -1.1367
25820SOL     OW80479   9.107   8.944   7.190 -0.4007 -0.3022 -0.2566
25820SOL    HW180480   9.193   8.962   7.229  0.5491 -0.4696 -2.1820
25820SOL    HW280481   9.058   9.025   7.203 -0.4378 -0.6545  2.0329
25821SOL     OW80482   1.225   4.095   2.038  0.2028 -0.1757  0.1715
25821SOL    HW180483   1.197   4.087   1.946 -2.0833 -1.4488  0.9143
25821SOL    HW280484   1.278   4.017   2.054  0.4168 -0.0671 -0.0108
25822SOL     OW80485   9.343   2.172   5.522 -0.1054  0.4723 -0.6804
25822SOL    HW180486   9.314   2.262   5.538 -0.3419  0.3299 -0.2852
25822SOL    HW280487   9.359   2.137   5.610  0.8065  0.3972 -0.8777
25823SOL     OW80488   2.970   4.946   8.534 -0.5047 -0.2142  0.0769
25823SOL    HW180489   2.957   4.934   8.628  1.5107 -0.7727  0.3032
25823SOL    HW280490   2.921   5.025   8.513 -2.0277 -0.8028  1.3497
25824SOL     OW80491   8.048   1.725   8.948 -0.5703  0.3987 -0.2353
25824SOL    HW180492   8.018   1.732   9.039 -2.2675  1.0658 -0.8211
25824SOL    HW280493   8.051   1.815   8.917  1.4697  0.2986 -0.4078
25825SOL     OW80494   5.436   4.157   6.355  0.3832 -0.1324  0.3511
25825SOL    HW180495   5.451   4.222   6.424 -1.4958  1.3900 -0.6139
25825SOL    HW280496   5.343   4.135   6.361  0.5997 -1.3583 -0.5173
25826SOL     OW80497   0.946   1.698   0.412  0.1621  0.1738  0.1009
25826SOL    HW180498   0.853   1.717   0.406  0.4695  1.4840 -0.8030
25826SOL    HW280499   0.986   1.781   0.438  1.0652 -0.4093  0.5883
25827SOL     OW80500   2.162   2.461   0.533 -0.1551 -0.5785  0.6136
25827SOL    HW180501   2.113   2.409   0.469  0.3575  1.7599 -1.7798
25827SOL    HW280502   2.098   2.524   0.567  0.7261  1.5701 -1.5008
25828SOL     OW80503   1.658   2.609   8.218  0.5218 -0.0542 -0.2202
25828SOL    HW180504   1.655   2.701   8.245  0.9378  0.2336 -1.0989
25828SOL    HW280505   1.579   2.597   8.166  0.4834 -0.1812 -0.1319
25829SOL     OW80506   4.837   5.053   2.125 -0.2425 -0.1857 -0.1209
25829SOL    HW180507   4.908   5.004   2.084  1.0113  1.5922 -0.0897
25829SOL    HW280508   4.800   5.106   2.055 -0.8222 -0.2697  0.1130
25830SOL     OW80509   8.812   1.602   6.498  0.0135  0.1450  0.6559
25830SOL    HW180510   8.867   1.563   6.430 -0.5966  0.9470 -0.3118
25830SOL    HW280511   8.775   1.527   6.545 -0.4338 -0.4332 -0.6009
25831SOL     OW80512   7.216   1.584   5.463 -0.1584 -0.2443  0.1334
25831SOL    HW180513   7.152   1.529   5.418 -0.3811 -0.1268  0.3051
25831SOL    HW280514   7.241   1.534   5.541  0.0523 -0.3452  0.0004
25832SOL     OW80515   5.646   6.096   3.824  0.4365 -0.5376  0.1126
25832SOL    HW180516   5.634   6.111   3.731  0.7264 -0.3660  0.1041
25832SOL    HW280517   5.558   6.098   3.861  0.3695 -0.1050 -0.0798
25833SOL     OW80518   3.906   3.784   5.674  0.2425  0.0279 -0.4835
25833SOL    HW180519   3.899   3.869   5.718  1.8457 -0.6147  1.0760
25833SOL    HW280520   3.902   3.805   5.581  0.3404  1.7751 -0.1179
25834SOL     OW80521   5.229   2.021   5.527 -0.2807  0.0214  0.2341
25834SOL    HW180522   5.150   1.968   5.531  0.1402 -0.6105  0.1429
25834SOL    HW280523   5.218   2.085   5.598 -1.0575  0.1987 -0.0371
25835SOL     OW80524   3.444   7.065   2.906 -0.8208 -0.4414 -0.3511
25835SOL    HW180525   3.455   7.045   2.813 -1.9611  0.9901 -0.8169
25835SOL    HW280526   3.459   7.160   2.912 -2.0152 -0.3081  0.7108
25836SOL     OW80527   4.003   7.902   6.507 -0.0602  0.2372 -0.3394
25836SOL    HW180528   3.936   7.900   6.439 -0.0130 -1.8651 -0.3339
25836SOL    HW280529   4.059   7.827   6.489  0.7021  0.3924  1.2749
25837SOL     OW80530   9.081   0.986   7.217 -0.2972 -0.2052 -0.4942
25837SOL    HW180531   9.021   0.965   7.146 -0.9851  1.6480 -0.4917
25837SOL    HW280532   9.167   0.962   7.184 -0.8630 -1.5576 -1.0397
25838SOL     OW80533   0.158   3.799   3.765  0.1330  0.0065 -0.0653
25838SOL    HW180534   0.075   3.795   3.812  1.1885 -0.0797  1.8081
25838SOL    HW280535   0.140   3.857   3.690 -1.8871 -0.8451 -0.2785
25839SOL     OW80536   5.955   6.636   5.862  0.2780  0.0396 -0.1202
25839SOL    HW180537   6.001   6.568   5.812 -1.0830 -0.0926 -1.2091
25839SOL    HW280538   5.965   6.610   5.954  2.1326 -0.1366 -0.3584
25840SOL     OW80539   5.843   1.340   1.727 -0.1137 -0.1740  0.2343
25840SOL    HW180540   5.810   1.409   1.670 -1.0399  0.3308  1.3511
25840SOL    HW280541   5.792   1.263   1.702  1.0835 -0.5268 -1.1702
25841SOL     OW80542   9.151   1.200   2.566  0.6607  0.1987  0.1299
25841SOL    HW180543   9.158   1.107   2.586 -0.5209  0.4009  1.6600
25841SOL    HW280544   9.211   1.215   2.493  0.7916 -1.7701 -0.1764
25842SOL     OW80545   6.870   6.260   6.772  0.3618 -0.0051  0.5517
25842SOL    HW180546   6.918   6.301   6.700 -0.0514  0.2056  0.3920
25842SOL    HW280547   6.802   6.209   6.729 -1.7972  2.5107  0.8301
25843SOL     OW80548   8.560   6.330   7.204  0.6308 -0.4680 -0.4576
25843SOL    HW180549   8.645   6.290   7.187  0.7233 -0.6512  0.3962
25843SOL    HW280550   8.581   6.417   7.238  0.4309  0.3637 -2.4261
25844SOL     OW80551   3.450   5.058   8.270  0.1071  0.7291 -0.0996
25844SOL    HW180552   3.400   4.976   8.278  1.1639  0.2330  1.7367
25844SOL    HW280553   3.407   5.105   8.198 -1.4356 -0.7799 -0.2139
25845SOL     OW80554   4.400   5.280   1.561 -0.9440  0.6821  0.1851
25845SOL    HW180555   4.362   5.253   1.645 -0.3708 -0.0080  0.2246
25845SOL    HW280556   4.350   5.232   1.495 -1.0313  0.7986  0.1679
25846SOL     OW80557   8.724   2.568   9.442  0.0499  0.0761  0.2215
25846SOL    HW180558   8.792   2.565   9.510 -0.4869  1.6847  0.8523
25846SOL    HW280559   8.691   2.479   9.438  2.5658 -0.8855 -0.4795
25847SOL     OW80560   0.449   3.587   0.379 -0.9136 -0.2026  0.1872
25847SOL    HW180561   0.470   3.631   0.462  0.0093 -0.5512  0.1460
25847SOL    HW280562   0.449   3.494   0.400  2.7626 -0.5452 -0.8856
25848SOL     OW80563   8.296   6.707   0.501 -0.0882 -0.2252 -0.3907
25848SOL    HW180564   8.272   6.763   0.575  1.3308  0.7083 -0.6094
25848SOL    HW280565   8.336   6.630   0.541 -0.3920 -0.2591 -0.1522
25849SOL     OW80566   0.490   5.300   3.875  0.2342  0.5269  0.2185
25849SOL    HW180567   0.405   5.268   3.905  0.7270 -0.8306  0.1782
25849SOL    HW280568   0.534   5.330   3.954  0.3043 -0.1617  0.4430
25850SOL     OW80569   7.203   4.760   4.810 -0.6858 -0.2461 -0.3453
25850SOL    HW180570   7.203   4.818   4.886 -0.6761 -0.0902 -0.4660
25850SOL    HW280571   7.150   4.685   4.838  0.0837 -0.6186  0.1427
25851SOL     OW80572   0.349   7.160   6.950 -0.1192 -0.2258  0.1335
25851SOL    HW180573   0.340   7.254   6.931  1.3807  0.3853  2.1802
25851SOL    HW280574   0.260   7.126   6.943 -0.3954  0.9214 -2.6280
25852SOL     OW80575   2.675   7.715   1.217  0.4009 -0.1358 -0.4358
25852SOL    HW180576   2.696   7.631   1.259 -0.6545 -0.9858 -1.5550
25852SOL    HW280577   2.583   7.730   1.240  0.3262  0.2548 -1.0030
25853SOL     OW80578   7.076   1.843   7.047  0.1196 -0.2062 -0.2571
25853SOL    HW180579   7.035   1.761   7.021 -1.4334  0.5705 -0.2616
25853SOL    HW280580   7.006   1.908   7.044  1.0582  0.8914  0.9350
25854SOL     OW80581   3.313   1.463   6.591 -0.1165 -0.3122 -0.2655
25854SOL    HW180582   3.252   1.421   6.651 -0.3677  0.3116 -0.0723
25854SOL    HW280583   3.399   1.454   6.634 -0.3729  0.6281  0.4723
25855SOL     OW80584   1.772   5.897   5.987  0.6532 -0.3545  0.0124
25855SOL    HW180585   1.716   5.824   5.963 -1.1405  1.0884 -0.2328
25855SOL    HW280586   1.761   5.905   6.082  2.3494 -1.6126  0.3355
25856SOL     OW80587   4.211   8.474   5.812 -0.1101 -0.1826 -0.3002
25856SOL    HW180588   4.193   8.403   5.873  0.7677 -0.1381  0.0222
25856SOL    HW280589   4.159   8.453   5.734  0.3027 -1.2938 -0.2858
25857SOL     OW80590   5.462   8.989   0.265 -0.1197  0.4750 -0.5072
25857SOL    HW180591   5.555   9.009   0.272 -0.1983  0.4914  0.6715
25857SOL    HW280592   5.447   8.920   0.330 -0.7218 -0.2838 -1.4350
25858SOL     OW80593   8.529   7.167   9.024  0.5138  0.3141  0.3371
25858SOL    HW180594   8.571   7.104   9.082  1.5042 -0.4759 -1.2132
25858SOL    HW280595   8.448   7.191   9.069  0.6908 -1.1831  1.4881
25859SOL     OW80596   1.706   6.878   4.780 -0.5203 -0.3455 -0.2363
25859SOL    HW180597   1.641   6.897   4.713 -0.6100 -1.3865 -0.4625
25859SOL    HW280598   1.683   6.790   4.812  0.8865 -0.8285 -0.4795
25860SOL     OW80599   7.084   3.033   6.586 -0.1927  0.0707 -0.5967
25860SOL    HW180600   7.047   3.018   6.673 -0.0663 -2.1085 -0.8938
25860SOL    HW280601   7.175   3.003   6.594  0.0678  0.6628 -1.2724
25861SOL     OW80602   0.227   7.008   0.747 -0.2866  0.3380 -0.2778
25861SOL    HW180603   0.228   6.994   0.842  0.6264  1.5617 -0.0897
25861SOL    HW280604   0.276   6.935   0.711 -0.1110  0.2000  0.2433
25862SOL     OW80605   7.088   0.977   6.329  0.1010 -0.4052 -0.3788
25862SOL    HW180606   7.135   1.060   6.326 -0.7599  0.0775 -0.9641
25862SOL    HW280607   7.109   0.939   6.414  2.4588 -0.7603 -1.0934
25863SOL     OW80608   5.200   2.205   5.733 -0.2489  0.4437  0.0067
25863SOL    HW180609   5.178   2.289   5.693  0.4583  0.6245 -0.0223
25863SOL    HW280610   5.138   2.196   5.805  1.0626  2.0480  1.3962
25864SOL     OW80611   7.127   8.491   7.182 -0.1205  0.0753  0.1513
25864SOL    HW180612   7.216   8.511   7.209 -0.0959 -0.2015  0.2827
25864SOL    HW280613   7.123   8.515   7.090  1.0501 -2.8794 -0.7347
25865SOL     OW80614   7.116   9.385   3.542  0.2711 -0.2805 -0.0881
25865SOL    HW180615   7.059   9.415   3.471 -0.5829 -0.1779  0.6256
25865SOL    HW280616   7.118   9.290   3.534  1.2966 -0.1814 -1.0873
25866SOL     OW80617   3.602   8.916   9.381  0.1709  0.0083 -0.4404
25866SOL    HW180618   3.632   8.827   9.398 -1.4279 -0.4885 -0.2259
25866SOL    HW280619   3.576   8.916   9.289 -2.1882 -0.4315  0.2061
25867SOL     OW80620   2.818   2.363   2.748  0.6271 -0.2458  0.7921
25867SOL    HW180621   2.767   2.302   2.801  0.0384 -0.9308 -0.5565
25867SOL    HW280622   2.889   2.310   2.711  0.3240 -0.0404 -0.0891
25868SOL     OW80623   3.470   1.439   1.548  0.2230  0.2417 -0.0013
25868SOL    HW180624   3.465   1.522   1.596  1.1645  0.9442 -1.0896
25868SOL    HW280625   3.546   1.449   1.491  0.9704 -1.8091  0.6240
25869SOL     OW80626   6.592   8.025   2.275  0.4875  0.1372 -0.4335
25869SOL    HW180627   6.615   7.939   2.311  0.3989  0.3139  0.0523
25869SOL    HW280628   6.676   8.067   2.259  0.5208  0.4622  0.5606
25870SOL     OW80629   8.157   6.583   1.573  0.4138 -0.4920 -0.0143
25870SOL    HW180630   8.146   6.566   1.666  0.8350  0.7562  0.2804
25870SOL    HW280631   8.070   6.605   1.542  0.3893 -0.2302  0.2366
25871SOL     OW80632   1.220   1.867   8.884 -0.4532  0.1179  0.3532
25871SOL    HW180633   1.184   1.779   8.884  0.4420 -0.2544  0.4781
25871SOL    HW280634   1.237   1.886   8.977  0.6716 -0.1236  0.1962
25872SOL     OW80635   6.100   4.875   3.610 -0.6665 -0.1789  0.3435
25872SOL    HW180636   6.031   4.811   3.595  1.3844 -2.2353 -0.7106
25872SOL    HW280637   6.143   4.846   3.691  1.0172 -0.8787 -0.7651
25873SOL     OW80638   1.842   6.913   3.824 -0.1127  0.1078  0.4509
25873SOL    HW180639   1.756   6.955   3.827 -0.4873 -0.6270  0.0478
25873SOL    HW280640   1.832   6.833   3.875  0.0576 -0.4900 -0.4475
25874SOL     OW80641   9.062   0.917   6.561  0.1612 -0.6369 -0.0556
25874SOL    HW180642   9.006   0.990   6.588 -0.3170 -1.3398  0.8549
25874SOL    HW280643   9.011   0.839   6.580  1.5496 -1.3017  0.9966
25875SOL     OW80644   2.839   7.081   6.938  0.3920  0.2844 -0.0544
25875SOL    HW180645   2.873   7.000   6.901  3.7542  0.2434  2.8259
25875SOL    HW280646   2.895   7.150   6.903 -0.8897  1.0898 -0.5634
25876SOL     OW80647   0.995   6.602   8.559  0.5243 -0.0631  0.0333
25876SOL    HW180648   0.902   6.612   8.541  0.5290 -0.5663 -0.2866
25876SOL    HW280649   1.029   6.552   8.484  1.2061  0.8303 -0.2626
25877SOL     OW80650   0.127   6.417   8.648 -0.1679 -0.4070 -0.1341
25877SOL    HW180651   0.113   6.512   8.643 -0.6694 -0.4351  0.6986
25877SOL    HW280652   0.170   6.404   8.733  2.1991 -0.6506 -1.3214
25878SOL     OW80653   1.897   0.804   7.707  0.2535 -0.5199  0.4965
25878SOL    HW180654   1.950   0.838   7.634 -0.3853  1.2053  0.8217
25878SOL    HW280655   1.816   0.775   7.665 -0.3016  0.9029  0.5719
25879SOL     OW80656   0.105   7.150   4.837  0.2027 -0.1234  0.2902
25879SOL    HW180657   0.200   7.158   4.838  0.2874 -0.9313 -0.4612
25879SOL    HW280658   0.085   7.097   4.914  0.3847 -0.1386  0.3273
25880SOL     OW80659   0.718   6.603   4.028  0.1910  0.5455  0.0957
25880SOL    HW180660   0.693   6.650   4.107 -0.2215 -1.2029  1.0159
25880SOL    HW280661   0.659   6.636   3.961  0.2895  1.7491  0.5913
25881SOL     OW80662   2.932   9.185   2.051 -0.1626  0.3474 -0.5008
25881SOL    HW180663   2.944   9.202   1.958  0.5002  0.9056 -0.3137
25881SOL    HW280664   2.964   9.096   2.063  1.1926  0.8208 -0.5294
25882SOL     OW80665   5.478   3.245   8.896  0.2639 -0.1641  0.2047
25882SOL    HW180666   5.564   3.222   8.862 -0.4210 -1.8151 -0.4538
25882SOL    HW280667   5.440   3.162   8.925 -2.1770  0.0797 -2.0327
25883SOL     OW80668   9.376   5.200   8.436 -0.3090  0.1073 -0.2851
25883SOL    HW180669   9.401   5.272   8.377 -2.4988  0.7899 -0.4082
25883SOL    HW280670   9.285   5.182   8.414 -0.4576 -1.1894  1.3374
25884SOL     OW80671   3.180   4.015   4.920 -0.1574 -0.4848  0.6744
25884SOL    HW180672   3.101   4.049   4.877 -0.0671  0.9636  1.6092
25884SOL    HW280673   3.252   4.055   4.872 -0.0188 -0.7172  0.6904
25885SOL     OW80674   1.120   2.102   4.542  0.3093 -0.0459 -0.0493
25885SOL    HW180675   1.184   2.069   4.605  0.3983 -1.3527 -0.7947
25885SOL    HW280676   1.038   2.059   4.565  0.0967  0.2980 -0.1586
25886SOL     OW80677   1.939   1.645   1.685  0.2648 -0.0055 -0.0375
25886SOL    HW180678   1.948   1.675   1.594  2.4073  0.3423  0.2690
25886SOL    HW280679   1.983   1.560   1.687 -0.4597 -0.3806  0.5176
25887SOL     OW80680   6.551   5.116   3.288 -0.4376  0.1889 -0.1543
25887SOL    HW180681   6.591   5.203   3.280 -1.7634  0.8060 -0.1724
25887SOL    HW280682   6.470   5.122   3.238 -0.0849 -1.3532 -0.9437
25888SOL     OW80683   4.334   3.412   6.499  0.4905  0.1569  0.0010
25888SOL    HW180684   4.334   3.327   6.454 -0.3890  0.4766 -0.6086
25888SOL    HW280685   4.388   3.468   6.444 -0.4676  0.5070 -0.6095
25889SOL     OW80686   6.651   5.934   7.281 -0.1560  0.0888  1.0045
25889SOL    HW180687   6.660   6.018   7.327  0.4267  0.4606  0.2353
25889SOL    HW280688   6.734   5.924   7.234 -1.5170  0.7354 -1.6459
25890SOL     OW80689   3.456   7.853   6.288 -0.3922 -0.2294 -0.5666
25890SOL    HW180690   3.394   7.921   6.313 -0.1926 -0.5356  0.8373
25890SOL    HW280691   3.481   7.813   6.371  2.2014  0.3458 -1.0176
25891SOL     OW80692   7.761   2.355   2.640 -0.1867  0.2950 -0.4003
25891SOL    HW180693   7.743   2.374   2.548 -1.3136 -1.8926 -0.6614
25891SOL    HW280694   7.747   2.261   2.649  0.1333  0.4308  1.9668
25892SOL     OW80695   0.932   3.329   2.398  0.3164 -0.7015 -0.3693
25892SOL    HW180696   0.928   3.354   2.306 -1.6715 -2.9353 -0.9075
25892SOL    HW280697   0.866   3.384   2.441 -0.3346 -1.2509 -0.6624
25893SOL     OW80698   0.691   6.805   0.349  0.4159 -0.1789  0.4482
25893SOL    HW180699   0.650   6.725   0.383 -0.2562 -0.0826 -0.1356
25893SOL    HW280700   0.785   6.791   0.364  0.4803 -1.8884 -1.3434
25894SOL     OW80701   3.931   6.752   1.671 -0.3831 -0.4737  0.3273
25894SOL    HW180702   3.987   6.675   1.669 -0.1839 -0.3204 -0.3452
25894SOL    HW280703   3.842   6.718   1.670 -0.2940 -0.7048  0.2243
25895SOL     OW80704   5.292   4.059   0.039 -0.4306 -0.0676  0.1375
25895SOL    HW180705   5.370   4.035   0.088  0.6805  1.8205 -0.6658
25895SOL    HW280706   5.219   4.025   0.092  0.7920  0.6995  2.3556
25896SOL     OW80707   6.663   5.976   2.950  0.8282  0.1417  0.2720
25896SOL    HW180708   6.702   5.967   3.037 -1.6572 -2.9674  1.1636
25896SOL    HW280709   6.689   5.897   2.904 -1.3798 -0.2765 -0.3214
25897SOL     OW80710   3.591   3.744   7.859 -0.1999  0.1021  0.2154
25897SOL    HW180711   3.586   3.838   7.873 -0.0232 -0.0087  1.0527
25897SOL    HW280712   3.656   3.714   7.922 -0.7483 -0.6703  0.4227
25898SOL     OW80713   5.112   3.551   3.064  0.3519 -0.3200 -0.0246
25898SOL    HW180714   5.039   3.614   3.066 -0.2850 -1.1083  1.8279
25898SOL    HW280715   5.190   3.606   3.052 -0.3854  0.6485 -0.5162
25899SOL     OW80716   2.291   0.583   8.209  0.4635 -0.4693  0.7443
25899SOL    HW180717   2.349   0.626   8.147  0.5389  0.7087  1.6133
25899SOL    HW280718   2.215   0.640   8.214  0.1413 -0.9346  1.1844
25900SOL     OW80719   2.211   1.926   9.234 -0.2750  0.4824  0.5735
25900SOL    HW180720   2.148   1.941   9.304  0.6545  0.7754  1.3525
25900SOL    HW280721   2.236   1.834   9.243 -2.7093 -0.4633 -1.5174
25901SOL     OW80722   2.382   2.392   8.827  0.0172  0.7592 -0.3073
25901SOL    HW180723   2.459   2.421   8.777  0.8270  1.1965  1.1655
25901SOL    HW280724   2.323   2.467   8.825 -0.0759  0.6771 -0.8329
25902SOL     OW80725   1.367   5.500   4.495 -0.1005 -0.2425  1.0143
25902SOL    HW180726   1.392   5.409   4.484 -0.2527 -0.4048  2.0020
25902SOL    HW280727   1.449   5.545   4.517  0.6790  0.5137 -3.0898
25903SOL     OW80728   4.628   8.200   4.574  0.0914 -0.4651  0.2282
25903SOL    HW180729   4.550   8.170   4.620 -1.2110  0.5688 -1.2795
25903SOL    HW280730   4.596   8.265   4.512  2.1490 -0.0506 -0.4285
25904SOL     OW80731   3.461   2.757   7.151  0.0038  0.1619  0.0663
25904SOL    HW180732   3.502   2.838   7.181  0.0525 -0.7681  2.6960
25904SOL    HW280733   3.446   2.707   7.231 -1.5629 -1.7207 -1.3468
25905SOL     OW80734   3.712   0.636   5.860  0.8315 -1.0898  0.7543
25905SOL    HW180735   3.662   0.701   5.910  0.9765 -3.1486  3.7482
25905SOL    HW280736   3.646   0.581   5.819  0.7036  0.2004 -0.7907
25906SOL     OW80737   6.240   6.443   6.120  0.2767  0.1756 -0.1977
25906SOL    HW180738   6.266   6.391   6.044 -1.7146 -0.3248 -0.5796
25906SOL    HW280739   6.194   6.381   6.177 -0.1598  1.0322  0.4031
25907SOL     OW80740   3.152   8.194   2.361 -0.2694 -0.3381 -0.0175
25907SOL    HW180741   3.133   8.249   2.438 -1.7405 -0.3811 -0.3371
25907SOL    HW280742   3.067   8.160   2.335  0.5696 -2.4119 -0.1206
25908SOL     OW80743   9.184   9.386   5.125 -0.2852 -0.9676  0.8356
25908SOL    HW180744   9.278   9.385   5.109  0.0390 -0.0381  2.5444
25908SOL    HW280745   9.156   9.473   5.098 -0.7009 -1.3419  0.0623
25909SOL     OW80746   2.453   2.094   6.157 -0.8530 -0.2614 -0.0219
25909SOL    HW180747   2.394   2.101   6.232  0.4531  1.1812  0.8922
25909SOL    HW280748   2.516   2.165   6.169 -0.3482 -0.2987 -2.2443
25910SOL     OW80749   3.079   3.099   1.601 -0.3462  0.1450  0.0532
25910SOL    HW180750   3.018   3.050   1.545 -0.5972 -1.5542  1.7524
25910SOL    HW280751   3.043   3.090   1.689  0.0305  2.8126  0.5145
25911SOL     OW80752   2.999   7.085   2.511 -0.6059 -0.5576  0.1327
25911SOL    HW180753   2.905   7.071   2.506 -0.6261 -0.1518 -0.7824
25911SOL    HW280754   3.036   7.019   2.451 -0.2976 -0.8434  0.6346
25912SOL     OW80755   6.685   9.115   0.829 -0.4028 -0.0527  0.0337
25912SOL    HW180756   6.764   9.130   0.880 -0.3569  1.2629 -0.4002
25912SOL    HW280757   6.696   9.028   0.791  0.9315  0.2184 -0.2027
25913SOL     OW80758   4.350   0.148   7.625 -0.7321 -0.2160  0.0256
25913SOL    HW180759   4.390   0.204   7.691 -0.2893  0.5194 -0.8436
25913SOL    HW280760   4.407   0.159   7.548 -2.2980  0.4197 -1.0648
25914SOL     OW80761   5.171   5.692   4.811 -0.0758  0.0805  0.4149
25914SOL    HW180762   5.139   5.739   4.734  0.8967  0.8562  0.4652
25914SOL    HW280763   5.267   5.694   4.801  0.0420 -0.0562  1.5028
25915SOL     OW80764   3.359   4.337   2.054  0.2321 -0.3989  0.0261
25915SOL    HW180765   3.271   4.301   2.064 -0.7862  1.7425 -0.9221
25915SOL    HW280766   3.370   4.393   2.131  0.5765 -0.2553 -0.1313
25916SOL     OW80767   8.462   7.601   0.036  0.1188  0.4297 -0.0145
25916SOL    HW180768   8.488   7.630  -0.051 -0.9363  0.8578 -0.1986
25916SOL    HW280769   8.366   7.601   0.034  0.0652  1.6177  1.5208
25917SOL     OW80770   0.444   9.148   7.765  0.1441 -0.2773 -0.3578
25917SOL    HW180771   0.384   9.093   7.815 -0.2932  0.8383  0.3598
25917SOL    HW280772   0.521   9.157   7.821  1.2856 -2.2236 -1.5341
25918SOL     OW80773   9.043   4.218   7.002  0.1736  0.2263 -0.0274
25918SOL    HW180774   9.009   4.189   6.918  0.1054  0.3871 -0.0555
25918SOL    HW280775   9.128   4.258   6.982  0.8237 -1.0183  0.1537
25919SOL     OW80776   8.290   4.863   2.931  1.1653 -0.0577  0.1319
25919SOL    HW180777   8.227   4.886   3.000  0.3169 -0.0413 -0.6328
25919SOL    HW280778   8.346   4.797   2.971  0.8667  0.1650  0.9352
25920SOL     OW80779   7.934   0.335   6.825  0.0226  0.2789  0.4234
25920SOL    HW180780   7.979   0.369   6.902  0.3452 -1.0217  0.8239
25920SOL    HW280781   7.989   0.262   6.795 -1.0211 -0.3429  0.0020
25921SOL     OW80782   1.835   8.510   0.723 -0.0216 -0.2729 -0.2101
25921SOL    HW180783   1.903   8.523   0.657 -0.5244 -1.1529 -0.9166
25921SOL    HW280784   1.877   8.533   0.806  0.1723  2.2439 -0.9820
25922SOL     OW80785   8.081   1.998   4.471  0.2232 -0.2294 -0.0841
25922SOL    HW180786   8.057   1.919   4.424  1.3687 -0.4279 -0.3430
25922SOL    HW280787   8.085   1.971   4.563 -1.4337  0.0222  0.0748
25923SOL     OW80788   8.115   8.044   4.884 -0.2478 -0.6404 -0.9938
25923SOL    HW180789   8.201   8.018   4.853  1.6366  1.6744  1.9869
25923SOL    HW280790   8.071   8.081   4.808  2.4119  0.5443 -2.0040
25924SOL     OW80791   3.565   7.859   4.085  0.0331 -0.2726 -0.4070
25924SOL    HW180792   3.527   7.779   4.049 -0.6309 -0.6895  1.1415
25924SOL    HW280793   3.493   7.923   4.081  0.6676  0.3686 -1.9687
25925SOL     OW80794   0.314   4.661   6.508 -0.3929 -0.2141 -0.3647
25925SOL    HW180795   0.232   4.650   6.459 -1.0873 -0.6939  0.8880
25925SOL    HW280796   0.381   4.621   6.452 -0.9705  0.4253 -1.5218
25926SOL     OW80797   6.657   8.532   0.723  0.2804 -0.2260 -0.2307
25926SOL    HW180798   6.617   8.537   0.636 -0.3878  0.2677  0.0970
25926SOL    HW280799   6.605   8.468   0.771  1.6554 -1.7317 -0.7005
25927SOL     OW80800   1.811   4.656   0.678  0.2497 -0.4446 -0.2023
25927SOL    HW180801   1.866   4.659   0.600  0.2609  0.5294 -0.1602
25927SOL    HW280802   1.726   4.627   0.647 -0.9107  3.7195 -1.2871
25928SOL     OW80803   0.760   5.425   1.175  0.1591  0.3432  0.1147
25928SOL    HW180804   0.677   5.380   1.161  0.4478 -0.0229 -0.4272
25928SOL    HW280805   0.826   5.356   1.174  0.4061  0.5535  1.2445
25929SOL     OW80806   3.290   5.801   3.556  0.8633 -0.0547  0.4340
25929SOL    HW180807   3.243   5.719   3.549  2.4195 -0.9653  0.4544
25929SOL    HW280808   3.377   5.783   3.520  0.9462  1.8142 -0.4031
25930SOL     OW80809   8.553   4.032   8.098  0.0020 -0.2166  0.1569
25930SOL    HW180810   8.529   3.993   8.182 -0.5047 -0.1197  0.0553
25930SOL    HW280811   8.535   3.964   8.034 -1.4149  0.3812 -0.0859
25931SOL     OW80812   2.579   4.059   3.846  0.1061  0.0327 -0.0988
25931SOL    HW180813   2.543   4.075   3.934  3.3370 -0.3268  1.3676
25931SOL    HW280814   2.540   4.128   3.792 -0.6830  1.2954  1.9937
25932SOL     OW80815   5.702   7.991   1.193 -0.5480 -0.3543 -0.0604
25932SOL    HW180816   5.707   8.031   1.106  3.9560  1.2986  0.8249
25932SOL    HW280817   5.736   7.902   1.180 -0.5371 -0.3472 -0.0844
25933SOL     OW80818   3.341   9.242   2.601  0.1594  0.2588 -0.3890
25933SOL    HW180819   3.302   9.155   2.612 -0.1843  0.2003 -1.9642
25933SOL    HW280820   3.434   9.229   2.621 -0.1446 -0.1565  0.8009
25934SOL     OW80821   8.163   8.508   1.337 -0.1894  0.3019 -0.7264
25934SOL    HW180822   8.162   8.595   1.296  0.2710  1.4198  1.5464
25934SOL    HW280823   8.075   8.499   1.375 -0.0268  0.0481 -0.4087
25935SOL     OW80824   5.409   6.529   4.578  0.9714 -0.6127  0.1956
25935SOL    HW180825   5.376   6.442   4.556  0.2430 -0.2771 -0.0571
25935SOL    HW280826   5.331   6.579   4.603  1.4555 -0.1927  0.8889
25936SOL     OW80827   1.063   6.268   3.468  0.1667 -0.1058 -0.5837
25936SOL    HW180828   1.066   6.209   3.393  1.6322 -0.1016 -0.5430
25936SOL    HW280829   1.109   6.222   3.537 -0.3630  0.2877  0.0328
25937SOL     OW80830   8.825   0.680   2.678 -0.7790  0.3286  0.0786
25937SOL    HW180831   8.871   0.710   2.756  1.9600 -1.7014 -0.6337
25937SOL    HW280832   8.782   0.599   2.706  0.7592 -0.7611 -0.6273
25938SOL     OW80833   5.467   2.905   0.802 -0.3618  0.4804 -0.1335
25938SOL    HW180834   5.493   2.965   0.871 -0.6425  0.6321 -0.1609
25938SOL    HW280835   5.426   2.831   0.848  3.2403 -1.4221  0.1853
25939SOL     OW80836   5.395   7.478   4.027  0.1408  0.1951  0.3109
25939SOL    HW180837   5.397   7.562   3.983 -0.7819 -0.1202 -0.3487
25939SOL    HW280838   5.357   7.496   4.113 -1.0662  0.2822 -0.2289
25940SOL     OW80839   1.177   0.498   2.109 -0.1562  0.3085 -0.5347
25940SOL    HW180840   1.132   0.514   2.026 -0.6519 -0.2776 -0.3876
25940SOL    HW280841   1.107   0.470   2.168  0.2567  0.3288 -0.0343
25941SOL     OW80842   1.710   6.256   3.709  0.5697 -0.2838 -0.3568
25941SOL    HW180843   1.777   6.272   3.775 -0.8690  0.3208  0.9698
25941SOL    HW280844   1.753   6.200   3.645  1.6740 -1.7332  1.6096
25942SOL     OW80845   1.152   7.427   8.301 -0.3391 -0.4646 -0.1192
25942SOL    HW180846   1.078   7.446   8.243 -1.4002  2.2841  2.0174
25942SOL    HW280847   1.214   7.497   8.283  0.2372 -0.7967  0.5699
25943SOL     OW80848   5.757   8.123   1.516 -0.4938  0.0830 -0.2518
25943SOL    HW180849   5.783   8.128   1.608 -0.1257  0.1128 -0.3538
25943SOL    HW280850   5.729   8.212   1.494 -2.1429 -0.3080  0.2785
25944SOL     OW80851   2.001   4.756   6.434 -0.5487 -0.5567 -0.5605
25944SOL    HW180852   2.074   4.735   6.376  0.8641  0.7505  0.6625
25944SOL    HW280853   2.043   4.774   6.518 -2.2788  0.3425  0.1281
25945SOL     OW80854   8.320   3.061   7.907 -0.0914  0.1738  0.1920
25945SOL    HW180855   8.229   3.047   7.881  0.3131 -0.2945 -1.0563
25945SOL    HW280856   8.317   3.130   7.973 -1.2260  1.1875 -0.8940
25946SOL     OW80857   6.571   4.651   7.621  0.2729  0.3980 -0.1665
25946SOL    HW180858   6.491   4.700   7.606  0.9188  2.0798  1.7061
25946SOL    HW280859   6.637   4.718   7.638  1.9377 -0.9941 -0.9756
25947SOL     OW80860   3.540   2.693   5.545  0.0943  0.5258 -0.2753
25947SOL    HW180861   3.633   2.712   5.532  0.1839  1.0716  1.1573
25947SOL    HW280862   3.506   2.769   5.593 -1.3444  0.8498 -1.7481
25948SOL     OW80863   2.202   1.279   2.966 -0.3614 -0.3364  0.1307
25948SOL    HW180864   2.165   1.221   3.033 -0.5590 -3.6374 -2.6935
25948SOL    HW280865   2.127   1.308   2.915 -0.0956  1.3187  0.6405
25949SOL     OW80866   4.432   9.120   8.302 -0.0451 -0.5745 -0.6896
25949SOL    HW180867   4.406   9.038   8.260  0.9428 -0.8196 -0.8254
25949SOL    HW280868   4.510   9.149   8.254 -0.2079  0.2859 -0.4461
25950SOL     OW80869   2.964   9.410   4.329  0.2121  0.3149 -0.3025
25950SOL    HW180870   3.004   9.421   4.242  0.4418 -1.0657 -0.3730
25950SOL    HW280871   3.032   9.370   4.382 -0.8866 -1.5317 -0.2679
25951SOL     OW80872   0.422   7.375   2.183 -0.0111  0.0744 -0.1411
25951SOL    HW180873   0.487   7.401   2.249  0.5431 -0.8369 -0.3204
25951SOL    HW280874   0.471   7.319   2.122 -0.6882  0.3365 -0.9378
25952SOL     OW80875   1.986   7.006   2.506 -0.2018 -0.0716 -0.0451
25952SOL    HW180876   2.080   7.002   2.521 -0.3048 -0.5018  0.5177
25952SOL    HW280877   1.948   6.961   2.581 -0.7636 -1.9382 -1.4110
25953SOL     OW80878   7.642   3.485   3.689  0.0919 -0.1880  0.0416
25953SOL    HW180879   7.569   3.517   3.743  0.3815  1.0908 -0.2916
25953SOL    HW280880   7.600   3.441   3.615 -0.3828  1.4445 -0.6935
25954SOL     OW80881   2.503   8.053   7.047 -0.2702  0.0570 -0.3474
25954SOL    HW180882   2.419   8.016   7.021 -0.4229  0.6662 -0.7363
25954SOL    HW280883   2.495   8.146   7.028  1.4451 -0.2759 -2.9491
25955SOL     OW80884   4.690   3.628   8.701  0.3889 -0.6221 -0.2237
25955SOL    HW180885   4.767   3.628   8.758 -0.1175 -3.9544  0.5436
25955SOL    HW280886   4.723   3.603   8.615 -0.0975 -4.2523  0.5893
25956SOL     OW80887   4.404   3.814   1.702 -0.3127 -0.7476 -0.9855
25956SOL    HW180888   4.382   3.866   1.778 -0.3821 -1.0112 -0.8262
25956SOL    HW280889   4.488   3.850   1.672  0.9629 -2.2161  0.6607
25957SOL     OW80890   3.540   4.563   7.526 -0.0374  0.2069  0.2328
25957SOL    HW180891   3.601   4.635   7.517 -0.0847  0.0286 -1.9669
25957SOL    HW280892   3.569   4.498   7.461 -1.5065 -0.6196  0.3542
25958SOL     OW80893   5.487   3.149   9.301 -0.1674 -0.5463  0.2019
25958SOL    HW180894   5.474   3.096   9.223  1.2988  0.1725 -0.5626
25958SOL    HW280895   5.579   3.175   9.296  0.2468 -1.4479  2.7785
25959SOL     OW80896   2.860   6.258   1.114  0.2918 -0.8826 -0.0551
25959SOL    HW180897   2.869   6.169   1.081 -2.5994 -0.3889 -2.3463
25959SOL    HW280898   2.885   6.314   1.040 -0.2055  0.2501  0.6122
25960SOL     OW80899   7.888   1.718   5.614  0.0762  0.2041  0.2586
25960SOL    HW180900   7.827   1.790   5.632  0.1775  0.1900  0.6806
25960SOL    HW280901   7.898   1.717   5.519  0.2039  0.8585  0.2635
25961SOL     OW80902   0.073   1.486   3.585 -0.3390  0.1202 -0.0317
25961SOL    HW180903   0.075   1.434   3.504 -0.2969  0.6453 -0.3705
25961SOL    HW280904   0.158   1.471   3.625 -0.5739 -0.5978  0.2049
25962SOL     OW80905   4.683   7.820   5.596  0.4033 -0.3482  0.4972
25962SOL    HW180906   4.695   7.725   5.594  1.0385 -0.2488 -0.3391
25962SOL    HW280907   4.616   7.837   5.530 -0.5902 -0.3334  1.4860
25963SOL     OW80908   8.656   7.454   0.412 -0.1217 -0.1441 -0.4339
25963SOL    HW180909   8.722   7.408   0.463 -1.2066 -2.6018 -1.2033
25963SOL    HW280910   8.573   7.412   0.435 -1.1195  1.2574 -1.3344
25964SOL     OW80911   5.518   3.734   3.115  0.1420 -0.2515 -0.4151
25964SOL    HW180912   5.559   3.649   3.130  0.8481  0.4355  1.7322
25964SOL    HW280913   5.463   3.748   3.192 -0.6220  0.8666 -1.1439
25965SOL     OW80914   6.071   2.856   3.148  0.0962 -0.1246  0.7319
25965SOL    HW180915   6.149   2.801   3.135 -0.7017 -1.3031  0.8782
25965SOL    HW280916   6.063   2.905   3.066 -0.3729 -1.7555 -0.2279
25966SOL     OW80917   8.647   0.132   1.997 -0.6641 -0.0366  0.1423
25966SOL    HW180918   8.551   0.135   2.001 -0.7418 -1.2659 -0.5131
25966SOL    HW280919   8.666   0.072   1.925  0.6002 -2.1595  2.1664
25967SOL     OW80920   7.903   6.193   0.007 -0.2884 -1.0894  0.1129
25967SOL    HW180921   7.902   6.109  -0.039 -0.2708 -1.6102  1.0679
25967SOL    HW280922   7.827   6.240  -0.028  0.4212 -1.0028 -1.3430
25968SOL     OW80923   6.178   2.734   1.822  0.0991 -0.2459 -0.1166
25968SOL    HW180924   6.274   2.734   1.824  0.0784 -0.5936  1.7151
25968SOL    HW280925   6.156   2.716   1.730  1.7716  0.7654 -0.7367
25969SOL     OW80926   1.808   7.145   8.968  0.0291 -0.1877  0.0407
25969SOL    HW180927   1.790   7.163   9.060 -0.9599  0.7272 -0.3316
25969SOL    HW280928   1.765   7.061   8.951  2.8708 -1.9517  1.2171
25970SOL     OW80929   9.390   1.681   9.307  0.2719  0.2581  0.1638
25970SOL    HW180930   9.328   1.629   9.256 -0.0557  1.2607 -0.4787
25970SOL    HW280931   9.401   1.761   9.256  0.6424  0.8894  1.2251
25971SOL     OW80932   2.048   2.726   4.346 -0.2341  0.2664  0.1863
25971SOL    HW180933   2.132   2.770   4.331  1.5754 -1.1817  4.9957
25971SOL    HW280934   2.003   2.782   4.409 -2.0430 -0.0042 -0.8454
25972SOL     OW80935   2.691   4.542   6.403  0.0307  0.3096 -0.3686
25972SOL    HW180936   2.736   4.481   6.461 -1.9030  0.6387  1.5547
25972SOL    HW280937   2.744   4.544   6.324  1.7508 -1.5489  0.6973
25973SOL     OW80938   5.854   5.169   8.332 -0.1507  0.1856 -0.3123
25973SOL    HW180939   5.804   5.093   8.361  1.0826 -0.5778 -0.1387
25973SOL    HW280940   5.852   5.229   8.407  3.3389 -1.9342  1.6196
25974SOL     OW80941   4.236   3.458   4.580 -0.1649 -0.3927  0.4769
25974SOL    HW180942   4.264   3.378   4.537 -0.3934 -0.9991  1.4360
25974SOL    HW280943   4.313   3.486   4.630  0.2916  0.6282 -0.7565
25975SOL     OW80944   8.410   2.906   4.970  0.2477 -0.0515 -0.5578
25975SOL    HW180945   8.393   2.909   4.876 -1.5808 -0.7266 -0.2809
25975SOL    HW280946   8.410   2.997   4.999  0.6518  0.1442 -1.1787
25976SOL     OW80947   8.807   5.698   8.114  0.1655  0.0302 -0.0313
25976SOL    HW180948   8.899   5.683   8.139 -0.1913 -0.3919  1.0447
25976SOL    HW280949   8.812   5.728   8.024  1.2976 -1.0671 -0.3492
25977SOL     OW80950   6.853   7.507   1.867 -0.1424  0.0907  0.1627
25977SOL    HW180951   6.864   7.447   1.794  1.5627  1.8811 -1.0956
25977SOL    HW280952   6.928   7.566   1.862 -1.3973  1.9236  1.7590
25978SOL     OW80953   9.210   9.222   6.594  0.6164 -0.0657  0.5380
25978SOL    HW180954   9.216   9.311   6.561  0.9356 -0.3973 -0.3080
25978SOL    HW280955   9.285   9.213   6.653  0.7350  0.1425  0.4216
25979SOL     OW80956   5.741   6.790   5.977  0.0106 -0.1497 -0.1683
25979SOL    HW180957   5.805   6.854   5.947  0.3054 -0.5294 -0.3568
25979SOL    HW280958   5.786   6.706   5.969 -0.9846 -0.5624 -1.6324
25980SOL     OW80959   5.703   4.538   8.113 -0.2287 -0.0835 -0.2428
25980SOL    HW180960   5.735   4.580   8.193  0.8631  0.1219 -0.7740
25980SOL    HW280961   5.678   4.450   8.140 -0.4315  0.1842  0.4486
25981SOL     OW80962   8.198   8.810   5.754 -0.6098 -0.4416 -0.4028
25981SOL    HW180963   8.230   8.900   5.749 -0.9749 -0.2405  0.8222
25981SOL    HW280964   8.272   8.757   5.724  0.4373  0.1011  1.1605
25982SOL     OW80965   6.790   3.852   2.073  0.1820  0.6940 -0.6423
25982SOL    HW180966   6.760   3.788   2.008 -2.8242  2.5125 -1.1607
25982SOL    HW280967   6.880   3.873   2.046  1.3002 -3.3207 -0.3772
25983SOL     OW80968   4.732   2.443   0.292  0.9945 -0.3550 -0.5428
25983SOL    HW180969   4.665   2.463   0.358 -0.2660 -0.6626 -1.6997
25983SOL    HW280970   4.815   2.449   0.339  0.0920 -0.9381  1.1611
25984SOL     OW80971   0.020   0.433   5.071  0.6983  0.0026 -0.7204
25984SOL    HW180972  -0.033   0.513   5.077  0.1582 -0.4702  1.3417
25984SOL    HW280973   0.001   0.398   4.984 -2.2249 -0.0005 -0.1462
25985SOL     OW80974   6.417   8.733   0.850 -0.1878 -0.3264 -0.2337
25985SOL    HW180975   6.425   8.775   0.764  4.4591 -0.3128  0.0611
25985SOL    HW280976   6.453   8.797   0.911 -1.5484 -1.1582  1.4738
25986SOL     OW80977   5.364   0.176   2.348  0.1144 -0.0923  0.5846
25986SOL    HW180978   5.431   0.234   2.311  1.0797 -0.4083  1.8272
25986SOL    HW280979   5.282   0.224   2.336  0.7190  0.8708  0.2527
25987SOL     OW80980   0.503   5.740   7.028 -0.2755  0.1850  0.5452
25987SOL    HW180981   0.558   5.709   7.100  0.5601 -1.6078 -0.8247
25987SOL    HW280982   0.421   5.766   7.070  0.7080  0.5569  2.3055
25988SOL     OW80983   8.731   8.335   2.588  0.3245  0.6176  0.3818
25988SOL    HW180984   8.691   8.415   2.555 -0.7137 -0.7131 -1.6564
25988SOL    HW280985   8.672   8.265   2.561  1.5624 -0.9170  1.5284
25989SOL     OW80986   9.027   4.762   1.734  0.2134  0.3657  0.4746
25989SOL    HW180987   9.011   4.679   1.688  0.4590  0.5860 -0.0113
25989SOL    HW280988   8.960   4.765   1.802 -0.5113  0.3077 -0.2346
25990SOL     OW80989   9.220   0.617   7.771 -0.1337 -0.1835  0.3594
25990SOL    HW180990   9.183   0.705   7.762 -0.9929 -0.7115 -1.6239
25990SOL    HW280991   9.195   0.589   7.859 -0.1910  1.3977  0.8601
25991SOL     OW80992   5.454   8.132   3.431  0.4183  0.1862  0.9713
25991SOL    HW180993   5.458   8.182   3.350 -0.7984 -0.3153  0.5823
25991SOL    HW280994   5.473   8.196   3.500 -0.7556  1.1276  0.4569
25992SOL     OW80995   5.903   2.240   2.829 -0.4033  0.0983  0.5560
25992SOL    HW180996   5.809   2.234   2.809 -0.6724 -0.2554  1.8644
25992SOL    HW280997   5.945   2.187   2.762 -1.2768 -1.0516  0.8924
25993SOL     OW80998   8.801   6.770   9.343 -0.0886  0.1790  0.2714
25993SOL    HW180999   8.795   6.840   9.408 -0.5468  1.0748 -0.7242
25993SOL    HW281000   8.817   6.815   9.260 -0.8800 -0.8511 -0.4551
25994SOL     OW81001   0.156   5.077   0.585  0.6800  0.1493 -0.4473
25994SOL    HW181002   0.117   5.147   0.638  0.7352 -0.0984 -0.0798
25994SOL    HW281003   0.232   5.048   0.636  1.0699  0.3016 -0.9326
25995SOL     OW81004   5.562   8.505   0.888 -0.4856 -0.1438 -0.5666
25995SOL    HW181005   5.635   8.548   0.844  0.9009 -0.5299  1.2915
25995SOL    HW281006   5.523   8.448   0.821  1.4936 -0.6434 -1.3345
25996SOL     OW81007   6.697   6.306   0.944 -0.3754  0.0771  0.6885
25996SOL    HW181008   6.732   6.217   0.952 -1.7337 -0.5335 -0.0748
25996SOL    HW281009   6.775   6.360   0.928  0.5004 -0.9086  1.5124
25997SOL     OW81010   7.388   0.450   3.002  0.5035 -0.0392  0.3494
25997SOL    HW181011   7.322   0.502   3.048 -0.5147 -2.1637  1.3310
25997SOL    HW281012   7.384   0.482   2.912 -1.8779 -0.1367  0.3833
25998SOL     OW81013   5.757   1.567   6.993  0.0653  0.4876  0.1560
25998SOL    HW181014   5.764   1.659   6.966 -2.4315  0.6712  0.0809
25998SOL    HW281015   5.709   1.570   7.075  2.3242 -0.5779  1.5820
25999SOL     OW81016   6.559   3.773   8.946 -0.3289  0.5952  0.1437
25999SOL    HW181017   6.568   3.754   8.853  0.2091  0.7466  0.1628
25999SOL    HW281018   6.465   3.784   8.960 -0.4433  0.1747 -0.3025
26000SOL     OW81019   1.468   2.418   5.105  0.0616 -0.5368 -0.4790
26000SOL    HW181020   1.386   2.434   5.059  0.2474 -0.5632 -0.8200
26000SOL    HW281021   1.441   2.399   5.195 -0.2750 -0.1132 -0.4902
26001SOL     OW81022   0.126   4.342   6.375  0.7907 -0.3076 -0.7239
26001SOL    HW181023   0.083   4.256   6.372  0.9119 -0.3373 -2.1094
26001SOL    HW281024   0.164   4.347   6.463 -2.0830 -0.2476  0.5736
26002SOL     OW81025   1.134   1.858   0.154 -0.4324 -0.6536 -1.1325
26002SOL    HW181026   1.202   1.909   0.110  0.9619 -1.3540  0.1351
26002SOL    HW281027   1.070   1.923   0.182  0.7401  0.2757 -0.5446
26003SOL     OW81028   0.277   6.089   6.447  0.2517 -0.0490 -0.6370
26003SOL    HW181029   0.331   6.026   6.400  0.0519  0.6312 -1.8022
26003SOL    HW281030   0.223   6.036   6.505  2.1414 -0.7495  0.5361
26004SOL     OW81031   7.623   7.530   3.158 -0.4588 -0.0973  0.3727
26004SOL    HW181032   7.645   7.526   3.251  2.1082  0.9576 -0.1175
26004SOL    HW281033   7.685   7.470   3.117  1.6065  2.8366 -1.0763
26005SOL     OW81034   4.158   6.619   6.835  0.2889  0.0755  0.4758
26005SOL    HW181035   4.084   6.563   6.858 -1.6666  2.2972 -0.2280
26005SOL    HW281036   4.235   6.562   6.843 -1.7463 -3.1480 -1.8095
26006SOL     OW81037   5.119   3.251   9.190 -0.2057  0.0895  0.2355
26006SOL    HW181038   5.080   3.191   9.254 -0.0730  1.6819  1.8407
26006SOL    HW281039   5.048   3.312   9.168  1.1220  2.6227  2.7009
26007SOL     OW81040   6.597   6.926   3.809 -0.1154  0.3054  0.3131
26007SOL    HW181041   6.610   6.977   3.889  1.0768  1.0089 -0.3192
26007SOL    HW281042   6.685   6.898   3.784 -0.4087  0.6224 -1.1062
26008SOL     OW81043   6.714   4.428   1.640  0.0886 -0.4044 -0.3111
26008SOL    HW181044   6.676   4.352   1.683  0.6234 -0.8406 -0.5966
26008SOL    HW281045   6.649   4.453   1.574  0.7258 -1.7862 -1.5082
26009SOL     OW81046   7.314   7.540   5.518 -0.2302 -1.0787 -0.3075
26009SOL    HW181047   7.284   7.502   5.436  1.4454  1.3864 -2.1222
26009SOL    HW281048   7.402   7.504   5.531  0.7531  0.9638 -1.2433
26010SOL     OW81049   3.946   2.159   7.575  0.0498 -0.0499  0.0283
26010SOL    HW181050   3.907   2.241   7.607  0.3517  0.1088 -0.0069
26010SOL    HW281051   3.941   2.100   7.649  0.6692  0.2916  0.3466
26011SOL     OW81052   0.551   4.864   8.068 -0.5729 -0.5643 -0.5336
26011SOL    HW181053   0.493   4.873   7.993  1.5118  2.4108 -1.8848
26011SOL    HW281054   0.608   4.791   8.045 -0.0388  0.2342 -1.8163
26012SOL     OW81055   7.272   6.484   0.557 -0.2320 -0.0372 -0.4892
26012SOL    HW181056   7.345   6.429   0.531  0.3618  0.7350 -0.4822
26012SOL    HW281057   7.211   6.479   0.484 -0.1037 -0.5692 -0.5593
26013SOL     OW81058   7.993   4.049   7.200  0.3031  0.5899  0.1577
26013SOL    HW181059   8.064   4.114   7.207 -0.2335  1.2067 -0.0614
26013SOL    HW281060   7.960   4.041   7.289  1.8136 -1.0296  0.5955
26014SOL     OW81061   2.685   4.194   6.710  0.2849 -0.4171  0.5469
26014SOL    HW181062   2.760   4.183   6.769  0.7107 -1.6436 -0.2067
26014SOL    HW281063   2.610   4.164   6.761  0.3796  0.2119  1.0773
26015SOL     OW81064   1.494   0.169   3.189  0.3616  0.2071  0.3942
26015SOL    HW181065   1.526   0.115   3.260  0.7252  0.1241  0.1700
26015SOL    HW281066   1.566   0.172   3.126  0.6192  1.5491  0.7367
26016SOL     OW81067   3.199   4.460   3.750  0.4693  0.0190  0.1697
26016SOL    HW181068   3.208   4.386   3.690  0.0846  0.6115 -0.6270
26016SOL    HW281069   3.275   4.453   3.809  0.4381 -0.9960  0.0943
26017SOL     OW81070   5.786   6.887   9.182  0.9427  0.4384 -0.2197
26017SOL    HW181071   5.838   6.917   9.107  0.5879  0.8953 -0.2830
26017SOL    HW281072   5.735   6.963   9.208 -0.1270 -0.1550 -0.5249
26018SOL     OW81073   5.161   4.169   6.860  0.0684 -0.6841 -0.1103
26018SOL    HW181074   5.104   4.108   6.907 -1.1056 -0.2018 -0.8846
26018SOL    HW281075   5.114   4.188   6.779  1.1085  0.1099 -0.5351
26019SOL     OW81076   1.184   4.333   8.556  0.3605 -0.6944 -1.0241
26019SOL    HW181077   1.159   4.253   8.510 -1.0482 -1.0535  0.3258
26019SOL    HW281078   1.176   4.311   8.648  1.8523  0.4299 -0.6142
26020SOL     OW81079   7.055   9.148   0.050  0.5002  0.0767 -0.1985
26020SOL    HW181080   7.116   9.217   0.076 -1.2730  1.0015  1.6311
26020SOL    HW281081   6.998   9.191  -0.014 -0.8236  0.4301  1.2014
26021SOL     OW81082   8.897   9.056   4.769 -0.4378  0.5989  0.2154
26021SOL    HW181083   8.909   8.972   4.724 -0.1258  0.4059  0.6535
26021SOL    HW281084   8.951   9.118   4.720 -0.4778  0.4903  0.0360
26022SOL     OW81085   6.169   0.311   2.798 -0.1492  0.0386 -0.1694
26022SOL    HW181086   6.151   0.354   2.714 -1.1140 -0.8537 -0.4308
26022SOL    HW281087   6.253   0.348   2.827 -0.4327  1.2767 -0.9142
26023SOL     OW81088   7.306   4.678   2.866  0.4214  0.3394 -0.5303
26023SOL    HW181089   7.373   4.676   2.935  0.1614  1.3348 -0.2476
26023SOL    HW281090   7.333   4.609   2.805  1.0690 -0.0408  0.1777
26024SOL     OW81091   4.130   0.949   7.150 -0.2398  0.0819 -0.0518
26024SOL    HW181092   4.086   0.999   7.219 -1.2351 -1.3811  0.3924
26024SOL    HW281093   4.060   0.901   7.107  0.6817 -0.8178 -0.5649
26025SOL     OW81094   5.408   5.213   3.955  0.0819  0.5868 -0.8197
26025SOL    HW181095   5.496   5.231   3.989  0.9433 -0.7697 -2.2720
26025SOL    HW281096   5.412   5.122   3.926 -1.9167  0.4189 -0.5873
26026SOL     OW81097   4.565   0.816   2.948  0.0253 -1.1612 -0.2952
26026SOL    HW181098   4.631   0.751   2.924  0.5217 -1.2243  1.1583
26026SOL    HW281099   4.518   0.834   2.867  1.8082 -1.1367 -1.3661
26027SOL     OW81100   6.702   8.346   7.332  0.4358 -0.3346 -0.0637
26027SOL    HW181101   6.670   8.372   7.246 -0.1796 -0.4995  0.1100
26027SOL    HW281102   6.687   8.423   7.387  0.3124 -0.4196  0.0229
26028SOL     OW81103   2.986   3.829   8.229 -0.0562 -0.2560  0.2089
26028SOL    HW181104   2.926   3.876   8.287  1.4922  0.6319  1.1141
26028SOL    HW281105   2.998   3.744   8.271 -0.5591 -0.3822  0.1004
26029SOL     OW81106   6.733   8.244   7.629 -0.3615 -0.1695  0.7649
26029SOL    HW181107   6.667   8.175   7.619 -1.4034  0.9813 -0.4739
26029SOL    HW281108   6.802   8.219   7.568 -0.7450 -0.1302  0.3073
26030SOL     OW81109   2.318   2.596   4.414 -0.1461 -0.0400 -0.4760
26030SOL    HW181110   2.323   2.528   4.347 -0.9756  0.5486 -1.1461
26030SOL    HW281111   2.345   2.676   4.369 -1.6721  0.5383 -0.3647
26031SOL     OW81112   1.585   9.041   1.592  0.2827 -0.0955  0.3779
26031SOL    HW181113   1.612   9.093   1.517 -2.3572 -0.9822 -1.2640
26031SOL    HW281114   1.596   8.950   1.564 -1.0265 -0.4415  0.9250
26032SOL     OW81115   2.449   7.506   8.068 -0.4224  0.1624 -0.0925
26032SOL    HW181116   2.370   7.497   8.015 -0.3706  1.1157 -0.3450
26032SOL    HW281117   2.469   7.599   8.065  0.5869 -0.0419  0.1513
26033SOL     OW81118   4.167   7.528   6.670  0.2617  0.0766 -0.0190
26033SOL    HW181119   4.256   7.559   6.652 -0.9239  4.3316  0.7333
26033SOL    HW281120   4.114   7.567   6.600 -1.3440 -0.3985  0.9084
26034SOL     OW81121   8.266   4.586   0.586  0.2981 -0.7897  0.0759
26034SOL    HW181122   8.338   4.649   0.583 -2.0790  2.0000 -1.4530
26034SOL    HW281123   8.280   4.529   0.511  1.4327 -0.9165  0.3716
26035SOL     OW81124   3.378   1.184   5.986 -0.0836 -0.4155  0.1609
26035SOL    HW181125   3.435   1.240   5.933 -1.7893  1.5913  0.3777
26035SOL    HW281126   3.426   1.170   6.067  0.3030  0.9352  0.1823
26036SOL     OW81127   5.171   4.799   5.397  0.2390 -0.3240 -0.0072
26036SOL    HW181128   5.245   4.753   5.436 -0.3721 -2.0285 -0.7781
26036SOL    HW281129   5.122   4.833   5.472  1.8092  0.8463  0.5005
26037SOL     OW81130   3.226   1.425   0.563 -0.2336 -0.0386  0.2062
26037SOL    HW181131   3.272   1.342   0.576  0.1058 -0.0848 -1.1994
26037SOL    HW281132   3.188   1.418   0.475 -0.1407  1.3255  0.0492
26038SOL     OW81133   9.139   2.094   5.818 -0.3268  0.3983 -0.1434
26038SOL    HW181134   9.119   2.004   5.796 -2.2494  1.2048 -1.8643
26038SOL    HW281135   9.233   2.103   5.802 -0.5669 -0.6761 -2.3343
26039SOL     OW81136   4.571   1.120   7.350  0.0127  0.7528  0.3841
26039SOL    HW181137   4.565   1.077   7.265 -1.1616 -0.4814  1.0719
26039SOL    HW281138   4.594   1.211   7.330 -2.1565  0.9473 -1.3576
26040SOL     OW81139   5.161   5.629   1.599 -0.7102  0.0912 -0.0788
26040SOL    HW181140   5.066   5.640   1.598 -0.5979  1.1668 -1.1771
26040SOL    HW281141   5.193   5.692   1.533  0.7434 -0.3610  0.1683
26041SOL     OW81142   8.937   8.449   0.857 -0.3271 -0.3049 -0.9041
26041SOL    HW181143   8.939   8.545   0.857 -0.2863 -0.3063 -1.0354
26041SOL    HW281144   9.025   8.424   0.830 -0.2835 -0.3787 -0.6967
26042SOL     OW81145   7.539   8.537   6.975  0.4216  0.1312  0.2421
26042SOL    HW181146   7.618   8.586   6.999  0.8747  0.1137 -1.1901
26042SOL    HW281147   7.566   8.482   6.902 -0.6737 -0.5930  0.3739
26043SOL     OW81148   1.302   5.753   5.331  0.0733  0.3124 -0.3510
26043SOL    HW181149   1.219   5.755   5.378  1.0775  1.4234  1.4478
26043SOL    HW281150   1.283   5.705   5.251 -2.0651 -0.2947  0.4763
26044SOL     OW81151   2.542   3.013   7.312  0.2283 -0.5074  0.1867
26044SOL    HW181152   2.578   2.928   7.286  1.7912 -0.1356  1.0489
26044SOL    HW281153   2.514   3.053   7.230 -2.0172 -2.4879 -0.0796
26045SOL     OW81154   4.428   2.333   2.642  0.1647  0.1787  0.2903
26045SOL    HW181155   4.438   2.241   2.616 -0.0421 -0.1507  1.3585
26045SOL    HW281156   4.346   2.360   2.599  0.4672  0.0108 -0.4116
26046SOL     OW81157   7.093   8.831   7.231 -0.0077 -0.7984 -0.1546
26046SOL    HW181158   7.158   8.880   7.282 -1.4608 -1.3313  2.3055
26046SOL    HW281159   7.138   8.750   7.206  0.2894 -1.1765  1.5633
26047SOL     OW81160   9.158   1.837   2.924  0.4992 -0.1610  0.2926
26047SOL    HW181161   9.113   1.752   2.924  3.1165 -1.6369  1.5333
26047SOL    HW281162   9.209   1.837   2.843  1.7627 -0.5357  1.0593
26048SOL     OW81163   9.140   2.395   7.749 -0.0390 -0.2618 -0.4402
26048SOL    HW181164   9.130   2.472   7.805 -0.1744  0.6323 -1.6718
26048SOL    HW281165   9.053   2.356   7.745 -0.6658  1.2482 -2.2385
26049SOL     OW81166   6.089   5.060   9.204 -0.2770 -0.4078  0.3082
26049SOL    HW181167   6.112   5.133   9.146 -1.1739 -0.7537 -0.4928
26049SOL    HW281168   6.093   4.983   9.148 -0.2285 -0.8728  0.9430
26050SOL     OW81169   7.103   8.077   7.064 -0.1480  0.1127 -0.6007
26050SOL    HW181170   7.049   8.024   7.005  1.1823 -3.2194  1.0222
26050SOL    HW281171   7.040   8.133   7.109 -1.6189 -0.0058 -2.4303
26051SOL     OW81172   6.902   0.242   3.139  0.2861  0.2947  0.0297
26051SOL    HW181173   6.865   0.330   3.140  1.8141  0.9416  1.4192
26051SOL    HW281174   6.989   0.253   3.102  0.0132 -0.8447 -0.9817
26052SOL     OW81175   2.204   0.000   8.421 -0.4272  0.2410 -0.0784
26052SOL    HW181176   2.257  -0.055   8.365  0.7702 -0.0525  1.3121
26052SOL    HW281177   2.220   0.089   8.390 -0.2641  0.0314 -0.6008
26053SOL     OW81178   2.067   2.037   9.443 -0.2849  0.7659 -0.0172
26053SOL    HW181179   2.056   2.116   9.497  1.6825  1.2836 -0.3379
26053SOL    HW281180   2.141   1.991   9.483 -0.1938  0.0733 -0.9822
26054SOL     OW81181   2.814   0.715   2.087 -0.3241  0.5468  0.1778
26054SOL    HW181182   2.762   0.680   2.159 -0.7923  0.2284 -0.3129
26054SOL    HW281183   2.799   0.653   2.015 -0.5391  1.3336 -0.4514
26055SOL     OW81184   5.895   6.855   8.359  0.3005  0.6263  0.7470
26055SOL    HW181185   5.810   6.879   8.321 -0.6276  0.2163  2.5416
26055SOL    HW281186   5.898   6.760   8.352 -0.4899  0.4195  2.9479
26056SOL     OW81187   4.699   2.654   6.152 -1.1236 -0.2657 -0.1821
26056SOL    HW181188   4.690   2.661   6.057 -1.8548  1.0368 -0.0355
26056SOL    HW281189   4.687   2.561   6.171  0.0367 -0.6887 -1.4582
26057SOL     OW81190   9.250   2.616   2.650 -0.4349 -0.2416 -0.7700
26057SOL    HW181191   9.276   2.695   2.698 -0.4952  0.1019 -1.2980
26057SOL    HW281192   9.286   2.544   2.702 -1.5647  0.0619  0.4455
26058SOL     OW81193   3.908   6.031   1.434  0.3602 -0.4105 -0.6009
26058SOL    HW181194   3.858   6.085   1.495  0.9961 -1.2251  0.6697
26058SOL    HW281195   3.954   6.093   1.377 -1.3245  0.3490 -1.1583
26059SOL     OW81196   1.136   7.856   7.636 -0.5728  0.3068 -0.3841
26059SOL    HW181197   1.113   7.947   7.653  0.5737  0.4479  0.4701
26059SOL    HW281198   1.097   7.808   7.709 -0.2658  0.2421 -0.2641
26060SOL     OW81199   7.099   0.186   9.070  0.0506  0.1653 -0.8120
26060SOL    HW181200   7.151   0.221   9.142 -2.3644 -1.0602  1.6342
26060SOL    HW281201   7.130   0.096   9.059 -2.5994 -1.1784  1.8708
26061SOL     OW81202   4.132   5.770   4.030 -0.5894  0.0909 -0.5748
26061SOL    HW181203   4.128   5.845   4.088  0.1659  0.3735 -0.8799
26061SOL    HW281204   4.225   5.756   4.015 -0.6478 -2.0254  0.9133
26062SOL     OW81205   1.208   7.809   1.140 -0.3480  0.2204 -0.0412
26062SOL    HW181206   1.304   7.818   1.145 -0.1891 -0.3653 -1.7840
26062SOL    HW281207   1.178   7.829   1.229  1.5633 -1.5544  1.0580
26063SOL     OW81208   2.044   6.412   8.983  0.0347 -0.2471 -0.3939
26063SOL    HW181209   1.960   6.418   8.937  0.8214  0.5420 -1.7559
26063SOL    HW281210   2.058   6.499   9.019  0.5152 -0.2320 -0.6135
26064SOL     OW81211   8.697   5.056   0.634 -0.2023 -0.2411 -0.3757
26064SOL    HW181212   8.667   5.145   0.656 -2.7193 -1.2870  0.5404
26064SOL    HW281213   8.781   5.070   0.589 -0.4967  2.5888 -0.1442
26065SOL     OW81214   9.258   2.091   3.307 -0.2409 -0.3446 -0.2774
26065SOL    HW181215   9.272   2.177   3.345  0.2735 -0.1751 -0.8435
26065SOL    HW281216   9.233   2.036   3.381 -2.7362  0.7759 -0.2503
26066SOL     OW81217   3.711   3.009   7.914 -0.0827  0.7686  0.0311
26066SOL    HW181218   3.752   2.963   7.841  0.5370  0.9871  0.2423
26066SOL    HW281219   3.660   2.942   7.960  0.3540  0.4176 -0.0022
26067SOL     OW81220   4.495   0.762   7.896 -0.3370 -0.0040 -0.1728
26067SOL    HW181221   4.463   0.712   7.971  0.5780  0.3743  0.4903
26067SOL    HW281222   4.566   0.709   7.860 -0.4595  0.0392 -0.4821
26068SOL     OW81223   0.826   5.730   9.018  0.0039  0.2388 -0.2304
26068SOL    HW181224   0.825   5.644   9.061  0.1897 -0.2242 -1.1435
26068SOL    HW281225   0.905   5.772   9.052  0.1558 -0.1310 -0.1207
26069SOL     OW81226   4.933   6.672   3.587  0.3443 -0.8952  0.2691
26069SOL    HW181227   4.930   6.616   3.665  2.7029 -2.3044 -0.5861
26069SOL    HW281228   4.961   6.613   3.517 -0.1172  0.7164 -1.3039
26070SOL     OW81229   2.573   5.044   3.032 -0.1668 -0.1675  0.5533
26070SOL    HW181230   2.619   5.005   3.107  1.3138  1.5488  0.5759
26070SOL    HW281231   2.642   5.057   2.966 -1.5037 -1.9168 -1.2354
26071SOL     OW81232   6.644   8.019   5.346 -0.0771 -0.3858 -0.3161
26071SOL    HW181233   6.624   8.095   5.292  0.2137 -0.6483 -0.7979
26071SOL    HW281234   6.691   8.055   5.422  0.4529 -0.1263 -0.7594
26072SOL     OW81235   6.450   2.938   4.417  0.1799  0.4948  0.1726
26072SOL    HW181236   6.527   2.984   4.384  0.6895  0.2196  0.9607
26072SOL    HW281237   6.479   2.848   4.431 -0.3688  0.3162  0.2002
26073SOL     OW81238   3.221   0.140   4.421  0.3021  0.0764  0.6228
26073SOL    HW181239   3.177   0.147   4.336  0.8645 -0.6253  0.2712
26073SOL    HW281240   3.247   0.230   4.442  1.2528  0.0918 -0.5454
26074SOL     OW81241   6.675   2.035   3.047  0.3489  0.2953 -0.1147
26074SOL    HW181242   6.686   2.112   3.104  0.6969  1.2937 -1.5004
26074SOL    HW281243   6.591   2.050   3.003  0.7671  0.2407 -0.9335
26075SOL     OW81244   3.543   3.441   8.184  0.0299 -0.0896  0.4743
26075SOL    HW181245   3.606   3.418   8.116  0.2329  1.1680  0.2200
26075SOL    HW281246   3.593   3.436   8.266  0.1851 -0.0979  0.3793
26076SOL     OW81247   9.303   4.564   8.304 -0.3328  0.4212  0.6117
26076SOL    HW181248   9.278   4.606   8.386 -0.9812 -0.4330  0.8593
26076SOL    HW281249   9.397   4.581   8.296 -0.2475  0.4388  1.5752
26077SOL     OW81250   2.471   4.953   5.373 -0.0788 -0.2048 -0.7234
26077SOL    HW181251   2.561   4.954   5.404 -0.1978 -0.2781 -0.3734
26077SOL    HW281252   2.430   5.028   5.416 -0.3666 -0.5820 -0.3376
26078SOL     OW81253   0.365   6.411   0.446  0.7062  0.0232 -0.4245
26078SOL    HW181254   0.379   6.436   0.355 -0.6611  0.3815 -0.5383
26078SOL    HW281255   0.271   6.419   0.459  1.0921  1.6724  1.5283
26079SOL     OW81256   6.990   0.878   9.360 -0.9693 -0.0132  0.1347
26079SOL    HW181257   7.057   0.854   9.296  0.4007  0.4843  1.3662
26079SOL    HW281258   6.975   0.971   9.346 -1.5949 -0.1790 -0.3102
26080SOL     OW81259   4.864   2.744   2.027 -0.0222 -0.5664 -0.7029
26080SOL    HW181260   4.833   2.830   2.057 -2.1567 -1.4653 -0.2516
26080SOL    HW281261   4.957   2.743   2.051 -0.7988  0.1685  2.6602
26081SOL     OW81262   0.147   5.188   3.295  0.2586  0.5182 -0.2131
26081SOL    HW181263   0.238   5.195   3.269 -0.0028  1.2218 -0.9729
26081SOL    HW281264   0.129   5.094   3.297  1.3791  0.3289  1.3309
26082SOL     OW81265   0.600   3.685   9.288  0.0505  0.1705 -0.2109
26082SOL    HW181266   0.565   3.672   9.377 -1.0256  2.2103 -0.3191
26082SOL    HW281267   0.638   3.600   9.265  1.7857  0.0551  2.8267
26083SOL     OW81268   4.585   5.329   2.331 -0.1681 -0.4205 -0.1059
26083SOL    HW181269   4.614   5.339   2.422  0.7703 -1.9305 -0.2106
26083SOL    HW281270   4.666   5.329   2.280 -0.6874  0.3987 -0.9557
26084SOL     OW81271   1.160   8.340   7.907 -0.3403 -0.3393  0.3189
26084SOL    HW181272   1.216   8.297   7.972 -1.0737 -1.0932  0.4589
26084SOL    HW281273   1.072   8.336   7.944 -0.5869  0.2907 -0.1850
26085SOL     OW81274   2.567   5.910   6.792  0.0663  0.2601  0.4142
26085SOL    HW181275   2.478   5.925   6.824  0.4115 -0.7430  1.8985
26085SOL    HW281276   2.567   5.818   6.766  0.2626  0.6470 -0.9768
26086SOL     OW81277   7.879   7.256   3.487 -0.2554 -0.1916 -0.5891
26086SOL    HW181278   7.930   7.297   3.418  0.5290 -0.6888 -0.3167
26086SOL    HW281279   7.874   7.164   3.462 -1.6239 -0.0221 -0.9727
26087SOL     OW81280   5.614   0.901   2.571  0.2957 -0.6056 -0.2729
26087SOL    HW181281   5.625   0.807   2.579  1.7569 -0.3956  0.4644
26087SOL    HW281282   5.656   0.923   2.487  0.5273 -0.5367 -0.1406
26088SOL     OW81283   4.466   8.534   8.602 -0.3244  0.3920 -0.2685
26088SOL    HW181284   4.524   8.564   8.672  1.5763 -3.5454 -0.0218
26088SOL    HW281285   4.386   8.507   8.647  0.7577 -1.7873  0.4441
26089SOL     OW81286   6.441   1.754   7.101  0.1654 -0.2277 -0.3494
26089SOL    HW181287   6.515   1.776   7.045 -0.3537 -0.2069 -1.0244
26089SOL    HW281288   6.414   1.838   7.139  2.3072 -0.6061  2.1771
26090SOL     OW81289   0.746   8.363   6.034 -0.4426  0.1969 -0.1843
26090SOL    HW181290   0.737   8.373   5.940  0.5411 -1.7431 -0.5067
26090SOL    HW281291   0.739   8.269   6.049  3.2534  0.0716  1.2235
26091SOL     OW81292   2.882   2.964   7.343  0.0260  0.3821  0.1168
26091SOL    HW181293   2.858   2.992   7.255 -1.0662  1.0856  0.6401
26091SOL    HW281294   2.822   2.893   7.363 -0.2678  0.7740  0.6218
26092SOL     OW81295   7.189   3.474   6.394  0.0392 -0.2250  1.0043
26092SOL    HW181296   7.179   3.528   6.316 -0.6297 -0.4251  0.9528
26092SOL    HW281297   7.104   3.432   6.406  1.0756 -2.7579 -0.0689
26093SOL     OW81298   5.617   1.352   8.161  0.0911 -0.4937  0.2971
26093SOL    HW181299   5.556   1.423   8.141  1.7592  0.5744 -1.0418
26093SOL    HW281300   5.630   1.358   8.256 -0.6057  0.2951  0.3508
26094SOL     OW81301   1.545   7.046   4.121  0.3838  0.5649 -0.0789
26094SOL    HW181302   1.632   7.011   4.137 -0.0871 -0.5027  0.2358
26094SOL    HW281303   1.544   7.131   4.166  1.8730  1.4631 -1.6928
26095SOL     OW81304   9.037   4.566   3.198  0.3024  1.1834 -0.0874
26095SOL    HW181305   9.062   4.493   3.143  1.4513  0.0049  1.9361
26095SOL    HW281306   9.119   4.609   3.221 -0.0227  0.8914  1.7132
26096SOL     OW81307   9.353   5.182   2.625  0.3790 -0.0581 -0.3580
26096SOL    HW181308   9.416   5.244   2.661  0.5058 -0.5563  0.2972
26096SOL    HW281309   9.395   5.096   2.635  0.1416 -0.2665 -1.1041
26097SOL     OW81310   1.364   3.919   8.134 -0.0508  0.5774 -0.2977
26097SOL    HW181311   1.306   3.873   8.194 -0.7599 -0.4200 -1.7183
26097SOL    HW281312   1.347   4.012   8.150 -1.3615  0.2963 -0.0604
26098SOL     OW81313   3.852   2.986   4.967 -0.1365  0.6084 -0.6418
26098SOL    HW181314   3.764   2.949   4.976 -0.1865  1.0490  0.7190
26098SOL    HW281315   3.859   3.049   5.038  2.4410 -1.6959  1.2364
26099SOL     OW81316   7.784   8.595   9.334  0.2494  0.9061  0.0684
26099SOL    HW181317   7.806   8.650   9.259  1.7563 -0.3425 -0.4452
26099SOL    HW281318   7.868   8.579   9.378 -0.4361  0.5794  1.2991
26100SOL     OW81319   5.481   6.057   2.599  0.5376  0.5626  0.2322
26100SOL    HW181320   5.412   6.113   2.563  1.6516  1.1047 -1.0923
26100SOL    HW281321   5.545   6.050   2.528  0.0977 -2.9311  0.0921
26101SOL     OW81322   2.086   2.980   8.086  0.1700  0.2541  0.2462
26101SOL    HW181323   2.065   3.072   8.071  1.1582  0.3347 -0.7006
26101SOL    HW281324   2.076   2.938   8.001 -1.3288 -0.7420  0.8935
26102SOL     OW81325   3.661   4.276   4.132  0.3331 -0.0431 -0.5796
26102SOL    HW181326   3.672   4.262   4.038  0.6245  1.1845 -0.7308
26102SOL    HW281327   3.724   4.217   4.172  0.2068 -0.5777 -1.1473
26103SOL     OW81328   7.676   5.814   2.267  0.0719 -0.7092  0.1970
26103SOL    HW181329   7.602   5.778   2.219  1.3771 -1.2988 -1.4181
26103SOL    HW281330   7.703   5.743   2.326 -1.7502  0.1398  2.1042
26104SOL     OW81331   2.877   6.451   1.312 -0.3548 -0.0462  0.0152
26104SOL    HW181332   2.956   6.407   1.343  0.4843  0.5835 -1.2340
26104SOL    HW281333   2.826   6.381   1.270  1.3396  0.2721 -2.6810
26105SOL     OW81334   4.616   4.082   1.992 -0.0508 -0.2903  0.6064
26105SOL    HW181335   4.636   4.175   2.001 -0.4050 -0.0843 -0.6239
26105SOL    HW281336   4.564   4.077   1.912 -0.1419 -1.5352  0.7414
26106SOL     OW81337   4.271   6.688   5.105  0.9267  0.1146 -0.2808
26106SOL    HW181338   4.315   6.747   5.166 -0.8485  1.1693  0.0260
26106SOL    HW281339   4.229   6.622   5.160  1.4892 -0.4592 -0.5286
26107SOL     OW81340   8.836   6.752   7.996  0.1426  0.3842 -0.3355
26107SOL    HW181341   8.850   6.791   8.083  0.4530 -0.0888 -0.1730
26107SOL    HW281342   8.870   6.663   8.004 -0.4306  0.1245 -0.7529
26108SOL     OW81343   2.940   2.586   8.868 -0.3342  0.3903 -0.5326
26108SOL    HW181344   2.867   2.527   8.887  0.4791  0.0465  1.7314
26108SOL    HW281345   2.899   2.664   8.830 -1.4510 -1.4192 -3.1218
26109SOL     OW81346   2.293   4.305   2.512  0.2239  0.0229 -0.1495
26109SOL    HW181347   2.311   4.391   2.473  2.6233 -0.7246 -0.7825
26109SOL    HW281348   2.217   4.320   2.568 -0.9568  1.9905 -2.1734
26110SOL     OW81349   8.590   3.482   7.300  0.1666  0.0274 -0.3037
26110SOL    HW181350   8.669   3.430   7.289  0.4656  0.5198 -0.5109
26110SOL    HW281351   8.519   3.418   7.305  1.0478 -0.7544  5.0864
26111SOL     OW81352   4.661   5.314   3.595 -0.5158  0.3448 -0.2908
26111SOL    HW181353   4.642   5.408   3.601  0.0523  0.4866 -0.6379
26111SOL    HW281354   4.755   5.310   3.577 -0.4386 -0.3057  0.2538
26112SOL     OW81355   6.331   8.638   3.744 -0.2161  0.2750 -0.2615
26112SOL    HW181356   6.420   8.673   3.737  0.4492 -1.3400  0.0908
26112SOL    HW281357   6.287   8.698   3.805  0.2495  1.7933 -1.3684
26113SOL     OW81358   4.109   4.212   4.528 -0.1304 -0.0255  0.1496
26113SOL    HW181359   4.072   4.285   4.479 -0.8230 -0.8586 -0.5860
26113SOL    HW281360   4.050   4.203   4.603 -0.3038 -0.1177  0.0023
26114SOL     OW81361   0.886   6.257   1.111 -0.3685  0.0449 -0.4153
26114SOL    HW181362   0.861   6.287   1.024 -0.1847  0.6108 -0.2745
26114SOL    HW281363   0.961   6.312   1.135  1.3415 -1.9612 -1.0462
26115SOL     OW81364   3.992   0.500   5.431 -0.0210  0.2500 -0.0333
26115SOL    HW181365   4.063   0.527   5.372 -0.6400 -0.5019 -1.1555
26115SOL    HW281366   4.037   0.464   5.508  0.8048  0.8103 -0.2474
26116SOL     OW81367   4.725   7.813   3.123 -0.1224  0.1684  0.8337
26116SOL    HW181368   4.691   7.730   3.089  2.1055 -0.0710 -0.9398
26116SOL    HW281369   4.818   7.797   3.137 -0.0961  1.7256  2.5754
26117SOL     OW81370   7.466   9.093   2.786 -0.3244  0.2790 -0.2914
26117SOL    HW181371   7.412   9.025   2.826  0.8580 -1.0692 -0.9500
26117SOL    HW281372   7.464   9.166   2.849 -0.8975 -0.6912  0.8274
26118SOL     OW81373   2.501   5.975   8.385 -0.7750 -0.3218  0.0033
26118SOL    HW181374   2.503   5.985   8.290 -0.8411  1.7213  0.1979
26118SOL    HW281375   2.417   6.011   8.411 -1.0186 -1.4448  0.7847
26119SOL     OW81376   8.161   9.442   3.754 -0.0315  0.6761  0.1606
26119SOL    HW181377   8.183   9.489   3.835  1.5591  1.7641 -0.8769
26119SOL    HW281378   8.221   9.478   3.689 -0.4226 -1.1309 -1.2120
26120SOL     OW81379   6.916   5.923   2.179  0.5969 -0.1457  0.1935
26120SOL    HW181380   6.944   6.014   2.193  2.1982 -0.5007 -0.5153
26120SOL    HW281381   6.874   5.925   2.093  2.2843 -0.3881 -0.6776
26121SOL     OW81382   7.439   7.420   2.072  1.0660 -0.0996  0.5531
26121SOL    HW181383   7.396   7.505   2.074 -0.3488 -0.7009 -1.8880
26121SOL    HW281384   7.377   7.361   2.115  0.9372 -0.3547  0.0177
26122SOL     OW81385   6.772   2.786   6.407  0.0358  0.0797  0.2929
26122SOL    HW181386   6.785   2.701   6.365  2.2521  1.2954 -1.6238
26122SOL    HW281387   6.720   2.836   6.344  1.3545  1.1344  0.0316
26123SOL     OW81388   2.539   8.102   4.189  0.0823  0.4523 -0.3461
26123SOL    HW181389   2.484   8.173   4.223 -0.6272  0.4498 -1.4944
26123SOL    HW281390   2.493   8.070   4.112 -1.0828 -3.2229  1.7675
26124SOL     OW81391   4.499   5.336   9.332 -0.0259  0.8298  0.4132
26124SOL    HW181392   4.461   5.266   9.280  1.7786  1.4973 -1.8773
26124SOL    HW281393   4.508   5.299   9.420  1.3587 -1.9793 -0.8624
26125SOL     OW81394   8.091   9.243   6.569  0.4450  0.0098 -0.8621
26125SOL    HW181395   8.171   9.210   6.609 -0.4310 -0.6332  0.3930
26125SOL    HW281396   8.121   9.303   6.501  2.0185 -1.5181 -1.5502
26126SOL     OW81397   5.493   0.439   6.780 -0.0282 -0.9882 -0.3004
26126SOL    HW181398   5.564   0.488   6.820 -0.5086  0.4597 -1.2066
26126SOL    HW281399   5.493   0.467   6.688 -2.0805 -0.5930 -0.2055
26127SOL     OW81400   7.722   5.362   7.866  0.2131 -0.1329 -0.3708
26127SOL    HW181401   7.718   5.373   7.771 -1.3973  1.5424 -0.1358
26127SOL    HW281402   7.643   5.314   7.889  0.5941 -0.5295  0.1142
26128SOL     OW81403   3.002   7.592   0.728 -0.6134 -0.1071  0.3925
26128SOL    HW181404   3.071   7.636   0.677  1.0369 -1.0843  1.7337
26128SOL    HW281405   2.941   7.560   0.662  0.7076 -0.0247 -0.9052
26129SOL     OW81406   8.705   8.347   4.558 -0.3876  0.7895 -0.1840
26129SOL    HW181407   8.698   8.443   4.551 -0.8939  0.6551 -1.6051
26129SOL    HW281408   8.760   8.333   4.636 -1.0294  2.2140  0.5423
26130SOL     OW81409   3.991   8.632   0.507  0.3506  0.3224 -0.3088
26130SOL    HW181410   4.035   8.681   0.437 -0.6720  2.0748  0.2294
26130SOL    HW281411   3.950   8.558   0.462 -0.3996  1.4870 -1.6078
26131SOL     OW81412   1.838   2.405   5.463 -0.5678  0.7386  0.2306
26131SOL    HW181413   1.866   2.437   5.549 -0.7400 -0.2390  0.6633
26131SOL    HW281414   1.747   2.379   5.475 -0.2270 -0.5931  0.1088
26132SOL     OW81415   5.275   0.911   8.722  0.4724 -0.4977  0.5111
26132SOL    HW181416   5.226   0.941   8.799  1.0608  0.4137  0.5428
26132SOL    HW281417   5.217   0.928   8.648  0.8467  0.8490  0.5182
26133SOL     OW81418   0.019   5.601   2.260 -0.2214  0.9263 -0.1727
26133SOL    HW181419  -0.025   5.569   2.181  0.9835 -0.1704 -0.4302
26133SOL    HW281420   0.098   5.644   2.228  0.2466  0.5279  0.4218
26134SOL     OW81421   8.598   7.069   1.905  0.4395 -0.1266 -0.3433
26134SOL    HW181422   8.662   7.119   1.955 -0.3364 -0.4559  1.0156
26134SOL    HW281423   8.536   7.135   1.872 -1.5283 -0.2609  2.8336
26135SOL     OW81424   2.045   0.920   7.485  0.4603 -0.1888  0.4842
26135SOL    HW181425   2.137   0.947   7.475  0.4883 -0.1188  0.9395
26135SOL    HW281426   2.027   0.870   7.406  0.6531  0.4819  0.0047
26136SOL     OW81427   7.510   5.440   0.069 -0.1526  0.5300 -0.0801
26136SOL    HW181428   7.591   5.418   0.115 -0.4174  1.5600  0.8755
26136SOL    HW281429   7.524   5.407  -0.020  1.6524  1.4521 -0.1523
26137SOL     OW81430   1.856   6.570   4.222 -0.2113  0.0509 -0.2243
26137SOL    HW181431   1.927   6.533   4.170  0.5859  0.2692  0.6838
26137SOL    HW281432   1.887   6.656   4.248 -0.8121  0.1545  0.1817
26138SOL     OW81433   7.326   7.942   6.875 -0.2276 -0.1618  0.3340
26138SOL    HW181434   7.246   7.950   6.824 -1.2417 -1.0233  1.7714
26138SOL    HW281435   7.333   8.026   6.921  0.3295  0.3550 -0.6633
26139SOL     OW81436   9.366   1.678   3.430  0.5698 -0.0925  0.5534
26139SOL    HW181437   9.448   1.641   3.463 -0.1274 -0.5283  1.8471
26139SOL    HW281438   9.379   1.684   3.336  1.6077 -1.3815  0.5877
26140SOL     OW81439   5.723   2.147   7.269 -0.1380 -0.0023 -0.1626
26140SOL    HW181440   5.777   2.198   7.209 -0.0380  0.9553  0.7294
26140SOL    HW281441   5.673   2.213   7.318  0.7615 -0.7073  1.7229
26141SOL     OW81442   9.109   0.070   1.640 -0.4958 -0.3413  0.3942
26141SOL    HW181443   9.044   0.030   1.698 -0.9167 -0.6711 -0.2903
26141SOL    HW281444   9.072   0.059   1.552 -0.6864  1.6521  0.1917
26142SOL     OW81445   6.518   5.706   1.318 -0.3114  0.3254  0.2062
26142SOL    HW181446   6.428   5.715   1.288 -0.5447 -1.6122  0.3323
26142SOL    HW281447   6.514   5.718   1.413 -0.4650 -0.0422  0.2440
26143SOL     OW81448   5.676   4.185   1.358 -0.4649  0.3127  0.1649
26143SOL    HW181449   5.708   4.264   1.401 -1.1301  1.0080 -0.6049
26143SOL    HW281450   5.755   4.135   1.339  0.3294  2.5120 -2.7093
26144SOL     OW81451   1.581   4.248   7.662 -0.0705 -0.5129  0.2448
26144SOL    HW181452   1.515   4.258   7.595  1.6718  0.1656 -1.4126
26144SOL    HW281453   1.533   4.219   7.740 -2.5843  1.9844 -0.3036
26145SOL     OW81454   4.137   5.425   5.999  0.1817  0.3678 -0.0949
26145SOL    HW181455   4.200   5.386   6.059  0.2780  1.2764  0.4133
26145SOL    HW281456   4.160   5.390   5.913  0.4525 -0.4387  0.2969
26146SOL     OW81457   0.481   9.328   4.517  0.1357  0.0584 -0.5267
26146SOL    HW181458   0.424   9.346   4.442  0.3828 -0.5439 -0.8617
26146SOL    HW281459   0.504   9.235   4.508 -0.8884 -0.3766  1.0077
26147SOL     OW81460   1.375   0.500   0.409  0.1005  0.3946  0.7194
26147SOL    HW181461   1.410   0.417   0.439  1.7530  0.8374  0.0719
26147SOL    HW281462   1.305   0.476   0.347  1.5910 -0.5189 -0.6391
26148SOL     OW81463   8.477   1.332   0.702 -0.3821 -0.6017 -0.4706
26148SOL    HW181464   8.460   1.306   0.793  0.1110 -0.6086 -0.3737
26148SOL    HW281465   8.553   1.391   0.709  0.7469 -1.9444 -1.0487
26149SOL     OW81466   4.247   2.979   0.797  0.1209 -1.0008  0.3185
26149SOL    HW181467   4.227   3.011   0.885  0.1040 -2.8751  1.0256
26149SOL    HW281468   4.341   2.964   0.797  0.3386  0.2619 -0.4358
26150SOL     OW81469   6.085   6.690   6.328 -0.0788 -0.0344 -0.1637
26150SOL    HW181470   6.093   6.784   6.340  0.8104 -0.0099 -0.8821
26150SOL    HW281471   6.042   6.658   6.407 -0.3421  0.9642  0.0962
26151SOL     OW81472   6.393   7.368   5.818  0.4994  0.0020 -0.6073
26151SOL    HW181473   6.339   7.434   5.863  0.0825 -0.7954  0.0743
26151SOL    HW281474   6.330   7.319   5.764  1.0321  1.1303 -2.3117
26152SOL     OW81475   8.768   3.211   7.901  0.4703 -0.3906  0.0361
26152SOL    HW181476   8.796   3.298   7.928 -0.1915 -0.3566  0.6240
26152SOL    HW281477   8.758   3.217   7.806 -2.0001  0.8732  0.3412
26153SOL     OW81478   6.842   2.181   8.898  0.6366  0.2369  0.2444
26153SOL    HW181479   6.756   2.183   8.939  0.0842 -2.0084 -0.7351
26153SOL    HW281480   6.901   2.220   8.963 -0.7201 -0.4108  1.8875
26154SOL     OW81481   2.776   1.445   1.030  0.2599 -0.6900  0.1414
26154SOL    HW181482   2.819   1.426   0.946 -2.6781 -1.0776 -1.3705
26154SOL    HW281483   2.767   1.359   1.072  2.3214 -0.4167  1.1941
26155SOL     OW81484   1.099   9.436   4.234 -0.3992 -0.6158 -0.0865
26155SOL    HW181485   1.040   9.431   4.158  0.3596 -0.2335 -0.6994
26155SOL    HW281486   1.179   9.394   4.204  0.1564  0.1981  0.2655
26156SOL     OW81487   7.227   7.959   0.329 -0.3169  0.1258  0.2310
26156SOL    HW181488   7.162   7.950   0.399  0.0926  0.8792  0.7032
26156SOL    HW281489   7.309   7.929   0.367  0.1644  1.7052  0.4657
26157SOL     OW81490   2.296   3.401   3.969 -0.0317 -0.8063 -0.0726
26157SOL    HW181491   2.267   3.310   3.977  0.5230 -0.9227  0.7109
26157SOL    HW281492   2.351   3.415   4.046 -0.8357  0.4673  0.2754
26158SOL     OW81493   5.002   1.970   4.151 -0.1773  0.7948 -0.0819
26158SOL    HW181494   5.037   1.881   4.161 -0.0515  0.8423 -0.0908
26158SOL    HW281495   5.047   2.020   4.219 -0.6681  0.7321  0.2935
26159SOL     OW81496   0.344   3.426   8.554  0.2283 -0.4041  0.0060
26159SOL    HW181497   0.429   3.455   8.523  0.8225 -1.5058  0.5816
26159SOL    HW281498   0.346   3.441   8.649 -0.5456  0.3836 -0.0979
26160SOL     OW81499   0.306   4.102   0.698  0.0197  0.1700 -0.1818
26160SOL    HW181500   0.363   4.035   0.660  0.0255 -0.7532  1.4025
26160SOL    HW281501   0.346   4.122   0.783 -1.3607  0.3634  0.4314
26161SOL     OW81502   5.522   6.444   5.285 -0.8814  0.2515 -0.0082
26161SOL    HW181503   5.532   6.464   5.192 -0.6823 -0.4207 -0.1383
26161SOL    HW281504   5.611   6.440   5.318 -0.9702  1.0614  0.3432
26162SOL     OW81505   0.330   1.282   2.510 -0.1747 -0.4809  0.6861
26162SOL    HW181506   0.422   1.286   2.538  0.1577 -1.5145 -0.2452
26162SOL    HW281507   0.309   1.372   2.484  0.1518  0.0540  2.2046
26163SOL     OW81508   2.436   5.195   2.341  0.4451  0.2001 -0.4115
26163SOL    HW181509   2.500   5.249   2.389  1.4218 -1.0145 -0.3172
26163SOL    HW281510   2.362   5.186   2.402 -0.1491  2.2125 -0.7987
26164SOL     OW81511   3.652   6.181   0.672  0.4728 -0.6988  0.0426
26164SOL    HW181512   3.569   6.138   0.692  0.3451  0.3563  1.8673
26164SOL    HW281513   3.693   6.196   0.757  2.9600 -1.9844 -0.8657
26165SOL     OW81514   7.632   4.716   8.292  0.0569  0.5607 -0.0710
26165SOL    HW181515   7.607   4.630   8.327  1.8525 -0.5421 -1.3987
26165SOL    HW281516   7.576   4.727   8.215  0.0522  0.4239 -0.0877
26166SOL     OW81517   1.366   0.347   3.505  0.0500  0.8314 -0.4587
26166SOL    HW181518   1.358   0.440   3.487  0.4978  1.1421  0.8848
26166SOL    HW281519   1.343   0.338   3.597  2.7955  0.0389  0.2121
26167SOL     OW81520   1.954   2.152   1.937  0.5627  0.3363 -0.2513
26167SOL    HW181521   1.979   2.234   1.981  2.1369  0.0618 -0.5873
26167SOL    HW281522   2.019   2.088   1.967 -0.7547 -0.8359  0.1271
26168SOL     OW81523   6.801   4.940   4.227 -0.2754  0.0584 -0.3297
26168SOL    HW181524   6.825   4.884   4.301 -0.3612  0.2463 -0.1567
26168SOL    HW281525   6.707   4.955   4.239 -0.7154 -1.5530 -1.5873
26169SOL     OW81526   5.674   0.046   7.705  0.3173 -0.0792 -0.3941
26169SOL    HW181527   5.755   0.005   7.736  0.1420 -0.0359  0.1388
26169SOL    HW281528   5.699   0.135   7.682  0.7840 -0.6030 -1.9449
26170SOL     OW81529   8.404   4.924   5.911  0.3099  0.1762  0.0208
26170SOL    HW181530   8.425   5.017   5.913 -0.9250  0.4557  0.9904
26170SOL    HW281531   8.352   4.912   5.832 -1.1295  0.6944  0.8646
26171SOL     OW81532   3.785   4.678   7.485  0.1681 -0.4197 -0.8201
26171SOL    HW181533   3.822   4.632   7.409  1.9265 -0.2021 -0.1116
26171SOL    HW281534   3.861   4.707   7.534 -0.9394  2.3596 -0.7046
26172SOL     OW81535   1.069   4.606   8.190 -0.2190  0.4368  0.7092
26172SOL    HW181536   1.039   4.521   8.222  0.2750  0.4179  1.1252
26172SOL    HW281537   1.082   4.658   8.269 -1.1982  1.1242  0.4128
26173SOL     OW81538   9.264   4.908   4.450  0.5776 -0.5512  0.2080
26173SOL    HW181539   9.176   4.908   4.413 -0.7628 -1.8431  3.2104
26173SOL    HW281540   9.276   4.998   4.482  1.2381  0.2110 -2.0732
26174SOL     OW81541   2.455   0.465   0.125  0.7661  0.3214  0.2643
26174SOL    HW181542   2.496   0.539   0.170  1.1671  0.5529 -0.4617
26174SOL    HW281543   2.479   0.388   0.177 -0.9215  0.8599  1.8794
26175SOL     OW81544   0.957   0.070   6.354  0.2328 -0.0619 -0.1639
26175SOL    HW181545   0.980   0.159   6.325  0.8184  0.7974  2.8066
26175SOL    HW281546   1.035   0.039   6.401 -0.1941 -1.9277 -0.6526
26176SOL     OW81547   3.581   6.546   6.533 -0.2673 -0.1264 -0.1377
26176SOL    HW181548   3.595   6.596   6.453  1.9168  0.1203  0.3864
26176SOL    HW281549   3.529   6.470   6.505  0.9181 -0.3183 -1.8718
26177SOL     OW81550   1.740   5.709   5.098 -0.3661  0.1436 -0.2056
26177SOL    HW181551   1.826   5.744   5.074 -0.5083 -0.5149 -1.7212
26177SOL    HW281552   1.760   5.625   5.140 -0.0123  2.0324  3.6122
26178SOL     OW81553   9.067   2.601   0.890  0.1601 -0.2286  0.2948
26178SOL    HW181554   9.003   2.567   0.827 -0.3241  0.1531  0.5757
26178SOL    HW281555   9.147   2.612   0.839 -0.2114  0.0114 -0.2461
26179SOL     OW81556   6.567   5.625   3.573  0.8451  0.7999 -0.2842
26179SOL    HW181557   6.503   5.676   3.623 -0.3586  0.0416 -1.0202
26179SOL    HW281558   6.535   5.628   3.483  0.5024 -1.5640 -0.2886
26180SOL     OW81559   8.341   1.426   7.350  0.3639 -0.4487  0.2640
26180SOL    HW181560   8.366   1.385   7.433 -1.9856 -0.2817  1.1135
26180SOL    HW281561   8.326   1.353   7.290  0.0569 -0.6703  0.6091
26181SOL     OW81562   0.605   5.433   2.744 -0.2867  0.4227 -0.1121
26181SOL    HW181563   0.679   5.474   2.788 -0.4966 -0.3875  1.0121
26181SOL    HW281564   0.529   5.484   2.771 -0.2388  0.7834 -0.6541
26182SOL     OW81565   9.308   4.610   2.863 -0.3423  0.1244 -0.0880
26182SOL    HW181566   9.248   4.536   2.868  0.3377 -0.3787  0.6491
26182SOL    HW281567   9.272   4.665   2.793 -2.3381  0.4410  1.1522
26183SOL     OW81568   8.084   6.963   7.592 -0.5637  0.1969 -0.2988
26183SOL    HW181569   8.112   6.987   7.503  0.7196  0.9058  0.2827
26183SOL    HW281570   7.996   7.000   7.599  0.1133  1.9510 -0.5821
26184SOL     OW81571   2.100   7.706   8.339  0.1430  0.2049  0.6866
26184SOL    HW181572   2.028   7.664   8.387  0.0146 -1.1919 -0.6880
26184SOL    HW281573   2.172   7.643   8.344  0.3899  0.4050 -0.2540
26185SOL     OW81574   7.667   6.104   8.062  0.7244  0.2503 -0.6775
26185SOL    HW181575   7.630   6.143   7.983  1.7238 -2.0434 -2.3424
26185SOL    HW281576   7.628   6.017   8.066  0.8343  0.2668  1.2712
26186SOL     OW81577   8.062   4.425   1.592  0.2839  0.2671  0.1083
26186SOL    HW181578   7.969   4.448   1.586  0.7781  2.2007 -0.2968
26186SOL    HW281579   8.069   4.344   1.542 -1.2525 -0.1240  0.4760
26187SOL     OW81580   3.686   5.841   5.609  0.4633  0.1525 -0.0636
26187SOL    HW181581   3.715   5.906   5.545  2.4501 -1.4012 -0.7946
26187SOL    HW281582   3.761   5.832   5.668 -0.6334  0.1441  1.3445
26188SOL     OW81583   0.813   2.475   1.919 -0.1854  0.1998 -0.3604
26188SOL    HW181584   0.886   2.536   1.931 -0.9712  0.9251  0.8381
26188SOL    HW281585   0.823   2.443   1.830 -0.3081  2.8156 -1.3386
26189SOL     OW81586   1.247   1.038   3.436  0.2339 -0.9626  0.0726
26189SOL    HW181587   1.196   1.054   3.516 -0.5053  0.1187 -0.6023
26189SOL    HW281588   1.184   1.051   3.365  2.0165  3.1613 -0.9312
26190SOL     OW81589   1.580   8.542   3.174 -0.4407  0.0453 -0.2110
26190SOL    HW181590   1.580   8.524   3.268 -0.5340  2.7678  0.3291
26190SOL    HW281591   1.501   8.593   3.160  1.0019  2.0255 -1.2875
26191SOL     OW81592   0.862   2.570   8.568 -0.5926 -0.2551  0.8602
26191SOL    HW181593   0.857   2.653   8.521 -0.1012 -1.2535 -1.0041
26191SOL    HW281594   0.940   2.578   8.623  0.0936  0.1060 -0.1514
26192SOL     OW81595   7.935   6.222   0.528  0.6290 -1.1208 -0.2854
26192SOL    HW181596   7.927   6.220   0.432 -0.6334  1.6249 -0.3060
26192SOL    HW281597   8.011   6.278   0.545  0.2447 -0.7659  0.3071
26193SOL     OW81598   7.328   3.844   5.485  0.3238 -0.2432 -0.0399
26193SOL    HW181599   7.377   3.762   5.473 -0.0232 -0.3758 -0.5701
26193SOL    HW281600   7.328   3.885   5.398  0.3573  0.2431  0.1874
26194SOL     OW81601   3.857   1.351   4.627 -0.0663 -0.4366 -0.2127
26194SOL    HW181602   3.827   1.371   4.715  1.8072 -0.9104  0.5491
26194SOL    HW281603   3.944   1.390   4.621 -0.0363 -0.6820 -1.7448
26195SOL     OW81604   0.875   2.089   8.469  0.1875 -0.4623  0.3680
26195SOL    HW181605   0.946   2.088   8.404 -0.1271 -0.8855  0.0202
26195SOL    HW281606   0.797   2.110   8.417  0.0613  0.0169  0.7520
26196SOL     OW81607   5.562   5.974   3.520  0.1030  0.1557  0.0081
26196SOL    HW181608   5.648   5.932   3.523  0.5117  1.0186  0.7060
26196SOL    HW281609   5.509   5.926   3.583  0.7513  1.0582  1.2727
26197SOL     OW81610   6.166   7.938   9.205 -0.6417 -0.3241  0.2068
26197SOL    HW181611   6.144   7.847   9.182  1.4246 -0.2761 -2.2316
26197SOL    HW281612   6.105   7.991   9.153 -1.8222 -0.2984  1.6011
26198SOL     OW81613   2.862   3.057   7.660  0.3724 -0.2742  0.0502
26198SOL    HW181614   2.852   3.077   7.753 -1.2332  0.0831 -0.1861
26198SOL    HW281615   2.948   3.015   7.654  0.3311 -0.6509  1.7455
26199SOL     OW81616   0.322   6.118   5.316  0.1383  0.0778 -0.2220
26199SOL    HW181617   0.276   6.034   5.321  0.0920  0.0380 -1.1382
26199SOL    HW281618   0.396   6.101   5.258  0.6794  0.4290  0.3577
26200SOL     OW81619   5.658   4.262   3.305  0.1155  0.1864 -0.1917
26200SOL    HW181620   5.684   4.236   3.216  2.2587 -0.0648  0.4718
26200SOL    HW281621   5.612   4.186   3.340  1.0272 -0.4660 -0.3955
26201SOL     OW81622   1.441   9.246   1.720  0.1242 -0.1339 -0.5568
26201SOL    HW181623   1.486   9.292   1.649  1.2698 -0.3348  0.0218
26201SOL    HW281624   1.479   9.158   1.719 -1.0099 -0.6231 -0.7258
26202SOL     OW81625   2.017   4.398   1.122  0.5646  0.0676  0.2285
26202SOL    HW181626   2.003   4.491   1.143 -0.1866  0.2224 -0.9428
26202SOL    HW281627   2.111   4.392   1.105  0.4079  0.9082 -1.0483
26203SOL     OW81628   6.877   0.588   0.342  0.1842 -0.1677 -0.4397
26203SOL    HW181629   6.835   0.564   0.424  0.2775 -0.0378 -0.3538
26203SOL    HW281630   6.819   0.553   0.274 -0.8310  1.2773 -0.3371
26204SOL     OW81631   1.146   6.929   1.397  0.2519  0.4810  0.5236
26204SOL    HW181632   1.098   6.993   1.449 -0.3226  0.1027  0.4677
26204SOL    HW281633   1.131   6.956   1.306 -0.6163 -0.1546  0.4655
26205SOL     OW81634   6.567   3.759   1.444 -0.6185  0.6154 -0.3024
26205SOL    HW181635   6.646   3.706   1.448 -0.7995  0.3474 -0.2629
26205SOL    HW281636   6.559   3.784   1.352 -1.5699 -1.0113 -0.6856
26206SOL     OW81637   2.457   2.767   1.413  0.6563 -0.4314  0.0779
26206SOL    HW181638   2.472   2.697   1.350  1.6091 -0.3467  0.2157
26206SOL    HW281639   2.429   2.721   1.493 -2.2144 -0.4507 -0.8738
26207SOL     OW81640   3.606   1.739   6.330  0.0378  0.5893  0.2374
26207SOL    HW181641   3.601   1.665   6.270 -1.3152  0.9632 -0.1248
26207SOL    HW281642   3.642   1.702   6.411  2.4030  0.2128 -0.9695
26208SOL     OW81643   8.268   0.838   5.816  0.1392 -0.0087 -0.1736
26208SOL    HW181644   8.237   0.767   5.872 -0.4696 -0.9826 -1.7051
26208SOL    HW281645   8.358   0.813   5.794  0.3085  0.2700  0.2004
26209SOL     OW81646   3.001   2.812   6.127 -0.2241  0.0467  0.3252
26209SOL    HW181647   2.924   2.835   6.074 -1.7161 -1.3323  1.8409
26209SOL    HW281648   3.058   2.765   6.067 -1.4845 -0.7223 -0.2957
26210SOL     OW81649   8.449   0.110   6.374  0.4714 -0.7015 -0.3470
26210SOL    HW181650   8.527   0.102   6.318 -0.2567  0.4049 -1.5454
26210SOL    HW281651   8.432   0.204   6.378 -1.5235 -0.9952 -1.1225
26211SOL     OW81652   4.347   2.724   3.779 -0.2080  0.4059 -0.1907
26211SOL    HW181653   4.258   2.718   3.745 -0.3313  1.9853 -0.1802
26211SOL    HW281654   4.381   2.634   3.774 -1.6128 -0.1066 -0.6770
26212SOL     OW81655   0.291   7.877   7.149  0.0633  0.2824  0.0663
26212SOL    HW181656   0.199   7.866   7.123  0.3545  1.6800 -1.6875
26212SOL    HW281657   0.287   7.928   7.230 -0.7627 -1.5111  1.1940
26213SOL     OW81658   8.385   2.399   3.953  0.4798  0.3429  0.2251
26213SOL    HW181659   8.410   2.309   3.931 -1.1429  0.4287 -2.2444
26213SOL    HW281660   8.461   2.435   4.000  1.9960 -1.6470 -0.6394
26214SOL     OW81661   8.316   2.898   2.190  0.2342  0.1299 -0.1880
26214SOL    HW181662   8.247   2.838   2.219 -0.2585  0.1074 -1.3879
26214SOL    HW281663   8.284   2.934   2.107  1.7710 -0.0838 -0.8922
26215SOL     OW81664   9.104   2.467   9.236  0.9555  0.6130 -0.7908
26215SOL    HW181665   9.093   2.561   9.220 -0.1347  0.5526 -0.4433
26215SOL    HW281666   9.079   2.425   9.154  0.6117  0.5832 -0.6715
26216SOL     OW81667   6.213   8.579   2.537 -0.2373  0.0878  0.0995
26216SOL    HW181668   6.238   8.637   2.609 -1.1220  0.6953 -0.0723
26216SOL    HW281669   6.174   8.638   2.472  1.2200 -0.3274 -1.2132
26217SOL     OW81670   1.981   2.122   0.773  0.1650 -0.2980  0.1674
26217SOL    HW181671   1.934   2.206   0.766  0.2859 -0.2839 -0.6047
26217SOL    HW281672   1.923   2.066   0.825 -1.1612 -0.5794 -1.5417
26218SOL     OW81673   3.110   6.198   4.783  0.3897 -0.7117  0.3894
26218SOL    HW181674   3.114   6.292   4.800  0.3006 -0.2745 -1.8549
26218SOL    HW281675   3.064   6.190   4.700  1.4812 -2.6672 -0.0788
26219SOL     OW81676   3.765   7.242   6.342 -0.3455  0.1007 -0.7212
26219SOL    HW181677   3.757   7.296   6.421 -2.3908  0.0611 -0.8539
26219SOL    HW281678   3.747   7.153   6.373 -2.1713  0.2125 -1.3597
26220SOL     OW81679   1.745   5.933   6.243  0.2605 -0.0979 -1.0748
26220SOL    HW181680   1.820   5.930   6.302  0.9530  0.7446 -1.8744
26220SOL    HW281681   1.684   5.868   6.276  1.4467 -0.9358 -0.5282
26221SOL     OW81682   4.712   2.402   6.266 -0.1033  0.2176 -0.4743
26221SOL    HW181683   4.740   2.364   6.350  0.0406  1.3043 -0.0326
26221SOL    HW281684   4.619   2.378   6.259 -0.0423 -0.1283 -0.1544
26222SOL     OW81685   5.224   7.498   4.250  0.0252 -0.1583  0.4139
26222SOL    HW181686   5.284   7.434   4.288 -1.4352 -1.0826  1.2513
26222SOL    HW281687   5.164   7.446   4.197 -0.6622  0.6009  0.4310
26223SOL     OW81688   7.388   5.516   1.498 -0.8711 -0.1222 -0.3986
26223SOL    HW181689   7.448   5.556   1.561 -1.2934 -0.1472  0.0251
26223SOL    HW281690   7.321   5.583   1.482 -2.3286 -1.0968  1.3372
26224SOL     OW81691   2.253   4.511   7.346 -0.0510  0.3856 -0.7328
26224SOL    HW181692   2.250   4.546   7.435  0.0347  1.4510 -1.1385
26224SOL    HW281693   2.306   4.574   7.297  0.7468 -0.7103 -1.3120
26225SOL     OW81694   2.246   5.045   6.509  0.4562 -0.2285  0.5951
26225SOL    HW181695   2.232   5.011   6.597 -0.6900  1.4096  1.0670
26225SOL    HW281696   2.319   5.106   6.518  0.6689 -0.4439  0.3166
26226SOL     OW81697   7.446   3.804   6.936  0.0727 -0.2494  0.3602
26226SOL    HW181698   7.538   3.795   6.958 -0.3238 -3.7992  0.9104
26226SOL    HW281699   7.443   3.876   6.874  3.2523 -0.3616 -0.0065
26227SOL     OW81700   9.073   7.944   3.613 -0.0670 -0.1773 -0.2154
26227SOL    HW181701   9.106   8.007   3.548 -1.4914  0.5128 -0.2738
26227SOL    HW281702   8.991   7.912   3.576 -0.5103 -0.3362  0.8924
26228SOL     OW81703   5.720   1.458   7.801  0.3685 -0.2930 -0.4011
26228SOL    HW181704   5.774   1.411   7.864  1.2201 -0.3892 -1.1848
26228SOL    HW281705   5.653   1.394   7.775 -2.4978  1.0250  3.4018
26229SOL     OW81706   6.189   3.340   5.829  0.2006 -0.3568  0.1026
26229SOL    HW181707   6.148   3.420   5.798  1.7923  0.1267 -0.8603
26229SOL    HW281708   6.117   3.283   5.854 -1.0430  0.3923 -1.6997
26230SOL     OW81709   2.173   6.767   0.995 -0.1840 -0.1967  0.3544
26230SOL    HW181710   2.100   6.827   0.980 -0.3878 -0.5816 -0.2067
26230SOL    HW281711   2.222   6.769   0.912 -0.6186 -1.3845  0.0584
26231SOL     OW81712   4.100   0.969   1.684  0.0984  0.2874  0.4374
26231SOL    HW181713   4.050   0.951   1.605  0.9245  1.0490 -0.2766
26231SOL    HW281714   4.140   0.885   1.707 -0.4647 -0.0242  0.2688
26232SOL     OW81715   3.284   4.158   8.416  0.3731 -0.3517  0.0433
26232SOL    HW181716   3.194   4.131   8.430  0.5339 -1.0183 -0.1539
26232SOL    HW281717   3.283   4.203   8.331 -0.0555  1.0488  0.7841
26233SOL     OW81718   9.228   4.957   1.664  0.1898 -0.0083  0.4086
26233SOL    HW181719   9.158   4.891   1.666  0.3131 -0.1189  2.2163
26233SOL    HW281720   9.307   4.908   1.685  0.1641  0.8123  2.5851
26234SOL     OW81721   9.422   1.152   6.498  0.2282  0.0032 -0.3758
26234SOL    HW181722   9.438   1.240   6.531 -1.0013  0.5475 -1.1922
26234SOL    HW281723   9.509   1.113   6.490  0.9426  1.8246 -1.8647
26235SOL     OW81724   2.921   4.013   5.283  0.5137  0.1650 -0.2758
26235SOL    HW181725   2.900   4.082   5.220  1.3491  0.5919 -0.0874
26235SOL    HW281726   2.892   4.048   5.367 -0.3835 -0.3100 -0.3763
26236SOL     OW81727   7.294   7.608   1.651  0.2254  0.1318 -0.1655
26236SOL    HW181728   7.388   7.622   1.661  0.5191 -1.7530 -0.1444
26236SOL    HW281729   7.285   7.554   1.573 -0.7383 -0.7025  0.4907
26237SOL     OW81730   1.440   1.600   8.009  0.2375  0.5573  0.5544
26237SOL    HW181731   1.455   1.595   7.915  1.9752  0.3037  0.8238
26237SOL    HW281732   1.360   1.651   8.018 -1.5540 -1.8544 -1.1605
26238SOL     OW81733   7.576   0.152   1.592 -0.8793 -0.5234  0.6373
26238SOL    HW181734   7.550   0.208   1.666  0.4865 -1.3172  1.7369
26238SOL    HW281735   7.624   0.211   1.534 -0.6964 -0.2274  1.0843
26239SOL     OW81736   4.120   7.363   9.375  0.0839 -0.0283  0.8340
26239SOL    HW181737   4.044   7.317   9.339 -0.7014 -0.4855  2.9969
26239SOL    HW281738   4.170   7.390   9.298 -0.2710 -3.0927 -0.5651
26240SOL     OW81739   3.038   8.821   5.485  0.5341 -0.2711  0.7688
26240SOL    HW181740   3.048   8.891   5.420 -1.0625 -0.2254  0.5493
26240SOL    HW281741   3.102   8.842   5.553 -0.8241  2.1143  1.3368
26241SOL     OW81742   6.218   5.452   4.939 -0.2252  0.0878  0.0106
26241SOL    HW181743   6.237   5.359   4.926 -0.6850 -0.3264  2.0848
26241SOL    HW281744   6.220   5.490   4.851  1.4984 -1.5890 -0.7131
26242SOL     OW81745   1.385   3.983   5.778  0.3358 -0.3282  0.2219
26242SOL    HW181746   1.336   3.911   5.739  0.2652  0.8115 -1.8847
26242SOL    HW281747   1.399   3.957   5.869  0.3979 -3.0183 -0.5281
26243SOL     OW81748   6.515   1.555   0.439 -0.6624 -0.0720  0.4220
26243SOL    HW181749   6.471   1.535   0.522 -0.8974 -1.0834  0.0606
26243SOL    HW281750   6.601   1.514   0.447  0.5296  2.4814  1.4026
26244SOL     OW81751   6.747   0.206   1.422  0.2189  0.0557  0.2311
26244SOL    HW181752   6.702   0.273   1.473 -2.8126 -1.4248 -0.3904
26244SOL    HW281753   6.793   0.255   1.354 -2.3295  1.5222 -0.5035
26245SOL     OW81754   0.484   5.658   8.727 -0.6566  0.4496 -0.2317
26245SOL    HW181755   0.570   5.620   8.747 -1.8586 -1.6458  1.1818
26245SOL    HW281756   0.472   5.640   8.634 -0.7670 -1.8280  0.1922
26246SOL     OW81757   3.369   4.665   6.573 -0.6740  0.2427  0.1126
26246SOL    HW181758   3.464   4.677   6.573 -0.8426  1.7993 -0.8923
26246SOL    HW281759   3.334   4.749   6.605 -1.7491  0.0539 -0.5288
26247SOL     OW81760   8.552   2.648   2.976 -0.0116  0.2346 -0.7384
26247SOL    HW181761   8.611   2.587   2.932 -1.0105 -2.0313  0.9567
26247SOL    HW281762   8.464   2.612   2.961 -0.6081  1.1715  0.4100
26248SOL     OW81763   0.504   6.963   7.048  0.2590  0.8110  0.1328
26248SOL    HW181764   0.473   6.884   7.005  1.7941  0.8479 -1.1011
26248SOL    HW281765   0.430   7.024   7.044  0.1180  0.5542 -1.8114
26249SOL     OW81766   4.374   5.078   6.205 -0.3758 -0.4663 -0.5548
26249SOL    HW181767   4.350   5.047   6.118  1.0111 -2.7348 -0.1721
26249SOL    HW281768   4.318   5.029   6.265 -1.8916  1.6608 -0.1495
26250SOL     OW81769   4.811   9.188   3.912 -0.0068  0.7933 -0.4330
26250SOL    HW181770   4.783   9.198   4.003  0.3695 -1.8594 -0.0046
26250SOL    HW281771   4.905   9.171   3.918 -0.5218 -2.4690 -1.1137
26251SOL     OW81772   2.782   8.350   8.767  0.2365  0.0610  0.4663
26251SOL    HW181773   2.844   8.338   8.839  1.5037 -0.7418 -0.7311
26251SOL    HW281774   2.724   8.274   8.773  0.4358 -0.0870  0.5434
26252SOL     OW81775   8.611   7.173   6.850  0.4247  0.5672  0.1932
26252SOL    HW181776   8.672   7.224   6.903  1.0212 -0.6540  0.6960
26252SOL    HW281777   8.566   7.238   6.796 -1.5894  2.1026  3.5432
26253SOL     OW81778   2.392   7.690   4.325  0.5245 -0.4607  0.6215
26253SOL    HW181779   2.477   7.694   4.368  0.5192 -1.2927  0.7300
26253SOL    HW281780   2.412   7.679   4.232  0.5379  1.6967  0.3599
26254SOL     OW81781   7.411   2.036   5.213  0.4230 -0.3302  0.2086
26254SOL    HW181782   7.413   2.058   5.120  1.4822  0.8809  0.5073
26254SOL    HW281783   7.500   2.004   5.232  0.6991  0.9602  1.1522
26255SOL     OW81784   3.688   4.571   5.154  0.4420 -0.1740 -0.9212
26255SOL    HW181785   3.756   4.566   5.088  1.4675 -1.5307  0.2117
26255SOL    HW281786   3.734   4.595   5.235 -0.6704  0.6596 -0.5217
26256SOL     OW81787   6.320   4.437   1.022  0.3290 -0.1481 -0.0588
26256SOL    HW181788   6.367   4.520   1.029 -0.1065  0.0797  0.1646
26256SOL    HW281789   6.281   4.439   0.935 -2.2606  1.2571  1.0729
26257SOL     OW81790   3.180   9.358   4.756  0.4134  0.8060 -0.1474
26257SOL    HW181791   3.254   9.349   4.816 -1.9005 -0.4171  2.6464
26257SOL    HW281792   3.163   9.452   4.753  0.5407  0.8733  1.1174
26258SOL     OW81793   1.696   8.671   4.939 -0.1284 -0.0027  0.2348
26258SOL    HW181794   1.783   8.648   4.905 -0.7689 -0.0365 -1.4014
26258SOL    HW281795   1.636   8.611   4.895 -0.8889 -0.6723  2.1317
26259SOL     OW81796   5.739   2.779   3.590 -0.5686 -0.0308  0.2805
26259SOL    HW181797   5.668   2.725   3.555 -0.5304 -0.9826  1.6541
26259SOL    HW281798   5.735   2.860   3.538 -1.0091 -1.0917 -1.3721
26260SOL     OW81799   3.924   7.426   0.463  0.0267  0.4830  0.0065
26260SOL    HW181800   3.887   7.359   0.405  1.6919 -0.1558 -0.3419
26260SOL    HW281801   4.006   7.451   0.421  0.5298  1.0880  1.3362
26261SOL     OW81802   1.370   3.878   5.276  0.1508  0.6161  0.5826
26261SOL    HW181803   1.294   3.932   5.298 -1.3350 -0.3776 -1.8730
26261SOL    HW281804   1.425   3.935   5.222  0.9419  1.1927  1.9878
26262SOL     OW81805   4.750   3.772   0.386 -0.0522  0.3030  0.2122
26262SOL    HW181806   4.656   3.788   0.383  0.2169  1.6867 -1.5019
26262SOL    HW281807   4.770   3.730   0.303  0.7554 -0.6281  0.8596
26263SOL     OW81808   2.666   7.868   5.382 -0.3832  0.0204 -0.2436
26263SOL    HW181809   2.573   7.861   5.403  0.2991 -1.2927  2.6870
26263SOL    HW281810   2.673   7.835   5.293 -2.4266 -2.1509  0.3366
26264SOL     OW81811   0.273   6.179   5.745 -0.0150  0.1540 -0.0534
26264SOL    HW181812   0.312   6.093   5.757 -0.9293 -0.4936 -1.5566
26264SOL    HW281813   0.347   6.236   5.722  0.3331 -0.6632 -0.9972
26265SOL     OW81814   8.712   9.296   4.490  0.0906 -0.2174 -0.2264
26265SOL    HW181815   8.794   9.329   4.526  0.1328  0.0708 -0.5874
26265SOL    HW281816   8.725   9.201   4.482  0.3134 -0.1962 -0.0935
26266SOL     OW81817   4.817   0.447   0.437  0.5675 -0.3019 -0.0788
26266SOL    HW181818   4.809   0.378   0.371 -1.1959 -0.5300  0.3367
26266SOL    HW281819   4.840   0.400   0.517 -1.1704 -0.4998  0.3269
26267SOL     OW81820   4.791   7.282   4.965 -0.6270 -0.4338  0.4452
26267SOL    HW181821   4.777   7.188   4.951  0.5995 -0.6039  0.3046
26267SOL    HW281822   4.786   7.320   4.877 -0.5799 -0.4438  0.4388
26268SOL     OW81823   3.792   7.923   3.219  0.1317 -0.0964  0.6533
26268SOL    HW181824   3.853   7.863   3.177 -0.1608  0.4007 -0.5059
26268SOL    HW281825   3.847   7.982   3.270  0.5398 -0.3335  0.4819
26269SOL     OW81826   0.595   8.430   6.790 -0.4585 -0.2203  0.3132
26269SOL    HW181827   0.623   8.464   6.874 -0.7972 -1.0132  0.7512
26269SOL    HW281828   0.619   8.337   6.792 -0.7384 -0.3138 -0.3423
26270SOL     OW81829   7.780   3.365   3.199  0.0385  0.5072  0.1741
26270SOL    HW181830   7.848   3.303   3.172 -0.5140  0.3230 -0.8081
26270SOL    HW281831   7.732   3.384   3.119 -1.5275  0.0800  0.9878
26271SOL     OW81832   8.250   1.509   1.178 -0.3107 -0.2997 -0.0957
26271SOL    HW181833   8.257   1.591   1.227  1.5673 -0.1866 -0.5242
26271SOL    HW281834   8.156   1.498   1.162 -0.4729  2.4859 -1.2463
26272SOL     OW81835   1.204   6.628   7.069  0.4112  0.2712 -0.0260
26272SOL    HW181836   1.271   6.617   7.136 -0.6397  0.8094  1.1470
26272SOL    HW281837   1.251   6.658   6.992  1.4049  1.4991  1.0412
26273SOL     OW81838   3.117   4.962   3.136 -0.1517  0.4542  0.3499
26273SOL    HW181839   3.040   4.966   3.193 -1.2438  2.2730 -1.1863
26273SOL    HW281840   3.087   4.913   3.059  0.4302  0.5157  0.0831
26274SOL     OW81841   1.398   3.729   0.528 -0.1724  0.3066  0.4347
26274SOL    HW181842   1.344   3.658   0.494  0.7045 -0.2745  0.2226
26274SOL    HW281843   1.394   3.797   0.461 -2.4944  1.2260  1.4627
26275SOL     OW81844   7.294   7.610   5.787 -0.0992  0.0649 -0.0824
26275SOL    HW181845   7.287   7.604   5.691  0.6034  2.0676 -0.2866
26275SOL    HW281846   7.383   7.579   5.805 -0.2167 -0.2736 -0.0750
26276SOL     OW81847   4.042   5.024   7.897 -0.6888 -0.1010 -0.2072
26276SOL    HW181848   4.044   5.044   7.990  0.4596 -1.2649  0.0415
26276SOL    HW281849   4.134   5.021   7.871 -0.9585 -0.8621 -1.1212
26277SOL     OW81850   3.268   7.450   7.150 -0.0294 -0.3975 -0.0086
26277SOL    HW181851   3.343   7.391   7.144  0.6714  0.5317 -0.4605
26277SOL    HW281852   3.264   7.473   7.243  0.1120 -0.6125  0.0519
26278SOL     OW81853   0.232   8.683   6.685  0.2696 -0.2652  0.2608
26278SOL    HW181854   0.323   8.675   6.655  0.5215  1.8390  0.3705
26278SOL    HW281855   0.235   8.655   6.777  0.7102 -0.6467  0.1342
26279SOL     OW81856   4.817   7.850   7.055 -0.2533  0.1239 -0.5016
26279SOL    HW181857   4.750   7.837   7.121 -0.4858  0.1992 -0.7237
26279SOL    HW281858   4.898   7.860   7.105 -0.5825  1.2454 -0.1812
26280SOL     OW81859   3.914   7.400   5.406 -0.6057 -0.4904 -0.0314
26280SOL    HW181860   3.942   7.490   5.426 -0.1412 -0.6606  0.1108
26280SOL    HW281861   3.855   7.377   5.478 -2.2724  0.3876 -1.1105
26281SOL     OW81862   2.482   4.440   4.428  0.1834 -0.3859 -0.3008
26281SOL    HW181863   2.517   4.520   4.468 -0.1991 -0.7177  0.7241
26281SOL    HW281864   2.520   4.439   4.340  3.9554 -1.4487  1.2086
26282SOL     OW81865   6.180   1.556   1.950 -0.5373 -0.4308 -0.2561
26282SOL    HW181866   6.235   1.562   2.028 -1.0228 -3.7840  0.4076
26282SOL    HW281867   6.240   1.573   1.877  0.0405  2.1480  0.7476
26283SOL     OW81868   3.491   1.955   8.818 -0.2771 -0.6454 -0.5114
26283SOL    HW181869   3.535   1.987   8.739 -0.2794 -0.5088 -0.4580
26283SOL    HW281870   3.459   1.868   8.794  0.5099 -0.9760 -0.3620
26284SOL     OW81871   0.397   9.235   9.221  0.0735  0.7088 -0.2514
26284SOL    HW181872   0.347   9.196   9.150  0.5616 -1.8529  0.7734
26284SOL    HW281873   0.372   9.185   9.299  2.8352  0.5675  0.5935
26285SOL     OW81874   8.680   5.900   1.684  0.5211  0.2894 -0.9440
26285SOL    HW181875   8.716   5.815   1.710  0.3179  0.1850 -1.0056
26285SOL    HW281876   8.686   5.953   1.764 -0.0150 -0.0031 -0.7082
26286SOL     OW81877   5.740   1.903   7.371 -0.2074  0.2438  0.1529
26286SOL    HW181878   5.715   1.985   7.328  1.2017  0.2418 -0.7096
26286SOL    HW281879   5.802   1.931   7.439 -0.5599  0.0015  0.5706
26287SOL     OW81880   0.550   2.820   6.785  0.6521  0.1136  0.4693
26287SOL    HW181881   0.631   2.870   6.796  0.3803  0.7576 -0.3725
26287SOL    HW281882   0.574   2.748   6.726  0.3301  1.0306 -0.8082
26288SOL     OW81883   6.072   3.668   0.684  0.3177  0.8586 -0.7700
26288SOL    HW181884   6.128   3.644   0.757 -3.0488 -2.1887  0.9920
26288SOL    HW281885   5.988   3.626   0.703 -2.0372  3.6739 -4.1764
26289SOL     OW81886   2.638   0.731   6.168 -0.3090 -0.3399  0.1709
26289SOL    HW181887   2.632   0.702   6.259 -0.5410 -2.3846 -0.4610
26289SOL    HW281888   2.717   0.784   6.164  0.1152 -0.8824  1.4023
26290SOL     OW81889   6.135   1.055   2.899 -0.2599  0.1369  0.0981
26290SOL    HW181890   6.152   1.145   2.873 -0.1975  0.1783  0.2767
26290SOL    HW281891   6.044   1.055   2.928 -0.2699  0.1362  0.0648
26291SOL     OW81892   1.960   8.573   6.976  0.0736  0.0801  0.3007
26291SOL    HW181893   1.878   8.546   6.934 -0.6298  1.7975  0.5567
26291SOL    HW281894   2.015   8.604   6.904  0.7720 -1.6872  0.0426
26292SOL     OW81895   4.087   3.771   4.033 -0.7314  0.2703 -0.3142
26292SOL    HW181896   4.174   3.811   4.036 -1.2179  1.3827 -1.0234
26292SOL    HW281897   4.093   3.707   3.961 -0.1409 -0.5261  0.4289
26293SOL     OW81898   8.026   3.406   7.780  0.0285  0.2442 -0.4069
26293SOL    HW181899   7.965   3.434   7.712 -2.2938 -0.8504  1.1590
26293SOL    HW281900   8.020   3.310   7.779 -0.1483  0.2238  1.4202
26294SOL     OW81901   5.123   0.695   2.700 -0.0689 -0.0994 -0.3526
26294SOL    HW181902   5.203   0.747   2.689 -0.1556  0.1791  0.3052
26294SOL    HW281903   5.064   0.752   2.749  0.3342 -1.3299  1.6201
26295SOL     OW81904   2.108   0.830   4.057  0.7088  0.0820  0.2071
26295SOL    HW181905   2.084   0.748   4.015 -2.0976  1.3213 -0.7538
26295SOL    HW281906   2.139   0.805   4.144 -0.5595 -1.9709  0.0965
26296SOL     OW81907   2.637   6.831   7.204 -0.6117  0.0767 -0.3348
26296SOL    HW181908   2.606   6.897   7.265 -0.0816  1.5965 -1.6807
26296SOL    HW281909   2.733   6.835   7.210 -0.5701 -0.4418 -0.5587
26297SOL     OW81910   7.610   3.347   2.186 -0.3589 -0.2569 -0.4158
26297SOL    HW181911   7.535   3.354   2.245 -0.5032 -0.0526 -0.6269
26297SOL    HW281912   7.684   3.326   2.244 -0.7253 -1.2851 -0.3014
26298SOL     OW81913   7.797   5.360   2.191 -0.5548  0.5400 -0.2106
26298SOL    HW181914   7.813   5.362   2.097  0.8238  1.8141  0.0342
26298SOL    HW281915   7.883   5.374   2.231 -1.0903 -0.2237  1.2372
26299SOL     OW81916   6.140   4.803   3.874 -0.3103 -0.2746  0.1002
26299SOL    HW181917   6.048   4.780   3.888 -0.1239 -0.6549  0.6857
26299SOL    HW281918   6.175   4.818   3.961 -0.6344  3.1293 -0.2811
26300SOL     OW81919   7.575   1.877   3.948  0.5177 -0.5009 -0.1165
26300SOL    HW181920   7.502   1.909   3.895  1.5461  1.1952 -0.5581
26300SOL    HW281921   7.653   1.911   3.903  1.5240 -1.3828  0.9431
26301SOL     OW81922   4.681   4.627   7.864 -0.6973 -0.5223 -0.0203
26301SOL    HW181923   4.670   4.619   7.959 -0.0781  0.8070  0.1633
26301SOL    HW281924   4.748   4.562   7.842  1.1175  1.0154  0.8472
26302SOL     OW81925   0.859   7.395   8.843  0.5371  0.1978  0.2134
26302SOL    HW181926   0.766   7.394   8.820  0.3775 -1.9001  0.8890
26302SOL    HW281927   0.904   7.393   8.758 -0.0268 -0.0401 -0.0817
26303SOL     OW81928   7.203   1.543   0.492 -0.1261  0.6254 -0.5725
26303SOL    HW181929   7.157   1.465   0.521 -0.7585  0.2542 -2.5438
26303SOL    HW281930   7.146   1.615   0.518  1.7362  0.7141  3.7842
26304SOL     OW81931   1.177   7.393   1.436  0.2791 -0.7501  0.0730
26304SOL    HW181932   1.207   7.451   1.505 -1.1072  0.2730 -0.1742
26304SOL    HW281933   1.093   7.360   1.467  0.5918 -1.8624 -0.2299
26305SOL     OW81934   1.677   6.284   0.791  0.0871  0.1369 -0.2108
26305SOL    HW181935   1.592   6.328   0.791 -0.0028 -0.0080  1.4396
26305SOL    HW281936   1.739   6.351   0.818  0.0962 -0.4562  1.2880
26306SOL     OW81937   7.643   0.381   8.638 -0.2657 -0.1871 -0.5041
26306SOL    HW181938   7.564   0.432   8.620 -1.5508 -2.4347 -1.4699
26306SOL    HW281939   7.654   0.387   8.733 -0.4583  1.7413 -0.5775
26307SOL     OW81940   2.509   3.903   3.558 -0.2884  0.2767 -0.2899
26307SOL    HW181941   2.499   3.995   3.531 -0.7938 -0.1200 -1.5071
26307SOL    HW281942   2.508   3.906   3.653  0.8842  1.6739 -0.2954
26308SOL     OW81943   5.026   8.930   9.112 -0.1000  0.4416  0.0267
26308SOL    HW181944   4.998   8.977   9.191  0.6205  0.5885  0.1986
26308SOL    HW281945   5.060   8.847   9.144 -0.6717  0.1106 -0.2147
26309SOL     OW81946   4.695   3.978   4.333 -0.1494  0.3979  0.1064
26309SOL    HW181947   4.779   4.021   4.339  0.5047 -1.0006  1.6370
26309SOL    HW281948   4.714   3.894   4.291 -1.1023  0.8637 -1.2743
26310SOL     OW81949   2.144   9.388   1.769  0.3888 -0.0193  0.2493
26310SOL    HW181950   2.086   9.349   1.703  0.9235 -0.4994  0.0606
26310SOL    HW281951   2.228   9.396   1.725  0.6583 -0.0200  0.7621
26311SOL     OW81952   3.177   5.008   0.783 -1.0196  0.4181 -0.0697
26311SOL    HW181953   3.144   4.926   0.820  1.5383 -0.6446 -0.0354
26311SOL    HW281954   3.202   5.061   0.858  0.7554 -0.2885 -0.1148
26312SOL     OW81955   8.055   6.692   8.131 -0.4022  0.3415 -0.0294
26312SOL    HW181956   8.122   6.752   8.164 -0.6692  0.1460  0.8836
26312SOL    HW281957   8.092   6.657   8.050  0.8417 -0.1644  0.7408
26313SOL     OW81958   3.824   1.599   1.575 -0.1309  0.0984 -0.0117
26313SOL    HW181959   3.895   1.662   1.577 -1.3699  1.5023  0.3760
26313SOL    HW281960   3.812   1.572   1.666 -1.5547  1.5512  0.2535
26314SOL     OW81961   7.646   8.780   0.861 -0.4336  0.1600  0.3856
26314SOL    HW181962   7.720   8.739   0.816  0.0946 -0.1941  1.5404
26314SOL    HW281963   7.580   8.710   0.866 -0.2312 -0.0063  0.7569
26315SOL     OW81964   8.079   1.292   7.429  0.5163 -0.1197  0.0895
26315SOL    HW181965   8.001   1.243   7.456  1.0222 -1.2234 -0.4197
26315SOL    HW281966   8.132   1.296   7.509 -0.3414  1.1967  0.6052
26316SOL     OW81967   8.350   8.078   8.002  0.0959 -0.5862 -0.3039
26316SOL    HW181968   8.437   8.099   7.970 -0.3118  0.4912 -0.7372
26316SOL    HW281969   8.362   8.002   8.059  1.5385  0.4627  0.8297
26317SOL     OW81970   1.841   2.738   6.399 -0.5338  0.0716 -0.2854
26317SOL    HW181971   1.894   2.701   6.470 -2.6371 -0.8303  0.8797
26317SOL    HW281972   1.808   2.820   6.435 -0.1999  0.4597 -0.8721
26318SOL     OW81973   4.235   4.799   5.170  0.1982 -0.0937 -0.2520
26318SOL    HW181974   4.297   4.727   5.186 -0.0769 -0.3132 -0.1557
26318SOL    HW281975   4.266   4.840   5.090  1.4058  0.8044  0.6410
26319SOL     OW81976   2.168   1.067   2.366 -0.0719 -0.1009  0.6745
26319SOL    HW181977   2.125   1.091   2.284 -1.7478  0.2957  1.6343
26319SOL    HW281978   2.261   1.077   2.349 -0.4221  0.1916 -1.1110
26320SOL     OW81979   6.918   5.095   4.521 -0.0586  0.4777 -0.0288
26320SOL    HW181980   6.925   5.078   4.615  1.3703  0.7067 -0.0754
26320SOL    HW281981   6.860   5.171   4.514 -0.9201 -0.1217  0.6116
26321SOL     OW81982   7.518   3.725   2.662 -0.1188 -0.3609  0.6050
26321SOL    HW181983   7.512   3.639   2.704  1.6900 -0.6063  0.3976
26321SOL    HW281984   7.476   3.714   2.577 -1.2219 -0.6249  1.1718
26322SOL     OW81985   2.316   7.381   3.258  0.1530  0.6380 -0.1908
26322SOL    HW181986   2.244   7.384   3.320  0.3504  0.4388  0.0469
26322SOL    HW281987   2.308   7.463   3.208 -1.8224 -0.5391 -1.9386
26323SOL     OW81988   4.085   7.006   4.622 -0.4570  0.0348 -0.1207
26323SOL    HW181989   4.142   7.072   4.661 -0.8289  0.0752  0.3627
26323SOL    HW281990   4.034   6.972   4.696  0.5478 -1.6035 -0.1662
26324SOL     OW81991   5.520   0.883   0.574 -0.1706  0.1144 -0.3747
26324SOL    HW181992   5.548   0.886   0.666  1.7111  1.5879 -0.9556
26324SOL    HW281993   5.462   0.959   0.564 -0.6080 -0.2129 -0.3419
26325SOL     OW81994   0.504   4.830   4.564  0.2591 -0.4355  0.0073
26325SOL    HW181995   0.540   4.797   4.646 -0.6869  0.9107  0.9934
26325SOL    HW281996   0.536   4.920   4.559  0.6073 -0.6170 -1.2977
26326SOL     OW81997   1.610   7.469   8.948 -0.4426  0.1568 -0.2938
26326SOL    HW181998   1.550   7.543   8.962 -2.2727 -1.6347  1.6870
26326SOL    HW281999   1.580   7.430   8.865 -0.8923  0.3255 -0.2146
26327SOL     OW82000   5.256   2.578   6.297  0.0096  0.1537  0.0275
26327SOL    HW182001   5.264   2.516   6.224  0.5326  0.0184  0.1976
26327SOL    HW282002   5.189   2.539   6.354 -0.7696  0.5121 -0.6256
26328SOL     OW82003   6.492   0.151   0.104 -0.5284  0.0561 -0.8014
26328SOL    HW182004   6.455   0.167   0.017 -0.3909  2.7321 -0.4345
26328SOL    HW282005   6.498   0.239   0.143  0.8113 -0.9512  1.3282
26329SOL     OW82006   2.520   1.531   0.874 -0.0514 -0.5437  0.2657
26329SOL    HW182007   2.564   1.581   0.943  1.3581 -0.1281 -0.9289
26329SOL    HW282008   2.551   1.442   0.886  2.7375  0.0837 -1.8034
26330SOL     OW82009   8.290   0.465   3.761  0.7821  0.5612 -0.1325
26330SOL    HW182010   8.366   0.522   3.775  0.9570  0.1718  0.6066
26330SOL    HW282011   8.214   0.522   3.769  1.0123  1.0033 -1.1519
26331SOL     OW82012   2.813   6.109   2.764  0.0351  0.0140  0.0060
26331SOL    HW182013   2.725   6.075   2.783  0.0655 -1.4769 -2.2949
26331SOL    HW282014   2.829   6.174   2.832 -2.9324  0.4420  0.3557
26332SOL     OW82015   3.224   6.342   2.420 -0.1115  0.2466  0.1977
26332SOL    HW182016   3.152   6.402   2.440  1.7739  2.2948  0.9856
26332SOL    HW282017   3.255   6.368   2.333 -0.7577 -1.1019 -0.4562
26333SOL     OW82018   2.867   0.540   2.506 -0.4247  0.3849  0.5894
26333SOL    HW182019   2.860   0.627   2.546 -1.3145 -0.3678  2.1564
26333SOL    HW282020   2.932   0.495   2.560 -1.2732 -0.4919  0.8871
26334SOL     OW82021   8.754   4.910   7.103 -0.4611  0.3075 -0.2477
26334SOL    HW182022   8.765   4.951   7.189 -0.0013  0.1674 -0.2422
26334SOL    HW282023   8.843   4.893   7.073 -0.6555 -1.4768  0.1264
26335SOL     OW82024   2.511   3.630   3.484 -1.0906  0.4788  0.0135
26335SOL    HW182025   2.500   3.725   3.481  0.6601  0.7013  0.6504
26335SOL    HW282026   2.495   3.606   3.575  1.2450  0.5251  0.4630
26336SOL     OW82027   9.295   4.658   5.655 -0.0629  0.7175  0.2196
26336SOL    HW182028   9.358   4.693   5.592  1.2152  1.9699  2.1344
26336SOL    HW282029   9.348   4.606   5.715 -0.9862  0.9471  1.2487
26337SOL     OW82030   3.328   3.629   1.702  0.2098  0.4207 -0.8604
26337SOL    HW182031   3.299   3.538   1.693  0.2217  0.3837 -0.5350
26337SOL    HW282032   3.383   3.629   1.780 -0.9461  0.9905 -0.0182
26338SOL     OW82033   2.438   4.084   8.217 -0.4401 -0.2426  0.1059
26338SOL    HW182034   2.394   4.117   8.139 -1.7261 -0.4513  0.7291
26338SOL    HW282035   2.478   4.002   8.189  1.0078  0.7743 -0.9068
26339SOL     OW82036   3.674   7.592   6.738 -0.2311 -0.3389  0.6263
26339SOL    HW182037   3.603   7.565   6.797 -0.4071 -0.1336  0.5095
26339SOL    HW282038   3.742   7.626   6.796 -0.6275  0.3740  0.6776
26340SOL     OW82039   2.894   4.142   3.324 -0.0641 -0.2073  0.1138
26340SOL    HW182040   2.922   4.168   3.412  2.6201 -0.6515 -0.5685
26340SOL    HW282041   2.946   4.197   3.266 -1.2016 -0.5197 -1.2066
26341SOL     OW82042   0.577   6.472   2.769 -0.1696  0.0139 -0.6526
26341SOL    HW182043   0.635   6.421   2.826 -0.0476 -0.2972 -1.0536
26341SOL    HW282044   0.593   6.437   2.682 -0.6835  0.1899 -0.8168
26342SOL     OW82045   6.002   3.808   5.586 -0.4268  0.1552  0.0162
26342SOL    HW182046   6.024   3.773   5.672 -0.4476  1.5002  0.5776
26342SOL    HW282047   5.922   3.762   5.561 -0.2347 -0.4880  0.5486
26343SOL     OW82048   2.744   9.152   9.267  0.0233  0.4842  0.1460
26343SOL    HW182049   2.832   9.159   9.306  0.3170  0.1045 -0.4377
26343SOL    HW282050   2.688   9.122   9.339  0.5181 -0.0023  0.3318
26344SOL     OW82051   6.773   0.194   3.775 -0.2515 -0.3772 -0.0112
26344SOL    HW182052   6.825   0.114   3.770  0.1001 -0.1374 -0.2233
26344SOL    HW282053   6.683   0.165   3.760 -0.2657 -0.8867  0.9906
26345SOL     OW82054   8.197   7.776   0.837 -0.2106 -0.1090 -0.1570
26345SOL    HW182055   8.262   7.727   0.786  1.0541 -0.2370  1.5420
26345SOL    HW282056   8.181   7.855   0.786  1.3942 -0.0115 -0.5403
26346SOL     OW82057   9.377   1.844   6.427  0.4139  0.2386 -0.6477
26346SOL    HW182058   9.404   1.769   6.374 -0.6593 -0.1007 -0.7230
26346SOL    HW282059   9.442   1.848   6.497  0.0869 -1.2018 -0.2473
26347SOL     OW82060   6.822   4.239   6.233  0.1045 -0.1880 -0.2944
26347SOL    HW182061   6.816   4.321   6.282 -0.3305  0.1141 -0.8443
26347SOL    HW282062   6.731   4.216   6.214  0.1693 -1.3042  0.6838
26348SOL     OW82063   4.807   9.231   2.396 -0.4478  0.1308  0.3552
26348SOL    HW182064   4.799   9.243   2.491 -2.3107  0.9363  0.1387
26348SOL    HW282065   4.862   9.304   2.367 -0.1411  0.0702  0.7856
26349SOL     OW82066   5.446   0.025   6.420  0.2547 -0.3919 -0.0252
26349SOL    HW182067   5.477  -0.065   6.416  2.8235  0.4535 -0.4987
26349SOL    HW282068   5.496   0.064   6.491 -0.5851  0.7578 -0.0464
26350SOL     OW82069   8.398   1.631   1.910 -0.3205  0.2534  0.2113
26350SOL    HW182070   8.305   1.613   1.922 -0.8841  1.0538 -2.4943
26350SOL    HW282071   8.427   1.565   1.847  1.1913 -0.6055  1.7974
26351SOL     OW82072   9.198   6.735   3.522  0.1054 -0.2560  0.0340
26351SOL    HW182073   9.209   6.744   3.427 -1.6325 -0.3799 -0.1923
26351SOL    HW282074   9.288   6.734   3.556  0.7672 -0.8542 -1.6587
26352SOL     OW82075   0.274   1.403   6.664 -0.4386 -0.2142 -0.1189
26352SOL    HW182076   0.366   1.378   6.662 -0.2025  0.5921  0.7124
26352SOL    HW282077   0.247   1.390   6.755 -1.5030 -1.7201 -0.6329
26353SOL     OW82078   1.051   7.313   9.027  0.3356 -0.0380  0.4574
26353SOL    HW182079   1.089   7.285   8.943 -1.2185 -1.7957  0.3165
26353SOL    HW282080   0.965   7.347   9.004 -0.8949 -2.3107  1.5282
26354SOL     OW82081   3.494   7.010   4.145 -0.0698 -0.0276 -0.3264
26354SOL    HW182082   3.551   6.965   4.207 -1.0867  0.0986  0.7410
26354SOL    HW282083   3.479   7.096   4.185 -4.6930 -1.6404  1.8206
26355SOL     OW82084   6.834   8.034   0.412 -0.1059 -0.0306  0.2313
26355SOL    HW182085   6.861   8.081   0.333 -0.3263 -0.2709  0.0111
26355SOL    HW282086   6.738   8.038   0.411 -0.1342 -0.5832  0.1439
26356SOL     OW82087   2.581   2.800   3.885 -0.4668  0.2843  0.1937
26356SOL    HW182088   2.537   2.729   3.838  0.5062  0.7241 -1.4135
26356SOL    HW282089   2.667   2.764   3.906 -0.5928  0.3921  0.8997
26357SOL     OW82090   6.280   3.181   8.074 -0.4211  0.1744 -0.1004
26357SOL    HW182091   6.276   3.166   8.168  0.4692  0.1197 -0.0679
26357SOL    HW282092   6.206   3.238   8.056 -0.6285  0.1374  0.6243
26358SOL     OW82093   0.238   4.214   4.617  0.4324  0.4665  0.3924
26358SOL    HW182094   0.274   4.127   4.598 -0.4298 -0.1712  1.5799
26358SOL    HW282095   0.290   4.244   4.692  1.9537  1.7647 -1.1589
26359SOL     OW82096   6.728   9.317   7.401 -0.1078  0.1815  0.2072
26359SOL    HW182097   6.699   9.330   7.491 -1.2916 -0.9539  0.0079
26359SOL    HW282098   6.791   9.245   7.405 -0.8463 -0.4752  0.0030
26360SOL     OW82099   7.094   0.528   3.922  0.0111 -0.0984 -0.3158
26360SOL    HW182100   7.098   0.539   4.017 -0.9668  0.4793 -0.3278
26360SOL    HW282101   7.012   0.481   3.907  1.4662 -2.5884 -0.6866
26361SOL     OW82102   4.637   7.538   4.359 -0.4040 -0.0988 -0.6584
26361SOL    HW182103   4.637   7.455   4.311 -1.3034  1.4644 -3.5485
26361SOL    HW282104   4.574   7.525   4.430 -1.0663 -1.6816 -1.5071
26362SOL     OW82105   2.236   6.554   4.409 -0.5523 -0.3522 -0.5074
26362SOL    HW182106   2.194   6.468   4.405  1.1994 -1.3443  1.6041
26362SOL    HW282107   2.224   6.584   4.499  1.3996  0.2817 -0.4186
26363SOL     OW82108   3.155   6.693   6.415 -0.2989 -0.0271  0.0848
26363SOL    HW182109   3.125   6.753   6.483  1.6042  0.7576  0.2528
26363SOL    HW282110   3.154   6.745   6.334  0.8803  0.1085  0.1448
26364SOL     OW82111   0.583   4.058   7.394 -0.3579 -0.1122 -0.4206
26364SOL    HW182112   0.600   3.978   7.443 -0.2614 -1.5125 -2.6383
26364SOL    HW282113   0.668   4.079   7.353 -0.5517  0.7194 -0.3938
26365SOL     OW82114   5.606   1.997   1.883  0.4811  0.2208  0.2133
26365SOL    HW182115   5.591   1.904   1.900  1.7271 -0.1843 -0.8436
26365SOL    HW282116   5.551   2.042   1.947 -3.1551 -1.1706 -1.7933
26366SOL     OW82117   5.732   3.388   0.356 -0.2729  0.3152  0.2716
26366SOL    HW182118   5.698   3.377   0.268 -0.4095 -0.7885  0.4536
26366SOL    HW282119   5.669   3.446   0.399  0.4432  1.8582 -0.7047
26367SOL     OW82120   7.173   4.983   8.627 -0.1358  0.2456 -0.5264
26367SOL    HW182121   7.125   4.900   8.618 -0.3254  0.2539  0.3400
26367SOL    HW282122   7.230   4.969   8.703 -0.5740  1.1034 -0.0371
26368SOL     OW82123   5.320   8.076   3.062  0.2770  0.0531  0.1022
26368SOL    HW182124   5.389   8.129   3.101  0.5639 -0.2104 -0.0429
26368SOL    HW282125   5.362   7.992   3.043 -0.5751 -0.8208  1.8710
26369SOL     OW82126   9.336   7.416   8.407  0.5367 -0.0220  0.1447
26369SOL    HW182127   9.246   7.421   8.375  0.8075  0.4119 -0.5391
26369SOL    HW282128   9.386   7.473   8.349  1.3450 -0.6400  0.2303
26370SOL     OW82129   6.251   4.835   5.660 -0.1088  0.0192 -0.4458
26370SOL    HW182130   6.225   4.827   5.568  0.1891 -0.2428 -0.5107
26370SOL    HW282131   6.207   4.913   5.691 -1.0969 -0.5089 -0.5069
26371SOL     OW82132   8.885   5.020   6.743 -0.4028  0.1704  0.3043
26371SOL    HW182133   8.935   5.059   6.815 -1.4051  1.4903  0.2997
26371SOL    HW282134   8.920   4.931   6.735  0.9119  0.5853  1.2740
26372SOL     OW82135   4.491   6.904   5.805  0.0364 -0.0482 -0.6147
26372SOL    HW182136   4.535   6.848   5.868 -0.4801  0.0834 -0.1353
26372SOL    HW282137   4.413   6.935   5.851  0.3339  1.0827 -0.8732
26373SOL     OW82138   2.030   7.165   8.577  0.1490 -0.1797  0.7234
26373SOL    HW182139   1.943   7.154   8.617 -0.3914 -1.2123 -0.6958
26373SOL    HW282140   2.012   7.188   8.486  1.3740  0.9396  0.7587
26374SOL     OW82141   7.565   1.036   4.177  0.2338  0.1087 -0.2626
26374SOL    HW182142   7.628   1.091   4.132  0.2446  1.1658  1.0022
26374SOL    HW282143   7.533   0.975   4.110  3.0420 -0.8681 -0.7716
26375SOL     OW82144   6.438   6.987   7.773 -0.7126 -0.4598  0.1566
26375SOL    HW182145   6.386   7.055   7.729 -1.2166 -1.2794 -0.5249
26375SOL    HW282146   6.476   6.936   7.702  0.4988 -0.2695  0.6654
26376SOL     OW82147   8.970   7.987   3.057 -0.3816 -0.8657  0.1082
26376SOL    HW182148   9.036   7.960   2.994  1.3074 -0.6099  1.7158
26376SOL    HW282149   8.947   7.906   3.104  1.3922 -0.3345  1.9166
26377SOL     OW82150   0.517   1.293   4.711  0.2676  0.4378  1.1183
26377SOL    HW182151   0.478   1.352   4.647  0.9591 -0.6125 -0.2967
26377SOL    HW282152   0.505   1.206   4.673 -0.7606 -0.3504  3.1790
26378SOL     OW82153   8.876   6.043   4.556 -0.6545 -0.0299  0.4882
26378SOL    HW182154   8.847   5.994   4.633 -3.8187  0.2689 -0.4517
26378SOL    HW282155   8.926   5.980   4.505 -0.7445 -0.9686  1.5500
26379SOL     OW82156   9.188   2.979   5.013 -0.0863 -0.4947 -0.0852
26379SOL    HW182157   9.247   3.038   4.966  1.7025 -0.7697  1.7696
26379SOL    HW282158   9.207   2.994   5.105 -1.0141 -2.5469  0.4661
26380SOL     OW82159   9.239   7.835   2.165  0.0975 -0.4799 -0.1091
26380SOL    HW182160   9.210   7.828   2.074  0.7894 -1.6154 -0.2580
26380SOL    HW282161   9.269   7.746   2.187 -0.2003 -0.2475  1.2715
26381SOL     OW82162   5.631   3.019   1.233  0.5024 -0.3709 -0.0279
26381SOL    HW182163   5.701   3.084   1.245 -0.3409  0.6164 -0.3202
26381SOL    HW282164   5.593   3.009   1.320  1.3984 -1.3697  0.2539
26382SOL     OW82165   5.347   2.156   1.407 -0.1518 -0.5104 -0.4770
26382SOL    HW182166   5.424   2.116   1.365  0.9839 -0.3441  1.3487
26382SOL    HW282167   5.384   2.227   1.460 -1.4451 -1.1098  1.2585
26383SOL     OW82168   8.964   5.769   0.842 -0.3847 -0.4410 -0.5036
26383SOL    HW182169   8.917   5.804   0.766  0.9010  1.1964 -0.5858
26383SOL    HW282170   9.043   5.730   0.806  1.1914  2.0361  0.0800
26384SOL     OW82171   0.436   3.384   4.881 -0.6433  0.4206  0.5316
26384SOL    HW182172   0.454   3.478   4.894  1.5957  0.0490  0.3769
26384SOL    HW282173   0.403   3.379   4.791 -0.0848  0.9855  0.2858
26385SOL     OW82174   2.089   7.017   0.613 -0.0208  0.7929 -0.0659
26385SOL    HW182175   2.165   7.065   0.644 -0.1114  1.7312 -1.2741
26385SOL    HW282176   2.102   7.009   0.518 -1.1798  0.5449 -0.2170
26386SOL     OW82177   4.480   0.895   1.477 -0.2362 -0.4355 -0.3555
26386SOL    HW182178   4.521   0.869   1.395  0.8889  0.4048 -0.0738
26386SOL    HW282179   4.541   0.867   1.545 -0.3092  0.4600  0.0926
26387SOL     OW82180   2.367   3.569   7.684  0.2406  0.3908 -0.5567
26387SOL    HW182181   2.431   3.499   7.669 -0.8807 -0.9027  0.6414
26387SOL    HW282182   2.318   3.575   7.602 -0.2542 -0.8476 -0.3581
26388SOL     OW82183   5.313   1.288   0.769 -0.2946  0.1850 -0.6275
26388SOL    HW182184   5.403   1.255   0.773 -0.0832  0.9741  2.4236
26388SOL    HW282185   5.320   1.373   0.727  0.6929  1.0891  1.3015
26389SOL     OW82186   4.999   5.971   4.015  0.4862  0.8423  0.4474
26389SOL    HW182187   4.904   5.970   4.006  0.4511 -2.4475  0.6061
26389SOL    HW282188   5.027   6.045   3.961 -1.9982  0.5680 -1.3268
26390SOL     OW82189   8.966   7.754   0.430  0.0578 -0.0088 -0.2120
26390SOL    HW182190   9.002   7.667   0.416 -0.6311 -0.3722  0.3013
26390SOL    HW282191   8.871   7.741   0.437  0.2214  0.3340  3.4445
26391SOL     OW82192   0.312   0.767   4.073 -0.2278  0.3644 -0.2300
26391SOL    HW182193   0.321   0.676   4.100  0.8008  0.4702 -0.1689
26391SOL    HW282194   0.400   0.792   4.043 -0.7330  1.0405 -1.1697
26392SOL     OW82195   7.090   7.973   2.098 -0.2629 -0.5608 -0.8733
26392SOL    HW182196   7.126   8.037   2.036 -1.7068  0.9793 -0.1770
26392SOL    HW282197   7.130   7.890   2.073  1.0728  0.4763 -2.2961
26393SOL     OW82198   2.909   4.230   3.580 -0.0972 -0.1665 -0.4703
26393SOL    HW182199   2.996   4.267   3.591 -1.3900  2.4974  1.3836
26393SOL    HW282200   2.881   4.208   3.669 -1.1741 -1.3620 -1.0818
26394SOL     OW82201   4.747   5.710   6.852  0.7399  0.3040  0.1535
26394SOL    HW182202   4.798   5.719   6.933  0.9833  0.0611  0.0291
26394SOL    HW282203   4.777   5.782   6.797 -0.3960  1.2798  0.7915
26395SOL     OW82204   2.967   7.171   3.062  0.1253 -0.0137 -0.3063
26395SOL    HW182205   2.897   7.236   3.061 -1.7244 -1.9198 -1.5485
26395SOL    HW282206   3.033   7.206   3.121 -1.2007  2.5612 -0.3110
26396SOL     OW82207   1.250   3.655   3.805  0.1232 -0.5045 -0.1977
26396SOL    HW182208   1.276   3.705   3.727  0.4320  0.9991  0.8487
26396SOL    HW282209   1.285   3.568   3.790 -0.2150 -0.3620 -1.9559
26397SOL     OW82210   4.608   9.301   3.406  0.0433 -0.2807  0.3917
26397SOL    HW182211   4.626   9.307   3.500 -1.2900 -0.2207  0.6497
26397SOL    HW282212   4.658   9.373   3.368  0.7532 -0.4297  1.0273
26398SOL     OW82213   3.441   7.707   3.147  0.6993  0.6525 -0.3196
26398SOL    HW182214   3.408   7.639   3.089 -1.2637  0.4975  0.9249
26398SOL    HW282215   3.368   7.769   3.156  1.7661  1.8799  0.1310
26399SOL     OW82216   8.364   7.607   7.681  0.5800  0.4484  0.2769
26399SOL    HW182217   8.340   7.666   7.752 -0.6493 -0.5937  0.7365
26399SOL    HW282218   8.353   7.519   7.718 -1.4357 -0.1385 -1.6179
26400SOL     OW82219   8.560   7.457   8.688  0.2488 -0.0587 -0.1292
26400SOL    HW182220   8.477   7.426   8.650  0.6126 -1.3221  0.0641
26400SOL    HW282221   8.619   7.467   8.613 -0.2368  1.4083 -0.3346
26401SOL     OW82222   0.790   8.614   5.187  0.0428  0.4188  0.2963
26401SOL    HW182223   0.704   8.591   5.150  0.6786 -0.0443 -0.9227
26401SOL    HW282224   0.796   8.709   5.174  0.5371  0.1675 -1.4228
26402SOL     OW82225   5.105   0.334   2.059 -0.2460  0.0287 -0.1954
26402SOL    HW182226   5.044   0.383   2.003  0.9287  1.2746 -0.4168
26402SOL    HW282227   5.189   0.379   2.048  1.2741 -3.0420 -1.6810
26403SOL     OW82228   8.973   8.280   2.686 -0.2935  0.6096  0.6729
26403SOL    HW182229   8.939   8.193   2.706 -0.9107  0.6745 -0.0793
26403SOL    HW282230   8.905   8.321   2.632  1.3316  0.4435 -1.5473
26404SOL     OW82231   3.250   8.040   5.861  0.3745  0.3679  0.2385
26404SOL    HW182232   3.222   7.976   5.796 -1.1799  1.4746 -0.2218
26404SOL    HW282233   3.208   8.122   5.833  0.1428  0.9868  2.3145
26405SOL     OW82234   7.487   3.069   1.733 -0.1826 -0.1376  0.0082
26405SOL    HW182235   7.399   3.066   1.771 -0.2052  1.6526  0.1516
26405SOL    HW282236   7.533   2.994   1.772 -0.9038  0.3251  1.8082
26406SOL     OW82237   4.969   9.019   8.618 -0.7903 -0.1518  0.4911
26406SOL    HW182238   4.954   8.996   8.526  0.9921 -1.3454  0.4703
26406SOL    HW282239   5.038   9.085   8.615  1.4095 -2.3440  1.0834
26407SOL     OW82240   4.477   8.339   9.001  0.0801 -0.2854 -0.6194
26407SOL    HW182241   4.464   8.298   9.087  0.0348  1.4300  0.2353
26407SOL    HW282242   4.541   8.284   8.957  0.0570 -1.2309  0.4920
26408SOL     OW82243   6.406   1.707   2.415  0.0454  0.2421 -0.1224
26408SOL    HW182244   6.348   1.631   2.415  0.6770 -0.2946 -2.6337
26408SOL    HW282245   6.447   1.707   2.501 -0.5379 -1.8301  0.1761
26409SOL     OW82246   1.707   1.612   5.771  0.2258 -0.1273  0.0183
26409SOL    HW182247   1.614   1.632   5.761 -1.0346 -3.8457  3.1590
26409SOL    HW282248   1.736   1.664   5.846  0.0322 -0.8192  0.5789
26410SOL     OW82249   8.657   4.344   1.110  0.0193  0.4549  0.7485
26410SOL    HW182250   8.720   4.276   1.134 -0.3402  0.4748  1.7837
26410SOL    HW282251   8.690   4.423   1.152  0.1833  0.8245 -0.0647
26411SOL     OW82252   6.656   3.049   2.615 -0.6924 -0.1461  0.3634
26411SOL    HW182253   6.742   3.090   2.604 -0.3033 -0.8438  0.7314
26411SOL    HW282254   6.615   3.098   2.686 -0.8607  0.6089 -0.2557
26412SOL     OW82255   5.072   6.437   3.729 -0.1209 -0.3976 -0.5064
26412SOL    HW182256   5.038   6.354   3.763  0.0757 -1.0813 -1.8926
26412SOL    HW282257   5.089   6.418   3.636  0.8705  0.9015 -0.5980
26413SOL     OW82258   5.621   1.582   5.700  0.0338 -0.3183 -0.0612
26413SOL    HW182259   5.638   1.527   5.623  0.0337  0.5977 -0.7171
26413SOL    HW282260   5.578   1.523   5.762 -2.4356 -0.3881 -1.7770
26414SOL     OW82261   3.895   6.363   2.945 -0.2607 -0.1206 -0.9297
26414SOL    HW182262   3.912   6.277   2.907  1.4925 -0.5932  0.8540
26414SOL    HW282263   3.967   6.418   2.914 -0.4267  0.2579 -0.6485
26415SOL     OW82264   3.812   7.198   8.490  0.5967 -0.4558  0.1569
26415SOL    HW182265   3.782   7.144   8.417 -0.9352  0.7353 -0.1374
26415SOL    HW282266   3.835   7.282   8.449  2.2407 -0.6161  0.7035
26416SOL     OW82267   7.738   8.963   9.053  0.2549  0.1220 -0.1953
26416SOL    HW182268   7.725   8.944   9.146  1.2063  0.6800  0.0518
26416SOL    HW282269   7.709   9.054   9.043  1.6884  0.5930 -0.1181
26417SOL     OW82270   0.529   7.500   9.105  0.3410  0.7041 -0.6525
26417SOL    HW182271   0.557   7.455   9.025  0.1085 -1.3600  0.3832
26417SOL    HW282272   0.484   7.578   9.074 -0.7969 -0.6563 -2.6090
26418SOL     OW82273   2.409   7.760   5.386 -0.2578  0.6399  0.8408
26418SOL    HW182274   2.352   7.777   5.311  1.1666 -1.0707 -0.6899
26418SOL    HW282275   2.368   7.686   5.431  0.0985  0.1901  0.4306
26419SOL     OW82276   8.167   4.961   8.161  0.7964  0.2122  0.4779
26419SOL    HW182277   8.230   4.924   8.099 -0.1299  0.1915 -0.4512
26419SOL    HW282278   8.088   4.976   8.110 -0.5238 -1.3414  1.9969
26420SOL     OW82279   3.813   1.340   4.903 -0.0132  0.1648 -0.0922
26420SOL    HW182280   3.875   1.387   4.958  0.0738  0.9799 -0.8775
26420SOL    HW282281   3.798   1.257   4.949  1.1051  0.2628  0.4568
26421SOL     OW82282   6.595   9.402   1.415  0.3810 -0.0875 -0.3640
26421SOL    HW182283   6.547   9.450   1.347 -0.7936  0.2358  0.6737
26421SOL    HW282284   6.559   9.313   1.411 -1.8038  0.6447  1.7549
26422SOL     OW82285   3.495   0.828   9.175 -0.1461  0.2000  0.1120
26422SOL    HW182286   3.588   0.846   9.186 -0.2353  1.2244 -0.7741
26422SOL    HW282287   3.488   0.733   9.179  1.0287  0.0870 -0.5658
26423SOL     OW82288   1.436   8.914   7.363 -0.3691  0.2740  0.3221
26423SOL    HW182289   1.432   8.846   7.295  1.3601  0.5270 -0.0497
26423SOL    HW282290   1.465   8.867   7.442  0.6761  0.5416  0.1027
26424SOL     OW82291   0.516   2.121   7.820  0.1611 -0.0905 -0.0603
26424SOL    HW182292   0.431   2.082   7.841  0.9630 -1.3649  0.9252
26424SOL    HW282293   0.531   2.097   7.729  0.3080 -1.4894  0.3168
26425SOL     OW82294   0.554   7.700   6.004  0.2799  0.2425 -0.8506
26425SOL    HW182295   0.594   7.620   6.036  0.5437  1.1596  1.1473
26425SOL    HW282296   0.614   7.732   5.936  0.5176 -0.8613 -1.1641
26426SOL     OW82297   7.188   8.790   6.942 -0.1440 -0.4069  0.2918
26426SOL    HW182298   7.133   8.851   6.992 -0.0708 -1.9011  2.2637
26426SOL    HW282299   7.263   8.843   6.914 -0.1682  0.4741  1.8285
26427SOL     OW82300   8.278   1.721   5.191 -0.2074 -0.0679 -0.3392
26427SOL    HW182301   8.245   1.633   5.210 -1.1224  0.2693 -0.3096
26427SOL    HW282302   8.330   1.745   5.268 -2.0767  0.4239  0.8082
26428SOL     OW82303   2.515   6.817   6.467  0.3494 -0.3860 -0.1320
26428SOL    HW182304   2.451   6.878   6.431  0.5417 -0.5106 -0.6970
26428SOL    HW282305   2.548   6.770   6.390  0.2624 -1.1352  0.2913
26429SOL     OW82306   0.191   9.249   4.896  0.8317 -0.1429  0.2982
26429SOL    HW182307   0.207   9.261   4.989  0.5395  2.6250  0.0124
26429SOL    HW282308   0.275   9.266   4.854  0.8279 -0.8461 -0.0131
26430SOL     OW82309   8.849   4.993   2.856 -0.2856 -0.0998  0.5348
26430SOL    HW182310   8.813   5.016   2.941  0.3772 -1.0896  1.0871
26430SOL    HW282311   8.792   5.038   2.793  0.1273  1.8594  1.5375
26431SOL     OW82312   6.794   2.496   0.299  0.6537  0.5759  0.7580
26431SOL    HW182313   6.786   2.490   0.395  0.5751 -1.9318  0.6148
26431SOL    HW282314   6.726   2.438   0.266  0.9550  1.1141 -0.8501
26432SOL     OW82315   2.412   7.570   4.788  0.3369 -0.0651 -0.1752
26432SOL    HW182316   2.486   7.585   4.730 -0.7201  2.8503 -0.8327
26432SOL    HW282317   2.448   7.580   4.876  0.8920  0.5914 -0.4719
26433SOL     OW82318   7.724   7.791   1.563 -0.8046 -0.2557  0.0516
26433SOL    HW182319   7.682   7.876   1.549  1.8786  0.5885 -3.5673
26433SOL    HW282320   7.662   7.728   1.526 -2.2567  0.1746  1.6716
26434SOL     OW82321   8.020   2.993   1.700  0.3078 -0.2065  0.1676
26434SOL    HW182322   7.962   2.944   1.757 -0.2753 -0.7188 -0.8475
26434SOL    HW282323   7.974   3.076   1.685 -0.4218 -0.7986 -1.0206
26435SOL     OW82324   7.805   9.183   2.110  0.5688 -0.1017  0.1224
26435SOL    HW182325   7.887   9.148   2.144  1.4426  1.6110 -0.1481
26435SOL    HW282326   7.777   9.121   2.043  1.9366 -0.3983 -0.1704
26436SOL     OW82327   2.001   8.671   7.849 -0.1863  0.2353 -0.2712
26436SOL    HW182328   2.081   8.635   7.888 -0.1210  1.1135  0.4170
26436SOL    HW282329   2.018   8.669   7.754  0.2112 -0.6145 -0.1833
26437SOL     OW82330   3.405   2.713   7.800 -0.1683  0.1978 -0.4356
26437SOL    HW182331   3.354   2.738   7.877 -0.8674  0.8080 -1.0960
26437SOL    HW282332   3.496   2.719   7.830 -0.4090  1.1249  0.1476
26438SOL     OW82333   3.908   7.819   1.804  0.8653  0.2538 -0.3546
26438SOL    HW182334   3.834   7.840   1.860  1.4719  1.8158 -0.1139
26438SOL    HW282335   3.929   7.728   1.825  0.0727  0.3234  0.7742
26439SOL     OW82336   0.127   1.939   7.394 -0.1802 -0.1826  0.3900
26439SOL    HW182337   0.095   1.946   7.304  0.6568 -1.0695  0.0179
26439SOL    HW282338   0.069   1.875   7.435  2.4793 -3.5764 -0.9445
26440SOL     OW82339   1.099   6.149   7.925 -0.6738  0.4432 -0.9400
26440SOL    HW182340   1.064   6.075   7.875 -2.2871 -0.4630  1.4626
26440SOL    HW282341   1.194   6.144   7.911 -0.8892 -1.1406 -2.0395
26441SOL     OW82342   8.600   3.957   4.484  0.5578 -0.1485 -0.2412
26441SOL    HW182343   8.585   4.040   4.438 -0.0517  0.0977  0.3878
26441SOL    HW282344   8.541   3.895   4.440  0.7400 -0.1633 -0.4682
26442SOL     OW82345   1.337   6.738   6.417  0.0419 -0.1950 -0.0029
26442SOL    HW182346   1.259   6.781   6.382  0.3971  0.5695  0.1368
26442SOL    HW282347   1.410   6.787   6.380  0.4450 -0.2935  0.6533
26443SOL     OW82348   0.435   3.064   4.698 -0.2644 -0.5179 -0.4462
26443SOL    HW182349   0.350   3.108   4.688  0.2665 -0.0745 -3.4522
26443SOL    HW282350   0.498   3.124   4.660  1.3761 -1.0539  1.3481
26444SOL     OW82351   5.502   0.875   1.468 -0.0299 -0.1687 -0.2135
26444SOL    HW182352   5.531   0.848   1.381 -2.3544 -0.8301 -0.8103
26444SOL    HW282353   5.505   0.795   1.521  3.2299  0.5848  0.9200
26445SOL     OW82354   8.753   8.493   1.055 -0.2709  0.2301  0.0487
26445SOL    HW182355   8.775   8.578   1.095  1.9975 -1.2615  2.1122
26445SOL    HW282356   8.821   8.478   0.990 -2.0600  1.0652 -2.1099
26446SOL     OW82357   4.347   4.777   1.179 -0.0155 -0.1723 -0.2503
26446SOL    HW182358   4.302   4.799   1.260  1.7267 -0.2961  0.7799
26446SOL    HW282359   4.436   4.754   1.206  0.4891 -0.5896 -2.1513
26447SOL     OW82360   3.988   4.625   7.663 -0.4831  0.0762 -0.4614
26447SOL    HW182361   3.953   4.577   7.737 -2.9836  3.2757  0.4979
26447SOL    HW282362   4.077   4.650   7.690  0.5140 -3.0397 -0.6162
26448SOL     OW82363   0.282   0.838   2.272  0.4705 -0.2107  0.4605
26448SOL    HW182364   0.371   0.872   2.258 -0.4020  1.4746 -1.3776
26448SOL    HW282365   0.225   0.912   2.251 -1.3842 -1.2495  1.6816
26449SOL     OW82366   7.050   4.814   2.209 -0.2672 -0.2694 -0.3604
26449SOL    HW182367   7.023   4.898   2.171  0.2855 -0.0638 -0.3152
26449SOL    HW282368   6.971   4.760   2.209 -0.7154  0.3777 -0.0532
26450SOL     OW82369   1.034   8.126   3.050 -0.2838 -0.0078 -0.0720
26450SOL    HW182370   1.028   8.221   3.044 -1.0428 -0.1151 -1.2174
26450SOL    HW282371   1.128   8.108   3.053 -0.1746  0.8582  1.8251
26451SOL     OW82372   5.206   1.154   4.712 -0.1412 -0.2672 -0.0783
26451SOL    HW182373   5.160   1.098   4.649 -1.3192  0.7167 -0.1067
26451SOL    HW282374   5.198   1.243   4.676  0.3298  0.1385  0.7887
26452SOL     OW82375   8.144   5.052   4.775 -0.3425  0.0995  0.4096
26452SOL    HW182376   8.155   5.016   4.687  0.4255  0.7982  0.2113
26452SOL    HW282377   8.225   5.028   4.820 -0.9859 -0.7676  1.1105
26453SOL     OW82378   3.093   1.689   8.531  0.1904  0.1828  0.1596
26453SOL    HW182379   3.048   1.751   8.474 -0.0296 -0.6363 -0.5547
26453SOL    HW282380   3.042   1.689   8.612 -0.4786  0.0335 -0.2690
26454SOL     OW82381   7.108   6.421   1.626 -0.3369  0.4868  0.0426
26454SOL    HW182382   7.105   6.423   1.531 -0.6269  1.0374  0.0652
26454SOL    HW282383   7.176   6.483   1.650  2.7337 -2.6991  0.0459
26455SOL     OW82384   9.117   1.078   0.296 -0.1233 -0.3956 -0.3068
26455SOL    HW182385   9.116   1.173   0.305  0.6317 -0.3525 -0.5894
26455SOL    HW282386   9.193   1.060   0.240 -0.4108 -1.1446 -0.4695
26456SOL     OW82387   6.937   5.081   7.632  0.3938 -0.1609  0.2335
26456SOL    HW182388   6.938   5.106   7.724  0.4980  1.8663 -0.2761
26456SOL    HW282389   7.012   5.127   7.594  0.5738 -1.2737 -0.7956
26457SOL     OW82390   0.843   1.151   4.953  0.0901  0.3997  0.0602
26457SOL    HW182391   0.786   1.132   5.028  2.4214 -1.1384  1.5035
26457SOL    HW282392   0.783   1.180   4.884 -2.0971  2.3447  2.6393
26458SOL     OW82393   1.839   9.360   2.445  0.1865 -0.5962  0.3291
26458SOL    HW182394   1.917   9.414   2.451  0.1461 -0.6838  2.0252
26458SOL    HW282395   1.767   9.419   2.465  0.0651 -1.0632  1.3117
26459SOL     OW82396   6.007   3.814   5.294 -0.2573  0.1583 -0.3674
26459SOL    HW182397   5.942   3.755   5.255 -1.7762  0.8025  1.1240
26459SOL    HW282398   5.956   3.880   5.340  1.4622  0.8668  0.5943
26460SOL     OW82399   4.759   6.111   5.334  0.9326 -0.6542 -0.3144
26460SOL    HW182400   4.837   6.144   5.290  2.2824 -1.2427  1.5464
26460SOL    HW282401   4.793   6.066   5.412 -1.2388 -1.2500  0.3252
26461SOL     OW82402   3.264   8.279   5.595 -0.2286 -0.6192  1.1589
26461SOL    HW182403   3.293   8.369   5.607 -3.7106  0.8546 -0.8787
26461SOL    HW282404   3.195   8.267   5.660 -0.9117 -1.2701  0.3296
26462SOL     OW82405   1.596   8.124   2.041  0.4671  0.5124  0.4201
26462SOL    HW182406   1.656   8.129   2.116  0.8553  1.9604  0.0229
26462SOL    HW282407   1.531   8.059   2.068  0.8109  0.7360  1.8689
26463SOL     OW82408   5.351   8.083   6.748  0.0252  0.4028  0.2580
26463SOL    HW182409   5.301   8.021   6.800  0.7588 -0.4395 -0.0243
26463SOL    HW282410   5.439   8.080   6.785  0.1460  1.0336  0.0301
26464SOL     OW82411   7.552   7.607   1.701  0.0731  0.0683  0.8638
26464SOL    HW182412   7.616   7.540   1.725  0.5784  0.4023  0.4644
26464SOL    HW282413   7.583   7.686   1.744  0.3132  0.3895  0.1167
26465SOL     OW82414   7.172   5.056   2.575  0.1296 -0.1502 -0.3582
26465SOL    HW182415   7.137   5.026   2.659  2.0606 -0.1841  0.4453
26465SOL    HW282416   7.190   4.975   2.527  1.5825 -0.2060  0.2624
26466SOL     OW82417   2.328   9.439   0.330 -0.6951  0.0515 -0.2739
26466SOL    HW182418   2.303   9.392   0.409 -1.3612  1.0208  0.0960
26466SOL    HW282419   2.412   9.401   0.306 -0.4237 -0.1627  0.9672
26467SOL     OW82420   8.881   9.024   1.598  0.6228  0.5526 -0.1730
26467SOL    HW182421   8.943   9.028   1.671 -1.5945  1.6498  1.7281
26467SOL    HW282422   8.862   8.931   1.587 -0.4881  0.5042  1.9566
26468SOL     OW82423   5.465   3.288   2.837  0.1484 -0.3488  0.5183
26468SOL    HW182424   5.401   3.358   2.850 -0.1815 -0.1336 -2.0443
26468SOL    HW282425   5.546   3.333   2.816 -0.3740 -0.7075 -2.4594
26469SOL     OW82426   9.227   5.563   5.614 -0.1781 -0.5663  0.0456
26469SOL    HW182427   9.272   5.604   5.688 -2.6260  1.5667  0.4044
26469SOL    HW282428   9.174   5.494   5.654 -0.2037 -0.5345  0.0676
26470SOL     OW82429   8.496   8.160   7.048 -0.4561 -0.3011 -0.4724
26470SOL    HW182430   8.581   8.155   7.005  0.2265  1.9564  0.5161
26470SOL    HW282431   8.509   8.115   7.132  0.0588  0.8718  0.0885
26471SOL     OW82432   7.131   0.529   6.925 -0.5249  0.0055  0.2677
26471SOL    HW182433   7.069   0.521   6.853 -0.2989  0.6418  0.0020
26471SOL    HW282434   7.141   0.439   6.958 -0.9521 -0.2230 -0.2147
26472SOL     OW82435   6.116   4.319   6.497 -0.2107  0.2344  0.3441
26472SOL    HW182436   6.062   4.383   6.451  0.5562 -0.4901 -1.5941
26472SOL    HW282437   6.205   4.354   6.491  0.1090 -0.6472 -0.0880
26473SOL     OW82438   5.836   6.987   2.481  1.0309  0.0985 -0.8634
26473SOL    HW182439   5.800   6.969   2.568  0.6329  2.8042 -0.4384
26473SOL    HW282440   5.926   7.015   2.497  1.0619  0.2817 -1.3503
26474SOL     OW82441   6.300   7.973   7.325 -0.0419 -0.3012  0.2437
26474SOL    HW182442   6.355   7.958   7.402  1.7304  1.9876 -0.5090
26474SOL    HW282443   6.323   7.902   7.265  3.4167  1.5186 -0.7153
26475SOL     OW82444   4.800   2.765   7.549  0.6235  0.1133 -0.1762
26475SOL    HW182445   4.737   2.781   7.620 -0.5728 -1.4767 -0.8425
26475SOL    HW282446   4.775   2.827   7.481  0.3749  0.1573 -0.0470
26476SOL     OW82447   2.279   3.053   1.901 -0.2880 -0.2057 -0.7045
26476SOL    HW182448   2.222   3.016   1.969 -0.7550  1.5293 -0.1336
26476SOL    HW282449   2.365   3.057   1.943 -0.1662 -0.8944 -0.8719
26477SOL     OW82450   0.848   7.965   2.163  0.1304  0.1580  0.2440
26477SOL    HW182451   0.791   8.001   2.096 -0.9539 -0.5697  0.7575
26477SOL    HW282452   0.854   8.035   2.229 -2.2943 -0.6928  1.4342
26478SOL     OW82453   3.500   6.205   4.217 -0.0683 -0.1535  0.0584
26478SOL    HW182454   3.552   6.144   4.165  2.6416  1.1160  1.1519
26478SOL    HW282455   3.451   6.256   4.153  1.9091  0.2402 -1.1946
26479SOL     OW82456   9.401   1.606   7.617 -0.4336  0.5332  0.1742
26479SOL    HW182457   9.358   1.691   7.617 -0.5655  0.4717  0.5843
26479SOL    HW282458   9.458   1.608   7.694  1.5984  1.2563 -1.3273
26480SOL     OW82459   1.360   1.711   3.906  0.1006 -0.2543 -0.3517
26480SOL    HW182460   1.422   1.649   3.868  0.4833 -0.2218  0.2060
26480SOL    HW282461   1.337   1.672   3.991 -1.1987 -0.6259 -0.8610
26481SOL     OW82462   3.283   3.068   4.330 -0.0325 -0.6678 -0.4231
26481SOL    HW182463   3.202   3.018   4.320 -0.9266  1.0778 -2.1320
26481SOL    HW282464   3.331   3.051   4.249  0.5201 -0.2879 -0.1782
26482SOL     OW82465   4.754   1.554   4.411 -0.5679  0.6475 -0.1656
26482SOL    HW182466   4.716   1.636   4.381 -0.5994  0.7957  0.2681
26482SOL    HW282467   4.761   1.564   4.506 -0.3568  0.2396 -0.1341
26483SOL     OW82468   9.085   6.457   1.857 -0.3354 -0.0342 -0.0150
26483SOL    HW182469   9.077   6.362   1.848 -1.8869 -0.0834  1.5949
26483SOL    HW282470   9.013   6.492   1.804  0.5887  0.2964 -1.0890
26484SOL     OW82471   5.484   4.026   3.873 -0.1602  0.1943 -0.1685
26484SOL    HW182472   5.517   4.034   3.962 -0.9178 -1.1798  0.2511
26484SOL    HW282473   5.550   3.974   3.827  0.5549  1.4600 -0.5988
26485SOL     OW82474   9.185   5.446   0.917 -0.1906  0.6522 -0.7493
26485SOL    HW182475   9.213   5.521   0.865 -0.8751  0.9037 -0.7579
26485SOL    HW282476   9.126   5.483   0.983  0.7143  0.3475  0.2502
26486SOL     OW82477   4.284   1.166   4.460 -1.0663 -0.2710 -0.0303
26486SOL    HW182478   4.339   1.244   4.454 -1.3170 -0.1212 -0.3505
26486SOL    HW282479   4.200   1.192   4.423 -0.5147 -1.2797 -2.1136
26487SOL     OW82480   0.958   8.399   9.178  0.2012  0.4025  0.6483
26487SOL    HW182481   1.007   8.334   9.128 -1.9216  0.5592 -1.7639
26487SOL    HW282482   0.964   8.479   9.126 -2.4793  0.4427  0.2985
26488SOL     OW82483   1.548   3.136   8.244  0.3169  0.1349  0.2662
26488SOL    HW182484   1.509   3.129   8.332  1.4631 -3.1230  0.5814
26488SOL    HW282485   1.627   3.189   8.258 -0.5149  1.2867  0.7912
26489SOL     OW82486   9.262   4.112   5.601  0.3531 -0.3687 -0.2645
26489SOL    HW182487   9.205   4.041   5.629  0.7367  0.1438  1.9108
26489SOL    HW282488   9.299   4.147   5.683  1.3885  1.2946 -1.4071
26490SOL     OW82489   4.296   6.434   3.633 -0.4246 -0.0607  0.4717
26490SOL    HW182490   4.235   6.498   3.596 -0.6236 -0.8605 -0.6076
26490SOL    HW282491   4.296   6.452   3.727 -2.6016 -0.2952  0.5313
26491SOL     OW82492   5.623   3.686   5.893  0.1864 -0.1900  0.6005
26491SOL    HW182493   5.546   3.703   5.948  0.5190  1.3451  0.6003
26491SOL    HW282494   5.588   3.636   5.819 -0.5898 -0.5711  1.2081
26492SOL     OW82495   0.571   5.690   0.414  0.2526 -0.1058  0.3496
26492SOL    HW182496   0.564   5.604   0.372 -0.9224  0.6593 -1.0606
26492SOL    HW282497   0.653   5.686   0.464  0.4384 -1.8727 -0.0763
26493SOL     OW82498   4.644   9.017   4.671 -0.7629 -0.1141 -0.0000
26493SOL    HW182499   4.713   8.996   4.734 -1.3924 -0.8003  0.4627
26493SOL    HW282500   4.621   9.107   4.689 -0.1094  0.0694 -0.0470
26494SOL     OW82501   0.305   5.629   6.095 -0.4043 -0.6896 -0.4838
26494SOL    HW182502   0.341   5.689   6.161 -0.7550 -0.7515 -0.2326
26494SOL    HW282503   0.219   5.604   6.130  0.1600 -2.1454 -0.0822
26495SOL     OW82504   0.875   3.959   0.124  0.2032 -0.1724 -0.2048
26495SOL    HW182505   0.935   3.986   0.194  0.5009  0.8816 -0.8567
26495SOL    HW282506   0.811   4.030   0.119 -0.4035 -0.7284 -0.3231
26496SOL     OW82507   1.418   1.576   4.872  0.1524 -0.1266  0.1837
26496SOL    HW182508   1.356   1.613   4.809  1.1125  0.3434 -0.5082
26496SOL    HW282509   1.437   1.648   4.933 -0.2860 -0.3889  0.6343
26497SOL     OW82510   8.640   4.054   4.023 -0.2652 -0.2440  0.3845
26497SOL    HW182511   8.710   4.048   4.088  0.6689  0.8838 -0.5080
26497SOL    HW282512   8.682   4.034   3.940 -1.4705 -1.7187  0.1213
26498SOL     OW82513   7.499   0.098   3.301  0.0588  0.4907  0.0848
26498SOL    HW182514   7.526   0.133   3.386  1.3401 -0.7884  0.2344
26498SOL    HW282515   7.528   0.006   3.304  1.7845  0.9213 -2.4476
26499SOL     OW82516   4.190   9.154   2.908 -0.0506  0.1776 -0.1194
26499SOL    HW182517   4.266   9.112   2.868 -0.1549  0.2713 -0.4144
26499SOL    HW282518   4.220   9.240   2.935 -0.0179  0.1661 -0.1194
26500SOL     OW82519   6.437   2.896   7.036  0.1068 -0.3509 -0.6399
26500SOL    HW182520   6.380   2.965   7.002  0.9576  0.8983  0.3920
26500SOL    HW282521   6.406   2.816   6.994 -1.5706  0.5000 -1.0782
26501SOL     OW82522   7.318   7.374   5.168 -0.4324  0.8822 -0.3010
26501SOL    HW182523   7.260   7.450   5.157 -1.4175  0.3163  0.9292
26501SOL    HW282524   7.317   7.331   5.082 -1.2363  1.3009 -0.5087
26502SOL     OW82525   0.339   2.623   2.390 -0.0044  0.2238 -0.2998
26502SOL    HW182526   0.287   2.699   2.366 -1.4601 -0.5899  0.1977
26502SOL    HW282527   0.316   2.556   2.325  0.6310 -0.0557 -0.2440
26503SOL     OW82528   6.388   4.180   1.483  0.7143  0.9234  0.0243
26503SOL    HW182529   6.371   4.242   1.411 -0.3779 -0.1633 -0.6716
26503SOL    HW282530   6.476   4.146   1.465  0.2115  0.2084 -1.1529
26504SOL     OW82531   5.877   8.954   8.829 -0.1519 -0.1269 -0.0275
26504SOL    HW182532   5.800   9.011   8.831 -0.1269 -0.0944 -0.0201
26504SOL    HW282533   5.848   8.874   8.874 -0.9084 -1.0031 -2.0163
26505SOL     OW82534   1.195   2.648   9.318 -0.3307 -0.0039 -0.0512
26505SOL    HW182535   1.148   2.725   9.286  0.4218 -0.0005 -1.1764
26505SOL    HW282536   1.249   2.681   9.390 -0.1924  0.4728 -0.3721
26506SOL     OW82537   2.708   7.527   5.620  0.0819 -0.4057 -0.0973
26506SOL    HW182538   2.635   7.501   5.677  0.2809  2.8508  1.7907
26506SOL    HW282539   2.786   7.493   5.663 -0.0669 -1.3129 -0.5315
26507SOL     OW82540   9.229   0.522   8.440 -0.2431  0.6482  0.9122
26507SOL    HW182541   9.297   0.463   8.474  1.1588  2.4562  1.3574
26507SOL    HW282542   9.273   0.607   8.434 -1.4154  1.0853 -2.3128
26508SOL     OW82543   3.021   0.875   3.615  0.8123 -0.1109 -0.0857
26508SOL    HW182544   3.079   0.940   3.575 -0.2724  1.0557  0.1727
26508SOL    HW282545   3.014   0.902   3.706 -0.9404  0.3928 -0.3491
26509SOL     OW82546   2.217   1.430   6.177  0.1178 -0.4550 -0.3012
26509SOL    HW182547   2.214   1.467   6.265 -1.0746 -1.3880  0.0712
26509SOL    HW282548   2.298   1.463   6.139  2.5016 -2.9339  2.4361
26510SOL     OW82549   7.484   7.760   6.998  0.3306 -0.6886 -0.6670
26510SOL    HW182550   7.472   7.794   7.086  2.5127 -1.6099  0.0302
26510SOL    HW282551   7.450   7.829   6.941 -0.4128  0.2370  0.8551
26511SOL     OW82552   9.224   4.905   9.393 -0.0075  0.0418 -0.0893
26511SOL    HW182553   9.304   4.900   9.339  0.4664  0.8921  0.5285
26511SOL    HW282554   9.158   4.943   9.334  0.0059 -0.7457 -0.6306
26512SOL     OW82555   5.243   6.375   4.852  0.1684  0.3897  0.6692
26512SOL    HW182556   5.220   6.462   4.818 -1.8183 -0.2039  0.4267
26512SOL    HW282557   5.159   6.330   4.861  1.2199 -1.7049  0.2847
26513SOL     OW82558   4.318   2.290   0.890  0.6007 -0.2161  0.4556
26513SOL    HW182559   4.329   2.226   0.820  0.1591 -0.9677  1.0734
26513SOL    HW282560   4.244   2.258   0.941  1.2108  0.0777  1.5479
26514SOL     OW82561   3.921   0.480   6.327  0.3086 -0.1418  0.3330
26514SOL    HW182562   3.977   0.446   6.258 -0.2581 -3.0240  1.2373
26514SOL    HW282563   3.970   0.465   6.408 -1.4274 -2.0876  1.0666
26515SOL     OW82564   2.688   3.062   0.562 -0.7620  0.2786  0.0461
26515SOL    HW182565   2.620   2.999   0.586 -1.1518  1.1686  1.3221
26515SOL    HW282566   2.694   3.057   0.467 -3.4676  1.0993 -0.1822
26516SOL     OW82567   4.337   6.065   3.439 -0.4400  0.5522 -0.3914
26516SOL    HW182568   4.278   5.996   3.469  0.5701  0.0325  0.4252
26516SOL    HW282569   4.399   6.077   3.511  0.6083  0.9085 -1.3288
26517SOL     OW82570   9.421   4.247   7.783  0.1983 -0.5036 -0.1282
26517SOL    HW182571   9.335   4.287   7.778  0.8524  0.9845  0.2993
26517SOL    HW282572   9.425   4.188   7.708 -0.2750  1.2247 -1.5299
26518SOL     OW82573   4.602   8.752   5.950  0.2005  0.1755  0.3997
26518SOL    HW182574   4.633   8.818   6.012 -3.2507 -0.0608  2.5040
26518SOL    HW282575   4.674   8.688   5.946  2.5195  2.6721  0.2781
26519SOL     OW82576   5.207   8.722   2.456 -0.2619  1.1290  0.0846
26519SOL    HW182577   5.269   8.773   2.508  2.0694 -1.7516  0.2969
26519SOL    HW282578   5.250   8.711   2.371 -0.1842 -1.3386  0.4039
26520SOL     OW82579   1.473   0.930   7.035 -0.0270  0.4459 -0.2683
26520SOL    HW182580   1.392   0.922   7.084 -1.0198  0.2115 -1.9252
26520SOL    HW282581   1.542   0.910   7.099 -1.4165 -2.1710  0.4771
26521SOL     OW82582   5.779   8.844   5.507 -0.4323 -0.0080 -0.5360
26521SOL    HW182583   5.779   8.757   5.546 -1.9256 -0.2523 -1.0721
26521SOL    HW282584   5.823   8.833   5.423  1.9562  0.3392  0.6184
26522SOL     OW82585   8.974   7.749   2.359 -0.2682 -0.8036 -0.2424
26522SOL    HW182586   8.910   7.714   2.297  0.3971 -0.4033 -1.1813
26522SOL    HW282587   9.056   7.750   2.310 -0.1644  1.6099 -0.1223
26523SOL     OW82588   7.260   5.441   7.786  0.1008  0.3589 -0.4530
26523SOL    HW182589   7.219   5.472   7.867  0.6012 -1.0706  0.3643
26523SOL    HW282590   7.316   5.514   7.759 -1.3343  1.4979 -0.4316
26524SOL     OW82591   6.649   8.675   4.754  0.4661 -0.3728 -0.1556
26524SOL    HW182592   6.686   8.733   4.688  1.2962 -0.1797  0.4745
26524SOL    HW282593   6.558   8.705   4.764  1.3624  2.0318  1.4609
26525SOL     OW82594   8.543   1.239   7.829  0.2394  0.4760  0.1952
26525SOL    HW182595   8.460   1.211   7.869 -0.6435  2.3917 -0.2613
26525SOL    HW282596   8.606   1.173   7.858 -1.7461 -1.8949 -0.7107
26526SOL     OW82597   7.190   9.334   4.851 -0.4526 -0.9289  0.0409
26526SOL    HW182598   7.110   9.385   4.863  0.8895  1.5483 -1.1464
26526SOL    HW282599   7.210   9.342   4.758  3.4434  2.0816  1.0206
26527SOL     OW82600   6.444   0.031   7.998 -0.2217  0.4264  0.1073
26527SOL    HW182601   6.379  -0.038   7.984 -1.9506  1.8785  0.8763
26527SOL    HW282602   6.488   0.006   8.079 -2.0740  1.1505  1.3558
26528SOL     OW82603   8.358   6.491   6.716 -0.4790  0.3241  0.3167
26528SOL    HW182604   8.407   6.548   6.657  0.0351  0.9684  1.3474
26528SOL    HW282605   8.426   6.451   6.771 -0.8648 -1.0056 -0.1634
26529SOL     OW82606   3.020   5.187   1.254  0.1223 -0.1728 -0.7517
26529SOL    HW182607   3.072   5.265   1.275 -0.8124  0.1013  0.5820
26529SOL    HW282608   3.086   5.120   1.234  0.9717  0.5562 -0.4405
26530SOL     OW82609   6.029   8.941   3.528 -0.1735 -0.2866 -0.4462
26530SOL    HW182610   5.983   9.025   3.533 -2.1147 -1.1315 -3.2180
26530SOL    HW282611   6.122   8.964   3.532 -0.6356  2.1404 -2.4291
26531SOL     OW82612   1.442   5.360   5.290 -0.2719  0.0070  0.0733
26531SOL    HW182613   1.475   5.270   5.284 -1.6806 -0.6210  1.4017
26531SOL    HW282614   1.448   5.381   5.383  0.5125  1.4675 -0.3113
26532SOL     OW82615   0.695   9.262   5.606 -0.0949 -0.8174 -0.0938
26532SOL    HW182616   0.787   9.235   5.612  0.2978  0.5097  0.0002
26532SOL    HW282617   0.697   9.341   5.552 -1.0784 -0.2948  0.6206
26533SOL     OW82618   3.066   7.469   8.759  0.1463 -0.1507  0.4465
26533SOL    HW182619   3.001   7.534   8.732 -1.9423 -1.5537  1.9311
26533SOL    HW282620   3.119   7.514   8.825 -0.2148  0.5553  0.2625
26534SOL     OW82621   7.352   8.563   0.365 -0.2182 -0.1512 -0.7157
26534SOL    HW182622   7.407   8.637   0.340  0.2669 -0.8193 -1.6585
26534SOL    HW282623   7.299   8.595   0.438  1.0338  0.6653 -0.1541
26535SOL     OW82624   0.399   6.369   8.838  0.2606 -0.1508  0.3881
26535SOL    HW182625   0.374   6.426   8.910 -2.3523 -0.9581  0.1642
26535SOL    HW282626   0.483   6.404   8.807  0.9350  0.7958  3.1372
26536SOL     OW82627   7.424   1.044   5.960 -0.1441  0.3443  0.0987
26536SOL    HW182628   7.356   1.002   6.012 -0.4164 -1.9376 -2.0181
26536SOL    HW282629   7.501   1.045   6.018 -0.5661 -1.7288  0.7426
26537SOL     OW82630   5.159   4.137   4.281  0.3446  0.1604  0.0627
26537SOL    HW182631   5.252   4.151   4.294  0.3964  0.2586 -0.4418
26537SOL    HW282632   5.117   4.183   4.355  0.6179  1.2257 -0.4377
26538SOL     OW82633   7.045   9.267   4.019  0.0572  0.7812 -0.0450
26538SOL    HW182634   6.969   9.250   4.075 -0.0030  1.2688  0.0169
26538SOL    HW282635   7.059   9.361   4.024  0.6083  0.7063 -0.1361
26539SOL     OW82636   8.949   1.206   2.093 -0.5197  0.0338 -0.5426
26539SOL    HW182637   8.916   1.117   2.107  1.1122 -0.0971  3.2052
26539SOL    HW282638   8.870   1.260   2.089 -1.4496 -1.1385  1.0604
26540SOL     OW82639   3.423   7.672   0.924  0.3353 -0.2709 -0.5800
26540SOL    HW182640   3.363   7.683   0.998  0.0859  0.3267 -0.8717
26540SOL    HW282641   3.387   7.599   0.874 -0.1364  0.0734 -0.7425
26541SOL     OW82642   8.721   5.257   4.379  0.7501  0.4165 -0.2360
26541SOL    HW182643   8.718   5.339   4.427  1.8195 -0.3094  1.0793
26541SOL    HW282644   8.671   5.195   4.433 -3.1870  1.0346 -2.9417
26542SOL     OW82645   3.219   0.402   3.512 -0.3749  0.1174  0.0367
26542SOL    HW182646   3.148   0.352   3.470  0.4696  0.0040 -1.3019
26542SOL    HW282647   3.181   0.488   3.529 -0.8864  0.0141 -0.5485
26543SOL     OW82648   8.508   0.895   8.942 -0.0953 -0.2571 -0.1496
26543SOL    HW182649   8.474   0.935   9.022  0.7251  0.0967  0.0227
26543SOL    HW282650   8.586   0.945   8.921  0.3050 -1.0422 -0.5699
26544SOL     OW82651   6.321   1.229   8.443  0.0611 -0.5430 -0.1570
26544SOL    HW182652   6.376   1.256   8.516 -0.4207  0.7124 -0.2589
26544SOL    HW282653   6.374   1.165   8.396  1.2059  0.2326  0.0695
26545SOL     OW82654   1.350   8.620   9.399 -0.2127  0.1413 -0.7210
26545SOL    HW182655   1.443   8.615   9.375  0.3871 -2.0698  1.8774
26545SOL    HW282656   1.349   8.670   9.480 -1.4163  0.8000 -1.1210
26546SOL     OW82657   5.143   3.305   6.757 -0.2809  0.0143  0.5132
26546SOL    HW182658   5.207   3.299   6.828 -0.3151  1.0817  0.6387
26546SOL    HW282659   5.106   3.217   6.750  1.3597 -0.6781  0.2984
26547SOL     OW82660   4.699   2.351   5.409 -0.1183  0.3216  0.2265
26547SOL    HW182661   4.765   2.291   5.374 -0.7618 -0.4905  0.4031
26547SOL    HW282662   4.667   2.399   5.333 -2.0475 -1.9622 -0.4600
26548SOL     OW82663   9.180   6.079   1.028 -0.3335 -0.5507  0.1748
26548SOL    HW182664   9.254   6.072   1.089  0.4385 -0.4049 -0.7277
26548SOL    HW282665   9.220   6.076   0.942 -1.3200  0.2849 -0.3262
26549SOL     OW82666   6.875   9.243   1.468  0.0617  0.0874  0.5389
26549SOL    HW182667   6.854   9.178   1.535  0.0586  1.5029  1.9211
26549SOL    HW282668   6.957   9.211   1.428  0.6076 -0.2277  1.9020
26550SOL     OW82669   6.195   5.134   5.441 -0.1593  0.4966  0.0433
26550SOL    HW182670   6.161   5.148   5.530 -0.1836  1.3867 -0.1079
26550SOL    HW282671   6.289   5.123   5.454 -0.5331 -2.6559  0.5397
26551SOL     OW82672   2.673   1.796   8.842  0.2109  0.3110 -0.2432
26551SOL    HW182673   2.738   1.816   8.775 -0.6573  0.1437 -1.1558
26551SOL    HW282674   2.679   1.868   8.904 -0.1604  1.3595 -1.4152
26552SOL     OW82675   4.108   2.861   6.773  0.2321 -0.5386 -0.4350
26552SOL    HW182676   4.141   2.782   6.730 -0.2926 -1.0624  0.1167
26552SOL    HW282677   4.119   2.930   6.707  1.0975 -0.9813 -0.7658
26553SOL     OW82678   3.221   8.505   9.011  0.1744 -0.0498 -0.0742
26553SOL    HW182679   3.187   8.441   9.074  1.0263  0.7935  1.2823
26553SOL    HW282680   3.194   8.472   8.926 -1.1219 -1.1671  0.7424
26554SOL     OW82681   4.026   0.639   9.186  0.0431 -0.1116 -0.7268
26554SOL    HW182682   4.026   0.731   9.211  1.3001  0.1085 -1.4892
26554SOL    HW282683   4.044   0.639   9.092 -3.4904 -0.9886 -1.4781
26555SOL     OW82684   6.864   8.774   1.732 -0.0901  0.1198  0.4780
26555SOL    HW182685   6.947   8.761   1.779  0.3285  2.0033  0.3283
26555SOL    HW282686   6.819   8.690   1.739  1.9172 -1.0106  0.3894
26556SOL     OW82687   0.059   5.021   4.120  0.3094 -0.2961 -0.1881
26556SOL    HW182688  -0.031   5.048   4.104 -0.0433 -1.4912 -0.2471
26556SOL    HW282689   0.059   4.989   4.210  0.5183 -0.9516 -0.4192
26557SOL     OW82690   2.410   9.054   1.807  0.3104  0.5197  0.0911
26557SOL    HW182691   2.400   9.050   1.712 -1.4397 -1.6828  0.3418
26557SOL    HW282692   2.504   9.047   1.822  0.3914 -1.9921 -1.3801
26558SOL     OW82693   4.936   0.312   0.655  0.2068 -0.3192 -0.3582
26558SOL    HW182694   4.949   0.273   0.741 -0.2647 -0.6630 -0.4430
26558SOL    HW282695   5.020   0.354   0.634  1.0742 -2.2185 -0.7438
26559SOL     OW82696   5.346   1.036   9.104 -0.2052  0.2627 -0.3082
26559SOL    HW182697   5.340   1.043   9.200 -1.4694  0.2020 -0.3812
26559SOL    HW282698   5.256   1.023   9.075  0.2326 -0.2148 -1.4749
26560SOL     OW82699   1.264   8.829   1.833  0.7203  0.1250 -0.4444
26560SOL    HW182700   1.204   8.827   1.758 -0.7057  0.5608  0.6562
26560SOL    HW282701   1.287   8.922   1.842 -1.0698  0.4389  1.1534
26561SOL     OW82702   5.083   1.216   2.230 -0.1112 -0.0891 -0.1992
26561SOL    HW182703   5.032   1.177   2.159  0.2008  0.1294 -0.5468
26561SOL    HW282704   5.098   1.306   2.202  1.2007 -0.3963 -0.5140
26562SOL     OW82705   3.342   1.315   4.915  0.2866 -0.2087 -0.2720
26562SOL    HW182706   3.283   1.358   4.853 -0.1303 -0.6763 -0.1994
26562SOL    HW282707   3.297   1.320   4.999 -0.3478 -1.8835 -0.4804
26563SOL     OW82708   4.508   7.814   8.940  0.0168  0.0094 -0.2709
26563SOL    HW182709   4.433   7.828   8.998 -0.5776 -1.5353 -0.6574
26563SOL    HW282710   4.580   7.859   8.983 -1.3204  2.3210 -0.3421
26564SOL     OW82711   5.803   0.130   8.595 -0.0255  0.5964 -0.1363
26564SOL    HW182712   5.852   0.084   8.527 -0.0347  1.1032 -0.4884
26564SOL    HW282713   5.870   0.171   8.649 -0.0840  2.6327 -1.5612
26565SOL     OW82714   2.067   2.850   7.863 -0.0927  0.2245 -0.1850
26565SOL    HW182715   2.153   2.854   7.822 -0.7724  2.0655 -1.4918
26565SOL    HW282716   2.064   2.764   7.903  1.5406 -0.6830 -1.9304
26566SOL     OW82717   4.129   3.887   2.841 -0.4513 -0.2149 -0.1121
26566SOL    HW182718   4.113   3.852   2.929  0.3051  1.0353  0.5372
26566SOL    HW282719   4.054   3.858   2.790  0.6183 -3.6404  0.1314
26567SOL     OW82720   7.329   4.634   2.282  0.5249 -0.1506  0.4373
26567SOL    HW182721   7.299   4.550   2.247  2.0324 -0.1133 -0.9979
26567SOL    HW282722   7.265   4.698   2.250 -1.0633 -0.8414  2.1816
26568SOL     OW82723   8.062   2.652   2.922 -0.1469 -0.1141 -0.7251
26568SOL    HW182724   8.010   2.721   2.962 -1.3272 -0.8106 -1.0353
26568SOL    HW282725   8.020   2.636   2.837  1.3709  0.2426 -1.5651
26569SOL     OW82726   0.323   7.604   5.530 -0.5321 -0.1525  0.0453
26569SOL    HW182727   0.297   7.536   5.468 -2.1717 -0.2740  0.8533
26569SOL    HW282728   0.285   7.577   5.613  2.6695 -0.6388  1.4515
26570SOL     OW82729   1.735   7.811   2.210  0.2140 -0.1439 -0.1201
26570SOL    HW182730   1.713   7.741   2.271  0.8918 -2.0231 -1.9715
26570SOL    HW282731   1.831   7.816   2.214  0.2102  0.2199 -0.5060
26571SOL     OW82732   3.605   0.315   7.915  0.1861 -0.2877  0.2253
26571SOL    HW182733   3.513   0.292   7.933 -0.5866  0.9802 -1.9387
26571SOL    HW282734   3.655   0.254   7.968 -1.8948 -2.2021  0.0712
26572SOL     OW82735   5.932   6.469   5.460 -0.1306  0.5144 -0.7359
26572SOL    HW182736   5.952   6.386   5.417  0.5618  0.9114 -1.2075
26572SOL    HW282737   6.011   6.489   5.511 -0.7181  0.3470  0.2407
26573SOL     OW82738   7.564   1.810   3.033  0.3467 -0.0642 -0.0132
26573SOL    HW182739   7.527   1.736   2.985  2.8429 -0.9842 -0.6352
26573SOL    HW282740   7.632   1.771   3.088  1.1462  1.6611  0.2665
26574SOL     OW82741   8.605   2.197   8.053  0.3360  0.6138  0.1117
26574SOL    HW182742   8.592   2.103   8.069 -0.1957  0.6193 -0.2812
26574SOL    HW282743   8.690   2.216   8.093  0.6415 -0.1239 -0.1729
26575SOL     OW82744   8.305   5.208   0.988  0.0676 -0.2878  0.2512
26575SOL    HW182745   8.358   5.157   0.926  1.4404 -0.5499  1.6175
26575SOL    HW282746   8.243   5.255   0.932  1.5055 -0.2404 -1.3620
26576SOL     OW82747   7.686   1.067   6.750  0.0012 -0.0322 -0.0793
26576SOL    HW182748   7.617   1.001   6.754  0.6389 -0.6440  1.1810
26576SOL    HW282749   7.736   1.044   6.672  0.3936 -1.2293  0.5202
26577SOL     OW82750   9.331   1.967   4.306  0.0470 -0.0107 -0.1903
26577SOL    HW182751   9.380   1.885   4.315 -0.1863  0.0416  2.0011
26577SOL    HW282752   9.386   2.033   4.350  0.1175  0.9747 -1.7165
26578SOL     OW82753   5.174   2.821   7.056 -0.3763 -0.4297  0.8050
26578SOL    HW182754   5.224   2.874   7.118 -0.9353  1.2248 -0.1344
26578SOL    HW282755   5.206   2.848   6.970 -2.2390 -0.0073  0.2278
26579SOL     OW82756   2.895   3.592   7.780 -0.0218  0.7115  0.4402
26579SOL    HW182757   2.937   3.673   7.808  0.4885  0.1177  1.4021
26579SOL    HW282758   2.804   3.599   7.811  0.0916  0.8016  0.7478
26580SOL     OW82759   8.933   4.016   8.962  0.3750 -0.4442 -0.2076
26580SOL    HW182760   8.914   4.068   9.039  0.9049  0.2625 -0.5409
26580SOL    HW282761   8.893   4.064   8.890  2.9030  0.8004 -0.8490
26581SOL     OW82762   4.534   4.444   4.117  0.2658 -0.0373 -0.6701
26581SOL    HW182763   4.580   4.361   4.129  0.0616  0.0947  1.2811
26581SOL    HW282764   4.464   4.442   4.182  1.6918  2.6377  1.0625
26582SOL     OW82765   3.759   2.066   2.053 -0.3300  0.4563  0.2964
26582SOL    HW182766   3.695   2.015   2.004 -1.3665  1.1189  0.9378
26582SOL    HW282767   3.830   2.083   1.991 -0.8474 -0.1391 -0.4604
26583SOL     OW82768   7.966   0.198   7.566  0.2636  0.2627  0.1532
26583SOL    HW182769   8.052   0.175   7.603  0.9781  0.8353 -1.1363
26583SOL    HW282770   7.904   0.174   7.635  1.2509 -2.4151  0.1733
26584SOL     OW82771   6.339   2.076   7.328  0.1145 -0.0951 -0.1109
26584SOL    HW182772   6.381   2.120   7.254 -0.8279  3.9677  1.6424
26584SOL    HW282773   6.246   2.071   7.303  0.2521 -1.3836 -0.4013
26585SOL     OW82774   0.251   8.627   2.990  0.3512  0.5004  0.6462
26585SOL    HW182775   0.242   8.533   3.007  0.9738  0.1856 -0.6933
26585SOL    HW282776   0.333   8.652   3.033 -0.0006  0.5218  1.3195
26586SOL     OW82777   3.433   6.367   0.029  0.0010  0.0671 -0.3498
26586SOL    HW182778   3.430   6.433   0.097 -0.4763 -0.1205 -0.1853
26586SOL    HW282779   3.345   6.328   0.029  0.3761 -0.7921 -0.2134
26587SOL     OW82780   6.482   0.136   4.998  0.0076 -0.6393 -0.4932
26587SOL    HW182781   6.551   0.082   5.038  0.4029  0.3633  0.1894
26587SOL    HW282782   6.522   0.173   4.920  0.1981 -0.1566 -0.1647
26588SOL     OW82783   0.695   6.167   7.441  0.0279  0.0438 -0.1028
26588SOL    HW182784   0.706   6.097   7.377 -0.0573 -0.4042  0.3661
26588SOL    HW282785   0.617   6.142   7.490 -0.0329  0.4966  0.0367
26589SOL     OW82786   1.752   8.686   9.089 -0.2288  0.1168 -0.8363
26589SOL    HW182787   1.793   8.737   9.159 -0.9114 -0.2318 -0.1728
26589SOL    HW282788   1.823   8.632   9.054 -0.5286 -2.0576  1.7264
26590SOL     OW82789   6.897   4.858   1.911 -0.1373 -0.1089 -0.1663
26590SOL    HW182790   6.931   4.901   1.833 -0.9750 -0.3623 -0.6757
26590SOL    HW282791   6.829   4.799   1.879 -0.6735 -0.0241  0.7749
26591SOL     OW82792   1.753   2.133   6.623 -0.3638  0.5161 -0.2170
26591SOL    HW182793   1.803   2.212   6.605 -1.2579  1.1709  0.1684
26591SOL    HW282794   1.728   2.140   6.715  0.0652 -0.5073 -0.0079
26592SOL     OW82795   4.735   6.264   1.332 -0.0576  0.7656  0.2282
26592SOL    HW182796   4.642   6.267   1.309  0.4991  1.1975 -2.1268
26592SOL    HW282797   4.777   6.326   1.272  1.6933  0.9223  1.5687
26593SOL     OW82798   7.413   1.803   1.616  0.1304  0.5322  0.1661
26593SOL    HW182799   7.489   1.764   1.659  0.1376  0.3515 -0.0107
26593SOL    HW282800   7.353   1.730   1.601 -0.1699  0.7076  0.4912
26594SOL     OW82801   3.480   6.780   1.013 -0.4577 -0.1221 -0.1419
26594SOL    HW182802   3.538   6.735   0.952  0.7016  0.9622  0.1317
26594SOL    HW282803   3.399   6.729   1.011  0.4638 -1.6197 -0.5939
26595SOL     OW82804   8.173   3.091   4.157 -0.1680 -0.0799 -0.2274
26595SOL    HW182805   8.120   3.026   4.204  0.3621  0.1698  0.7179
26595SOL    HW282806   8.263   3.059   4.165 -0.3946 -2.1065 -4.3440
26596SOL     OW82807   7.753   9.410   3.590 -0.1560 -0.1569  0.2191
26596SOL    HW182808   7.712   9.481   3.542  0.9951 -0.4364 -1.2087
26596SOL    HW282809   7.681   9.366   3.635 -1.3420 -0.1871 -1.6574
26597SOL     OW82810   9.083   5.825   4.581 -0.1296  0.0165 -0.3931
26597SOL    HW182811   9.134   5.771   4.520  1.9263  3.3659 -1.7628
26597SOL    HW282812   9.125   5.812   4.666 -0.8170 -1.9410 -0.3296
26598SOL     OW82813   3.597   1.454   6.681  0.5431 -0.6236  0.0242
26598SOL    HW182814   3.632   1.536   6.646 -0.3025  0.2586  1.2206
26598SOL    HW282815   3.554   1.479   6.763 -2.0768 -1.7799 -0.9259
26599SOL     OW82816   3.039   1.821   9.318 -0.0994 -0.0345  0.2369
26599SOL    HW182817   3.004   1.841   9.405 -1.9048 -0.5235 -0.3497
26599SOL    HW282818   3.047   1.725   9.318  0.0886 -0.0186 -0.0670
26600SOL     OW82819   3.714   7.439   4.675 -0.4395 -0.1734 -0.2549
26600SOL    HW182820   3.707   7.365   4.735 -0.8978  0.1066  0.0399
26600SOL    HW282821   3.694   7.516   4.728 -2.6961 -0.0809 -1.1413
26601SOL     OW82822   6.910   5.652   5.499  0.1538 -0.3153 -0.6368
26601SOL    HW182823   6.898   5.661   5.405 -1.5714 -2.1407 -0.6274
26601SOL    HW282824   6.854   5.719   5.537  0.7521  0.3377 -0.8901
26602SOL     OW82825   4.237   8.773   2.748 -0.2630 -0.8682 -0.2904
26602SOL    HW182826   4.319   8.745   2.706 -1.0054  0.4342 -2.7441
26602SOL    HW282827   4.169   8.720   2.706 -0.9219 -0.2529 -0.0203
26603SOL     OW82828   6.014   6.760   2.024 -0.0090  0.2737  0.1333
26603SOL    HW182829   6.067   6.753   2.103 -0.9037  0.9255  0.8071
26603SOL    HW282830   6.047   6.692   1.966 -0.6992 -1.6058  1.8799
26604SOL     OW82831   9.340   8.257   7.650 -0.1664  0.9784  0.2018
26604SOL    HW182832   9.391   8.303   7.583  0.6911 -0.3281 -0.0625
26604SOL    HW282833   9.346   8.165   7.625 -2.9938  0.8307 -0.0445
26605SOL     OW82834   8.854   5.178   1.238 -0.4427  0.8368 -0.1385
26605SOL    HW182835   8.762   5.178   1.266 -0.0459  0.4439  1.1848
26605SOL    HW282836   8.856   5.117   1.164 -0.9709 -0.2788  0.7611
26606SOL     OW82837   8.907   7.676   8.220  0.0188  0.9410 -0.2565
26606SOL    HW182838   8.885   7.723   8.300  2.3199  0.7760  0.5045
26606SOL    HW282839   8.903   7.743   8.152 -0.1171  1.4843  0.2800
26607SOL     OW82840   4.420   8.355   1.417  0.6985 -0.2771 -0.3147
26607SOL    HW182841   4.396   8.265   1.440  0.9849  0.3312  2.5817
26607SOL    HW282842   4.378   8.409   1.484  1.9195  1.6252 -1.0376
26608SOL     OW82843   0.036   4.311   7.177  0.2000  0.2891  0.3651
26608SOL    HW182844   0.076   4.230   7.145  0.5630  0.8605 -0.6097
26608SOL    HW282845   0.085   4.381   7.135 -0.5557  1.0143  0.6832
26609SOL     OW82846   0.184   2.073   1.858 -0.0559  0.2573 -0.9949
26609SOL    HW182847   0.194   2.034   1.771  0.8765  0.7419 -1.1058
26609SOL    HW282848   0.104   2.125   1.852 -0.8729 -0.9798 -1.0827
26610SOL     OW82849   3.003   5.243   1.707  0.1514  0.1480  0.2423
26610SOL    HW182850   3.059   5.210   1.777 -0.1894 -1.9351 -0.4498
26610SOL    HW282851   3.052   5.225   1.627 -0.8544 -0.3085 -0.2643
26611SOL     OW82852   6.499   4.053   9.340  0.6470 -0.3275  0.2730
26611SOL    HW182853   6.589   4.077   9.362  0.9915 -2.3960  1.2557
26611SOL    HW282854   6.502   4.025   9.249  0.8614  0.2116  0.1128
26612SOL     OW82855   9.369   1.953   9.183 -0.4249 -0.3486  0.0794
26612SOL    HW182856   9.353   1.909   9.100  0.5441 -0.1322 -0.2320
26612SOL    HW282857   9.374   2.046   9.161  0.9025 -0.3731  0.1893
26613SOL     OW82858   2.505   1.645   4.299  0.0519 -0.4812 -0.0490
26613SOL    HW182859   2.514   1.716   4.364 -0.4854  0.1629 -0.6626
26613SOL    HW282860   2.507   1.565   4.351 -1.7118  0.0808  0.9386
26614SOL     OW82861   0.710   7.945   1.906 -0.0579 -0.5315  0.2615
26614SOL    HW182862   0.756   8.019   1.868  0.6953 -0.6171  0.9833
26614SOL    HW282863   0.709   7.879   1.837 -0.9639  0.2383 -0.4718
26615SOL     OW82864   2.821   7.971   6.499 -0.1424 -0.1196  0.1931
26615SOL    HW182865   2.858   7.895   6.544  0.1040 -0.2078 -0.1541
26615SOL    HW282866   2.750   7.935   6.446  0.5250 -0.2371 -0.6302
26616SOL     OW82867   1.986   5.247   1.301 -0.4535  0.3559 -0.3345
26616SOL    HW182868   1.948   5.159   1.295 -0.9262  0.5706 -0.4987
26616SOL    HW282869   1.920   5.299   1.347  0.0889  0.4802  0.3175
26617SOL     OW82870   3.148   8.692   9.318 -0.2724  0.2754 -0.4388
26617SOL    HW182871   3.079   8.646   9.270 -0.2419 -0.1423 -0.0931
26617SOL    HW282872   3.125   8.784   9.311 -1.6569  0.0507  0.8733
26618SOL     OW82873   7.336   1.299   9.071 -0.2204 -0.0606  0.3453
26618SOL    HW182874   7.253   1.345   9.059  0.4369  1.0215 -0.1061
26618SOL    HW282875   7.323   1.245   9.149 -1.0234  0.8480  0.8433
26619SOL     OW82876   6.315   2.432   4.636  0.1532 -0.5232  0.6128
26619SOL    HW182877   6.327   2.339   4.614  0.0616 -0.3930  0.0038
26619SOL    HW282878   6.247   2.462   4.576  2.2813  0.6856 -1.2752
26620SOL     OW82879   0.164   2.662   3.086  0.1678  0.3726  0.4437
26620SOL    HW182880   0.212   2.632   3.162 -0.5911  0.0878  0.8158
26620SOL    HW282881   0.180   2.756   3.083 -0.0403  0.4322  1.1288
26621SOL     OW82882   7.211   0.939   5.700 -0.1565 -0.4533  0.2726
26621SOL    HW182883   7.277   0.892   5.751 -0.0826 -0.6110  0.0335
26621SOL    HW282884   7.156   0.982   5.765 -0.0143 -0.5901  0.4826
26622SOL     OW82885   2.105   4.444   6.373 -0.2108  0.0675 -0.1389
26622SOL    HW182886   2.145   4.487   6.297 -1.5876 -0.3936 -1.1427
26622SOL    HW282887   2.069   4.517   6.424 -1.0522  0.2477 -0.9693
26623SOL     OW82888   0.268   6.959   2.578  0.5862  0.0053  0.4478
26623SOL    HW182889   0.234   6.870   2.591  1.9930 -0.2875  2.4102
26623SOL    HW282890   0.245   7.005   2.659 -2.7775  2.3607 -1.7438
26624SOL     OW82891   9.308   2.250   4.462 -0.7174  0.1225 -0.6490
26624SOL    HW182892   9.227   2.259   4.412 -0.1657 -1.3917 -1.8788
26624SOL    HW282893   9.280   2.224   4.550 -1.5942  0.4358 -0.8323
26625SOL     OW82894   8.843   0.188   7.586 -0.3263 -0.0239  0.2393
26625SOL    HW182895   8.799   0.132   7.522  1.3548 -1.8037  0.6164
26625SOL    HW282896   8.909   0.132   7.626 -0.5419  1.4197  2.6937
26626SOL     OW82897   6.936   8.973   2.481 -0.0014 -0.1348 -0.1647
26626SOL    HW182898   6.921   9.063   2.452  1.1423  0.2954  0.5432
26626SOL    HW282899   7.030   8.959   2.468 -0.2020 -1.2875 -0.4340
26627SOL     OW82900   0.419   8.876   3.822 -0.1222  0.0451  0.1119
26627SOL    HW182901   0.497   8.928   3.840  0.0896 -0.5162  0.8007
26627SOL    HW282902   0.448   8.785   3.829 -0.3273 -0.1941 -1.7678
26628SOL     OW82903   8.846   0.110   5.705  0.1242  0.6134 -0.0544
26628SOL    HW182904   8.876   0.040   5.647 -1.2433  1.0607 -1.3430
26628SOL    HW282905   8.879   0.190   5.665  0.3394  0.8265  0.5478
26629SOL     OW82906   0.747   0.205   8.113 -0.3023 -0.1253  0.5247
26629SOL    HW182907   0.755   0.127   8.167  0.5540 -0.4974 -0.1371
26629SOL    HW282908   0.830   0.251   8.124 -0.0066 -0.3546 -0.7097
26630SOL     OW82909   5.233   5.534   2.248  0.0908  0.7781  0.2646
26630SOL    HW182910   5.305   5.474   2.266  0.5459  1.8024  1.9971
26630SOL    HW282911   5.248   5.564   2.158  0.3103 -1.0592 -0.3166
26631SOL     OW82912   3.606   7.947   8.677 -0.0587  0.0004  0.1663
26631SOL    HW182913   3.538   8.014   8.684  0.6336  0.7383 -0.0606
26631SOL    HW282914   3.559   7.864   8.680 -0.8907  0.4930  0.8462
26632SOL     OW82915   7.641   5.507   6.602  0.4813 -0.2410  0.3524
26632SOL    HW182916   7.647   5.518   6.697 -0.9052 -0.6048  0.4900
26632SOL    HW282917   7.608   5.418   6.590  0.5520 -0.1638 -0.4681
26633SOL     OW82918   9.414   3.376   8.080  0.0244 -0.1938  0.1989
26633SOL    HW182919   9.435   3.350   7.990 -2.4954 -0.8829 -0.2378
26633SOL    HW282920   9.487   3.343   8.132  1.9588  0.9799 -1.6729
26634SOL     OW82921   2.935   0.622   7.155 -0.4064  0.5881  0.0931
26634SOL    HW182922   2.854   0.575   7.176 -0.0035  0.2341  0.9144
26634SOL    HW282923   2.986   0.559   7.103  0.8112 -0.5222  2.5487
26635SOL     OW82924   1.881   8.063   0.373 -0.1169 -0.1170 -0.5728
26635SOL    HW182925   1.927   7.984   0.400 -1.1204 -0.7918 -0.7980
26635SOL    HW282926   1.788   8.039   0.376 -0.5654  1.6950  1.4541
26636SOL     OW82927   5.159   6.420   2.858  0.6360  0.2144 -0.2125
26636SOL    HW182928   5.107   6.342   2.837  0.7040 -0.4159  1.7981
26636SOL    HW282929   5.095   6.492   2.858  0.2779 -0.1006 -0.4978
26637SOL     OW82930   4.181   3.055   2.703  0.2202 -0.0718 -0.3319
26637SOL    HW182931   4.101   3.068   2.755  1.3035  1.6694  0.9507
26637SOL    HW282932   4.154   3.071   2.613 -0.4124  2.8572  0.3264
26638SOL     OW82933   2.810   5.659   0.605 -0.0556  0.4495  0.1178
26638SOL    HW182934   2.829   5.618   0.521 -0.8628 -1.1799  0.6904
26638SOL    HW282935   2.832   5.751   0.593  1.9196 -0.1623 -1.1901
26639SOL     OW82936   5.023   1.009   6.860  0.3209 -0.0954 -0.3094
26639SOL    HW182937   4.968   0.931   6.847  1.3360 -0.7546 -0.7464
26639SOL    HW282938   5.064   0.996   6.946  0.5762 -0.1095 -0.4312
26640SOL     OW82939   2.766   3.427   3.742 -0.2828 -0.0197 -0.1288
26640SOL    HW182940   2.727   3.470   3.666  1.5036 -0.7569 -1.4917
26640SOL    HW282941   2.796   3.499   3.797 -2.9281  0.5595  0.6549
26641SOL     OW82942   8.441   1.165   1.404 -0.1604 -1.0005  0.4465
26641SOL    HW182943   8.466   1.240   1.350 -1.2482 -0.8824  0.0892
26641SOL    HW282944   8.521   1.141   1.452  1.0324 -1.5992 -1.7954
26642SOL     OW82945   3.290   5.112   6.588 -0.0897  0.2157  0.2132
26642SOL    HW182946   3.351   5.049   6.627 -1.2383 -1.0931 -0.0723
26642SOL    HW282947   3.229   5.133   6.659 -0.6332 -0.1809 -0.1345
26643SOL     OW82948   1.286   7.757   5.025 -0.2685  0.5996  0.0322
26643SOL    HW182949   1.339   7.802   4.959 -3.9085  0.2703 -3.3013
26643SOL    HW282950   1.230   7.826   5.061 -1.2230  0.0344 -0.3312
26644SOL     OW82951   4.628   5.148   6.270  0.1126 -0.2441  0.0792
26644SOL    HW182952   4.624   5.206   6.346  1.3774 -1.3421  1.0157
26644SOL    HW282953   4.537   5.135   6.245 -0.3136  0.3586  1.2445
26645SOL     OW82954   1.573   0.178   5.451  0.2359 -0.1236 -0.2393
26645SOL    HW182955   1.621   0.170   5.369 -0.0700 -3.4577 -0.1465
26645SOL    HW282956   1.600   0.102   5.503 -1.6475  0.4372  1.6583
26646SOL     OW82957   2.238   7.236   4.972  0.4098 -0.0259  0.0858
26646SOL    HW182958   2.212   7.294   4.900 -0.1422  0.3232  0.5573
26646SOL    HW282959   2.222   7.148   4.939 -1.0115  0.1644  0.1995
26647SOL     OW82960   7.388   8.687   1.411 -0.1513  0.5154 -0.6190
26647SOL    HW182961   7.476   8.655   1.432 -0.2402 -0.5709 -1.8564
26647SOL    HW282962   7.376   8.666   1.319 -1.6042  0.9295 -0.5392
26648SOL     OW82963   7.909   7.680   0.787  0.4988 -0.1811  0.1385
26648SOL    HW182964   7.852   7.747   0.826  1.3581  0.2778  0.6175
26648SOL    HW282965   7.998   7.709   0.807  0.9433 -0.3788 -1.4456
26649SOL     OW82966   5.947   3.192   2.224  0.3639  0.0737 -0.4986
26649SOL    HW182967   6.039   3.166   2.236  0.6258  1.0064 -0.4584
26649SOL    HW282968   5.897   3.114   2.249  1.0822  0.2649  1.6346
26650SOL     OW82969   3.663   5.743   4.149  0.3227 -0.4504  0.4417
26650SOL    HW182970   3.683   5.667   4.094  1.1947 -0.1218  0.2990
26650SOL    HW282971   3.602   5.710   4.214 -0.3539 -0.9622 -0.4365
26651SOL     OW82972   8.188   3.786   6.627  0.7635 -0.1626  0.0039
26651SOL    HW182973   8.198   3.837   6.707  3.0459  0.3569 -0.5758
26651SOL    HW282974   8.104   3.815   6.590  0.2327  0.3939  1.6242
26652SOL     OW82975   5.041   6.978   5.143  0.1719  0.2768  0.3912
26652SOL    HW182976   5.125   6.932   5.135  0.6361  1.6204 -3.2994
26652SOL    HW282977   5.064   7.067   5.166 -0.4453  0.0015  2.1655
26653SOL     OW82978   8.621   5.202   1.427  0.6504 -0.2021  0.2641
26653SOL    HW182979   8.570   5.175   1.504  0.4733  0.6361  0.4458
26653SOL    HW282980   8.565   5.179   1.353 -0.7758  2.2501  0.5105
26654SOL     OW82981   5.403   6.846   2.924  0.7425  0.4095  0.0963
26654SOL    HW182982   5.343   6.781   2.960  0.2670  0.7955  0.0047
26654SOL    HW282983   5.402   6.831   2.830  0.9340  0.2931  0.1133
26655SOL     OW82984   0.702   2.919   3.589 -0.4345 -0.2420  0.2878
26655SOL    HW182985   0.715   2.838   3.539  2.3582 -1.0091  2.1325
26655SOL    HW282986   0.673   2.890   3.675 -1.0067  0.8293  0.4669
26656SOL     OW82987   5.287   0.851   7.254  0.3771 -0.2115  0.6005
26656SOL    HW182988   5.270   0.944   7.272  1.7882  0.2040 -0.1351
26656SOL    HW282989   5.236   0.804   7.320  1.2688  1.1454  2.3218
26657SOL     OW82990   2.004   0.231   5.353  0.2747  0.3129 -0.0235
26657SOL    HW182991   1.972   0.246   5.264  0.9523  1.4271 -0.0913
26657SOL    HW282992   1.975   0.307   5.403 -0.4429 -0.4961  0.8127
26658SOL     OW82993   7.782   1.966   5.035 -0.1300  0.5049 -0.6013
26658SOL    HW182994   7.877   1.953   5.038  0.1179  2.1817 -0.6835
26658SOL    HW282995   7.748   1.886   4.996  1.1964 -0.3701  0.0015
26659SOL     OW82996   4.494   8.176   3.433 -0.4467  0.4164  0.1901
26659SOL    HW182997   4.537   8.262   3.432  0.8350 -0.2219 -1.5271
26659SOL    HW282998   4.473   8.159   3.341 -2.8239 -0.0877  0.7857
26660SOL     OW82999   3.870   1.551   0.955  0.5767 -0.5726 -0.2137
26660SOL    HW183000   3.958   1.520   0.937 -0.0714 -2.0037 -0.9507
26660SOL    HW283001   3.814   1.475   0.942 -0.9768  0.7693 -1.5326
26661SOL     OW83002   1.685   0.563   8.216 -0.0857  0.2783  0.6733
26661SOL    HW183003   1.756   0.626   8.219  0.1977  0.0547 -0.7990
26661SOL    HW283004   1.623   0.592   8.282  0.2171  1.8812  0.2616
26662SOL     OW83005   1.371   5.586   6.389 -0.0469 -0.4912 -0.1154
26662SOL    HW183006   1.361   5.594   6.484  2.3836 -0.2480  0.1622
26662SOL    HW283007   1.282   5.590   6.354 -0.7616  2.8185  1.8873
26663SOL     OW83008   9.188   2.303   0.705  0.2655  0.5888 -0.2191
26663SOL    HW183009   9.224   2.347   0.628  0.4588  1.6413  0.4582
26663SOL    HW283010   9.197   2.210   0.686  1.5816  0.8362 -0.8947
26664SOL     OW83011   1.300   0.762   1.808 -0.1523  0.5251  0.2894
26664SOL    HW183012   1.384   0.803   1.831  0.6247 -0.2928 -1.0143
26664SOL    HW283013   1.323   0.698   1.740 -1.7171 -0.2964  0.5184
26665SOL     OW83014   6.310   1.822   4.984  0.4387  1.1032  0.1648
26665SOL    HW183015   6.362   1.793   4.908  1.7963  0.5439  1.2839
26665SOL    HW283016   6.369   1.812   5.058 -1.2081  0.6949  1.4433
26666SOL     OW83017   6.345   6.812   6.697  0.8096 -0.3283 -0.2001
26666SOL    HW183018   6.341   6.899   6.656 -2.8678  0.1469  0.9086
26666SOL    HW283019   6.378   6.755   6.629  1.9683  1.7227 -1.4072
26667SOL     OW83020   5.925   5.262   3.319  0.2175 -0.3705  0.1142
26667SOL    HW183021   5.869   5.335   3.346  0.5688  0.0327 -0.2393
26667SOL    HW283022   5.954   5.223   3.401 -1.1483 -1.0254  0.3064
26668SOL     OW83023   7.261   8.217   4.370 -0.1212  0.1832  0.1437
26668SOL    HW183024   7.265   8.249   4.280  1.8025 -0.7288 -0.1141
26668SOL    HW283025   7.230   8.292   4.420 -2.3376  0.3495 -1.4271
26669SOL     OW83026   2.844   5.454   9.383  0.0613 -0.2445  0.2815
26669SOL    HW183027   2.923   5.462   9.329 -0.1171 -0.0948  0.0417
26669SOL    HW283028   2.772   5.471   9.323 -0.2872 -2.5720 -0.0011
26670SOL     OW83029   0.953   3.818   1.708  0.3128 -0.0684  0.1714
26670SOL    HW183030   0.929   3.768   1.786 -1.3006  0.2934 -0.0763
26670SOL    HW283031   0.893   3.788   1.640  1.8641 -0.5683 -1.0268
26671SOL     OW83032   4.886   6.003   4.373  0.7780  0.8099 -0.3729
26671SOL    HW183033   4.851   5.914   4.378  2.0465  0.0882 -2.9654
26671SOL    HW283034   4.815   6.059   4.403  0.3657 -1.1388  2.4841
26672SOL     OW83035   5.864   7.416   1.393  0.6585  0.1070  0.3012
26672SOL    HW183036   5.880   7.435   1.485  1.4708  0.8943  0.0075
26672SOL    HW283037   5.951   7.415   1.353  0.2651  0.4872 -0.5904
26673SOL     OW83038   4.893   4.255   5.042 -0.0107  0.4204 -0.3153
26673SOL    HW183039   4.969   4.272   5.098  0.4789  2.3418 -1.5099
26673SOL    HW283040   4.894   4.327   4.978 -1.0700 -1.2130 -2.2347
26674SOL     OW83041   3.572   8.600   0.460  0.3534 -0.2599  0.2983
26674SOL    HW183042   3.622   8.554   0.527 -0.2878 -0.4159  0.6716
26674SOL    HW283043   3.497   8.543   0.441  0.7753 -0.4362 -0.8913
26675SOL     OW83044   6.542   6.532   3.841  0.6875  0.5965  0.3106
26675SOL    HW183045   6.486   6.454   3.846  0.1923  1.0196  1.6632
26675SOL    HW283046   6.500   6.589   3.777  0.9039 -0.1303 -0.4863
26676SOL     OW83047   9.083   6.376   6.505 -0.0376 -0.2402  0.3653
26676SOL    HW183048   9.119   6.462   6.483 -0.1479 -0.1185  0.6603
26676SOL    HW283049   9.141   6.314   6.462 -0.6617  0.0141 -0.8812
26677SOL     OW83050   4.222   6.104   6.717 -0.4118  0.8098 -0.0471
26677SOL    HW183051   4.258   6.075   6.634 -1.0417 -0.3222  0.0657
26677SOL    HW283052   4.202   6.024   6.765 -1.9938  1.4085  0.3568
26678SOL     OW83053   4.142   8.394   9.103  0.6660  0.4091 -0.4573
26678SOL    HW183054   4.206   8.333   9.065  0.3772 -0.7391  0.8489
26678SOL    HW283055   4.184   8.426   9.183 -0.4898 -0.5728  0.5612
26679SOL     OW83056   7.498   6.749   1.073 -0.3420  0.1047  0.4493
26679SOL    HW183057   7.546   6.667   1.061 -0.4859  0.2809 -1.5613
26679SOL    HW283058   7.558   6.805   1.122 -0.0821 -1.0486  1.4919
26680SOL     OW83059   9.141   0.833   7.446 -0.6141  0.4906  0.0268
26680SOL    HW183060   9.122   0.905   7.386 -2.2790  1.1463  1.3196
26680SOL    HW283061   9.063   0.778   7.443  0.7922 -1.5064 -1.2403
26681SOL     OW83062   0.782   5.729   2.182 -0.2067  0.1550  0.3065
26681SOL    HW183063   0.717   5.765   2.122  0.4615  2.3741  0.8785
26681SOL    HW283064   0.764   5.770   2.266  1.4077  0.1936  0.6631
26682SOL     OW83065   9.233   8.559   3.601  0.6167 -0.2046  0.0134
26682SOL    HW183066   9.231   8.597   3.513  2.9833  0.1220  0.0795
26682SOL    HW283067   9.227   8.465   3.587 -2.6749 -0.0015 -0.2851
26683SOL     OW83068   3.194   5.232   3.089  0.2872 -0.3013 -0.0173
26683SOL    HW183069   3.130   5.253   3.157  0.2254 -0.4692 -0.0210
26683SOL    HW283070   3.194   5.136   3.086  1.4847 -0.3352  0.8701
26684SOL     OW83071   5.029   2.419   6.738  0.0008  0.4159  0.1520
26684SOL    HW183072   5.068   2.491   6.786 -0.1410 -0.1628  1.1409
26684SOL    HW283073   5.095   2.349   6.742  0.0721  0.4247 -0.6629
26685SOL     OW83074   1.108   3.845   0.790 -0.3513  1.0359  0.3551
26685SOL    HW183075   1.128   3.787   0.716  0.1760 -0.0808  1.3510
26685SOL    HW283076   1.118   3.934   0.754 -0.3059  0.5148 -0.9583
26686SOL     OW83077   6.281   8.121   5.590 -0.0374 -0.4511  0.7230
26686SOL    HW183078   6.305   8.206   5.627  1.2973 -0.4698 -0.0610
26686SOL    HW283079   6.258   8.067   5.666  0.0770  0.3088  1.3000
26687SOL     OW83080   7.804   5.593   6.410 -1.0673  0.3288  0.0671
26687SOL    HW183081   7.885   5.571   6.456 -0.2976  0.5592 -1.1437
26687SOL    HW283082   7.734   5.553   6.463  0.0540 -2.4765 -0.4855
26688SOL     OW83083   8.602   0.959   3.986 -0.7343 -0.2535 -0.6449
26688SOL    HW183084   8.623   1.004   3.904  1.2892  1.9397  0.9912
26688SOL    HW283085   8.528   1.010   4.021 -0.8205 -0.4548 -0.5367
26689SOL     OW83086   0.697   7.728   4.430 -0.1259 -0.3602 -0.7810
26689SOL    HW183087   0.626   7.668   4.456 -0.7070  0.0085 -1.4817
26689SOL    HW283088   0.772   7.701   4.483 -0.5359 -1.3551 -0.6884
26690SOL     OW83089   1.685   6.311   5.088  0.2430  0.1262  0.1446
26690SOL    HW183090   1.708   6.230   5.135  0.4030  0.3886  0.5238
26690SOL    HW283091   1.768   6.357   5.079 -0.0213  0.7890  0.9660
26691SOL     OW83092   2.886   4.167   6.876  0.2896  0.7639  0.0089
26691SOL    HW183093   2.899   4.072   6.883 -1.3608  0.4882 -0.3775
26691SOL    HW283094   2.974   4.203   6.866  0.9472 -0.7103  0.3559
26692SOL     OW83095   3.742   8.846   1.539 -0.0228 -1.0063 -0.6624
26692SOL    HW183096   3.732   8.934   1.503 -0.8064 -1.6561 -2.1274
26692SOL    HW283097   3.734   8.788   1.462 -1.2347 -2.4227  0.4864
26693SOL     OW83098   2.929   9.215   8.904  0.1518  0.2289  0.0695
26693SOL    HW183099   2.926   9.262   8.987 -0.2985  1.2415 -0.5164
26693SOL    HW283100   3.008   9.247   8.861  0.4695 -0.4122  0.1711
26694SOL     OW83101   3.496   2.932   1.973 -0.4733 -0.4390 -0.3301
26694SOL    HW183102   3.457   3.011   1.937 -1.4249 -0.7444  0.0118
26694SOL    HW283103   3.424   2.869   1.976 -0.2271 -0.6733  1.3407
26695SOL     OW83104   8.594   9.316   8.395 -0.6008 -0.0032  0.0759
26695SOL    HW183105   8.580   9.237   8.448 -0.5472  0.2329  0.4456
26695SOL    HW283106   8.686   9.340   8.412 -0.9110  0.7211  0.7711
26696SOL     OW83107   6.803   9.228   2.626  0.2214 -0.1010  0.4959
26696SOL    HW183108   6.751   9.151   2.650 -1.9340  0.7573 -1.3162
26696SOL    HW283109   6.840   9.205   2.540  0.5439  0.4215  0.4973
26697SOL     OW83110   1.369   5.947   8.301 -0.3512  0.1015 -0.1265
26697SOL    HW183111   1.400   5.882   8.238  0.0492  1.8958 -1.8228
26697SOL    HW283112   1.301   5.902   8.351 -1.1929 -1.1365 -2.3335
26698SOL     OW83113   8.891   4.193   1.154 -0.3991  0.4633 -0.2387
26698SOL    HW183114   8.849   4.124   1.206  1.0089 -1.0096 -0.9850
26698SOL    HW283115   8.945   4.145   1.091  0.7193  2.2765 -0.6918
26699SOL     OW83116   3.217   3.246   5.925  0.4268 -0.2350 -0.0599
26699SOL    HW183117   3.174   3.329   5.904 -0.4806 -0.5913  0.3896
26699SOL    HW283118   3.293   3.244   5.867  1.1305  1.4642  0.7655
26700SOL     OW83119   3.589   0.382   2.384 -0.0738 -0.0484  0.4061
26700SOL    HW183120   3.677   0.389   2.347 -0.0654  1.5340  0.6790
26700SOL    HW283121   3.584   0.455   2.446 -1.7499  0.1553  0.0382
26701SOL     OW83122   7.480   0.999   8.037  0.0659 -0.2046 -0.2383
26701SOL    HW183123   7.465   0.988   8.132  1.6704 -1.7342 -0.1268
26701SOL    HW283124   7.392   1.009   8.000 -0.6494 -0.5853  1.3097
26702SOL     OW83125   8.635   3.161   2.924 -0.3173  0.5372  0.4922
26702SOL    HW183126   8.684   3.125   2.850 -2.2103  0.6799 -0.8614
26702SOL    HW283127   8.701   3.208   2.975  0.6626  2.2401 -2.2176
26703SOL     OW83128   0.754   3.242   0.054  0.2282  0.1992  0.4060
26703SOL    HW183129   0.699   3.170   0.023  2.2300 -1.2112 -0.0274
26703SOL    HW283130   0.777   3.218   0.143  1.3307  0.0296  0.0828
26704SOL     OW83131   2.741   6.196   5.378  0.0664 -0.5298 -0.3529
26704SOL    HW183132   2.732   6.149   5.295  3.9234  1.8511 -2.2474
26704SOL    HW283133   2.767   6.130   5.441  4.1969 -1.2646 -2.6900
26705SOL     OW83134   3.813   0.645   2.103  0.5174 -0.7461  0.2941
26705SOL    HW183135   3.797   0.739   2.098  0.5033 -0.7365  0.5187
26705SOL    HW283136   3.735   0.605   2.063  0.8971 -0.6404 -0.5582
26706SOL     OW83137   1.308   3.584   2.555  0.7987  0.5818  0.4448
26706SOL    HW183138   1.254   3.504   2.555  0.3895  0.8599  0.9599
26706SOL    HW283139   1.265   3.641   2.491 -1.4198  2.0834  3.1966
26707SOL     OW83140   6.683   7.960   5.682  0.3617 -0.3698  0.1623
26707SOL    HW183141   6.709   7.880   5.727 -0.7267 -1.0090 -0.3386
26707SOL    HW283142   6.588   7.955   5.677  0.3216  0.7355 -0.2779
26708SOL     OW83143   1.077   1.556   0.903 -0.6583 -0.0729  0.4618
26708SOL    HW183144   1.020   1.633   0.913  2.1131  2.0184  0.6022
26708SOL    HW283145   1.063   1.528   0.813 -0.5943  1.4933 -0.0482
26709SOL     OW83146   8.209   2.561   9.221 -0.0886 -0.1544  0.4321
26709SOL    HW183147   8.149   2.635   9.230 -0.3750 -0.4964  1.3368
26709SOL    HW283148   8.286   2.599   9.179 -0.0951  0.7403  1.1962
26710SOL     OW83149   4.655   1.094   0.969  0.3478  0.3548 -0.8099
26710SOL    HW183150   4.621   1.087   0.879 -1.0957 -3.5542 -0.0451
26710SOL    HW283151   4.578   1.113   1.023  0.8267  0.2387 -0.0810
26711SOL     OW83152   6.927   8.422   4.371 -0.4821 -0.4492  0.2170
26711SOL    HW183153   6.932   8.435   4.465  1.1450 -2.6115  0.4606
26711SOL    HW283154   6.990   8.483   4.334  0.0402 -0.7312  0.6429
26712SOL     OW83155   1.173   2.681   4.794 -0.6850  0.7693 -0.4569
26712SOL    HW183156   1.221   2.756   4.758  1.5480 -0.2814  0.1907
26712SOL    HW283157   1.189   2.610   4.732 -3.4428  0.9898 -1.4810
26713SOL     OW83158   0.756   2.747   4.249 -0.5777 -0.2281  0.0467
26713SOL    HW183159   0.805   2.724   4.171  0.8460  1.9674  0.2303
26713SOL    HW283160   0.812   2.720   4.322 -0.5538  0.4190  0.2740
26714SOL     OW83161   5.773   8.874   9.304 -0.5579  0.2650 -0.0599
26714SOL    HW183162   5.779   8.821   9.225  1.2345 -0.2254  0.3929
26714SOL    HW283163   5.679   8.885   9.318 -0.9454 -2.6546 -0.2235
26715SOL     OW83164   7.836   9.134   5.166 -0.3801  0.2868  0.2704
26715SOL    HW183165   7.750   9.172   5.182 -1.3614 -1.8279  0.1644
26715SOL    HW283166   7.851   9.147   5.072 -1.1187 -0.4330  0.0554
26716SOL     OW83167   7.427   3.438   4.871  0.8296 -0.1846  0.3968
26716SOL    HW183168   7.362   3.469   4.808  1.0570 -1.3552 -0.4343
26716SOL    HW283169   7.421   3.500   4.944 -0.5440  0.2751 -0.0834
26717SOL     OW83170   3.960   8.158   3.263  0.7585 -0.1213 -0.5644
26717SOL    HW183171   3.994   8.118   3.183 -0.2162 -1.5967 -0.2614
26717SOL    HW283172   3.986   8.250   3.257  3.6769 -0.9294 -0.9299
26718SOL     OW83173   1.113   8.923   0.198  0.2885 -0.1052 -0.3647
26718SOL    HW183174   1.033   8.871   0.191  0.4575 -0.1406 -2.3230
26718SOL    HW283175   1.127   8.957   0.110  3.2930 -1.3455 -0.4214
26719SOL     OW83176   0.235   0.162   6.031 -0.0105  0.5461 -0.0075
26719SOL    HW183177   0.284   0.088   5.994  2.5945  0.8319  2.7084
26719SOL    HW283178   0.289   0.238   6.012 -1.1247  1.3469  0.0187
26720SOL     OW83179   8.227   6.525   0.894 -0.0900 -0.2407 -0.0835
26720SOL    HW183180   8.167   6.598   0.879 -1.2217 -1.0285  0.5255
26720SOL    HW283181   8.223   6.510   0.989  0.8084 -0.5257 -0.0852
26721SOL     OW83182   0.366   3.667   1.055  0.3205 -0.3205 -0.4423
26721SOL    HW183183   0.365   3.743   0.998  0.1089  1.2870  1.6469
26721SOL    HW283184   0.305   3.689   1.126 -1.6613 -3.4362 -1.0516
26722SOL     OW83185   3.929   0.786   4.755  0.3252 -0.1050  0.3116
26722SOL    HW183186   3.834   0.772   4.756  0.4335 -0.8589  1.0302
26722SOL    HW283187   3.947   0.824   4.669 -0.6143 -0.0516  0.1309
26723SOL     OW83188   8.677   5.596   6.426 -0.0197 -0.7458  0.0880
26723SOL    HW183189   8.615   5.652   6.473 -0.1189 -1.2429  0.5529
26723SOL    HW283190   8.691   5.641   6.343  0.5014  0.3858  0.7648
26724SOL     OW83191   8.697   3.673   0.489  0.1438  0.1082 -0.1329
26724SOL    HW183192   8.786   3.706   0.502 -0.5770  2.3301 -0.5587
26724SOL    HW283193   8.708   3.581   0.465  2.2549  0.0542  0.9776
26725SOL     OW83194   8.189   5.373   3.779 -0.2508 -0.1067 -0.3452
26725SOL    HW183195   8.121   5.441   3.768 -1.9124 -1.2977  2.1463
26725SOL    HW283196   8.218   5.382   3.870  0.1926 -2.1052 -0.2719
26726SOL     OW83197   8.958   0.392   5.304  0.3147  0.7318 -0.5398
26726SOL    HW183198   8.999   0.365   5.386 -1.5870  0.6235  0.3970
26726SOL    HW283199   8.978   0.485   5.296  1.2647  0.5432 -0.4217
26727SOL     OW83200   9.049   2.127   1.420 -0.0408  0.5923  0.5008
26727SOL    HW183201   9.095   2.076   1.353 -2.6742 -0.1998 -0.7812
26727SOL    HW283202   9.060   2.076   1.500 -1.3272 -1.2704 -0.4582
26728SOL     OW83203   3.280   4.432   6.431 -0.1849 -0.5066 -0.0479
26728SOL    HW183204   3.323   4.347   6.436 -0.0108 -0.3721  0.8196
26728SOL    HW283205   3.331   4.488   6.489 -1.0072 -0.1153  0.3022
26729SOL     OW83206   5.050   6.422   7.049  0.6107  0.2787 -0.2410
26729SOL    HW183207   4.998   6.368   6.990 -1.6133  2.4168 -0.3119
26729SOL    HW283208   5.102   6.478   6.991 -0.6447  1.5115 -0.1897
26730SOL     OW83209   0.329   7.373   2.530 -0.4228  0.2441 -0.3979
26730SOL    HW183210   0.358   7.380   2.621 -1.2919  0.4957 -0.1331
26730SOL    HW283211   0.410   7.370   2.479  0.0683  0.4659  0.3575
26731SOL     OW83212   2.339   6.268   2.258 -0.1896 -0.1488  0.5778
26731SOL    HW183213   2.316   6.323   2.183 -1.3297 -0.5002  0.6500
26731SOL    HW283214   2.434   6.269   2.261 -0.1496  0.2125 -0.6222
26732SOL     OW83215   3.503   4.128   2.129 -0.0502  0.4447 -0.2936
26732SOL    HW183216   3.476   4.209   2.085 -0.2987  0.6317  0.1972
26732SOL    HW283217   3.528   4.069   2.058 -0.6119  0.6829 -0.6915
26733SOL     OW83218   9.368   8.045   0.478 -0.1111 -0.0146  0.5568
26733SOL    HW183219   9.303   8.088   0.422 -0.6352  0.7664  1.7494
26733SOL    HW283220   9.448   8.095   0.465  0.0907 -0.5797 -0.4166
26734SOL     OW83221   1.395   3.983   8.837 -0.0305  0.0921  0.6124
26734SOL    HW183222   1.369   4.069   8.870  1.5707  1.0146 -0.4849
26734SOL    HW283223   1.444   3.944   8.910  0.1804  0.5586  0.7262
26735SOL     OW83224   9.066   3.909   5.649  0.7114 -0.1445  0.0967
26735SOL    HW183225   9.058   3.830   5.703 -0.6079 -0.1365 -0.0723
26735SOL    HW283226   9.031   3.884   5.564  1.3917  0.2806 -0.3077
26736SOL     OW83227   7.880   2.701   4.486 -0.1562 -0.6629  0.3697
26736SOL    HW183228   7.877   2.667   4.576 -0.1531 -0.8021  0.3166
26736SOL    HW283229   7.949   2.651   4.443 -0.1906 -0.6294  0.2752
26737SOL     OW83230   6.063   4.932   2.787  0.0949  0.2139 -0.2360
26737SOL    HW183231   5.998   4.870   2.822  0.2399  0.4436  0.4485
26737SOL    HW283232   6.021   4.968   2.708  0.5381 -1.7117 -1.3944
26738SOL     OW83233   7.699   0.960   5.120 -0.5830 -0.1824  0.2113
26738SOL    HW183234   7.697   0.961   5.216 -0.4023 -1.0747  0.2264
26738SOL    HW283235   7.614   0.997   5.094 -0.4933  0.3913  0.7084
26739SOL     OW83236   3.440   5.893   2.650 -0.3854 -0.4608 -0.6054
26739SOL    HW183237   3.481   5.953   2.713 -0.1250  0.0406 -1.2463
26739SOL    HW283238   3.412   5.950   2.579 -0.1147 -1.1091 -1.2325
26740SOL     OW83239   8.905   7.708   3.752  0.0005  0.4851  0.6507
26740SOL    HW183240   8.939   7.688   3.665 -0.9449  1.5631  0.0083
26740SOL    HW283241   8.908   7.804   3.758 -0.8603  0.4814  1.4076
26741SOL     OW83242   8.973   2.248   4.710  0.7615  0.7671 -0.3190
26741SOL    HW183243   8.968   2.343   4.719  0.1009  0.8284 -1.2088
26741SOL    HW283244   8.917   2.214   4.780  1.7673  0.9977  0.6137
26742SOL     OW83245   9.095   9.398   1.258 -0.0377  0.0744  1.0263
26742SOL    HW183246   9.071   9.349   1.180 -1.7234  1.9763  0.3285
26742SOL    HW283247   9.132   9.331   1.317 -0.8359 -1.7528 -0.4766
26743SOL     OW83248   5.669   5.280   6.855  0.4806 -0.1477 -0.2497
26743SOL    HW183249   5.656   5.211   6.921 -0.0550  1.3439  1.2273
26743SOL    HW283250   5.585   5.288   6.812  0.2518  0.2972  0.2798
26744SOL     OW83251   1.938   2.845   3.946 -0.1471  0.0091 -0.5735
26744SOL    HW183252   1.855   2.860   3.901  0.5915  3.4875 -0.9083
26744SOL    HW283253   1.914   2.840   4.039 -0.8758 -0.5183 -0.7814
26745SOL     OW83254   0.801   8.023   4.345  0.1707 -0.5472 -0.2365
26745SOL    HW183255   0.774   7.942   4.387  0.1895  0.3118  1.4875
26745SOL    HW283256   0.748   8.091   4.388  1.6781  0.5935 -0.1410
26746SOL     OW83257   5.582   6.544   2.031  0.2827  0.4020 -0.0464
26746SOL    HW183258   5.531   6.540   1.950  0.8439 -1.4015 -0.3356
26746SOL    HW283259   5.661   6.494   2.013  1.3775  1.7374  0.9600
26747SOL     OW83260   4.099   0.572   6.752  0.3648 -0.0614  0.9026
26747SOL    HW183261   4.160   0.513   6.708  1.4175 -0.4573  2.8365
26747SOL    HW283262   4.041   0.603   6.683  2.3204 -0.2338 -0.8454
26748SOL     OW83263   4.701   8.167   8.484  0.2385 -0.4064  0.0878
26748SOL    HW183264   4.629   8.204   8.433 -1.1376  0.2786  2.4304
26748SOL    HW283265   4.764   8.239   8.491  0.3749 -0.4642 -0.5477
26749SOL     OW83266   0.088   0.485   2.745  0.1190  0.3505 -0.2351
26749SOL    HW183267   0.123   0.431   2.675  0.5612  0.0414  0.2176
26749SOL    HW283268   0.123   0.572   2.728  0.4395  0.2182 -0.2534
26750SOL     OW83269   4.291   1.935   7.530  0.6194 -0.0808 -0.3756
26750SOL    HW183270   4.265   1.875   7.460  1.1687  1.0299 -1.5347
26750SOL    HW283271   4.317   1.877   7.602 -1.6509 -1.2371 -0.4216
26751SOL     OW83272   1.086   1.410   9.424  0.2460 -0.3027  0.5673
26751SOL    HW183273   1.108   1.332   9.475 -1.8934  0.0024  2.0298
26751SOL    HW283274   1.069   1.478   9.490  0.3670  0.9343 -0.6363
26752SOL     OW83275   4.446   8.884   7.334 -0.2055  0.3375  0.3604
26752SOL    HW183276   4.535   8.918   7.342  0.1014 -0.3483 -0.0916
26752SOL    HW283277   4.408   8.894   7.421  0.7809 -0.6589  0.9153
26753SOL     OW83278   2.447   2.825   0.260  0.6156 -0.3145  0.2466
26753SOL    HW183279   2.402   2.740   0.268  2.0806 -1.0801  0.4755
26753SOL    HW283280   2.406   2.866   0.184 -0.8354 -0.7811  0.7577
26754SOL     OW83281   1.928   3.701   4.867  0.5530 -0.2418 -0.5209
26754SOL    HW183282   1.889   3.785   4.892 -0.6969 -0.1927 -2.4741
26754SOL    HW283283   1.854   3.649   4.834  1.2203 -2.3179  1.1625
26755SOL     OW83284   3.525   1.223   7.316  0.0500  0.2128  0.2122
26755SOL    HW183285   3.471   1.298   7.341  0.2771  0.6598 -0.6273
26755SOL    HW283286   3.558   1.189   7.399 -1.2676  0.1212  0.7104
26756SOL     OW83287   6.145   8.303   2.609 -0.3321  0.4454 -0.3975
26756SOL    HW183288   6.052   8.317   2.628 -0.2803 -0.2016  0.3811
26756SOL    HW283289   6.181   8.390   2.599 -1.1162  0.6911 -1.1154
26757SOL     OW83290   2.593   2.928   2.613  0.6414 -0.3319  0.1943
26757SOL    HW183291   2.669   2.958   2.562  1.1326 -0.8180  0.6333
26757SOL    HW283292   2.534   3.003   2.614  0.3014 -0.5497 -1.7256
26758SOL     OW83293   2.033   8.257   0.512 -0.1982  0.4275 -0.4006
26758SOL    HW183294   2.116   8.210   0.505  0.2528  1.2831 -0.9370
26758SOL    HW283295   1.972   8.206   0.460  0.0886  0.0054 -0.3239
26759SOL     OW83296   8.290   3.990   6.891 -0.7179 -0.2395  0.0557
26759SOL    HW183297   8.328   3.903   6.877 -0.1177  0.1442 -0.6891
26759SOL    HW283298   8.340   4.026   6.965 -2.3615 -1.3469  1.7574
26760SOL     OW83299   7.203   5.051   4.612 -0.3782  0.0270  0.3082
26760SOL    HW183300   7.267   4.995   4.656 -1.2022 -0.7180  0.5764
26760SOL    HW283301   7.129   5.054   4.672  0.3875  2.9866  1.1820
26761SOL     OW83302   9.029   3.881   7.704 -0.5894 -0.2852  0.2620
26761SOL    HW183303   8.949   3.933   7.716 -1.8434 -1.7780 -1.4432
26761SOL    HW283304   9.070   3.919   7.626  0.6385  0.7849  1.4085
26762SOL     OW83305   3.036   9.116   0.404 -0.0668 -0.1060 -0.1866
26762SOL    HW183306   3.117   9.159   0.433 -2.4304  2.3270  3.2989
26762SOL    HW283307   2.997   9.177   0.342 -1.0390  0.5782  1.0613
26763SOL     OW83308   8.355   8.591   5.698 -0.3415 -0.2192 -0.4309
26763SOL    HW183309   8.409   8.602   5.776  1.6838 -1.9593 -1.5479
26763SOL    HW283310   8.402   8.638   5.630 -1.9712  1.0699 -0.7062
26764SOL     OW83311   3.891   1.302   5.551  0.1273 -0.0177 -0.5155
26764SOL    HW183312   3.829   1.231   5.534  1.7595 -0.9622 -2.8516
26764SOL    HW283313   3.977   1.260   5.548  0.9668  1.4800  1.5179
26765SOL     OW83314   3.496   1.101   4.813  0.0876 -0.8196  0.0303
26765SOL    HW183315   3.469   1.189   4.840 -1.1221 -1.3637  0.6464
26765SOL    HW283316   3.527   1.059   4.893  0.0201 -1.1753 -0.1264
26766SOL     OW83317   4.598   7.677   2.397 -0.0359 -0.5199 -0.5624
26766SOL    HW183318   4.660   7.750   2.393 -0.6260  0.0240  0.1240
26766SOL    HW283319   4.620   7.631   2.477  0.5421 -1.2984 -1.1571
26767SOL     OW83320   8.149   6.542   4.625  0.0838  0.0448  0.0540
26767SOL    HW183321   8.214   6.532   4.555 -1.0932 -0.4557 -0.9951
26767SOL    HW283322   8.074   6.490   4.596  0.2465 -1.6870  2.5769
26768SOL     OW83323   6.082   8.840   4.341 -0.0125 -0.6402 -1.2868
26768SOL    HW183324   6.014   8.907   4.345 -1.9869 -2.7654  3.6140
26768SOL    HW283325   6.051   8.779   4.274 -2.4383 -1.0233  0.1425
26769SOL     OW83326   3.905   7.661   5.486 -0.2450  0.0415  0.1179
26769SOL    HW183327   3.922   7.752   5.464  1.4703  0.3790  2.5763
26769SOL    HW283328   3.947   7.649   5.572 -3.2951 -2.1335  1.4140
26770SOL     OW83329   8.202   3.039   6.741 -0.5081 -0.4246  0.2297
26770SOL    HW183330   8.263   2.971   6.715 -0.8480 -0.2781 -1.0098
26770SOL    HW283331   8.135   3.039   6.673 -0.8111  0.7630  0.5019
26771SOL     OW83332   1.672   2.945   5.115 -0.1353  0.0785  0.5244
26771SOL    HW183333   1.725   2.874   5.079 -0.4025  0.0588  0.1577
26771SOL    HW283334   1.700   3.023   5.066 -1.1380 -0.1098 -0.3779
26772SOL     OW83335   3.178   2.240   2.784 -0.0831  0.1163  0.4515
26772SOL    HW183336   3.167   2.251   2.879  0.1838 -0.9274  0.6085
26772SOL    HW283337   3.252   2.180   2.776 -0.7097 -0.5328 -0.4116
26773SOL     OW83338   6.041   5.429   0.795  0.2578  0.3639  0.1489
26773SOL    HW183339   6.114   5.420   0.857  0.1796  2.5793  0.6125
26773SOL    HW283340   5.968   5.385   0.839  0.8997 -0.5011  0.3786
26774SOL     OW83341   5.184   1.768   5.730 -0.5242  0.4649 -0.2186
26774SOL    HW183342   5.178   1.679   5.695  1.7446 -0.3749  1.3878
26774SOL    HW283343   5.275   1.794   5.714 -0.1360  1.0383  2.6111
26775SOL     OW83344   2.606   4.848   3.231  0.0051 -0.0525 -0.1593
26775SOL    HW183345   2.559   4.843   3.315  0.1739 -0.4769 -0.0867
26775SOL    HW283346   2.539   4.826   3.166  0.3679 -1.8159  0.0382
26776SOL     OW83347   6.495   7.787   5.400  0.3200  0.2397  0.2164
26776SOL    HW183348   6.511   7.750   5.486  2.1362  0.4863  0.0078
26776SOL    HW283349   6.548   7.867   5.398 -0.1316  0.5246 -0.9184
26777SOL     OW83350   0.563   0.343   7.322  0.6706  0.6981  0.1801
26777SOL    HW183351   0.517   0.339   7.406  1.4287  1.0146  0.6129
26777SOL    HW283352   0.498   0.380   7.262 -1.0303 -2.7098 -0.2092
26778SOL     OW83353   5.707   0.011   5.676 -0.6158 -0.2133 -0.1780
26778SOL    HW183354   5.728   0.097   5.712 -1.8987 -0.4985  1.3105
26778SOL    HW283355   5.706   0.025   5.582  0.2581  1.1569 -0.0058
26779SOL     OW83356   0.113   4.056   2.184  0.4249  0.3447 -0.3973
26779SOL    HW183357   0.104   4.041   2.278 -0.7023  1.6177 -0.2954
26779SOL    HW283358   0.192   4.008   2.160  1.3015  0.8545  1.3883
26780SOL     OW83359   8.254   5.947   3.383 -0.7813  0.2949 -0.1459
26780SOL    HW183360   8.328   6.005   3.362 -0.1868 -0.3740  0.0840
26780SOL    HW283361   8.284   5.897   3.459 -0.6518 -1.4729 -1.3211
26781SOL     OW83362   0.095   1.126   1.261  0.6807 -0.5039  0.3164
26781SOL    HW183363   0.043   1.102   1.338 -1.1882  1.6963 -0.1885
26781SOL    HW283364   0.117   1.218   1.275  1.0127 -0.3082 -1.4082
26782SOL     OW83365   8.444   4.201   7.006 -0.0020 -0.4595  0.0848
26782SOL    HW183366   8.468   4.214   7.098 -0.1700 -0.8836  0.1892
26782SOL    HW283367   8.366   4.255   6.994 -0.2541 -0.7707  0.3181
26783SOL     OW83368   2.321   1.040   6.487  0.9216  0.2687 -0.0207
26783SOL    HW183369   2.330   1.015   6.395  1.0671  0.2757 -0.0087
26783SOL    HW283370   2.360   0.967   6.535 -0.6635 -0.5189  0.1015
26784SOL     OW83371   6.708   8.115   1.564  0.2255  0.0529  0.1186
26784SOL    HW183372   6.702   8.095   1.471  0.7549 -1.8088  0.4584
26784SOL    HW283373   6.779   8.178   1.571  0.2479  0.1241 -0.7184
26785SOL     OW83374   3.316   9.121   3.342 -0.1018  0.3591  0.4808
26785SOL    HW183375   3.301   9.035   3.302 -1.6489  0.6172  0.4750
26785SOL    HW283376   3.376   9.165   3.281 -3.5138  1.2756 -2.4192
26786SOL     OW83377   4.927   3.964   3.531  0.2000 -0.0655 -0.0138
26786SOL    HW183378   4.863   3.929   3.469 -0.9110  0.5621  0.7597
26786SOL    HW283379   4.884   3.958   3.616  1.3943 -0.1551  0.5984
26787SOL     OW83380   8.848   8.048   0.787  0.1586  0.1047  0.3385
26787SOL    HW183381   8.943   8.062   0.796  0.1372 -0.7796  2.3424
26787SOL    HW283382   8.840   7.964   0.741  0.3282  0.8745 -1.1166
26788SOL     OW83383   8.314   8.201   3.699  0.0865  0.2067 -0.0969
26788SOL    HW183384   8.334   8.114   3.733  0.4702  0.1814 -0.3798
26788SOL    HW283385   8.384   8.257   3.734 -0.0892  0.3778 -0.0125
26789SOL     OW83386   9.441   8.645   2.912 -0.5337 -0.1091 -0.4376
26789SOL    HW183387   9.392   8.569   2.944  1.3275 -1.2772 -0.2886
26789SOL    HW283388   9.531   8.629   2.940  0.6535  0.1692 -3.8739
26790SOL     OW83389   2.656   4.957   2.308 -0.2001 -0.1707  0.0577
26790SOL    HW183390   2.743   4.995   2.319  0.5133 -1.7332 -0.0724
26790SOL    HW283391   2.597   5.020   2.350  0.8296  1.5927 -1.0761
26791SOL     OW83392   7.087   2.157   1.673 -0.0001 -0.4770  0.1849
26791SOL    HW183393   7.171   2.196   1.647 -0.8034  0.2220 -1.4112
26791SOL    HW283394   7.107   2.065   1.690  1.5285  0.1624  2.0510
26792SOL     OW83395   9.113   3.833   0.443 -0.3793 -0.0493 -0.0822
26792SOL    HW183396   9.126   3.851   0.350  3.3016  3.1073  0.9475
26792SOL    HW283397   9.168   3.757   0.461 -1.4687 -0.9661 -0.5209
26793SOL     OW83398   7.112   6.722   3.919  0.3140  0.1383  0.0448
26793SOL    HW183399   7.199   6.754   3.894  0.0669  0.9574  0.2327
26793SOL    HW283400   7.075   6.688   3.838  0.6005  0.2677 -0.1397
26794SOL     OW83401   3.177   3.977   0.506  0.0845  0.2133 -0.6199
26794SOL    HW183402   3.263   3.949   0.538 -0.0558  1.5392  0.9697
26794SOL    HW283403   3.132   3.895   0.483  1.0347 -0.6272  0.4545
26795SOL     OW83404   9.336   1.988   1.644  0.1847 -0.0739  0.0146
26795SOL    HW183405   9.381   1.905   1.628 -3.3404 -1.9314 -0.8320
26795SOL    HW283406   9.243   1.964   1.648 -0.9129  3.8562 -0.2951
26796SOL     OW83407   7.960   4.370   0.040  0.1430  0.5094  0.3583
26796SOL    HW183408   8.021   4.419  -0.015  1.6171 -2.5000 -0.7400
26796SOL    HW283409   8.003   4.364   0.125 -0.8688  2.6539  1.0681
26797SOL     OW83410   4.765   0.173   8.830  0.2001 -0.0885  0.1552
26797SOL    HW183411   4.858   0.151   8.824  0.1211 -0.5948  0.7051
26797SOL    HW283412   4.761   0.266   8.810  0.5601 -0.5323 -2.0887
26798SOL     OW83413   9.145   0.732   5.683 -0.7190  0.4743  0.0969
26798SOL    HW183414   9.196   0.653   5.700  0.1761  0.6584 -1.6728
26798SOL    HW283415   9.148   0.780   5.766 -1.6131 -1.5088  1.3242
26799SOL     OW83416   2.916   5.949   6.517 -0.4429 -0.1458 -0.5434
26799SOL    HW183417   2.830   5.977   6.549  0.3135  0.0503  1.4190
26799SOL    HW283418   2.961   6.031   6.496  0.0818 -0.1088  0.6741
26800SOL     OW83419   1.536   5.768   2.586  0.1329  0.1225 -0.2607
26800SOL    HW183420   1.485   5.765   2.506  1.0417 -0.2295 -0.8284
26800SOL    HW283421   1.471   5.755   2.656 -0.5334 -0.4277 -0.9738
26801SOL     OW83422   0.782   8.822   2.410 -0.9465 -0.3833  0.3132
26801SOL    HW183423   0.745   8.775   2.484 -0.7778 -0.6699  0.2184
26801SOL    HW283424   0.707   8.865   2.368 -1.0179 -0.0955  0.7382
26802SOL     OW83425   3.197   5.117   1.534 -0.3902  0.2007 -0.2018
26802SOL    HW183426   3.178   5.028   1.505  1.0193 -0.4806  0.9258
26802SOL    HW283427   3.212   5.166   1.453  1.2572 -1.1420 -0.7263
26803SOL     OW83428   6.502   4.782   6.749 -0.3180  0.0164  0.3072
26803SOL    HW183429   6.566   4.747   6.811  2.0863 -0.7368 -2.4773
26803SOL    HW283430   6.526   4.874   6.739  1.0478 -0.5106 -1.5205
26804SOL     OW83431   7.356   2.422   3.403  0.0231 -0.5040  0.1480
26804SOL    HW183432   7.368   2.507   3.360  0.7030  0.2080  1.6919
26804SOL    HW283433   7.422   2.365   3.363 -0.5561 -0.3698 -1.0238
26805SOL     OW83434   4.757   6.369   5.980  0.1705 -0.2268  0.8272
26805SOL    HW183435   4.734   6.277   5.969 -0.9102  0.0595  0.7189
26805SOL    HW283436   4.674   6.416   5.978  0.8779  1.0130 -1.6646
26806SOL     OW83437   6.278   5.464   8.304  0.5188 -0.1785  0.5234
26806SOL    HW183438   6.310   5.522   8.235 -3.8064  1.1739 -0.5218
26806SOL    HW283439   6.258   5.382   8.260 -1.4342  0.4027  0.2970
26807SOL     OW83440   7.882   4.286   3.506 -0.0373  0.4181 -0.1420
26807SOL    HW183441   7.931   4.297   3.587  0.4384 -3.9461  0.3111
26807SOL    HW283442   7.791   4.285   3.533  0.0540  0.2610  0.1616
26808SOL     OW83443   6.355   2.459   0.490 -0.2561  0.1771  0.6349
26808SOL    HW183444   6.300   2.520   0.540 -0.8373 -0.0447  0.2736
26808SOL    HW283445   6.339   2.373   0.530 -1.2474 -0.1139 -0.3530
26809SOL     OW83446   3.195   1.857   0.682  0.7323  0.4696  0.5582
26809SOL    HW183447   3.149   1.809   0.614  0.3619 -1.0110  1.8428
26809SOL    HW283448   3.130   1.919   0.716  0.2622 -0.2979  1.0603
26810SOL     OW83449   4.170   1.687   6.610  0.2385 -0.1590  0.1117
26810SOL    HW183450   4.232   1.651   6.547 -0.9577  0.0836 -1.2368
26810SOL    HW283451   4.210   1.770   6.638 -0.2073  0.8141 -2.0003
26811SOL     OW83452   7.293   7.618   3.441  0.1241 -0.3700 -0.3189
26811SOL    HW183453   7.232   7.647   3.509  0.4644  0.3830 -0.3238
26811SOL    HW283454   7.325   7.700   3.403  0.9761 -0.7706 -0.4546
26812SOL     OW83455   4.471   5.698   2.628  0.4896 -0.3938  0.3266
26812SOL    HW183456   4.521   5.618   2.617 -0.7989 -1.2457  0.5833
26812SOL    HW283457   4.536   5.765   2.649  1.6732 -1.1666 -0.8338
26813SOL     OW83458   7.875   1.952   6.845  0.3193 -0.2884 -0.4437
26813SOL    HW183459   7.873   1.858   6.830 -1.6451 -0.0767 -1.6733
26813SOL    HW283460   7.859   1.962   6.939 -2.7331 -1.1040 -0.8134
26814SOL     OW83461   3.512   3.586   8.563 -0.1957  0.2818 -0.0886
26814SOL    HW183462   3.565   3.507   8.555  0.3423  0.6076  0.3208
26814SOL    HW283463   3.511   3.606   8.656 -0.9325  0.3532 -0.1035
26815SOL     OW83464   2.893   9.438   7.577 -0.0073 -0.2405 -0.1157
26815SOL    HW183465   2.861   9.352   7.550  0.8161 -0.8920  0.9476
26815SOL    HW283466   2.883   9.438   7.672 -0.3174  0.9760 -0.1388
26816SOL     OW83467   1.805   3.800   1.792  0.3734  0.1033 -0.2835
26816SOL    HW183468   1.794   3.745   1.869  0.2253  0.2598 -0.1916
26816SOL    HW283469   1.878   3.858   1.813  0.8298 -0.3755 -0.5656
26817SOL     OW83470   2.428   6.245   7.134 -0.1951  0.1177 -0.3738
26817SOL    HW183471   2.398   6.255   7.224  2.1116 -1.3921  0.5952
26817SOL    HW283472   2.352   6.210   7.087 -0.8999 -0.7199  1.3641
26818SOL     OW83473   4.691   1.858   5.929  0.3816 -0.5188 -0.0612
26818SOL    HW183474   4.603   1.839   5.895  0.6941  0.7863 -1.7351
26818SOL    HW283475   4.748   1.850   5.852  1.2336  1.7758  0.2696
26819SOL     OW83476   0.663   4.148   8.550  0.2554  0.3788  0.5884
26819SOL    HW183477   0.637   4.130   8.460  0.6392 -1.1353  0.7675
26819SOL    HW283478   0.588   4.117   8.602  0.3162  0.6365  0.8293
26820SOL     OW83479   0.059   7.822   8.982  0.4359  0.4158  0.0703
26820SOL    HW183480  -0.001   7.763   9.028  0.2475  0.2528 -0.3803
26820SOL    HW283481   0.056   7.903   9.032  0.7264  0.0273  0.7183
26821SOL     OW83482   4.794   5.222   3.206 -0.1762 -0.9054  0.1934
26821SOL    HW183483   4.755   5.161   3.269 -2.3949 -0.0321 -0.2803
26821SOL    HW283484   4.808   5.171   3.127  0.3451 -1.4010  0.5990
26822SOL     OW83485   1.459   3.687   8.975  0.0939 -0.2281  0.1661
26822SOL    HW183486   1.441   3.712   9.065  0.9605 -0.5033  0.4198
26822SOL    HW283487   1.551   3.710   8.961  0.2864 -1.2367 -0.2787
26823SOL     OW83488   5.329   0.937   6.853 -0.4292  0.1259 -0.0878
26823SOL    HW183489   5.284   0.956   6.936  0.6129 -0.7883  0.7119
26823SOL    HW283490   5.332   1.021   6.808  0.4212  0.9943  1.5347
26824SOL     OW83491   6.682   6.296   4.889 -0.5492  0.3749 -0.2325
26824SOL    HW183492   6.589   6.318   4.885 -0.4101  1.3037  1.2920
26824SOL    HW283493   6.703   6.263   4.802 -2.6218 -1.1387 -0.1818
26825SOL     OW83494   2.357   0.348   2.030 -0.7141  0.0215 -0.0851
26825SOL    HW183495   2.304   0.369   2.107 -1.6539 -2.7462  0.1007
26825SOL    HW283496   2.300   0.294   1.976  1.9603 -3.3770  0.3127
26826SOL     OW83497   0.518   3.106   6.410 -0.0897  0.4678  0.2824
26826SOL    HW183498   0.429   3.088   6.441 -0.1479  2.6998  1.5483
26826SOL    HW283499   0.510   3.189   6.363  1.3768  0.8308  0.6589
26827SOL     OW83500   7.231   4.379   8.988 -0.4173  0.8859 -0.0735
26827SOL    HW183501   7.288   4.402   9.061 -1.2559  1.0060  0.5368
26827SOL    HW283502   7.192   4.462   8.961 -1.4356  0.5824  0.4534
26828SOL     OW83503   2.519   4.137   1.076  0.5768  0.4456 -0.1169
26828SOL    HW183504   2.473   4.172   1.152 -0.6914  0.0413 -0.6765
26828SOL    HW283505   2.452   4.086   1.030  1.9828 -1.3703 -0.1644
26829SOL     OW83506   1.929   2.004   9.141 -0.2655 -0.1187 -0.3714
26829SOL    HW183507   1.936   1.964   9.055  0.4446 -2.0794  0.5818
26829SOL    HW283508   2.018   2.035   9.160  0.0889 -1.7185  0.6164
26830SOL     OW83509   6.005   4.549   0.935 -0.3350 -0.0296 -0.5613
26830SOL    HW183510   6.079   4.538   0.876 -1.2783 -0.5359 -1.6772
26830SOL    HW283511   5.947   4.475   0.915 -0.3940 -0.5391  1.4252
26831NA      NA83512   3.335   2.235   3.175 -0.4897 -0.5196 -0.4548
26832NA      NA83513   8.111   0.753   7.217 -0.2421 -0.7828 -0.1756
26833NA      NA83514   0.187   4.489   1.898  0.0433  0.5600  0.0958
26834NA      NA83515   0.295   3.627   3.698 -0.4944 -0.3947 -0.0922
26835NA      NA83516   6.319   9.296   6.572 -0.1025  0.2998  0.1485
26836NA      NA83517   4.788   6.427   5.650 -0.3009 -0.0473  0.0185
26837NA      NA83518   4.515   0.438   0.913  0.7343  0.1164  0.1675
26838NA      NA83519   4.039   4.910   8.864  0.0570 -0.6092  0.0795
26839NA      NA83520   0.758   6.288   4.092 -0.5976 -0.2993  0.3014
26840NA      NA83521   4.057   5.303   4.058 -0.3212  0.6219 -0.2181
26841NA      NA83522   0.034   0.112   6.107  0.2495  0.5550  0.3050
26842NA      NA83523   7.275   6.280   3.412 -0.4159 -0.3635  0.1830
26843NA      NA83524   8.058   7.349   2.327  0.3220  0.1246 -0.2256
26844NA      NA83525   3.734   6.461   2.278 -0.0149  0.1132 -0.0209
26845NA      NA83526   6.676   2.919   9.277  0.1332  0.2646 -0.6189
26846NA      NA83527   5.015   5.133   0.860  0.1682 -0.6075 -0.1545
26847NA      NA83528   6.039   9.204   5.518  0.2125 -0.3266  0.3466
26848NA      NA83529   2.098   5.107   8.618  0.2520 -0.1033  0.3040
26849NA      NA83530   3.217   3.751   6.498 -0.5931 -0.2815  0.2118
26850NA      NA83531   4.538   9.182   6.272 -0.1336 -0.2305  0.1095
26851NA      NA83532   7.686   2.921   5.464 -0.3783 -0.1095  0.1312
26852NA      NA83533   7.458   1.924   6.702 -0.2849 -0.1798 -0.2423
26853NA      NA83534   0.144   4.560   4.735 -0.2971  0.3671 -0.1969
26854NA      NA83535   1.411   4.899   3.590  0.2311  0.6332  0.2617
26855NA      NA83536   3.275   3.594   2.897  0.0228  0.3276 -0.1571
26856NA      NA83537   6.989   5.742   6.703 -0.3221 -0.2365 -0.0237
26857NA      NA83538   7.881   2.320   6.604 -0.0158 -0.7559 -0.3282
26858NA      NA83539   5.467   6.071   2.803 -0.0584 -0.1571  0.0786
26859NA      NA83540   3.646   3.330   5.418 -0.3167 -0.0133 -0.5363
26860NA      NA83541   3.630   1.108   7.160 -0.5047  0.5545  0.4150
26861NA      NA83542   0.590   7.767   3.972  0.0798  0.0474  0.0105
26862NA      NA83543   5.097   0.184   4.675 -0.3888 -0.3960  0.2347
26863NA      NA83544   8.950   3.558   6.445  0.2498 -0.1248  0.1707
26864NA      NA83545   2.836   2.661   0.426 -0.1948 -0.2246  0.0033
26865NA      NA83546   7.272   5.297   1.911 -0.5612 -0.3775  0.0154
26866NA      NA83547   7.686   8.490   5.249 -0.0462 -0.0462 -0.0786
26867NA      NA83548   4.644   8.423   5.158  0.0671 -0.0326  0.5682
26868NA      NA83549   1.547   1.580   8.197  0.1193 -0.0217 -0.3158
26869NA      NA83550   9.326   6.256   6.199 -0.2144  0.0349 -0.1665
26870NA      NA83551   8.479   9.402   8.216 -0.2894  0.1500  0.3035
26871NA      NA83552   6.689   3.415   5.329  0.1524  0.1417 -0.4782
26872NA      NA83553   0.758   9.177   0.819 -0.0546  0.3966 -0.0083
26873NA      NA83554   5.225   8.017   4.795  0.1540  0.3945 -0.4135
26874NA      NA83555   2.782   2.102   1.671 -0.0057  0.6045  0.0805
26875NA      NA83556   3.566   8.624   3.843  0.2995  0.3293  0.0045
26876NA      NA83557   0.006   4.352   8.889 -0.0589 -0.3113 -0.6875
26877NA      NA83558   7.542   7.909   9.130  0.3291 -0.4728  0.0302
26878NA      NA83559   1.831   1.314   4.747 -0.1781  0.3806  0.1499
26879NA      NA83560   6.696   2.939   1.373  0.5251  0.8053 -0.6169
26880NA      NA83561   0.369   5.627   5.894  0.2806  0.3553 -0.2777
26881NA      NA83562   1.158   3.159   8.058  0.3528  0.2153 -0.5566
26882NA      NA83563   7.420   1.945   8.163 -0.3424 -0.1524 -0.0532
26883NA      NA83564   2.952   5.423   6.227 -0.3334  0.0444  0.1861
26884NA      NA83565   7.941   8.690   3.228  0.0297  0.6806  0.6193
26885NA      NA83566   6.746   8.365   2.986 -0.3076 -0.3937  0.1118
26886NA      NA83567   5.895   5.052   3.241  0.1160  0.1197 -0.2791
26887NA      NA83568   4.412   2.339   7.036  0.0653 -0.1670  0.4044
26888NA      NA83569   0.365   1.068   7.555  0.0968  0.1329  0.4081
26889NA      NA83570   7.950   1.022   8.759  0.2145 -0.2838 -0.4497
26890NA      NA83571   1.540   5.600   2.263 -0.6263 -0.0409  0.1440
26891NA      NA83572   8.007   3.757   6.042 -0.1692 -0.3076 -0.4307
26892NA      NA83573   4.467   2.336   4.419 -0.4282 -0.1179  0.0544
26893NA      NA83574   8.280   3.594   2.105  0.4699  0.3802 -0.3120
26894NA      NA83575   0.300   0.423   1.680 -0.1115 -0.1540 -0.4143
26895NA      NA83576   8.385   3.233   0.929  0.3161 -0.4408  0.7105
26896NA      NA83577   3.580   4.111   5.319 -0.0731  0.0206  0.2383
26897NA      NA83578   5.616   2.511   6.984 -0.3870 -0.0537  0.3231
26898NA      NA83579   1.017   2.926   6.199  0.0654  0.4281  0.4877
26899NA      NA83580   0.145   6.360   1.478 -0.0233  0.0830  0.0484
26900NA      NA83581   3.207   5.906   1.537 -0.0507  0.0306 -0.1161
26901NA      NA83582   6.162   3.807   5.451 -0.0166 -0.2921 -0.3806
26902NA      NA83583   1.328   5.712   8.862 -0.0255 -0.0984  0.3631
26903NA      NA83584   0.071   2.665   1.575 -0.3073  0.2366 -0.0908
26904NA      NA83585   2.339   3.609   7.877  0.5458  0.2334  0.5500
26905NA      NA83586   7.229   8.895   5.750  0.7044  0.0779  0.7890
26906NA      NA83587   6.816   0.006   1.459  0.0540  0.2825  0.0020
26907NA      NA83588   3.034   9.206   4.780 -0.0143 -0.2467 -0.4728
26908NA      NA83589   8.026   3.806   3.909 -0.3910 -0.3469  0.0161
26909CL      CL83590   4.806   3.125   6.013  0.3437  0.2657 -0.1511
26910CL      CL83591   8.429   3.475   5.442  0.2323 -0.4235  0.2487
26911CL      CL83592   7.016   3.768   7.717 -0.2250  0.3317  0.2980
26912CL      CL83593   5.561   3.142   7.130 -0.1221  0.3019  0.0406
26913CL      CL83594   6.761   1.038   8.195 -0.3939  0.2316  0.2560
26914CL      CL83595   9.144   3.588   7.057  0.1762 -0.1077  0.3317
26915CL      CL83596   5.712   3.003   2.329 -0.2658 -0.2097 -0.4074
26916CL      CL83597   2.291   6.307   6.067  0.4168  0.1744 -0.1738
26917CL      CL83598   0.109   0.721   7.249  0.2090 -0.1237  0.7008
26918CL      CL83599   3.600   5.565   0.986 -0.7893 -0.3136  0.1899
26919CL      CL83600   3.920   6.882   4.859 -0.2364 -0.3607 -0.3670
26920CL      CL83601   6.865   2.086   7.050 -0.0124  0.9979  0.2134
26921CL      CL83602   5.393   3.983   4.703 -0.0700  0.0968  0.1747
26922CL      CL83603   3.294   9.140   8.154  0.2511 -0.3137  0.0448
26923CL      CL83604   2.503   4.344   7.057 -0.3259 -0.1281 -0.2424
26924CL      CL83605   9.095   5.700   6.092  0.3388  0.2359  0.1764
26925CL      CL83606   8.492   1.279   4.046  0.3258 -0.2553  0.4014
26926CL      CL83607   5.002   4.320   3.158  0.3861 -0.1570 -0.2168
26927CL      CL83608   1.772   0.334   1.231 -0.6321 -0.1305 -0.0651
26928CL      CL83609   7.848   6.514   1.582 -0.4365 -0.0661 -0.3250
26929CL      CL83610   5.125   7.646   3.361 -0.0750 -0.0678  0.2491
26930CL      CL83611   3.516   2.985   5.677 -0.1608  0.3237 -0.2783
26931CL      CL83612   7.801   2.807   6.146 -0.0132 -0.1408 -0.2744
26932CL      CL83613   3.661   1.218   0.360  0.4606  0.0337 -0.1201
26933CL      CL83614   5.184   0.588   3.654 -0.1565 -0.1385  0.1457
26934CL      CL83615   9.081   7.594   5.103  0.2896  0.0414 -0.0192
26935CL      CL83616   0.597   3.013   1.918  0.0534  0.2300 -0.2143
26936CL      CL83617   3.216   1.916   7.736 -0.2192  0.4188 -0.1181
26937CL      CL83618   4.329   8.092   4.771 -0.0652  0.2887  0.0834
26938CL      CL83619   7.536   4.473   8.434  0.2401 -0.2419 -0.3349
26939CL      CL83620   9.060   2.936   6.423  0.0496 -0.2064  0.0531
26940CL      CL83621   0.220   3.601   3.037 -0.0567  0.3846 -0.1194
26941CL      CL83622   3.533   0.705   6.237 -0.0645  0.3095 -0.1154
26942CL      CL83623   6.160   1.255   4.954  0.1334 -0.3839 -0.0158
26943CL      CL83624   0.846   5.823   4.187 -0.0747  0.0111  0.1137
26944CL      CL83625   3.578   6.848   2.385  0.2020  0.0046  0.0298
26945CL      CL83626   4.606   4.460   0.167 -0.0392 -0.0310 -0.1996
26946CL      CL83627   9.187   1.442   0.920 -0.1733  0.0016 -0.1368
26947CL      CL83628   1.455   4.502   7.126  0.0761  0.3202  0.4372
26948CL      CL83629   7.162   3.257   2.498  0.0045 -0.2352  0.2577
26949CL      CL83630   2.955   6.319   4.514 -0.1595  0.3406 -0.0756
26950CL      CL83631   6.159   6.582   1.842  0.4206  0.3170 -0.0906
26951CL      CL83632   6.429   3.609   8.572  0.0723 -0.0641  0.1562
26952CL      CL83633   1.816   2.820   0.572  0.1038  0.0182  0.0308
26953CL      CL83634   1.831   4.965   2.045  0.3379  0.1740 -0.0101
26954CL      CL83635   9.309   3.515   3.853  0.0667 -0.0707  0.1858
26955CL      CL83636   8.070   9.175   4.171  0.1165  0.0029 -0.0177
26956CL      CL83637   7.881   1.898   8.094 -0.0515  0.0814 -0.1485
26957CL      CL83638   6.423   0.440   4.525  0.5157  0.2708  0.0229
26958CL      CL83639   0.876   4.597   0.681 -0.6442 -0.2690  0.1665
26959CL      CL83640   0.063   7.849   0.826  0.0057 -0.2517  0.0242
26960CL      CL83641   4.671   2.549   7.966  0.2924  0.1782 -0.0108
26961CL      CL83642   4.844   9.235   5.523 -0.2486  0.3172  0.2977
26962CL      CL83643   2.725   7.275   8.402 -0.0369 -0.1145 -0.3678
26963CL      CL83644   7.476   7.927   2.365 -0.2109  0.2076 -0.4546
26964CL      CL83645   2.873   5.714   3.497  0.1884 -0.0254  0.0747
26965CL      CL83646   9.033   7.844   7.459 -0.1652  0.1605 -0.2489
26966CL      CL83647   0.761   7.524   0.350 -0.0178 -0.1927 -0.4776
26967CL      CL83648   3.165   2.092   3.065 -0.2716  0.7747 -0.3247
26968CL      CL83649   2.777   0.128   4.722 -0.0422 -0.3159 -0.0231
26969CL      CL83650   3.792   3.575   9.018  0.2489 -0.1929  0.1125
26970CL      CL83651   2.965   5.220   2.702 -0.5348 -0.0755 -0.2484
26971CL      CL83652   5.076   0.984   8.963 -0.3249 -0.0486  0.1846
26972CL      CL83653   1.514   2.946   5.824 -0.2520  0.1042  0.3537
26973CL      CL83654   6.933   5.862   7.207  0.0173  0.0661 -0.2944
26974CL      CL83655   7.644   7.053   5.636  0.1872  0.4974 -0.1781
26975CL      CL83656   6.540   9.330   5.621  0.2357  0.0812 -0.3120
26976CL      CL83657   3.922   4.540   4.948  0.0166  0.1714  0.2047
26977CL      CL83658   7.191   9.005   3.346  0.0651 -0.2095 -0.4433
26978CL      CL83659   0.676   7.147   6.045 -0.4505 -0.0319  0.2935
26979CL      CL83660   5.007   2.758   5.050  0.1419 -0.0505 -0.3440
26980CL      CL83661   8.743   0.567   7.618 -0.2611 -0.2190  0.2844
26981CL      CL83662   0.140   8.868   2.159  0.2653  0.2652  0.1858
26982CL      CL83663   0.129   1.343   5.988  0.4109 -0.0919  0.0493
26983CL      CL83664   5.537   4.852   5.200 -0.1623  0.0389 -0.4805
26984CL      CL83665   8.538   3.059   8.627  0.2042  0.2488 -0.2578
26985CL      CL83666   8.521   4.253   7.303 -0.0155 -0.1880 -0.3299
26986CL      CL83667   2.849   8.460   2.674  0.1060  0.0118 -0.0076
   9.44353   9.44353   9.44353
