;
;   File g2dp_pamam.itp  was generated
;   By user: sairam (1000)
;   On host: sairam
;   At date: Sun. August  0 16:27:48 2023
;
;   This is a standalone topology file
;
;   Created by:
;   ParmEd:       amb2gro_top_gro.py, VERSION 3.4.1
;   Executable:   amb2gro_top_gro.py
;   Library dir:  /usr/local/gromacs/share/gromacs/top
;   Command line:
;     ./amb2gro_top_gro.py -p g2dp_pamam.prmtop -c g2dp_pamam.inpcrd -t g2dp_pamam.itp -g g2dp_pamam.gro -b g2dp_pamam.pdb
;

;[ defaults ]
;; nbfunc        comb-rule       gen-pairs       fudgeLJ fudgeQQ
;1               2               yes             0.5          0.83333333  
;
;[ atomtypes ]
;; name    at.num    mass    charge ptype  sigma      epsilon
;n4             7  14.010000  0.00000000  A     0.32499985        0.71128
;c3             6  12.010000  0.00000000  A     0.33996695      0.4577296
;c              6  12.010000  0.00000000  A     0.33996695       0.359824
;o              8  16.000000  0.00000000  A     0.29599219        0.87864
;hx             1   1.008000  0.00000000  A     0.19599772      0.0656888
;hc             1   1.008000  0.00000000  A     0.26495328      0.0656888
;hn             1   1.008000  0.00000000  A     0.10690785      0.0656888
;n              7  14.010000  0.00000000  A     0.32499985        0.71128
;h1             1   1.008000  0.00000000  A      0.2471353      0.0656888


[ moleculetype ]
; Name            nrexcl
g2dp_pamam       3

[ atoms ]
;   nr       type  resnr residue  atom   cgnr    charge       mass  typeB    chargeB      massB
; residue    1 aaa rtp aaa q 2.0
    1         n4      1    aaa     N1      1 -0.01815100  14.010000   ; qtot -0.018151
    2         c3      1    aaa     C1      2 0.01243000  12.010000   ; qtot -0.005721
    3         c3      1    aaa     C2      3 0.01243000  12.010000   ; qtot 0.006709
    4         n4      1    aaa     N2      4 -0.01815100  14.010000   ; qtot -0.011442
    5         c3      1    aaa     C3      5 -0.01431700  12.010000   ; qtot -0.025759
    6         c3      1    aaa     C4      6 -0.01431700  12.010000   ; qtot -0.040076
    7         c3      1    aaa     C5      7 -0.01431700  12.010000   ; qtot -0.054393
    8         c3      1    aaa     C6      8 -0.01431700  12.010000   ; qtot -0.068710
    9         c3      1    aaa     C7      9 -0.26758200  12.010000   ; qtot -0.336292
   10          c      1    aaa     C8     10 0.71337400  12.010000   ; qtot 0.377082
   11         c3      1    aaa     C9     11 -0.26758200  12.010000   ; qtot 0.109500
   12          c      1    aaa    C10     12 0.71337400  12.010000   ; qtot 0.822874
   13         c3      1    aaa    C11     13 -0.26758200  12.010000   ; qtot 0.555292
   14          c      1    aaa    C12     14 0.71337400  12.010000   ; qtot 1.268666
   15         c3      1    aaa    C13     15 -0.26758200  12.010000   ; qtot 1.001084
   16          c      1    aaa    C14     16 0.71337400  12.010000   ; qtot 1.714458
   17          o      1    aaa     O1     17 -0.55531800  16.000000   ; qtot 1.159140
   18          o      1    aaa     O2     18 -0.55531800  16.000000   ; qtot 0.603822
   19          o      1    aaa     O3     19 -0.55531800  16.000000   ; qtot 0.048504
   20          o      1    aaa     O4     20 -0.55531800  16.000000   ; qtot -0.506814
   21         hx      1    aaa     H1     21 0.08276100   1.008000   ; qtot -0.424053
   22         hx      1    aaa     H2     22 0.08276100   1.008000   ; qtot -0.341292
   23         hx      1    aaa     H3     23 0.08276100   1.008000   ; qtot -0.258531
   24         hx      1    aaa     H4     24 0.08276100   1.008000   ; qtot -0.175770
   25         hx      1    aaa     H5     25 0.10467000   1.008000   ; qtot -0.071100
   26         hx      1    aaa     H6     26 0.10467000   1.008000   ; qtot 0.033570
   27         hx      1    aaa     H7     27 0.10467000   1.008000   ; qtot 0.138240
   28         hx      1    aaa     H8     28 0.10467000   1.008000   ; qtot 0.242910
   29         hx      1    aaa     H9     29 0.10467000   1.008000   ; qtot 0.347580
   30         hx      1    aaa    H10     30 0.10467000   1.008000   ; qtot 0.452250
   31         hx      1    aaa    H11     31 0.10467000   1.008000   ; qtot 0.556920
   32         hx      1    aaa    H12     32 0.10467000   1.008000   ; qtot 0.661590
   33         hc      1    aaa    H13     33 0.11830200   1.008000   ; qtot 0.779892
   34         hc      1    aaa    H14     34 0.11830200   1.008000   ; qtot 0.898194
   35         hc      1    aaa    H15     35 0.11830200   1.008000   ; qtot 1.016496
   36         hc      1    aaa    H16     36 0.11830200   1.008000   ; qtot 1.134798
   37         hc      1    aaa    H17     37 0.11830200   1.008000   ; qtot 1.253100
   38         hc      1    aaa    H18     38 0.11830200   1.008000   ; qtot 1.371402
   39         hc      1    aaa    H19     39 0.11830200   1.008000   ; qtot 1.489704
   40         hc      1    aaa    H20     40 0.11830200   1.008000   ; qtot 1.608006
   41         hn      1    aaa    H37     41 0.19599700   1.008000   ; qtot 1.804003
   42         hn      1    aaa    H38     42 0.19599700   1.008000   ; qtot 2.000000
; residue    2 bbb rtp bbb q 1.0
   43         n4      2    bbb     N1     43 -0.02747900  14.010000   ; qtot 1.972521
   44         c3      2    bbb     C1     44 -0.05097600  12.010000   ; qtot 1.921545
   45         c3      2    bbb     C2     45 -0.05097600  12.010000   ; qtot 1.870569
   46         c3      2    bbb     C3     46 -0.18457900  12.010000   ; qtot 1.685990
   47          c      2    bbb     C4     47 0.67254400  12.010000   ; qtot 2.358534
   48         c3      2    bbb     C5     48 -0.18457900  12.010000   ; qtot 2.173955
   49          c      2    bbb     C6     49 0.67254400  12.010000   ; qtot 2.846499
   50         c3      2    bbb     C7     50 -0.02083000  12.010000   ; qtot 2.825669
   51         c3      2    bbb     C8     51 -0.03328100  12.010000   ; qtot 2.792388
   52          n      2    bbb     N2     52 -0.33303000  14.010000   ; qtot 2.459358
   53          o      2    bbb     O1     53 -0.52917200  16.000000   ; qtot 1.930186
   54          o      2    bbb     O2     54 -0.52917200  16.000000   ; qtot 1.401014
   55         hx      2    bbb     H1     55 0.11563300   1.008000   ; qtot 1.516647
   56         hx      2    bbb     H2     56 0.11563300   1.008000   ; qtot 1.632280
   57         hx      2    bbb     H3     57 0.11563300   1.008000   ; qtot 1.747913
   58         hx      2    bbb     H4     58 0.11563300   1.008000   ; qtot 1.863546
   59         hc      2    bbb     H5     59 0.08347900   1.008000   ; qtot 1.947025
   60         hc      2    bbb     H6     60 0.08347900   1.008000   ; qtot 2.030504
   61         hc      2    bbb     H7     61 0.08347900   1.008000   ; qtot 2.113983
   62         hc      2    bbb     H8     62 0.08347900   1.008000   ; qtot 2.197462
   63         hx      2    bbb     H9     63 0.07988000   1.008000   ; qtot 2.277342
   64         hx      2    bbb    H10     64 0.07988000   1.008000   ; qtot 2.357222
   65         h1      2    bbb    H11     65 0.10618100   1.008000   ; qtot 2.463403
   66         h1      2    bbb    H12     66 0.10618100   1.008000   ; qtot 2.569584
   67         hn      2    bbb    H13     67 0.25916100   1.008000   ; qtot 2.828745
   68         hn      2    bbb    H25     68 0.17125500   1.008000   ; qtot 3.000000
; residue    3 bbb rtp bbb q 1.0
   69         n4      3    bbb     N1     69 -0.02747900  14.010000   ; qtot 2.972521
   70         c3      3    bbb     C1     70 -0.05097600  12.010000   ; qtot 2.921545
   71         c3      3    bbb     C2     71 -0.05097600  12.010000   ; qtot 2.870569
   72         c3      3    bbb     C3     72 -0.18457900  12.010000   ; qtot 2.685990
   73          c      3    bbb     C4     73 0.67254400  12.010000   ; qtot 3.358534
   74         c3      3    bbb     C5     74 -0.18457900  12.010000   ; qtot 3.173955
   75          c      3    bbb     C6     75 0.67254400  12.010000   ; qtot 3.846499
   76         c3      3    bbb     C7     76 -0.02083000  12.010000   ; qtot 3.825669
   77         c3      3    bbb     C8     77 -0.03328100  12.010000   ; qtot 3.792388
   78          n      3    bbb     N2     78 -0.33303000  14.010000   ; qtot 3.459358
   79          o      3    bbb     O1     79 -0.52917200  16.000000   ; qtot 2.930186
   80          o      3    bbb     O2     80 -0.52917200  16.000000   ; qtot 2.401014
   81         hx      3    bbb     H1     81 0.11563300   1.008000   ; qtot 2.516647
   82         hx      3    bbb     H2     82 0.11563300   1.008000   ; qtot 2.632280
   83         hx      3    bbb     H3     83 0.11563300   1.008000   ; qtot 2.747913
   84         hx      3    bbb     H4     84 0.11563300   1.008000   ; qtot 2.863546
   85         hc      3    bbb     H5     85 0.08347900   1.008000   ; qtot 2.947025
   86         hc      3    bbb     H6     86 0.08347900   1.008000   ; qtot 3.030504
   87         hc      3    bbb     H7     87 0.08347900   1.008000   ; qtot 3.113983
   88         hc      3    bbb     H8     88 0.08347900   1.008000   ; qtot 3.197462
   89         hx      3    bbb     H9     89 0.07988000   1.008000   ; qtot 3.277342
   90         hx      3    bbb    H10     90 0.07988000   1.008000   ; qtot 3.357222
   91         h1      3    bbb    H11     91 0.10618100   1.008000   ; qtot 3.463403
   92         h1      3    bbb    H12     92 0.10618100   1.008000   ; qtot 3.569584
   93         hn      3    bbb    H13     93 0.25916100   1.008000   ; qtot 3.828745
   94         hn      3    bbb    H25     94 0.17125500   1.008000   ; qtot 4.000000
; residue    4 bbb rtp bbb q 1.0
   95         n4      4    bbb     N1     95 -0.02747900  14.010000   ; qtot 3.972521
   96         c3      4    bbb     C1     96 -0.05097600  12.010000   ; qtot 3.921545
   97         c3      4    bbb     C2     97 -0.05097600  12.010000   ; qtot 3.870569
   98         c3      4    bbb     C3     98 -0.18457900  12.010000   ; qtot 3.685990
   99          c      4    bbb     C4     99 0.67254400  12.010000   ; qtot 4.358534
  100         c3      4    bbb     C5    100 -0.18457900  12.010000   ; qtot 4.173955
  101          c      4    bbb     C6    101 0.67254400  12.010000   ; qtot 4.846499
  102         c3      4    bbb     C7    102 -0.02083000  12.010000   ; qtot 4.825669
  103         c3      4    bbb     C8    103 -0.03328100  12.010000   ; qtot 4.792388
  104          n      4    bbb     N2    104 -0.33303000  14.010000   ; qtot 4.459358
  105          o      4    bbb     O1    105 -0.52917200  16.000000   ; qtot 3.930186
  106          o      4    bbb     O2    106 -0.52917200  16.000000   ; qtot 3.401014
  107         hx      4    bbb     H1    107 0.11563300   1.008000   ; qtot 3.516647
  108         hx      4    bbb     H2    108 0.11563300   1.008000   ; qtot 3.632280
  109         hx      4    bbb     H3    109 0.11563300   1.008000   ; qtot 3.747913
  110         hx      4    bbb     H4    110 0.11563300   1.008000   ; qtot 3.863546
  111         hc      4    bbb     H5    111 0.08347900   1.008000   ; qtot 3.947025
  112         hc      4    bbb     H6    112 0.08347900   1.008000   ; qtot 4.030504
  113         hc      4    bbb     H7    113 0.08347900   1.008000   ; qtot 4.113983
  114         hc      4    bbb     H8    114 0.08347900   1.008000   ; qtot 4.197462
  115         hx      4    bbb     H9    115 0.07988000   1.008000   ; qtot 4.277342
  116         hx      4    bbb    H10    116 0.07988000   1.008000   ; qtot 4.357222
  117         h1      4    bbb    H11    117 0.10618100   1.008000   ; qtot 4.463403
  118         h1      4    bbb    H12    118 0.10618100   1.008000   ; qtot 4.569584
  119         hn      4    bbb    H13    119 0.25916100   1.008000   ; qtot 4.828745
  120         hn      4    bbb    H25    120 0.17125500   1.008000   ; qtot 5.000000
; residue    5 bbb rtp bbb q 1.0
  121         n4      5    bbb     N1    121 -0.02747900  14.010000   ; qtot 4.972521
  122         c3      5    bbb     C1    122 -0.05097600  12.010000   ; qtot 4.921545
  123         c3      5    bbb     C2    123 -0.05097600  12.010000   ; qtot 4.870569
  124         c3      5    bbb     C3    124 -0.18457900  12.010000   ; qtot 4.685990
  125          c      5    bbb     C4    125 0.67254400  12.010000   ; qtot 5.358534
  126         c3      5    bbb     C5    126 -0.18457900  12.010000   ; qtot 5.173955
  127          c      5    bbb     C6    127 0.67254400  12.010000   ; qtot 5.846499
  128         c3      5    bbb     C7    128 -0.02083000  12.010000   ; qtot 5.825669
  129         c3      5    bbb     C8    129 -0.03328100  12.010000   ; qtot 5.792388
  130          n      5    bbb     N2    130 -0.33303000  14.010000   ; qtot 5.459358
  131          o      5    bbb     O1    131 -0.52917200  16.000000   ; qtot 4.930186
  132          o      5    bbb     O2    132 -0.52917200  16.000000   ; qtot 4.401014
  133         hx      5    bbb     H1    133 0.11563300   1.008000   ; qtot 4.516647
  134         hx      5    bbb     H2    134 0.11563300   1.008000   ; qtot 4.632280
  135         hx      5    bbb     H3    135 0.11563300   1.008000   ; qtot 4.747913
  136         hx      5    bbb     H4    136 0.11563300   1.008000   ; qtot 4.863546
  137         hc      5    bbb     H5    137 0.08347900   1.008000   ; qtot 4.947025
  138         hc      5    bbb     H6    138 0.08347900   1.008000   ; qtot 5.030504
  139         hc      5    bbb     H7    139 0.08347900   1.008000   ; qtot 5.113983
  140         hc      5    bbb     H8    140 0.08347900   1.008000   ; qtot 5.197462
  141         hx      5    bbb     H9    141 0.07988000   1.008000   ; qtot 5.277342
  142         hx      5    bbb    H10    142 0.07988000   1.008000   ; qtot 5.357222
  143         h1      5    bbb    H11    143 0.10618100   1.008000   ; qtot 5.463403
  144         h1      5    bbb    H12    144 0.10618100   1.008000   ; qtot 5.569584
  145         hn      5    bbb    H13    145 0.25916100   1.008000   ; qtot 5.828745
  146         hn      5    bbb    H25    146 0.17125500   1.008000   ; qtot 6.000000
; residue    6 bbb rtp bbb q 1.0
  147         n4      6    bbb     N1    147 -0.02747900  14.010000   ; qtot 5.972521
  148         c3      6    bbb     C1    148 -0.05097600  12.010000   ; qtot 5.921545
  149         c3      6    bbb     C2    149 -0.05097600  12.010000   ; qtot 5.870569
  150         c3      6    bbb     C3    150 -0.18457900  12.010000   ; qtot 5.685990
  151          c      6    bbb     C4    151 0.67254400  12.010000   ; qtot 6.358534
  152         c3      6    bbb     C5    152 -0.18457900  12.010000   ; qtot 6.173955
  153          c      6    bbb     C6    153 0.67254400  12.010000   ; qtot 6.846499
  154         c3      6    bbb     C7    154 -0.02083000  12.010000   ; qtot 6.825669
  155         c3      6    bbb     C8    155 -0.03328100  12.010000   ; qtot 6.792388
  156          n      6    bbb     N2    156 -0.33303000  14.010000   ; qtot 6.459358
  157          o      6    bbb     O1    157 -0.52917200  16.000000   ; qtot 5.930186
  158          o      6    bbb     O2    158 -0.52917200  16.000000   ; qtot 5.401014
  159         hx      6    bbb     H1    159 0.11563300   1.008000   ; qtot 5.516647
  160         hx      6    bbb     H2    160 0.11563300   1.008000   ; qtot 5.632280
  161         hx      6    bbb     H3    161 0.11563300   1.008000   ; qtot 5.747913
  162         hx      6    bbb     H4    162 0.11563300   1.008000   ; qtot 5.863546
  163         hc      6    bbb     H5    163 0.08347900   1.008000   ; qtot 5.947025
  164         hc      6    bbb     H6    164 0.08347900   1.008000   ; qtot 6.030504
  165         hc      6    bbb     H7    165 0.08347900   1.008000   ; qtot 6.113983
  166         hc      6    bbb     H8    166 0.08347900   1.008000   ; qtot 6.197462
  167         hx      6    bbb     H9    167 0.07988000   1.008000   ; qtot 6.277342
  168         hx      6    bbb    H10    168 0.07988000   1.008000   ; qtot 6.357222
  169         h1      6    bbb    H11    169 0.10618100   1.008000   ; qtot 6.463403
  170         h1      6    bbb    H12    170 0.10618100   1.008000   ; qtot 6.569584
  171         hn      6    bbb    H13    171 0.25916100   1.008000   ; qtot 6.828745
  172         hn      6    bbb    H25    172 0.17125500   1.008000   ; qtot 7.000000
; residue    7 bbb rtp bbb q 1.0
  173         n4      7    bbb     N1    173 -0.02747900  14.010000   ; qtot 6.972521
  174         c3      7    bbb     C1    174 -0.05097600  12.010000   ; qtot 6.921545
  175         c3      7    bbb     C2    175 -0.05097600  12.010000   ; qtot 6.870569
  176         c3      7    bbb     C3    176 -0.18457900  12.010000   ; qtot 6.685990
  177          c      7    bbb     C4    177 0.67254400  12.010000   ; qtot 7.358534
  178         c3      7    bbb     C5    178 -0.18457900  12.010000   ; qtot 7.173955
  179          c      7    bbb     C6    179 0.67254400  12.010000   ; qtot 7.846499
  180         c3      7    bbb     C7    180 -0.02083000  12.010000   ; qtot 7.825669
  181         c3      7    bbb     C8    181 -0.03328100  12.010000   ; qtot 7.792388
  182          n      7    bbb     N2    182 -0.33303000  14.010000   ; qtot 7.459358
  183          o      7    bbb     O1    183 -0.52917200  16.000000   ; qtot 6.930186
  184          o      7    bbb     O2    184 -0.52917200  16.000000   ; qtot 6.401014
  185         hx      7    bbb     H1    185 0.11563300   1.008000   ; qtot 6.516647
  186         hx      7    bbb     H2    186 0.11563300   1.008000   ; qtot 6.632280
  187         hx      7    bbb     H3    187 0.11563300   1.008000   ; qtot 6.747913
  188         hx      7    bbb     H4    188 0.11563300   1.008000   ; qtot 6.863546
  189         hc      7    bbb     H5    189 0.08347900   1.008000   ; qtot 6.947025
  190         hc      7    bbb     H6    190 0.08347900   1.008000   ; qtot 7.030504
  191         hc      7    bbb     H7    191 0.08347900   1.008000   ; qtot 7.113983
  192         hc      7    bbb     H8    192 0.08347900   1.008000   ; qtot 7.197462
  193         hx      7    bbb     H9    193 0.07988000   1.008000   ; qtot 7.277342
  194         hx      7    bbb    H10    194 0.07988000   1.008000   ; qtot 7.357222
  195         h1      7    bbb    H11    195 0.10618100   1.008000   ; qtot 7.463403
  196         h1      7    bbb    H12    196 0.10618100   1.008000   ; qtot 7.569584
  197         hn      7    bbb    H13    197 0.25916100   1.008000   ; qtot 7.828745
  198         hn      7    bbb    H25    198 0.17125500   1.008000   ; qtot 8.000000
; residue    8 bbb rtp bbb q 1.0
  199         n4      8    bbb     N1    199 -0.02747900  14.010000   ; qtot 7.972521
  200         c3      8    bbb     C1    200 -0.05097600  12.010000   ; qtot 7.921545
  201         c3      8    bbb     C2    201 -0.05097600  12.010000   ; qtot 7.870569
  202         c3      8    bbb     C3    202 -0.18457900  12.010000   ; qtot 7.685990
  203          c      8    bbb     C4    203 0.67254400  12.010000   ; qtot 8.358534
  204         c3      8    bbb     C5    204 -0.18457900  12.010000   ; qtot 8.173955
  205          c      8    bbb     C6    205 0.67254400  12.010000   ; qtot 8.846499
  206         c3      8    bbb     C7    206 -0.02083000  12.010000   ; qtot 8.825669
  207         c3      8    bbb     C8    207 -0.03328100  12.010000   ; qtot 8.792388
  208          n      8    bbb     N2    208 -0.33303000  14.010000   ; qtot 8.459358
  209          o      8    bbb     O1    209 -0.52917200  16.000000   ; qtot 7.930186
  210          o      8    bbb     O2    210 -0.52917200  16.000000   ; qtot 7.401014
  211         hx      8    bbb     H1    211 0.11563300   1.008000   ; qtot 7.516647
  212         hx      8    bbb     H2    212 0.11563300   1.008000   ; qtot 7.632280
  213         hx      8    bbb     H3    213 0.11563300   1.008000   ; qtot 7.747913
  214         hx      8    bbb     H4    214 0.11563300   1.008000   ; qtot 7.863546
  215         hc      8    bbb     H5    215 0.08347900   1.008000   ; qtot 7.947025
  216         hc      8    bbb     H6    216 0.08347900   1.008000   ; qtot 8.030504
  217         hc      8    bbb     H7    217 0.08347900   1.008000   ; qtot 8.113983
  218         hc      8    bbb     H8    218 0.08347900   1.008000   ; qtot 8.197462
  219         hx      8    bbb     H9    219 0.07988000   1.008000   ; qtot 8.277342
  220         hx      8    bbb    H10    220 0.07988000   1.008000   ; qtot 8.357222
  221         h1      8    bbb    H11    221 0.10618100   1.008000   ; qtot 8.463403
  222         h1      8    bbb    H12    222 0.10618100   1.008000   ; qtot 8.569584
  223         hn      8    bbb    H13    223 0.25916100   1.008000   ; qtot 8.828745
  224         hn      8    bbb    H25    224 0.17125500   1.008000   ; qtot 9.000000
; residue    9 bbb rtp bbb q 1.0
  225         n4      9    bbb     N1    225 -0.02747900  14.010000   ; qtot 8.972521
  226         c3      9    bbb     C1    226 -0.05097600  12.010000   ; qtot 8.921545
  227         c3      9    bbb     C2    227 -0.05097600  12.010000   ; qtot 8.870569
  228         c3      9    bbb     C3    228 -0.18457900  12.010000   ; qtot 8.685990
  229          c      9    bbb     C4    229 0.67254400  12.010000   ; qtot 9.358534
  230         c3      9    bbb     C5    230 -0.18457900  12.010000   ; qtot 9.173955
  231          c      9    bbb     C6    231 0.67254400  12.010000   ; qtot 9.846499
  232         c3      9    bbb     C7    232 -0.02083000  12.010000   ; qtot 9.825669
  233         c3      9    bbb     C8    233 -0.03328100  12.010000   ; qtot 9.792388
  234          n      9    bbb     N2    234 -0.33303000  14.010000   ; qtot 9.459358
  235          o      9    bbb     O1    235 -0.52917200  16.000000   ; qtot 8.930186
  236          o      9    bbb     O2    236 -0.52917200  16.000000   ; qtot 8.401014
  237         hx      9    bbb     H1    237 0.11563300   1.008000   ; qtot 8.516647
  238         hx      9    bbb     H2    238 0.11563300   1.008000   ; qtot 8.632280
  239         hx      9    bbb     H3    239 0.11563300   1.008000   ; qtot 8.747913
  240         hx      9    bbb     H4    240 0.11563300   1.008000   ; qtot 8.863546
  241         hc      9    bbb     H5    241 0.08347900   1.008000   ; qtot 8.947025
  242         hc      9    bbb     H6    242 0.08347900   1.008000   ; qtot 9.030504
  243         hc      9    bbb     H7    243 0.08347900   1.008000   ; qtot 9.113983
  244         hc      9    bbb     H8    244 0.08347900   1.008000   ; qtot 9.197462
  245         hx      9    bbb     H9    245 0.07988000   1.008000   ; qtot 9.277342
  246         hx      9    bbb    H10    246 0.07988000   1.008000   ; qtot 9.357222
  247         h1      9    bbb    H11    247 0.10618100   1.008000   ; qtot 9.463403
  248         h1      9    bbb    H12    248 0.10618100   1.008000   ; qtot 9.569584
  249         hn      9    bbb    H13    249 0.25916100   1.008000   ; qtot 9.828745
  250         hn      9    bbb    H25    250 0.17125500   1.008000   ; qtot 10.000000
; residue   10 bbb rtp bbb q 1.0
  251         n4     10    bbb     N1    251 -0.02747900  14.010000   ; qtot 9.972521
  252         c3     10    bbb     C1    252 -0.05097600  12.010000   ; qtot 9.921545
  253         c3     10    bbb     C2    253 -0.05097600  12.010000   ; qtot 9.870569
  254         c3     10    bbb     C3    254 -0.18457900  12.010000   ; qtot 9.685990
  255          c     10    bbb     C4    255 0.67254400  12.010000   ; qtot 10.358534
  256         c3     10    bbb     C5    256 -0.18457900  12.010000   ; qtot 10.173955
  257          c     10    bbb     C6    257 0.67254400  12.010000   ; qtot 10.846499
  258         c3     10    bbb     C7    258 -0.02083000  12.010000   ; qtot 10.825669
  259         c3     10    bbb     C8    259 -0.03328100  12.010000   ; qtot 10.792388
  260          n     10    bbb     N2    260 -0.33303000  14.010000   ; qtot 10.459358
  261          o     10    bbb     O1    261 -0.52917200  16.000000   ; qtot 9.930186
  262          o     10    bbb     O2    262 -0.52917200  16.000000   ; qtot 9.401014
  263         hx     10    bbb     H1    263 0.11563300   1.008000   ; qtot 9.516647
  264         hx     10    bbb     H2    264 0.11563300   1.008000   ; qtot 9.632280
  265         hx     10    bbb     H3    265 0.11563300   1.008000   ; qtot 9.747913
  266         hx     10    bbb     H4    266 0.11563300   1.008000   ; qtot 9.863546
  267         hc     10    bbb     H5    267 0.08347900   1.008000   ; qtot 9.947025
  268         hc     10    bbb     H6    268 0.08347900   1.008000   ; qtot 10.030504
  269         hc     10    bbb     H7    269 0.08347900   1.008000   ; qtot 10.113983
  270         hc     10    bbb     H8    270 0.08347900   1.008000   ; qtot 10.197462
  271         hx     10    bbb     H9    271 0.07988000   1.008000   ; qtot 10.277342
  272         hx     10    bbb    H10    272 0.07988000   1.008000   ; qtot 10.357222
  273         h1     10    bbb    H11    273 0.10618100   1.008000   ; qtot 10.463403
  274         h1     10    bbb    H12    274 0.10618100   1.008000   ; qtot 10.569584
  275         hn     10    bbb    H13    275 0.25916100   1.008000   ; qtot 10.828745
  276         hn     10    bbb    H25    276 0.17125500   1.008000   ; qtot 11.000000
; residue   11 bbb rtp bbb q 1.0
  277         n4     11    bbb     N1    277 -0.02747900  14.010000   ; qtot 10.972521
  278         c3     11    bbb     C1    278 -0.05097600  12.010000   ; qtot 10.921545
  279         c3     11    bbb     C2    279 -0.05097600  12.010000   ; qtot 10.870569
  280         c3     11    bbb     C3    280 -0.18457900  12.010000   ; qtot 10.685990
  281          c     11    bbb     C4    281 0.67254400  12.010000   ; qtot 11.358534
  282         c3     11    bbb     C5    282 -0.18457900  12.010000   ; qtot 11.173955
  283          c     11    bbb     C6    283 0.67254400  12.010000   ; qtot 11.846499
  284         c3     11    bbb     C7    284 -0.02083000  12.010000   ; qtot 11.825669
  285         c3     11    bbb     C8    285 -0.03328100  12.010000   ; qtot 11.792388
  286          n     11    bbb     N2    286 -0.33303000  14.010000   ; qtot 11.459358
  287          o     11    bbb     O1    287 -0.52917200  16.000000   ; qtot 10.930186
  288          o     11    bbb     O2    288 -0.52917200  16.000000   ; qtot 10.401014
  289         hx     11    bbb     H1    289 0.11563300   1.008000   ; qtot 10.516647
  290         hx     11    bbb     H2    290 0.11563300   1.008000   ; qtot 10.632280
  291         hx     11    bbb     H3    291 0.11563300   1.008000   ; qtot 10.747913
  292         hx     11    bbb     H4    292 0.11563300   1.008000   ; qtot 10.863546
  293         hc     11    bbb     H5    293 0.08347900   1.008000   ; qtot 10.947025
  294         hc     11    bbb     H6    294 0.08347900   1.008000   ; qtot 11.030504
  295         hc     11    bbb     H7    295 0.08347900   1.008000   ; qtot 11.113983
  296         hc     11    bbb     H8    296 0.08347900   1.008000   ; qtot 11.197462
  297         hx     11    bbb     H9    297 0.07988000   1.008000   ; qtot 11.277342
  298         hx     11    bbb    H10    298 0.07988000   1.008000   ; qtot 11.357222
  299         h1     11    bbb    H11    299 0.10618100   1.008000   ; qtot 11.463403
  300         h1     11    bbb    H12    300 0.10618100   1.008000   ; qtot 11.569584
  301         hn     11    bbb    H13    301 0.25916100   1.008000   ; qtot 11.828745
  302         hn     11    bbb    H25    302 0.17125500   1.008000   ; qtot 12.000000
; residue   12 bbb rtp bbb q 1.0
  303         n4     12    bbb     N1    303 -0.02747900  14.010000   ; qtot 11.972521
  304         c3     12    bbb     C1    304 -0.05097600  12.010000   ; qtot 11.921545
  305         c3     12    bbb     C2    305 -0.05097600  12.010000   ; qtot 11.870569
  306         c3     12    bbb     C3    306 -0.18457900  12.010000   ; qtot 11.685990
  307          c     12    bbb     C4    307 0.67254400  12.010000   ; qtot 12.358534
  308         c3     12    bbb     C5    308 -0.18457900  12.010000   ; qtot 12.173955
  309          c     12    bbb     C6    309 0.67254400  12.010000   ; qtot 12.846499
  310         c3     12    bbb     C7    310 -0.02083000  12.010000   ; qtot 12.825669
  311         c3     12    bbb     C8    311 -0.03328100  12.010000   ; qtot 12.792388
  312          n     12    bbb     N2    312 -0.33303000  14.010000   ; qtot 12.459358
  313          o     12    bbb     O1    313 -0.52917200  16.000000   ; qtot 11.930186
  314          o     12    bbb     O2    314 -0.52917200  16.000000   ; qtot 11.401014
  315         hx     12    bbb     H1    315 0.11563300   1.008000   ; qtot 11.516647
  316         hx     12    bbb     H2    316 0.11563300   1.008000   ; qtot 11.632280
  317         hx     12    bbb     H3    317 0.11563300   1.008000   ; qtot 11.747913
  318         hx     12    bbb     H4    318 0.11563300   1.008000   ; qtot 11.863546
  319         hc     12    bbb     H5    319 0.08347900   1.008000   ; qtot 11.947025
  320         hc     12    bbb     H6    320 0.08347900   1.008000   ; qtot 12.030504
  321         hc     12    bbb     H7    321 0.08347900   1.008000   ; qtot 12.113983
  322         hc     12    bbb     H8    322 0.08347900   1.008000   ; qtot 12.197462
  323         hx     12    bbb     H9    323 0.07988000   1.008000   ; qtot 12.277342
  324         hx     12    bbb    H10    324 0.07988000   1.008000   ; qtot 12.357222
  325         h1     12    bbb    H11    325 0.10618100   1.008000   ; qtot 12.463403
  326         h1     12    bbb    H12    326 0.10618100   1.008000   ; qtot 12.569584
  327         hn     12    bbb    H13    327 0.25916100   1.008000   ; qtot 12.828745
  328         hn     12    bbb    H25    328 0.17125500   1.008000   ; qtot 13.000000
; residue   13 bbb rtp bbb q 1.0
  329         n4     13    bbb     N1    329 -0.02747900  14.010000   ; qtot 12.972521
  330         c3     13    bbb     C1    330 -0.05097600  12.010000   ; qtot 12.921545
  331         c3     13    bbb     C2    331 -0.05097600  12.010000   ; qtot 12.870569
  332         c3     13    bbb     C3    332 -0.18457900  12.010000   ; qtot 12.685990
  333          c     13    bbb     C4    333 0.67254400  12.010000   ; qtot 13.358534
  334         c3     13    bbb     C5    334 -0.18457900  12.010000   ; qtot 13.173955
  335          c     13    bbb     C6    335 0.67254400  12.010000   ; qtot 13.846499
  336         c3     13    bbb     C7    336 -0.02083000  12.010000   ; qtot 13.825669
  337         c3     13    bbb     C8    337 -0.03328100  12.010000   ; qtot 13.792388
  338          n     13    bbb     N2    338 -0.33303000  14.010000   ; qtot 13.459358
  339          o     13    bbb     O1    339 -0.52917200  16.000000   ; qtot 12.930186
  340          o     13    bbb     O2    340 -0.52917200  16.000000   ; qtot 12.401014
  341         hx     13    bbb     H1    341 0.11563300   1.008000   ; qtot 12.516647
  342         hx     13    bbb     H2    342 0.11563300   1.008000   ; qtot 12.632280
  343         hx     13    bbb     H3    343 0.11563300   1.008000   ; qtot 12.747913
  344         hx     13    bbb     H4    344 0.11563300   1.008000   ; qtot 12.863546
  345         hc     13    bbb     H5    345 0.08347900   1.008000   ; qtot 12.947025
  346         hc     13    bbb     H6    346 0.08347900   1.008000   ; qtot 13.030504
  347         hc     13    bbb     H7    347 0.08347900   1.008000   ; qtot 13.113983
  348         hc     13    bbb     H8    348 0.08347900   1.008000   ; qtot 13.197462
  349         hx     13    bbb     H9    349 0.07988000   1.008000   ; qtot 13.277342
  350         hx     13    bbb    H10    350 0.07988000   1.008000   ; qtot 13.357222
  351         h1     13    bbb    H11    351 0.10618100   1.008000   ; qtot 13.463403
  352         h1     13    bbb    H12    352 0.10618100   1.008000   ; qtot 13.569584
  353         hn     13    bbb    H13    353 0.25916100   1.008000   ; qtot 13.828745
  354         hn     13    bbb    H25    354 0.17125500   1.008000   ; qtot 14.000000
; residue   14 ccc rtp ccc q 1.0
  355          n     14    ccc     N1    355 -0.26410000  14.010000   ; qtot 13.735900
  356         hn     14    ccc     H4    356 0.27630000   1.008000   ; qtot 14.012200
  357         c3     14    ccc     C3    357 -0.17900000  12.010000   ; qtot 13.833200
  358         c3     14    ccc     C4    358 0.08000000  12.010000   ; qtot 13.913200
  359         h1     14    ccc     H5    359 0.13870000   1.008000   ; qtot 14.051900
  360         h1     14    ccc     H6    360 0.13870000   1.008000   ; qtot 14.190600
  361         hx     14    ccc     H7    361 0.07790000   1.008000   ; qtot 14.268500
  362         hx     14    ccc     H8    362 0.07790000   1.008000   ; qtot 14.346400
  363         n4     14    ccc     N2    363 -0.16780000  14.010000   ; qtot 14.178600
  364         hn     14    ccc     H9    364 0.27380000   1.008000   ; qtot 14.452400
  365         hn     14    ccc    H10    365 0.27380000   1.008000   ; qtot 14.726200
  366         hn     14    ccc    H11    366 0.27380000   1.008000   ; qtot 15.000000
; residue   15 ccc rtp ccc q 1.0
  367          n     15    ccc     N1    367 -0.26410000  14.010000   ; qtot 14.735900
  368         hn     15    ccc     H4    368 0.27630000   1.008000   ; qtot 15.012200
  369         c3     15    ccc     C3    369 -0.17900000  12.010000   ; qtot 14.833200
  370         c3     15    ccc     C4    370 0.08000000  12.010000   ; qtot 14.913200
  371         h1     15    ccc     H5    371 0.13870000   1.008000   ; qtot 15.051900
  372         h1     15    ccc     H6    372 0.13870000   1.008000   ; qtot 15.190600
  373         hx     15    ccc     H7    373 0.07790000   1.008000   ; qtot 15.268500
  374         hx     15    ccc     H8    374 0.07790000   1.008000   ; qtot 15.346400
  375         n4     15    ccc     N2    375 -0.16780000  14.010000   ; qtot 15.178600
  376         hn     15    ccc     H9    376 0.27380000   1.008000   ; qtot 15.452400
  377         hn     15    ccc    H10    377 0.27380000   1.008000   ; qtot 15.726200
  378         hn     15    ccc    H11    378 0.27380000   1.008000   ; qtot 16.000000
; residue   16 ccc rtp ccc q 1.0
  379          n     16    ccc     N1    379 -0.26410000  14.010000   ; qtot 15.735900
  380         hn     16    ccc     H4    380 0.27630000   1.008000   ; qtot 16.012200
  381         c3     16    ccc     C3    381 -0.17900000  12.010000   ; qtot 15.833200
  382         c3     16    ccc     C4    382 0.08000000  12.010000   ; qtot 15.913200
  383         h1     16    ccc     H5    383 0.13870000   1.008000   ; qtot 16.051900
  384         h1     16    ccc     H6    384 0.13870000   1.008000   ; qtot 16.190600
  385         hx     16    ccc     H7    385 0.07790000   1.008000   ; qtot 16.268500
  386         hx     16    ccc     H8    386 0.07790000   1.008000   ; qtot 16.346400
  387         n4     16    ccc     N2    387 -0.16780000  14.010000   ; qtot 16.178600
  388         hn     16    ccc     H9    388 0.27380000   1.008000   ; qtot 16.452400
  389         hn     16    ccc    H10    389 0.27380000   1.008000   ; qtot 16.726200
  390         hn     16    ccc    H11    390 0.27380000   1.008000   ; qtot 17.000000
; residue   17 ccc rtp ccc q 1.0
  391          n     17    ccc     N1    391 -0.26410000  14.010000   ; qtot 16.735900
  392         hn     17    ccc     H4    392 0.27630000   1.008000   ; qtot 17.012200
  393         c3     17    ccc     C3    393 -0.17900000  12.010000   ; qtot 16.833200
  394         c3     17    ccc     C4    394 0.08000000  12.010000   ; qtot 16.913200
  395         h1     17    ccc     H5    395 0.13870000   1.008000   ; qtot 17.051900
  396         h1     17    ccc     H6    396 0.13870000   1.008000   ; qtot 17.190600
  397         hx     17    ccc     H7    397 0.07790000   1.008000   ; qtot 17.268500
  398         hx     17    ccc     H8    398 0.07790000   1.008000   ; qtot 17.346400
  399         n4     17    ccc     N2    399 -0.16780000  14.010000   ; qtot 17.178600
  400         hn     17    ccc     H9    400 0.27380000   1.008000   ; qtot 17.452400
  401         hn     17    ccc    H10    401 0.27380000   1.008000   ; qtot 17.726200
  402         hn     17    ccc    H11    402 0.27380000   1.008000   ; qtot 18.000000
; residue   18 ccc rtp ccc q 1.0
  403          n     18    ccc     N1    403 -0.26410000  14.010000   ; qtot 17.735900
  404         hn     18    ccc     H4    404 0.27630000   1.008000   ; qtot 18.012200
  405         c3     18    ccc     C3    405 -0.17900000  12.010000   ; qtot 17.833200
  406         c3     18    ccc     C4    406 0.08000000  12.010000   ; qtot 17.913200
  407         h1     18    ccc     H5    407 0.13870000   1.008000   ; qtot 18.051900
  408         h1     18    ccc     H6    408 0.13870000   1.008000   ; qtot 18.190600
  409         hx     18    ccc     H7    409 0.07790000   1.008000   ; qtot 18.268500
  410         hx     18    ccc     H8    410 0.07790000   1.008000   ; qtot 18.346400
  411         n4     18    ccc     N2    411 -0.16780000  14.010000   ; qtot 18.178600
  412         hn     18    ccc     H9    412 0.27380000   1.008000   ; qtot 18.452400
  413         hn     18    ccc    H10    413 0.27380000   1.008000   ; qtot 18.726200
  414         hn     18    ccc    H11    414 0.27380000   1.008000   ; qtot 19.000000
; residue   19 ccc rtp ccc q 1.0
  415          n     19    ccc     N1    415 -0.26410000  14.010000   ; qtot 18.735900
  416         hn     19    ccc     H4    416 0.27630000   1.008000   ; qtot 19.012200
  417         c3     19    ccc     C3    417 -0.17900000  12.010000   ; qtot 18.833200
  418         c3     19    ccc     C4    418 0.08000000  12.010000   ; qtot 18.913200
  419         h1     19    ccc     H5    419 0.13870000   1.008000   ; qtot 19.051900
  420         h1     19    ccc     H6    420 0.13870000   1.008000   ; qtot 19.190600
  421         hx     19    ccc     H7    421 0.07790000   1.008000   ; qtot 19.268500
  422         hx     19    ccc     H8    422 0.07790000   1.008000   ; qtot 19.346400
  423         n4     19    ccc     N2    423 -0.16780000  14.010000   ; qtot 19.178600
  424         hn     19    ccc     H9    424 0.27380000   1.008000   ; qtot 19.452400
  425         hn     19    ccc    H10    425 0.27380000   1.008000   ; qtot 19.726200
  426         hn     19    ccc    H11    426 0.27380000   1.008000   ; qtot 20.000000
; residue   20 ccc rtp ccc q 1.0
  427          n     20    ccc     N1    427 -0.26410000  14.010000   ; qtot 19.735900
  428         hn     20    ccc     H4    428 0.27630000   1.008000   ; qtot 20.012200
  429         c3     20    ccc     C3    429 -0.17900000  12.010000   ; qtot 19.833200
  430         c3     20    ccc     C4    430 0.08000000  12.010000   ; qtot 19.913200
  431         h1     20    ccc     H5    431 0.13870000   1.008000   ; qtot 20.051900
  432         h1     20    ccc     H6    432 0.13870000   1.008000   ; qtot 20.190600
  433         hx     20    ccc     H7    433 0.07790000   1.008000   ; qtot 20.268500
  434         hx     20    ccc     H8    434 0.07790000   1.008000   ; qtot 20.346400
  435         n4     20    ccc     N2    435 -0.16780000  14.010000   ; qtot 20.178600
  436         hn     20    ccc     H9    436 0.27380000   1.008000   ; qtot 20.452400
  437         hn     20    ccc    H10    437 0.27380000   1.008000   ; qtot 20.726200
  438         hn     20    ccc    H11    438 0.27380000   1.008000   ; qtot 21.000000
; residue   21 ccc rtp ccc q 1.0
  439          n     21    ccc     N1    439 -0.26410000  14.010000   ; qtot 20.735900
  440         hn     21    ccc     H4    440 0.27630000   1.008000   ; qtot 21.012200
  441         c3     21    ccc     C3    441 -0.17900000  12.010000   ; qtot 20.833200
  442         c3     21    ccc     C4    442 0.08000000  12.010000   ; qtot 20.913200
  443         h1     21    ccc     H5    443 0.13870000   1.008000   ; qtot 21.051900
  444         h1     21    ccc     H6    444 0.13870000   1.008000   ; qtot 21.190600
  445         hx     21    ccc     H7    445 0.07790000   1.008000   ; qtot 21.268500
  446         hx     21    ccc     H8    446 0.07790000   1.008000   ; qtot 21.346400
  447         n4     21    ccc     N2    447 -0.16780000  14.010000   ; qtot 21.178600
  448         hn     21    ccc     H9    448 0.27380000   1.008000   ; qtot 21.452400
  449         hn     21    ccc    H10    449 0.27380000   1.008000   ; qtot 21.726200
  450         hn     21    ccc    H11    450 0.27380000   1.008000   ; qtot 22.000000
; residue   22 ccc rtp ccc q 1.0
  451          n     22    ccc     N1    451 -0.26410000  14.010000   ; qtot 21.735900
  452         hn     22    ccc     H4    452 0.27630000   1.008000   ; qtot 22.012200
  453         c3     22    ccc     C3    453 -0.17900000  12.010000   ; qtot 21.833200
  454         c3     22    ccc     C4    454 0.08000000  12.010000   ; qtot 21.913200
  455         h1     22    ccc     H5    455 0.13870000   1.008000   ; qtot 22.051900
  456         h1     22    ccc     H6    456 0.13870000   1.008000   ; qtot 22.190600
  457         hx     22    ccc     H7    457 0.07790000   1.008000   ; qtot 22.268500
  458         hx     22    ccc     H8    458 0.07790000   1.008000   ; qtot 22.346400
  459         n4     22    ccc     N2    459 -0.16780000  14.010000   ; qtot 22.178600
  460         hn     22    ccc     H9    460 0.27380000   1.008000   ; qtot 22.452400
  461         hn     22    ccc    H10    461 0.27380000   1.008000   ; qtot 22.726200
  462         hn     22    ccc    H11    462 0.27380000   1.008000   ; qtot 23.000000
; residue   23 ccc rtp ccc q 1.0
  463          n     23    ccc     N1    463 -0.26410000  14.010000   ; qtot 22.735900
  464         hn     23    ccc     H4    464 0.27630000   1.008000   ; qtot 23.012200
  465         c3     23    ccc     C3    465 -0.17900000  12.010000   ; qtot 22.833200
  466         c3     23    ccc     C4    466 0.08000000  12.010000   ; qtot 22.913200
  467         h1     23    ccc     H5    467 0.13870000   1.008000   ; qtot 23.051900
  468         h1     23    ccc     H6    468 0.13870000   1.008000   ; qtot 23.190600
  469         hx     23    ccc     H7    469 0.07790000   1.008000   ; qtot 23.268500
  470         hx     23    ccc     H8    470 0.07790000   1.008000   ; qtot 23.346400
  471         n4     23    ccc     N2    471 -0.16780000  14.010000   ; qtot 23.178600
  472         hn     23    ccc     H9    472 0.27380000   1.008000   ; qtot 23.452400
  473         hn     23    ccc    H10    473 0.27380000   1.008000   ; qtot 23.726200
  474         hn     23    ccc    H11    474 0.27380000   1.008000   ; qtot 24.000000
; residue   24 ccc rtp ccc q 1.0
  475          n     24    ccc     N1    475 -0.26410000  14.010000   ; qtot 23.735900
  476         hn     24    ccc     H4    476 0.27630000   1.008000   ; qtot 24.012200
  477         c3     24    ccc     C3    477 -0.17900000  12.010000   ; qtot 23.833200
  478         c3     24    ccc     C4    478 0.08000000  12.010000   ; qtot 23.913200
  479         h1     24    ccc     H5    479 0.13870000   1.008000   ; qtot 24.051900
  480         h1     24    ccc     H6    480 0.13870000   1.008000   ; qtot 24.190600
  481         hx     24    ccc     H7    481 0.07790000   1.008000   ; qtot 24.268500
  482         hx     24    ccc     H8    482 0.07790000   1.008000   ; qtot 24.346400
  483         n4     24    ccc     N2    483 -0.16780000  14.010000   ; qtot 24.178600
  484         hn     24    ccc     H9    484 0.27380000   1.008000   ; qtot 24.452400
  485         hn     24    ccc    H10    485 0.27380000   1.008000   ; qtot 24.726200
  486         hn     24    ccc    H11    486 0.27380000   1.008000   ; qtot 25.000000
; residue   25 ccc rtp ccc q 1.0
  487          n     25    ccc     N1    487 -0.26410000  14.010000   ; qtot 24.735900
  488         hn     25    ccc     H4    488 0.27630000   1.008000   ; qtot 25.012200
  489         c3     25    ccc     C3    489 -0.17900000  12.010000   ; qtot 24.833200
  490         c3     25    ccc     C4    490 0.08000000  12.010000   ; qtot 24.913200
  491         h1     25    ccc     H5    491 0.13870000   1.008000   ; qtot 25.051900
  492         h1     25    ccc     H6    492 0.13870000   1.008000   ; qtot 25.190600
  493         hx     25    ccc     H7    493 0.07790000   1.008000   ; qtot 25.268500
  494         hx     25    ccc     H8    494 0.07790000   1.008000   ; qtot 25.346400
  495         n4     25    ccc     N2    495 -0.16780000  14.010000   ; qtot 25.178600
  496         hn     25    ccc     H9    496 0.27380000   1.008000   ; qtot 25.452400
  497         hn     25    ccc    H10    497 0.27380000   1.008000   ; qtot 25.726200
  498         hn     25    ccc    H11    498 0.27380000   1.008000   ; qtot 26.000000
; residue   26 ccc rtp ccc q 1.0
  499          n     26    ccc     N1    499 -0.26410000  14.010000   ; qtot 25.735900
  500         hn     26    ccc     H4    500 0.27630000   1.008000   ; qtot 26.012200
  501         c3     26    ccc     C3    501 -0.17900000  12.010000   ; qtot 25.833200
  502         c3     26    ccc     C4    502 0.08000000  12.010000   ; qtot 25.913200
  503         h1     26    ccc     H5    503 0.13870000   1.008000   ; qtot 26.051900
  504         h1     26    ccc     H6    504 0.13870000   1.008000   ; qtot 26.190600
  505         hx     26    ccc     H7    505 0.07790000   1.008000   ; qtot 26.268500
  506         hx     26    ccc     H8    506 0.07790000   1.008000   ; qtot 26.346400
  507         n4     26    ccc     N2    507 -0.16780000  14.010000   ; qtot 26.178600
  508         hn     26    ccc     H9    508 0.27380000   1.008000   ; qtot 26.452400
  509         hn     26    ccc    H10    509 0.27380000   1.008000   ; qtot 26.726200
  510         hn     26    ccc    H11    510 0.27380000   1.008000   ; qtot 27.000000
; residue   27 ccc rtp ccc q 1.0
  511          n     27    ccc     N1    511 -0.26410000  14.010000   ; qtot 26.735900
  512         hn     27    ccc     H4    512 0.27630000   1.008000   ; qtot 27.012200
  513         c3     27    ccc     C3    513 -0.17900000  12.010000   ; qtot 26.833200
  514         c3     27    ccc     C4    514 0.08000000  12.010000   ; qtot 26.913200
  515         h1     27    ccc     H5    515 0.13870000   1.008000   ; qtot 27.051900
  516         h1     27    ccc     H6    516 0.13870000   1.008000   ; qtot 27.190600
  517         hx     27    ccc     H7    517 0.07790000   1.008000   ; qtot 27.268500
  518         hx     27    ccc     H8    518 0.07790000   1.008000   ; qtot 27.346400
  519         n4     27    ccc     N2    519 -0.16780000  14.010000   ; qtot 27.178600
  520         hn     27    ccc     H9    520 0.27380000   1.008000   ; qtot 27.452400
  521         hn     27    ccc    H10    521 0.27380000   1.008000   ; qtot 27.726200
  522         hn     27    ccc    H11    522 0.27380000   1.008000   ; qtot 28.000000
; residue   28 ccc rtp ccc q 1.0
  523          n     28    ccc     N1    523 -0.26410000  14.010000   ; qtot 27.735900
  524         hn     28    ccc     H4    524 0.27630000   1.008000   ; qtot 28.012200
  525         c3     28    ccc     C3    525 -0.17900000  12.010000   ; qtot 27.833200
  526         c3     28    ccc     C4    526 0.08000000  12.010000   ; qtot 27.913200
  527         h1     28    ccc     H5    527 0.13870000   1.008000   ; qtot 28.051900
  528         h1     28    ccc     H6    528 0.13870000   1.008000   ; qtot 28.190600
  529         hx     28    ccc     H7    529 0.07790000   1.008000   ; qtot 28.268500
  530         hx     28    ccc     H8    530 0.07790000   1.008000   ; qtot 28.346400
  531         n4     28    ccc     N2    531 -0.16780000  14.010000   ; qtot 28.178600
  532         hn     28    ccc     H9    532 0.27380000   1.008000   ; qtot 28.452400
  533         hn     28    ccc    H10    533 0.27380000   1.008000   ; qtot 28.726200
  534         hn     28    ccc    H11    534 0.27380000   1.008000   ; qtot 29.000000
; residue   29 ccc rtp ccc q 1.0
  535          n     29    ccc     N1    535 -0.26410000  14.010000   ; qtot 28.735900
  536         hn     29    ccc     H4    536 0.27630000   1.008000   ; qtot 29.012200
  537         c3     29    ccc     C3    537 -0.17900000  12.010000   ; qtot 28.833200
  538         c3     29    ccc     C4    538 0.08000000  12.010000   ; qtot 28.913200
  539         h1     29    ccc     H5    539 0.13870000   1.008000   ; qtot 29.051900
  540         h1     29    ccc     H6    540 0.13870000   1.008000   ; qtot 29.190600
  541         hx     29    ccc     H7    541 0.07790000   1.008000   ; qtot 29.268500
  542         hx     29    ccc     H8    542 0.07790000   1.008000   ; qtot 29.346400
  543         n4     29    ccc     N2    543 -0.16780000  14.010000   ; qtot 29.178600
  544         hn     29    ccc     H9    544 0.27380000   1.008000   ; qtot 29.452400
  545         hn     29    ccc    H10    545 0.27380000   1.008000   ; qtot 29.726200
  546         hn     29    ccc    H11    546 0.27380000   1.008000   ; qtot 30.000000

[ bonds ]
;    ai     aj funct         c0         c1         c2         c3
      1      2     1   0.15110 237065.440000
      1      7     1   0.15110 237065.440000
      1      8     1   0.15110 237065.440000
      2      3     1   0.15375 251793.120000
      3      4     1   0.15110 237065.440000
      4      5     1   0.15110 237065.440000
      4      6     1   0.15110 237065.440000
      5     11     1   0.15375 251793.120000
      6      9     1   0.15375 251793.120000
      7     13     1   0.15375 251793.120000
      8     15     1   0.15375 251793.120000
      9     10     1   0.15241 261918.400000
     10     18     1   0.12183 533627.360000
     10     52     1   0.13789 357815.680000
     11     12     1   0.15241 261918.400000
     12     17     1   0.12183 533627.360000
     12     78     1   0.13789 357815.680000
     13     14     1   0.15241 261918.400000
     14     20     1   0.12183 533627.360000
     14    104     1   0.13789 357815.680000
     15     16     1   0.15241 261918.400000
     16     19     1   0.12183 533627.360000
     16    130     1   0.13789 357815.680000
     43     44     1   0.15110 237065.440000
     43     45     1   0.15110 237065.440000
     43     50     1   0.15110 237065.440000
     44     46     1   0.15375 251793.120000
     45     48     1   0.15375 251793.120000
     46     47     1   0.15241 261918.400000
     47     53     1   0.12183 533627.360000
     47    156     1   0.13789 357815.680000
     48     49     1   0.15241 261918.400000
     49     54     1   0.12183 533627.360000
     49    182     1   0.13789 357815.680000
     50     51     1   0.15375 251793.120000
     51     52     1   0.14619 275056.160000
     69     70     1   0.15110 237065.440000
     69     71     1   0.15110 237065.440000
     69     76     1   0.15110 237065.440000
     70     72     1   0.15375 251793.120000
     71     74     1   0.15375 251793.120000
     72     73     1   0.15241 261918.400000
     73     79     1   0.12183 533627.360000
     73    208     1   0.13789 357815.680000
     74     75     1   0.15241 261918.400000
     75     80     1   0.12183 533627.360000
     75    234     1   0.13789 357815.680000
     76     77     1   0.15375 251793.120000
     77     78     1   0.14619 275056.160000
     95     96     1   0.15110 237065.440000
     95     97     1   0.15110 237065.440000
     95    102     1   0.15110 237065.440000
     96     98     1   0.15375 251793.120000
     97    100     1   0.15375 251793.120000
     98     99     1   0.15241 261918.400000
     99    105     1   0.12183 533627.360000
     99    260     1   0.13789 357815.680000
    100    101     1   0.15241 261918.400000
    101    106     1   0.12183 533627.360000
    101    286     1   0.13789 357815.680000
    102    103     1   0.15375 251793.120000
    103    104     1   0.14619 275056.160000
    121    122     1   0.15110 237065.440000
    121    123     1   0.15110 237065.440000
    121    128     1   0.15110 237065.440000
    122    124     1   0.15375 251793.120000
    123    126     1   0.15375 251793.120000
    124    125     1   0.15241 261918.400000
    125    131     1   0.12183 533627.360000
    125    312     1   0.13789 357815.680000
    126    127     1   0.15241 261918.400000
    127    132     1   0.12183 533627.360000
    127    338     1   0.13789 357815.680000
    128    129     1   0.15375 251793.120000
    129    130     1   0.14619 275056.160000
    147    148     1   0.15110 237065.440000
    147    149     1   0.15110 237065.440000
    147    154     1   0.15110 237065.440000
    148    150     1   0.15375 251793.120000
    149    152     1   0.15375 251793.120000
    150    151     1   0.15241 261918.400000
    151    355     1   0.13789 357815.680000
    151    157     1   0.12183 533627.360000
    152    153     1   0.15241 261918.400000
    153    158     1   0.12183 533627.360000
    153    367     1   0.13789 357815.680000
    154    155     1   0.15375 251793.120000
    155    156     1   0.14619 275056.160000
    173    174     1   0.15110 237065.440000
    173    175     1   0.15110 237065.440000
    173    180     1   0.15110 237065.440000
    174    176     1   0.15375 251793.120000
    175    178     1   0.15375 251793.120000
    176    177     1   0.15241 261918.400000
    177    379     1   0.13789 357815.680000
    177    183     1   0.12183 533627.360000
    178    179     1   0.15241 261918.400000
    179    184     1   0.12183 533627.360000
    179    391     1   0.13789 357815.680000
    180    181     1   0.15375 251793.120000
    181    182     1   0.14619 275056.160000
    199    200     1   0.15110 237065.440000
    199    201     1   0.15110 237065.440000
    199    206     1   0.15110 237065.440000
    200    202     1   0.15375 251793.120000
    201    204     1   0.15375 251793.120000
    202    203     1   0.15241 261918.400000
    203    403     1   0.13789 357815.680000
    203    209     1   0.12183 533627.360000
    204    205     1   0.15241 261918.400000
    205    210     1   0.12183 533627.360000
    205    415     1   0.13789 357815.680000
    206    207     1   0.15375 251793.120000
    207    208     1   0.14619 275056.160000
    225    226     1   0.15110 237065.440000
    225    227     1   0.15110 237065.440000
    225    232     1   0.15110 237065.440000
    226    228     1   0.15375 251793.120000
    227    230     1   0.15375 251793.120000
    228    229     1   0.15241 261918.400000
    229    427     1   0.13789 357815.680000
    229    235     1   0.12183 533627.360000
    230    231     1   0.15241 261918.400000
    231    236     1   0.12183 533627.360000
    231    439     1   0.13789 357815.680000
    232    233     1   0.15375 251793.120000
    233    234     1   0.14619 275056.160000
    251    252     1   0.15110 237065.440000
    251    253     1   0.15110 237065.440000
    251    258     1   0.15110 237065.440000
    252    254     1   0.15375 251793.120000
    253    256     1   0.15375 251793.120000
    254    255     1   0.15241 261918.400000
    255    451     1   0.13789 357815.680000
    255    261     1   0.12183 533627.360000
    256    257     1   0.15241 261918.400000
    257    262     1   0.12183 533627.360000
    257    463     1   0.13789 357815.680000
    258    259     1   0.15375 251793.120000
    259    260     1   0.14619 275056.160000
    277    278     1   0.15110 237065.440000
    277    279     1   0.15110 237065.440000
    277    284     1   0.15110 237065.440000
    278    280     1   0.15375 251793.120000
    279    282     1   0.15375 251793.120000
    280    281     1   0.15241 261918.400000
    281    475     1   0.13789 357815.680000
    281    287     1   0.12183 533627.360000
    282    283     1   0.15241 261918.400000
    283    288     1   0.12183 533627.360000
    283    487     1   0.13789 357815.680000
    284    285     1   0.15375 251793.120000
    285    286     1   0.14619 275056.160000
    303    304     1   0.15110 237065.440000
    303    305     1   0.15110 237065.440000
    303    310     1   0.15110 237065.440000
    304    306     1   0.15375 251793.120000
    305    308     1   0.15375 251793.120000
    306    307     1   0.15241 261918.400000
    307    499     1   0.13789 357815.680000
    307    313     1   0.12183 533627.360000
    308    309     1   0.15241 261918.400000
    309    314     1   0.12183 533627.360000
    309    511     1   0.13789 357815.680000
    310    311     1   0.15375 251793.120000
    311    312     1   0.14619 275056.160000
    329    330     1   0.15110 237065.440000
    329    331     1   0.15110 237065.440000
    329    336     1   0.15110 237065.440000
    330    332     1   0.15375 251793.120000
    331    334     1   0.15375 251793.120000
    332    333     1   0.15241 261918.400000
    333    523     1   0.13789 357815.680000
    333    339     1   0.12183 533627.360000
    334    335     1   0.15241 261918.400000
    335    535     1   0.13789 357815.680000
    335    340     1   0.12183 533627.360000
    336    337     1   0.15375 251793.120000
    337    338     1   0.14619 275056.160000
    355    357     1   0.14619 275056.160000
    357    358     1   0.15375 251793.120000
    358    363     1   0.15110 237065.440000
    367    369     1   0.14619 275056.160000
    369    370     1   0.15375 251793.120000
    370    375     1   0.15110 237065.440000
    379    381     1   0.14619 275056.160000
    381    382     1   0.15375 251793.120000
    382    387     1   0.15110 237065.440000
    391    393     1   0.14619 275056.160000
    393    394     1   0.15375 251793.120000
    394    399     1   0.15110 237065.440000
    403    405     1   0.14619 275056.160000
    405    406     1   0.15375 251793.120000
    406    411     1   0.15110 237065.440000
    415    417     1   0.14619 275056.160000
    417    418     1   0.15375 251793.120000
    418    423     1   0.15110 237065.440000
    427    429     1   0.14619 275056.160000
    429    430     1   0.15375 251793.120000
    430    435     1   0.15110 237065.440000
    439    441     1   0.14619 275056.160000
    441    442     1   0.15375 251793.120000
    442    447     1   0.15110 237065.440000
    451    453     1   0.14619 275056.160000
    453    454     1   0.15375 251793.120000
    454    459     1   0.15110 237065.440000
    463    465     1   0.14619 275056.160000
    465    466     1   0.15375 251793.120000
    466    471     1   0.15110 237065.440000
    475    477     1   0.14619 275056.160000
    477    478     1   0.15375 251793.120000
    478    483     1   0.15110 237065.440000
    487    489     1   0.14619 275056.160000
    489    490     1   0.15375 251793.120000
    490    495     1   0.15110 237065.440000
    499    501     1   0.14619 275056.160000
    501    502     1   0.15375 251793.120000
    502    507     1   0.15110 237065.440000
    511    513     1   0.14619 275056.160000
    513    514     1   0.15375 251793.120000
    514    519     1   0.15110 237065.440000
    523    525     1   0.14619 275056.160000
    525    526     1   0.15375 251793.120000
    526    531     1   0.15110 237065.440000
    535    537     1   0.14619 275056.160000
    537    538     1   0.15375 251793.120000
    538    543     1   0.15110 237065.440000
      1     41     1   0.10304 312293.760000
      2     21     1   0.10910 283424.160000
      2     22     1   0.10910 283424.160000
      3     23     1   0.10910 283424.160000
      3     24     1   0.10910 283424.160000
      4     42     1   0.10304 312293.760000
      5     25     1   0.10910 283424.160000
      5     26     1   0.10910 283424.160000
      6     27     1   0.10910 283424.160000
      6     28     1   0.10910 283424.160000
      7     29     1   0.10910 283424.160000
      7     30     1   0.10910 283424.160000
      8     31     1   0.10910 283424.160000
      8     32     1   0.10910 283424.160000
      9     33     1   0.10969 276646.080000
      9     34     1   0.10969 276646.080000
     11     35     1   0.10969 276646.080000
     11     36     1   0.10969 276646.080000
     13     37     1   0.10969 276646.080000
     13     38     1   0.10969 276646.080000
     15     39     1   0.10969 276646.080000
     15     40     1   0.10969 276646.080000
     43     68     1   0.10304 312293.760000
     44     55     1   0.10910 283424.160000
     44     56     1   0.10910 283424.160000
     45     57     1   0.10910 283424.160000
     45     58     1   0.10910 283424.160000
     46     59     1   0.10969 276646.080000
     46     60     1   0.10969 276646.080000
     48     61     1   0.10969 276646.080000
     48     62     1   0.10969 276646.080000
     50     63     1   0.10910 283424.160000
     50     64     1   0.10910 283424.160000
     51     65     1   0.10969 276646.080000
     51     66     1   0.10969 276646.080000
     52     67     1   0.10129 337397.760000
     69     94     1   0.10304 312293.760000
     70     81     1   0.10910 283424.160000
     70     82     1   0.10910 283424.160000
     71     83     1   0.10910 283424.160000
     71     84     1   0.10910 283424.160000
     72     85     1   0.10969 276646.080000
     72     86     1   0.10969 276646.080000
     74     87     1   0.10969 276646.080000
     74     88     1   0.10969 276646.080000
     76     89     1   0.10910 283424.160000
     76     90     1   0.10910 283424.160000
     77     91     1   0.10969 276646.080000
     77     92     1   0.10969 276646.080000
     78     93     1   0.10129 337397.760000
     95    120     1   0.10304 312293.760000
     96    107     1   0.10910 283424.160000
     96    108     1   0.10910 283424.160000
     97    109     1   0.10910 283424.160000
     97    110     1   0.10910 283424.160000
     98    111     1   0.10969 276646.080000
     98    112     1   0.10969 276646.080000
    100    113     1   0.10969 276646.080000
    100    114     1   0.10969 276646.080000
    102    115     1   0.10910 283424.160000
    102    116     1   0.10910 283424.160000
    103    117     1   0.10969 276646.080000
    103    118     1   0.10969 276646.080000
    104    119     1   0.10129 337397.760000
    121    146     1   0.10304 312293.760000
    122    133     1   0.10910 283424.160000
    122    134     1   0.10910 283424.160000
    123    135     1   0.10910 283424.160000
    123    136     1   0.10910 283424.160000
    124    137     1   0.10969 276646.080000
    124    138     1   0.10969 276646.080000
    126    139     1   0.10969 276646.080000
    126    140     1   0.10969 276646.080000
    128    141     1   0.10910 283424.160000
    128    142     1   0.10910 283424.160000
    129    143     1   0.10969 276646.080000
    129    144     1   0.10969 276646.080000
    130    145     1   0.10129 337397.760000
    147    172     1   0.10304 312293.760000
    148    159     1   0.10910 283424.160000
    148    160     1   0.10910 283424.160000
    149    161     1   0.10910 283424.160000
    149    162     1   0.10910 283424.160000
    150    163     1   0.10969 276646.080000
    150    164     1   0.10969 276646.080000
    152    165     1   0.10969 276646.080000
    152    166     1   0.10969 276646.080000
    154    167     1   0.10910 283424.160000
    154    168     1   0.10910 283424.160000
    155    169     1   0.10969 276646.080000
    155    170     1   0.10969 276646.080000
    156    171     1   0.10129 337397.760000
    173    198     1   0.10304 312293.760000
    174    185     1   0.10910 283424.160000
    174    186     1   0.10910 283424.160000
    175    187     1   0.10910 283424.160000
    175    188     1   0.10910 283424.160000
    176    189     1   0.10969 276646.080000
    176    190     1   0.10969 276646.080000
    178    191     1   0.10969 276646.080000
    178    192     1   0.10969 276646.080000
    180    193     1   0.10910 283424.160000
    180    194     1   0.10910 283424.160000
    181    195     1   0.10969 276646.080000
    181    196     1   0.10969 276646.080000
    182    197     1   0.10129 337397.760000
    199    224     1   0.10304 312293.760000
    200    211     1   0.10910 283424.160000
    200    212     1   0.10910 283424.160000
    201    213     1   0.10910 283424.160000
    201    214     1   0.10910 283424.160000
    202    215     1   0.10969 276646.080000
    202    216     1   0.10969 276646.080000
    204    217     1   0.10969 276646.080000
    204    218     1   0.10969 276646.080000
    206    219     1   0.10910 283424.160000
    206    220     1   0.10910 283424.160000
    207    221     1   0.10969 276646.080000
    207    222     1   0.10969 276646.080000
    208    223     1   0.10129 337397.760000
    225    250     1   0.10304 312293.760000
    226    237     1   0.10910 283424.160000
    226    238     1   0.10910 283424.160000
    227    239     1   0.10910 283424.160000
    227    240     1   0.10910 283424.160000
    228    241     1   0.10969 276646.080000
    228    242     1   0.10969 276646.080000
    230    243     1   0.10969 276646.080000
    230    244     1   0.10969 276646.080000
    232    245     1   0.10910 283424.160000
    232    246     1   0.10910 283424.160000
    233    247     1   0.10969 276646.080000
    233    248     1   0.10969 276646.080000
    234    249     1   0.10129 337397.760000
    251    276     1   0.10304 312293.760000
    252    263     1   0.10910 283424.160000
    252    264     1   0.10910 283424.160000
    253    265     1   0.10910 283424.160000
    253    266     1   0.10910 283424.160000
    254    267     1   0.10969 276646.080000
    254    268     1   0.10969 276646.080000
    256    269     1   0.10969 276646.080000
    256    270     1   0.10969 276646.080000
    258    271     1   0.10910 283424.160000
    258    272     1   0.10910 283424.160000
    259    273     1   0.10969 276646.080000
    259    274     1   0.10969 276646.080000
    260    275     1   0.10129 337397.760000
    277    302     1   0.10304 312293.760000
    278    289     1   0.10910 283424.160000
    278    290     1   0.10910 283424.160000
    279    291     1   0.10910 283424.160000
    279    292     1   0.10910 283424.160000
    280    293     1   0.10969 276646.080000
    280    294     1   0.10969 276646.080000
    282    295     1   0.10969 276646.080000
    282    296     1   0.10969 276646.080000
    284    297     1   0.10910 283424.160000
    284    298     1   0.10910 283424.160000
    285    299     1   0.10969 276646.080000
    285    300     1   0.10969 276646.080000
    286    301     1   0.10129 337397.760000
    303    328     1   0.10304 312293.760000
    304    315     1   0.10910 283424.160000
    304    316     1   0.10910 283424.160000
    305    317     1   0.10910 283424.160000
    305    318     1   0.10910 283424.160000
    306    319     1   0.10969 276646.080000
    306    320     1   0.10969 276646.080000
    308    321     1   0.10969 276646.080000
    308    322     1   0.10969 276646.080000
    310    323     1   0.10910 283424.160000
    310    324     1   0.10910 283424.160000
    311    325     1   0.10969 276646.080000
    311    326     1   0.10969 276646.080000
    312    327     1   0.10129 337397.760000
    329    354     1   0.10304 312293.760000
    330    341     1   0.10910 283424.160000
    330    342     1   0.10910 283424.160000
    331    343     1   0.10910 283424.160000
    331    344     1   0.10910 283424.160000
    332    345     1   0.10969 276646.080000
    332    346     1   0.10969 276646.080000
    334    347     1   0.10969 276646.080000
    334    348     1   0.10969 276646.080000
    336    349     1   0.10910 283424.160000
    336    350     1   0.10910 283424.160000
    337    351     1   0.10969 276646.080000
    337    352     1   0.10969 276646.080000
    338    353     1   0.10129 337397.760000
    355    356     1   0.10129 337397.760000
    357    359     1   0.10969 276646.080000
    357    360     1   0.10969 276646.080000
    358    361     1   0.10910 283424.160000
    358    362     1   0.10910 283424.160000
    363    364     1   0.10304 312293.760000
    363    365     1   0.10304 312293.760000
    363    366     1   0.10304 312293.760000
    367    368     1   0.10129 337397.760000
    369    371     1   0.10969 276646.080000
    369    372     1   0.10969 276646.080000
    370    373     1   0.10910 283424.160000
    370    374     1   0.10910 283424.160000
    375    376     1   0.10304 312293.760000
    375    377     1   0.10304 312293.760000
    375    378     1   0.10304 312293.760000
    379    380     1   0.10129 337397.760000
    381    383     1   0.10969 276646.080000
    381    384     1   0.10969 276646.080000
    382    385     1   0.10910 283424.160000
    382    386     1   0.10910 283424.160000
    387    388     1   0.10304 312293.760000
    387    389     1   0.10304 312293.760000
    387    390     1   0.10304 312293.760000
    391    392     1   0.10129 337397.760000
    393    395     1   0.10969 276646.080000
    393    396     1   0.10969 276646.080000
    394    397     1   0.10910 283424.160000
    394    398     1   0.10910 283424.160000
    399    400     1   0.10304 312293.760000
    399    401     1   0.10304 312293.760000
    399    402     1   0.10304 312293.760000
    403    404     1   0.10129 337397.760000
    405    407     1   0.10969 276646.080000
    405    408     1   0.10969 276646.080000
    406    409     1   0.10910 283424.160000
    406    410     1   0.10910 283424.160000
    411    412     1   0.10304 312293.760000
    411    413     1   0.10304 312293.760000
    411    414     1   0.10304 312293.760000
    415    416     1   0.10129 337397.760000
    417    419     1   0.10969 276646.080000
    417    420     1   0.10969 276646.080000
    418    421     1   0.10910 283424.160000
    418    422     1   0.10910 283424.160000
    423    424     1   0.10304 312293.760000
    423    425     1   0.10304 312293.760000
    423    426     1   0.10304 312293.760000
    427    428     1   0.10129 337397.760000
    429    431     1   0.10969 276646.080000
    429    432     1   0.10969 276646.080000
    430    433     1   0.10910 283424.160000
    430    434     1   0.10910 283424.160000
    435    436     1   0.10304 312293.760000
    435    437     1   0.10304 312293.760000
    435    438     1   0.10304 312293.760000
    439    440     1   0.10129 337397.760000
    441    443     1   0.10969 276646.080000
    441    444     1   0.10969 276646.080000
    442    445     1   0.10910 283424.160000
    442    446     1   0.10910 283424.160000
    447    448     1   0.10304 312293.760000
    447    449     1   0.10304 312293.760000
    447    450     1   0.10304 312293.760000
    451    452     1   0.10129 337397.760000
    453    455     1   0.10969 276646.080000
    453    456     1   0.10969 276646.080000
    454    457     1   0.10910 283424.160000
    454    458     1   0.10910 283424.160000
    459    460     1   0.10304 312293.760000
    459    461     1   0.10304 312293.760000
    459    462     1   0.10304 312293.760000
    463    464     1   0.10129 337397.760000
    465    467     1   0.10969 276646.080000
    465    468     1   0.10969 276646.080000
    466    469     1   0.10910 283424.160000
    466    470     1   0.10910 283424.160000
    471    472     1   0.10304 312293.760000
    471    473     1   0.10304 312293.760000
    471    474     1   0.10304 312293.760000
    475    476     1   0.10129 337397.760000
    477    479     1   0.10969 276646.080000
    477    480     1   0.10969 276646.080000
    478    481     1   0.10910 283424.160000
    478    482     1   0.10910 283424.160000
    483    484     1   0.10304 312293.760000
    483    485     1   0.10304 312293.760000
    483    486     1   0.10304 312293.760000
    487    488     1   0.10129 337397.760000
    489    491     1   0.10969 276646.080000
    489    492     1   0.10969 276646.080000
    490    493     1   0.10910 283424.160000
    490    494     1   0.10910 283424.160000
    495    496     1   0.10304 312293.760000
    495    497     1   0.10304 312293.760000
    495    498     1   0.10304 312293.760000
    499    500     1   0.10129 337397.760000
    501    503     1   0.10969 276646.080000
    501    504     1   0.10969 276646.080000
    502    505     1   0.10910 283424.160000
    502    506     1   0.10910 283424.160000
    507    508     1   0.10304 312293.760000
    507    509     1   0.10304 312293.760000
    507    510     1   0.10304 312293.760000
    511    512     1   0.10129 337397.760000
    513    515     1   0.10969 276646.080000
    513    516     1   0.10969 276646.080000
    514    517     1   0.10910 283424.160000
    514    518     1   0.10910 283424.160000
    519    520     1   0.10304 312293.760000
    519    521     1   0.10304 312293.760000
    519    522     1   0.10304 312293.760000
    523    524     1   0.10129 337397.760000
    525    527     1   0.10969 276646.080000
    525    528     1   0.10969 276646.080000
    526    529     1   0.10910 283424.160000
    526    530     1   0.10910 283424.160000
    531    532     1   0.10304 312293.760000
    531    533     1   0.10304 312293.760000
    531    534     1   0.10304 312293.760000
    535    536     1   0.10129 337397.760000
    537    539     1   0.10969 276646.080000
    537    540     1   0.10969 276646.080000
    538    541     1   0.10910 283424.160000
    538    542     1   0.10910 283424.160000
    543    544     1   0.10304 312293.760000
    543    545     1   0.10304 312293.760000
    543    546     1   0.10304 312293.760000

[ pairs ]
;    ai     aj funct         c0         c1         c2         c3
      1      4     1
      1     14     1
      1     16     1
      2     13     1
      2     15     1
      2      5     1
      2      6     1
      7      3     1
      8      3     1
      3     11     1
      3      9     1
      4     12     1
      4     10     1
      5      9     1
      5     17     1
      5     78     1
      6     11     1
      6     18     1
      6     52     1
      7     15     1
      7     20     1
      7    104     1
      8     13     1
      8     19     1
      8    130     1
      9     51     1
     10     50     1
     11     77     1
     12     76     1
     13    103     1
     14    102     1
     15    129     1
     16    128     1
     17     77     1
     18     51     1
     19    129     1
     20    103     1
     43     47     1
     43     49     1
     43     52     1
     44     48     1
     44     51     1
     44     53     1
     44    156     1
     45     46     1
     45     51     1
     45     54     1
     45    182     1
     46     50     1
     46    155     1
     47    154     1
     48     50     1
     48    181     1
     49    180     1
     53    155     1
     54    181     1
     69     73     1
     69     75     1
     69     78     1
     70     74     1
     70     77     1
     70     79     1
     70    208     1
     71     72     1
     71     77     1
     71     80     1
     71    234     1
     72     76     1
     72    207     1
     73    206     1
     74     76     1
     74    233     1
     75    232     1
     79    207     1
     80    233     1
     95     99     1
     95    101     1
     95    104     1
     96    100     1
     96    103     1
     96    105     1
     96    260     1
     97     98     1
     97    103     1
     97    106     1
     97    286     1
     98    102     1
     98    259     1
     99    258     1
    100    102     1
    100    285     1
    101    284     1
    105    259     1
    106    285     1
    121    125     1
    121    127     1
    121    130     1
    122    126     1
    122    129     1
    122    131     1
    122    312     1
    123    124     1
    123    129     1
    123    132     1
    123    338     1
    124    128     1
    124    311     1
    125    310     1
    126    128     1
    126    337     1
    127    336     1
    131    311     1
    132    337     1
    147    151     1
    147    153     1
    147    156     1
    148    152     1
    148    155     1
    148    355     1
    148    157     1
    149    150     1
    149    155     1
    149    158     1
    149    367     1
    150    154     1
    150    357     1
    151    358     1
    152    154     1
    152    369     1
    153    370     1
    157    357     1
    158    369     1
    173    177     1
    173    179     1
    173    182     1
    174    178     1
    174    181     1
    174    379     1
    174    183     1
    175    176     1
    175    181     1
    175    184     1
    175    391     1
    176    180     1
    176    381     1
    177    382     1
    178    180     1
    178    393     1
    179    394     1
    183    381     1
    184    393     1
    199    203     1
    199    205     1
    199    208     1
    200    204     1
    200    207     1
    200    403     1
    200    209     1
    201    202     1
    201    207     1
    201    210     1
    201    415     1
    202    206     1
    202    405     1
    203    406     1
    204    206     1
    204    417     1
    205    418     1
    209    405     1
    210    417     1
    225    229     1
    225    231     1
    225    234     1
    226    230     1
    226    233     1
    226    427     1
    226    235     1
    227    228     1
    227    233     1
    227    236     1
    227    439     1
    228    232     1
    228    429     1
    229    430     1
    230    232     1
    230    441     1
    231    442     1
    235    429     1
    236    441     1
    251    255     1
    251    257     1
    251    260     1
    252    256     1
    252    259     1
    252    451     1
    252    261     1
    253    254     1
    253    259     1
    253    262     1
    253    463     1
    254    258     1
    254    453     1
    255    454     1
    256    258     1
    256    465     1
    257    466     1
    261    453     1
    262    465     1
    277    281     1
    277    283     1
    277    286     1
    278    282     1
    278    285     1
    278    475     1
    278    287     1
    279    280     1
    279    285     1
    279    288     1
    279    487     1
    280    284     1
    280    477     1
    281    478     1
    282    284     1
    282    489     1
    283    490     1
    287    477     1
    288    489     1
    303    307     1
    303    309     1
    303    312     1
    304    308     1
    304    311     1
    304    499     1
    304    313     1
    305    306     1
    305    311     1
    305    314     1
    305    511     1
    306    310     1
    306    501     1
    307    502     1
    308    310     1
    308    513     1
    309    514     1
    313    501     1
    314    513     1
    329    333     1
    329    335     1
    329    338     1
    330    334     1
    330    337     1
    330    523     1
    330    339     1
    331    332     1
    331    337     1
    331    535     1
    331    340     1
    332    336     1
    332    525     1
    333    526     1
    334    336     1
    334    537     1
    335    538     1
    339    525     1
    340    537     1
    355    363     1
    367    375     1
    379    387     1
    391    399     1
    403    411     1
    415    423     1
    427    435     1
    439    447     1
    451    459     1
    463    471     1
    475    483     1
    487    495     1
    499    507     1
    511    519     1
    523    531     1
    535    543     1
      1     23     1
      1     24     1
      1     37     1
      1     38     1
      1     39     1
      1     40     1
      2     29     1
      2     30     1
      2     31     1
      2     32     1
      2     42     1
     41      3     1
      3     25     1
      3     26     1
      3     27     1
      3     28     1
      4     21     1
      4     22     1
      4     35     1
      4     36     1
      4     33     1
      4     34     1
      5     23     1
      5     24     1
      5     27     1
      5     28     1
      6     23     1
      6     24     1
      6     25     1
      6     26     1
      7     21     1
      7     22     1
      7     31     1
      7     32     1
      8     21     1
      8     22     1
      8     29     1
      8     30     1
      9     42     1
      9     67     1
     10     27     1
     10     28     1
     10     65     1
     10     66     1
     11     42     1
     11     93     1
     12     25     1
     12     26     1
     12     91     1
     12     92     1
     41     13     1
     13    119     1
     14     29     1
     14     30     1
     14    117     1
     14    118     1
     41     15     1
     15    145     1
     16     31     1
     16     32     1
     16    143     1
     16    144     1
     17     35     1
     17     36     1
     17     93     1
     18     33     1
     18     34     1
     18     67     1
     19     39     1
     19     40     1
     19    145     1
     20     37     1
     20     38     1
     20    119     1
     41     21     1
     21     23     1
     21     24     1
     41     22     1
     22     23     1
     22     24     1
     23     42     1
     24     42     1
     25     42     1
     25     35     1
     25     36     1
     26     42     1
     26     35     1
     26     36     1
     27     42     1
     27     33     1
     27     34     1
     28     42     1
     28     33     1
     28     34     1
     41     29     1
     29     37     1
     29     38     1
     41     30     1
     30     37     1
     30     38     1
     41     31     1
     31     39     1
     31     40     1
     41     32     1
     32     39     1
     32     40     1
     33     52     1
     34     52     1
     35     78     1
     36     78     1
     37    104     1
     38    104     1
     39    130     1
     40    130     1
     43     59     1
     43     60     1
     43     61     1
     43     62     1
     43     65     1
     43     66     1
     44     57     1
     44     58     1
     44     63     1
     44     64     1
     45     55     1
     45     56     1
     45     63     1
     45     64     1
     46     68     1
     46    171     1
     47     55     1
     47     56     1
     47    169     1
     47    170     1
     48     68     1
     48    197     1
     49     57     1
     49     58     1
     49    195     1
     49    196     1
     50     55     1
     50     56     1
     50     57     1
     50     58     1
     50     67     1
     51     68     1
     52     63     1
     52     64     1
     53     59     1
     53     60     1
     53    171     1
     54     61     1
     54     62     1
     54    197     1
     55     68     1
     55     59     1
     55     60     1
     56     68     1
     56     59     1
     56     60     1
     57     68     1
     57     61     1
     57     62     1
     58     68     1
     58     61     1
     58     62     1
     59    156     1
     60    156     1
     61    182     1
     62    182     1
     63     68     1
     63     65     1
     63     66     1
     64     68     1
     64     65     1
     64     66     1
     65     67     1
     66     67     1
     69     85     1
     69     86     1
     69     87     1
     69     88     1
     69     91     1
     69     92     1
     70     83     1
     70     84     1
     70     89     1
     70     90     1
     71     81     1
     71     82     1
     71     89     1
     71     90     1
     72     94     1
     72    223     1
     73     81     1
     73     82     1
     73    221     1
     73    222     1
     74     94     1
     74    249     1
     75     83     1
     75     84     1
     75    247     1
     75    248     1
     76     81     1
     76     82     1
     76     83     1
     76     84     1
     76     93     1
     77     94     1
     78     89     1
     78     90     1
     79     85     1
     79     86     1
     79    223     1
     80     87     1
     80     88     1
     80    249     1
     81     94     1
     81     85     1
     81     86     1
     82     94     1
     82     85     1
     82     86     1
     83     94     1
     83     87     1
     83     88     1
     84     94     1
     84     87     1
     84     88     1
     85    208     1
     86    208     1
     87    234     1
     88    234     1
     89     94     1
     89     91     1
     89     92     1
     90     94     1
     90     91     1
     90     92     1
     91     93     1
     92     93     1
     95    111     1
     95    112     1
     95    113     1
     95    114     1
     95    117     1
     95    118     1
     96    109     1
     96    110     1
     96    115     1
     96    116     1
     97    107     1
     97    108     1
     97    115     1
     97    116     1
     98    120     1
     98    275     1
     99    107     1
     99    108     1
     99    273     1
     99    274     1
    100    120     1
    100    301     1
    101    109     1
    101    110     1
    101    299     1
    101    300     1
    102    107     1
    102    108     1
    102    109     1
    102    110     1
    102    119     1
    103    120     1
    104    115     1
    104    116     1
    105    111     1
    105    112     1
    105    275     1
    106    113     1
    106    114     1
    106    301     1
    107    120     1
    107    111     1
    107    112     1
    108    120     1
    108    111     1
    108    112     1
    109    120     1
    109    113     1
    109    114     1
    110    120     1
    110    113     1
    110    114     1
    111    260     1
    112    260     1
    113    286     1
    114    286     1
    115    120     1
    115    117     1
    115    118     1
    116    120     1
    116    117     1
    116    118     1
    117    119     1
    118    119     1
    121    137     1
    121    138     1
    121    139     1
    121    140     1
    121    143     1
    121    144     1
    122    135     1
    122    136     1
    122    141     1
    122    142     1
    123    133     1
    123    134     1
    123    141     1
    123    142     1
    124    146     1
    124    327     1
    125    133     1
    125    134     1
    125    325     1
    125    326     1
    126    146     1
    126    353     1
    127    135     1
    127    136     1
    127    351     1
    127    352     1
    128    133     1
    128    134     1
    128    135     1
    128    136     1
    128    145     1
    129    146     1
    130    141     1
    130    142     1
    131    137     1
    131    138     1
    131    327     1
    132    139     1
    132    140     1
    132    353     1
    133    146     1
    133    137     1
    133    138     1
    134    146     1
    134    137     1
    134    138     1
    135    146     1
    135    139     1
    135    140     1
    136    146     1
    136    139     1
    136    140     1
    137    312     1
    138    312     1
    139    338     1
    140    338     1
    141    146     1
    141    143     1
    141    144     1
    142    146     1
    142    143     1
    142    144     1
    143    145     1
    144    145     1
    147    163     1
    147    164     1
    147    165     1
    147    166     1
    147    169     1
    147    170     1
    148    161     1
    148    162     1
    148    167     1
    148    168     1
    149    159     1
    149    160     1
    149    167     1
    149    168     1
    150    172     1
    150    356     1
    151    159     1
    151    160     1
    151    359     1
    151    360     1
    152    172     1
    152    368     1
    153    161     1
    153    162     1
    153    371     1
    153    372     1
    154    159     1
    154    160     1
    154    161     1
    154    162     1
    154    171     1
    155    172     1
    156    167     1
    156    168     1
    157    163     1
    157    164     1
    157    356     1
    158    165     1
    158    166     1
    158    368     1
    159    172     1
    159    163     1
    159    164     1
    160    172     1
    160    163     1
    160    164     1
    161    172     1
    161    165     1
    161    166     1
    162    172     1
    162    165     1
    162    166     1
    163    355     1
    164    355     1
    165    367     1
    166    367     1
    167    172     1
    167    169     1
    167    170     1
    168    172     1
    168    169     1
    168    170     1
    169    171     1
    170    171     1
    173    189     1
    173    190     1
    173    191     1
    173    192     1
    173    195     1
    173    196     1
    174    187     1
    174    188     1
    174    193     1
    174    194     1
    175    185     1
    175    186     1
    175    193     1
    175    194     1
    176    198     1
    176    380     1
    177    185     1
    177    186     1
    177    383     1
    177    384     1
    178    198     1
    178    392     1
    179    187     1
    179    188     1
    179    395     1
    179    396     1
    180    185     1
    180    186     1
    180    187     1
    180    188     1
    180    197     1
    181    198     1
    182    193     1
    182    194     1
    183    189     1
    183    190     1
    183    380     1
    184    191     1
    184    192     1
    184    392     1
    185    198     1
    185    189     1
    185    190     1
    186    198     1
    186    189     1
    186    190     1
    187    198     1
    187    191     1
    187    192     1
    188    198     1
    188    191     1
    188    192     1
    189    379     1
    190    379     1
    191    391     1
    192    391     1
    193    198     1
    193    195     1
    193    196     1
    194    198     1
    194    195     1
    194    196     1
    195    197     1
    196    197     1
    199    215     1
    199    216     1
    199    217     1
    199    218     1
    199    221     1
    199    222     1
    200    213     1
    200    214     1
    200    219     1
    200    220     1
    201    211     1
    201    212     1
    201    219     1
    201    220     1
    202    224     1
    202    404     1
    203    211     1
    203    212     1
    203    407     1
    203    408     1
    204    224     1
    204    416     1
    205    213     1
    205    214     1
    205    419     1
    205    420     1
    206    211     1
    206    212     1
    206    213     1
    206    214     1
    206    223     1
    207    224     1
    208    219     1
    208    220     1
    209    215     1
    209    216     1
    209    404     1
    210    217     1
    210    218     1
    210    416     1
    211    224     1
    211    215     1
    211    216     1
    212    224     1
    212    215     1
    212    216     1
    213    224     1
    213    217     1
    213    218     1
    214    224     1
    214    217     1
    214    218     1
    215    403     1
    216    403     1
    217    415     1
    218    415     1
    219    224     1
    219    221     1
    219    222     1
    220    224     1
    220    221     1
    220    222     1
    221    223     1
    222    223     1
    225    241     1
    225    242     1
    225    243     1
    225    244     1
    225    247     1
    225    248     1
    226    239     1
    226    240     1
    226    245     1
    226    246     1
    227    237     1
    227    238     1
    227    245     1
    227    246     1
    228    250     1
    228    428     1
    229    237     1
    229    238     1
    229    431     1
    229    432     1
    230    250     1
    230    440     1
    231    239     1
    231    240     1
    231    443     1
    231    444     1
    232    237     1
    232    238     1
    232    239     1
    232    240     1
    232    249     1
    233    250     1
    234    245     1
    234    246     1
    235    241     1
    235    242     1
    235    428     1
    236    243     1
    236    244     1
    236    440     1
    237    250     1
    237    241     1
    237    242     1
    238    250     1
    238    241     1
    238    242     1
    239    250     1
    239    243     1
    239    244     1
    240    250     1
    240    243     1
    240    244     1
    241    427     1
    242    427     1
    243    439     1
    244    439     1
    245    250     1
    245    247     1
    245    248     1
    246    250     1
    246    247     1
    246    248     1
    247    249     1
    248    249     1
    251    267     1
    251    268     1
    251    269     1
    251    270     1
    251    273     1
    251    274     1
    252    265     1
    252    266     1
    252    271     1
    252    272     1
    253    263     1
    253    264     1
    253    271     1
    253    272     1
    254    276     1
    254    452     1
    255    263     1
    255    264     1
    255    455     1
    255    456     1
    256    276     1
    256    464     1
    257    265     1
    257    266     1
    257    467     1
    257    468     1
    258    263     1
    258    264     1
    258    265     1
    258    266     1
    258    275     1
    259    276     1
    260    271     1
    260    272     1
    261    267     1
    261    268     1
    261    452     1
    262    269     1
    262    270     1
    262    464     1
    263    276     1
    263    267     1
    263    268     1
    264    276     1
    264    267     1
    264    268     1
    265    276     1
    265    269     1
    265    270     1
    266    276     1
    266    269     1
    266    270     1
    267    451     1
    268    451     1
    269    463     1
    270    463     1
    271    276     1
    271    273     1
    271    274     1
    272    276     1
    272    273     1
    272    274     1
    273    275     1
    274    275     1
    277    293     1
    277    294     1
    277    295     1
    277    296     1
    277    299     1
    277    300     1
    278    291     1
    278    292     1
    278    297     1
    278    298     1
    279    289     1
    279    290     1
    279    297     1
    279    298     1
    280    302     1
    280    476     1
    281    289     1
    281    290     1
    281    479     1
    281    480     1
    282    302     1
    282    488     1
    283    291     1
    283    292     1
    283    491     1
    283    492     1
    284    289     1
    284    290     1
    284    291     1
    284    292     1
    284    301     1
    285    302     1
    286    297     1
    286    298     1
    287    293     1
    287    294     1
    287    476     1
    288    295     1
    288    296     1
    288    488     1
    289    302     1
    289    293     1
    289    294     1
    290    302     1
    290    293     1
    290    294     1
    291    302     1
    291    295     1
    291    296     1
    292    302     1
    292    295     1
    292    296     1
    293    475     1
    294    475     1
    295    487     1
    296    487     1
    297    302     1
    297    299     1
    297    300     1
    298    302     1
    298    299     1
    298    300     1
    299    301     1
    300    301     1
    303    319     1
    303    320     1
    303    321     1
    303    322     1
    303    325     1
    303    326     1
    304    317     1
    304    318     1
    304    323     1
    304    324     1
    305    315     1
    305    316     1
    305    323     1
    305    324     1
    306    328     1
    306    500     1
    307    315     1
    307    316     1
    307    503     1
    307    504     1
    308    328     1
    308    512     1
    309    317     1
    309    318     1
    309    515     1
    309    516     1
    310    315     1
    310    316     1
    310    317     1
    310    318     1
    310    327     1
    311    328     1
    312    323     1
    312    324     1
    313    319     1
    313    320     1
    313    500     1
    314    321     1
    314    322     1
    314    512     1
    315    328     1
    315    319     1
    315    320     1
    316    328     1
    316    319     1
    316    320     1
    317    328     1
    317    321     1
    317    322     1
    318    328     1
    318    321     1
    318    322     1
    319    499     1
    320    499     1
    321    511     1
    322    511     1
    323    328     1
    323    325     1
    323    326     1
    324    328     1
    324    325     1
    324    326     1
    325    327     1
    326    327     1
    329    345     1
    329    346     1
    329    347     1
    329    348     1
    329    351     1
    329    352     1
    330    343     1
    330    344     1
    330    349     1
    330    350     1
    331    341     1
    331    342     1
    331    349     1
    331    350     1
    332    354     1
    332    524     1
    333    341     1
    333    342     1
    333    527     1
    333    528     1
    334    354     1
    334    536     1
    335    343     1
    335    344     1
    335    539     1
    335    540     1
    336    341     1
    336    342     1
    336    343     1
    336    344     1
    336    353     1
    337    354     1
    338    349     1
    338    350     1
    339    345     1
    339    346     1
    339    524     1
    340    347     1
    340    348     1
    340    536     1
    341    354     1
    341    345     1
    341    346     1
    342    354     1
    342    345     1
    342    346     1
    343    354     1
    343    347     1
    343    348     1
    344    354     1
    344    347     1
    344    348     1
    345    523     1
    346    523     1
    347    535     1
    348    535     1
    349    354     1
    349    351     1
    349    352     1
    350    354     1
    350    351     1
    350    352     1
    351    353     1
    352    353     1
    355    361     1
    355    362     1
    356    358     1
    356    359     1
    356    360     1
    357    364     1
    357    365     1
    357    366     1
    359    363     1
    359    361     1
    359    362     1
    360    363     1
    360    361     1
    360    362     1
    361    364     1
    361    365     1
    361    366     1
    362    364     1
    362    365     1
    362    366     1
    367    373     1
    367    374     1
    368    370     1
    368    371     1
    368    372     1
    369    376     1
    369    377     1
    369    378     1
    371    375     1
    371    373     1
    371    374     1
    372    375     1
    372    373     1
    372    374     1
    373    376     1
    373    377     1
    373    378     1
    374    376     1
    374    377     1
    374    378     1
    379    385     1
    379    386     1
    380    382     1
    380    383     1
    380    384     1
    381    388     1
    381    389     1
    381    390     1
    383    387     1
    383    385     1
    383    386     1
    384    387     1
    384    385     1
    384    386     1
    385    388     1
    385    389     1
    385    390     1
    386    388     1
    386    389     1
    386    390     1
    391    397     1
    391    398     1
    392    394     1
    392    395     1
    392    396     1
    393    400     1
    393    401     1
    393    402     1
    395    399     1
    395    397     1
    395    398     1
    396    399     1
    396    397     1
    396    398     1
    397    400     1
    397    401     1
    397    402     1
    398    400     1
    398    401     1
    398    402     1
    403    409     1
    403    410     1
    404    406     1
    404    407     1
    404    408     1
    405    412     1
    405    413     1
    405    414     1
    407    411     1
    407    409     1
    407    410     1
    408    411     1
    408    409     1
    408    410     1
    409    412     1
    409    413     1
    409    414     1
    410    412     1
    410    413     1
    410    414     1
    415    421     1
    415    422     1
    416    418     1
    416    419     1
    416    420     1
    417    424     1
    417    425     1
    417    426     1
    419    423     1
    419    421     1
    419    422     1
    420    423     1
    420    421     1
    420    422     1
    421    424     1
    421    425     1
    421    426     1
    422    424     1
    422    425     1
    422    426     1
    427    433     1
    427    434     1
    428    430     1
    428    431     1
    428    432     1
    429    436     1
    429    437     1
    429    438     1
    431    435     1
    431    433     1
    431    434     1
    432    435     1
    432    433     1
    432    434     1
    433    436     1
    433    437     1
    433    438     1
    434    436     1
    434    437     1
    434    438     1
    439    445     1
    439    446     1
    440    442     1
    440    443     1
    440    444     1
    441    448     1
    441    449     1
    441    450     1
    443    447     1
    443    445     1
    443    446     1
    444    447     1
    444    445     1
    444    446     1
    445    448     1
    445    449     1
    445    450     1
    446    448     1
    446    449     1
    446    450     1
    451    457     1
    451    458     1
    452    454     1
    452    455     1
    452    456     1
    453    460     1
    453    461     1
    453    462     1
    455    459     1
    455    457     1
    455    458     1
    456    459     1
    456    457     1
    456    458     1
    457    460     1
    457    461     1
    457    462     1
    458    460     1
    458    461     1
    458    462     1
    463    469     1
    463    470     1
    464    466     1
    464    467     1
    464    468     1
    465    472     1
    465    473     1
    465    474     1
    467    471     1
    467    469     1
    467    470     1
    468    471     1
    468    469     1
    468    470     1
    469    472     1
    469    473     1
    469    474     1
    470    472     1
    470    473     1
    470    474     1
    475    481     1
    475    482     1
    476    478     1
    476    479     1
    476    480     1
    477    484     1
    477    485     1
    477    486     1
    479    483     1
    479    481     1
    479    482     1
    480    483     1
    480    481     1
    480    482     1
    481    484     1
    481    485     1
    481    486     1
    482    484     1
    482    485     1
    482    486     1
    487    493     1
    487    494     1
    488    490     1
    488    491     1
    488    492     1
    489    496     1
    489    497     1
    489    498     1
    491    495     1
    491    493     1
    491    494     1
    492    495     1
    492    493     1
    492    494     1
    493    496     1
    493    497     1
    493    498     1
    494    496     1
    494    497     1
    494    498     1
    499    505     1
    499    506     1
    500    502     1
    500    503     1
    500    504     1
    501    508     1
    501    509     1
    501    510     1
    503    507     1
    503    505     1
    503    506     1
    504    507     1
    504    505     1
    504    506     1
    505    508     1
    505    509     1
    505    510     1
    506    508     1
    506    509     1
    506    510     1
    511    517     1
    511    518     1
    512    514     1
    512    515     1
    512    516     1
    513    520     1
    513    521     1
    513    522     1
    515    519     1
    515    517     1
    515    518     1
    516    519     1
    516    517     1
    516    518     1
    517    520     1
    517    521     1
    517    522     1
    518    520     1
    518    521     1
    518    522     1
    523    529     1
    523    530     1
    524    526     1
    524    527     1
    524    528     1
    525    532     1
    525    533     1
    525    534     1
    527    531     1
    527    529     1
    527    530     1
    528    531     1
    528    529     1
    528    530     1
    529    532     1
    529    533     1
    529    534     1
    530    532     1
    530    533     1
    530    534     1
    535    541     1
    535    542     1
    536    538     1
    536    539     1
    536    540     1
    537    544     1
    537    545     1
    537    546     1
    539    543     1
    539    541     1
    539    542     1
    540    543     1
    540    541     1
    540    542     1
    541    544     1
    541    545     1
    541    546     1
    542    544     1
    542    545     1
    542    546     1

[ angles ]
;    ai     aj     ak funct         c0         c1         c2         c3
      1      2      3     1   114.2100488 537.225600
      1      7     13     1   114.2100488 537.225600
      1      8     15     1   114.2100488 537.225600
      2      1      7     1   109.6600471 523.836800
      2      1      8     1   109.6600471 523.836800
      2      3      4     1   114.2100488 537.225600
      3      4      5     1   109.6600471 523.836800
      3      4      6     1   109.6600471 523.836800
      4      5     11     1   114.2100488 537.225600
      4      6      9     1   114.2100488 537.225600
      5      4      6     1   109.6600471 523.836800
      5     11     12     1   111.0400475 529.694400
      6      9     10     1   111.0400475 529.694400
      7      1      8     1   109.6600471 523.836800
      7     13     14     1   111.0400475 529.694400
      8     15     16     1   111.0400475 529.694400
      9     10     18     1   123.2000528 564.003200
      9     10     52     1   115.1800491 558.982400
     10     52     51     1   120.6900519 530.531200
     11     12     17     1   123.2000528 564.003200
     11     12     78     1   115.1800491 558.982400
     12     78     77     1   120.6900519 530.531200
     13     14     20     1   123.2000528 564.003200
     13     14    104     1   115.1800491 558.982400
     14    104    103     1   120.6900519 530.531200
     15     16     19     1   123.2000528 564.003200
     15     16    130     1   115.1800491 558.982400
     16    130    129     1   120.6900519 530.531200
     17     12     78     1   123.0500530 620.905600
     18     10     52     1   123.0500530 620.905600
     19     16    130     1   123.0500530 620.905600
     20     14    104     1   123.0500530 620.905600
     43     44     46     1   114.2100488 537.225600
     43     45     48     1   114.2100488 537.225600
     43     50     51     1   114.2100488 537.225600
     44     43     45     1   109.6600471 523.836800
     44     43     50     1   109.6600471 523.836800
     44     46     47     1   111.0400475 529.694400
     45     43     50     1   109.6600471 523.836800
     45     48     49     1   111.0400475 529.694400
     46     47     53     1   123.2000528 564.003200
     46     47    156     1   115.1800491 558.982400
     47    156    155     1   120.6900519 530.531200
     48     49     54     1   123.2000528 564.003200
     48     49    182     1   115.1800491 558.982400
     49    182    181     1   120.6900519 530.531200
     50     51     52     1   111.6100477 551.451200
     53     47    156     1   123.0500530 620.905600
     54     49    182     1   123.0500530 620.905600
     69     70     72     1   114.2100488 537.225600
     69     71     74     1   114.2100488 537.225600
     69     76     77     1   114.2100488 537.225600
     70     69     71     1   109.6600471 523.836800
     70     69     76     1   109.6600471 523.836800
     70     72     73     1   111.0400475 529.694400
     71     69     76     1   109.6600471 523.836800
     71     74     75     1   111.0400475 529.694400
     72     73     79     1   123.2000528 564.003200
     72     73    208     1   115.1800491 558.982400
     73    208    207     1   120.6900519 530.531200
     74     75     80     1   123.2000528 564.003200
     74     75    234     1   115.1800491 558.982400
     75    234    233     1   120.6900519 530.531200
     76     77     78     1   111.6100477 551.451200
     79     73    208     1   123.0500530 620.905600
     80     75    234     1   123.0500530 620.905600
     95     96     98     1   114.2100488 537.225600
     95     97    100     1   114.2100488 537.225600
     95    102    103     1   114.2100488 537.225600
     96     95     97     1   109.6600471 523.836800
     96     95    102     1   109.6600471 523.836800
     96     98     99     1   111.0400475 529.694400
     97     95    102     1   109.6600471 523.836800
     97    100    101     1   111.0400475 529.694400
     98     99    105     1   123.2000528 564.003200
     98     99    260     1   115.1800491 558.982400
     99    260    259     1   120.6900519 530.531200
    100    101    106     1   123.2000528 564.003200
    100    101    286     1   115.1800491 558.982400
    101    286    285     1   120.6900519 530.531200
    102    103    104     1   111.6100477 551.451200
    105     99    260     1   123.0500530 620.905600
    106    101    286     1   123.0500530 620.905600
    121    122    124     1   114.2100488 537.225600
    121    123    126     1   114.2100488 537.225600
    121    128    129     1   114.2100488 537.225600
    122    121    123     1   109.6600471 523.836800
    122    121    128     1   109.6600471 523.836800
    122    124    125     1   111.0400475 529.694400
    123    121    128     1   109.6600471 523.836800
    123    126    127     1   111.0400475 529.694400
    124    125    131     1   123.2000528 564.003200
    124    125    312     1   115.1800491 558.982400
    125    312    311     1   120.6900519 530.531200
    126    127    132     1   123.2000528 564.003200
    126    127    338     1   115.1800491 558.982400
    127    338    337     1   120.6900519 530.531200
    128    129    130     1   111.6100477 551.451200
    131    125    312     1   123.0500530 620.905600
    132    127    338     1   123.0500530 620.905600
    147    148    150     1   114.2100488 537.225600
    147    149    152     1   114.2100488 537.225600
    147    154    155     1   114.2100488 537.225600
    148    147    149     1   109.6600471 523.836800
    148    147    154     1   109.6600471 523.836800
    148    150    151     1   111.0400475 529.694400
    149    147    154     1   109.6600471 523.836800
    149    152    153     1   111.0400475 529.694400
    150    151    355     1   115.1800491 558.982400
    150    151    157     1   123.2000528 564.003200
    151    355    357     1   120.6900519 530.531200
    152    153    158     1   123.2000528 564.003200
    152    153    367     1   115.1800491 558.982400
    153    367    369     1   120.6900519 530.531200
    154    155    156     1   111.6100477 551.451200
    157    151    355     1   123.0500530 620.905600
    158    153    367     1   123.0500530 620.905600
    173    174    176     1   114.2100488 537.225600
    173    175    178     1   114.2100488 537.225600
    173    180    181     1   114.2100488 537.225600
    174    173    175     1   109.6600471 523.836800
    174    173    180     1   109.6600471 523.836800
    174    176    177     1   111.0400475 529.694400
    175    173    180     1   109.6600471 523.836800
    175    178    179     1   111.0400475 529.694400
    176    177    379     1   115.1800491 558.982400
    176    177    183     1   123.2000528 564.003200
    177    379    381     1   120.6900519 530.531200
    178    179    184     1   123.2000528 564.003200
    178    179    391     1   115.1800491 558.982400
    179    391    393     1   120.6900519 530.531200
    180    181    182     1   111.6100477 551.451200
    183    177    379     1   123.0500530 620.905600
    184    179    391     1   123.0500530 620.905600
    199    200    202     1   114.2100488 537.225600
    199    201    204     1   114.2100488 537.225600
    199    206    207     1   114.2100488 537.225600
    200    199    201     1   109.6600471 523.836800
    200    199    206     1   109.6600471 523.836800
    200    202    203     1   111.0400475 529.694400
    201    199    206     1   109.6600471 523.836800
    201    204    205     1   111.0400475 529.694400
    202    203    403     1   115.1800491 558.982400
    202    203    209     1   123.2000528 564.003200
    203    403    405     1   120.6900519 530.531200
    204    205    210     1   123.2000528 564.003200
    204    205    415     1   115.1800491 558.982400
    205    415    417     1   120.6900519 530.531200
    206    207    208     1   111.6100477 551.451200
    209    203    403     1   123.0500530 620.905600
    210    205    415     1   123.0500530 620.905600
    225    226    228     1   114.2100488 537.225600
    225    227    230     1   114.2100488 537.225600
    225    232    233     1   114.2100488 537.225600
    226    225    227     1   109.6600471 523.836800
    226    225    232     1   109.6600471 523.836800
    226    228    229     1   111.0400475 529.694400
    227    225    232     1   109.6600471 523.836800
    227    230    231     1   111.0400475 529.694400
    228    229    427     1   115.1800491 558.982400
    228    229    235     1   123.2000528 564.003200
    229    427    429     1   120.6900519 530.531200
    230    231    236     1   123.2000528 564.003200
    230    231    439     1   115.1800491 558.982400
    231    439    441     1   120.6900519 530.531200
    232    233    234     1   111.6100477 551.451200
    235    229    427     1   123.0500530 620.905600
    236    231    439     1   123.0500530 620.905600
    251    252    254     1   114.2100488 537.225600
    251    253    256     1   114.2100488 537.225600
    251    258    259     1   114.2100488 537.225600
    252    251    253     1   109.6600471 523.836800
    252    251    258     1   109.6600471 523.836800
    252    254    255     1   111.0400475 529.694400
    253    251    258     1   109.6600471 523.836800
    253    256    257     1   111.0400475 529.694400
    254    255    451     1   115.1800491 558.982400
    254    255    261     1   123.2000528 564.003200
    255    451    453     1   120.6900519 530.531200
    256    257    262     1   123.2000528 564.003200
    256    257    463     1   115.1800491 558.982400
    257    463    465     1   120.6900519 530.531200
    258    259    260     1   111.6100477 551.451200
    261    255    451     1   123.0500530 620.905600
    262    257    463     1   123.0500530 620.905600
    277    278    280     1   114.2100488 537.225600
    277    279    282     1   114.2100488 537.225600
    277    284    285     1   114.2100488 537.225600
    278    277    279     1   109.6600471 523.836800
    278    277    284     1   109.6600471 523.836800
    278    280    281     1   111.0400475 529.694400
    279    277    284     1   109.6600471 523.836800
    279    282    283     1   111.0400475 529.694400
    280    281    475     1   115.1800491 558.982400
    280    281    287     1   123.2000528 564.003200
    281    475    477     1   120.6900519 530.531200
    282    283    288     1   123.2000528 564.003200
    282    283    487     1   115.1800491 558.982400
    283    487    489     1   120.6900519 530.531200
    284    285    286     1   111.6100477 551.451200
    287    281    475     1   123.0500530 620.905600
    288    283    487     1   123.0500530 620.905600
    303    304    306     1   114.2100488 537.225600
    303    305    308     1   114.2100488 537.225600
    303    310    311     1   114.2100488 537.225600
    304    303    305     1   109.6600471 523.836800
    304    303    310     1   109.6600471 523.836800
    304    306    307     1   111.0400475 529.694400
    305    303    310     1   109.6600471 523.836800
    305    308    309     1   111.0400475 529.694400
    306    307    499     1   115.1800491 558.982400
    306    307    313     1   123.2000528 564.003200
    307    499    501     1   120.6900519 530.531200
    308    309    314     1   123.2000528 564.003200
    308    309    511     1   115.1800491 558.982400
    309    511    513     1   120.6900519 530.531200
    310    311    312     1   111.6100477 551.451200
    313    307    499     1   123.0500530 620.905600
    314    309    511     1   123.0500530 620.905600
    329    330    332     1   114.2100488 537.225600
    329    331    334     1   114.2100488 537.225600
    329    336    337     1   114.2100488 537.225600
    330    329    331     1   109.6600471 523.836800
    330    329    336     1   109.6600471 523.836800
    330    332    333     1   111.0400475 529.694400
    331    329    336     1   109.6600471 523.836800
    331    334    335     1   111.0400475 529.694400
    332    333    523     1   115.1800491 558.982400
    332    333    339     1   123.2000528 564.003200
    333    523    525     1   120.6900519 530.531200
    334    335    535     1   115.1800491 558.982400
    334    335    340     1   123.2000528 564.003200
    335    535    537     1   120.6900519 530.531200
    336    337    338     1   111.6100477 551.451200
    339    333    523     1   123.0500530 620.905600
    340    335    535     1   123.0500530 620.905600
    355    357    358     1   111.6100477 551.451200
    357    358    363     1   114.2100488 537.225600
    367    369    370     1   111.6100477 551.451200
    369    370    375     1   114.2100488 537.225600
    379    381    382     1   111.6100477 551.451200
    381    382    387     1   114.2100488 537.225600
    391    393    394     1   111.6100477 551.451200
    393    394    399     1   114.2100488 537.225600
    403    405    406     1   111.6100477 551.451200
    405    406    411     1   114.2100488 537.225600
    415    417    418     1   111.6100477 551.451200
    417    418    423     1   114.2100488 537.225600
    427    429    430     1   111.6100477 551.451200
    429    430    435     1   114.2100488 537.225600
    439    441    442     1   111.6100477 551.451200
    441    442    447     1   114.2100488 537.225600
    451    453    454     1   111.6100477 551.451200
    453    454    459     1   114.2100488 537.225600
    463    465    466     1   111.6100477 551.451200
    465    466    471     1   114.2100488 537.225600
    475    477    478     1   111.6100477 551.451200
    477    478    483     1   114.2100488 537.225600
    487    489    490     1   111.6100477 551.451200
    489    490    495     1   114.2100488 537.225600
    499    501    502     1   111.6100477 551.451200
    501    502    507     1   114.2100488 537.225600
    511    513    514     1   111.6100477 551.451200
    513    514    519     1   114.2100488 537.225600
    523    525    526     1   111.6100477 551.451200
    525    526    531     1   114.2100488 537.225600
    535    537    538     1   111.6100477 551.451200
    537    538    543     1   114.2100488 537.225600
      1      2     21     1   108.0100461 406.684800
      1      2     22     1   108.0100461 406.684800
      1      7     29     1   108.0100461 406.684800
      1      7     30     1   108.0100461 406.684800
      1      8     31     1   108.0100461 406.684800
      1      8     32     1   108.0100461 406.684800
      2      1     41     1   110.1100470 384.091200
      2      3     23     1   110.5600475 386.601600
      2      3     24     1   110.5600475 386.601600
      3      2     21     1   110.5600475 386.601600
      3      2     22     1   110.5600475 386.601600
      3      4     42     1   110.1100470 384.091200
      4      3     23     1   108.0100461 406.684800
      4      3     24     1   108.0100461 406.684800
      4      5     25     1   108.0100461 406.684800
      4      5     26     1   108.0100461 406.684800
      4      6     27     1   108.0100461 406.684800
      4      6     28     1   108.0100461 406.684800
      5      4     42     1   110.1100470 384.091200
      5     11     35     1   109.8000471 387.438400
      5     11     36     1   109.8000471 387.438400
      6      4     42     1   110.1100470 384.091200
      6      9     33     1   109.8000471 387.438400
      6      9     34     1   109.8000471 387.438400
      7      1     41     1   110.1100470 384.091200
      7     13     37     1   109.8000471 387.438400
      7     13     38     1   109.8000471 387.438400
      8      1     41     1   110.1100470 384.091200
      8     15     39     1   109.8000471 387.438400
      8     15     40     1   109.8000471 387.438400
      9      6     27     1   110.5600475 386.601600
      9      6     28     1   110.5600475 386.601600
     10      9     33     1   108.7700466 392.459200
     10      9     34     1   108.7700466 392.459200
     10     52     67     1   117.5500507 404.174400
     11      5     25     1   110.5600475 386.601600
     11      5     26     1   110.5600475 386.601600
     12     11     35     1   108.7700466 392.459200
     12     11     36     1   108.7700466 392.459200
     12     78     93     1   117.5500507 404.174400
     13      7     29     1   110.5600475 386.601600
     13      7     30     1   110.5600475 386.601600
     14     13     37     1   108.7700466 392.459200
     14     13     38     1   108.7700466 392.459200
     14    104    119     1   117.5500507 404.174400
     15      8     31     1   110.5600475 386.601600
     15      8     32     1   110.5600475 386.601600
     16     15     39     1   108.7700466 392.459200
     16     15     40     1   108.7700466 392.459200
     16    130    145     1   117.5500507 404.174400
     21      2     22     1   109.7500473 328.025600
     23      3     24     1   109.7500473 328.025600
     25      5     26     1   109.7500473 328.025600
     27      6     28     1   109.7500473 328.025600
     29      7     30     1   109.7500473 328.025600
     31      8     32     1   109.7500473 328.025600
     33      9     34     1   107.5800459 329.699200
     35     11     36     1   107.5800459 329.699200
     37     13     38     1   107.5800459 329.699200
     39     15     40     1   107.5800459 329.699200
     43     44     55     1   108.0100461 406.684800
     43     44     56     1   108.0100461 406.684800
     43     45     57     1   108.0100461 406.684800
     43     45     58     1   108.0100461 406.684800
     43     50     63     1   108.0100461 406.684800
     43     50     64     1   108.0100461 406.684800
     44     43     68     1   110.1100470 384.091200
     44     46     59     1   109.8000471 387.438400
     44     46     60     1   109.8000471 387.438400
     45     43     68     1   110.1100470 384.091200
     45     48     61     1   109.8000471 387.438400
     45     48     62     1   109.8000471 387.438400
     46     44     55     1   110.5600475 386.601600
     46     44     56     1   110.5600475 386.601600
     47     46     59     1   108.7700466 392.459200
     47     46     60     1   108.7700466 392.459200
     47    156    171     1   117.5500507 404.174400
     48     45     57     1   110.5600475 386.601600
     48     45     58     1   110.5600475 386.601600
     49     48     61     1   108.7700466 392.459200
     49     48     62     1   108.7700466 392.459200
     49    182    197     1   117.5500507 404.174400
     50     43     68     1   110.1100470 384.091200
     50     51     65     1   109.5600471 388.275200
     50     51     66     1   109.5600471 388.275200
     51     50     63     1   110.5600475 386.601600
     51     50     64     1   110.5600475 386.601600
     51     52     67     1   117.6800502 383.254400
     52     51     65     1   108.8800464 416.726400
     52     51     66     1   108.8800464 416.726400
     55     44     56     1   109.7500473 328.025600
     57     45     58     1   109.7500473 328.025600
     59     46     60     1   107.5800459 329.699200
     61     48     62     1   107.5800459 329.699200
     63     50     64     1   109.7500473 328.025600
     65     51     66     1   108.4600466 328.025600
     69     70     81     1   108.0100461 406.684800
     69     70     82     1   108.0100461 406.684800
     69     71     83     1   108.0100461 406.684800
     69     71     84     1   108.0100461 406.684800
     69     76     89     1   108.0100461 406.684800
     69     76     90     1   108.0100461 406.684800
     70     69     94     1   110.1100470 384.091200
     70     72     85     1   109.8000471 387.438400
     70     72     86     1   109.8000471 387.438400
     71     69     94     1   110.1100470 384.091200
     71     74     87     1   109.8000471 387.438400
     71     74     88     1   109.8000471 387.438400
     72     70     81     1   110.5600475 386.601600
     72     70     82     1   110.5600475 386.601600
     73     72     85     1   108.7700466 392.459200
     73     72     86     1   108.7700466 392.459200
     73    208    223     1   117.5500507 404.174400
     74     71     83     1   110.5600475 386.601600
     74     71     84     1   110.5600475 386.601600
     75     74     87     1   108.7700466 392.459200
     75     74     88     1   108.7700466 392.459200
     75    234    249     1   117.5500507 404.174400
     76     69     94     1   110.1100470 384.091200
     76     77     91     1   109.5600471 388.275200
     76     77     92     1   109.5600471 388.275200
     77     76     89     1   110.5600475 386.601600
     77     76     90     1   110.5600475 386.601600
     77     78     93     1   117.6800502 383.254400
     78     77     91     1   108.8800464 416.726400
     78     77     92     1   108.8800464 416.726400
     81     70     82     1   109.7500473 328.025600
     83     71     84     1   109.7500473 328.025600
     85     72     86     1   107.5800459 329.699200
     87     74     88     1   107.5800459 329.699200
     89     76     90     1   109.7500473 328.025600
     91     77     92     1   108.4600466 328.025600
     95     96    107     1   108.0100461 406.684800
     95     96    108     1   108.0100461 406.684800
     95     97    109     1   108.0100461 406.684800
     95     97    110     1   108.0100461 406.684800
     95    102    115     1   108.0100461 406.684800
     95    102    116     1   108.0100461 406.684800
     96     95    120     1   110.1100470 384.091200
     96     98    111     1   109.8000471 387.438400
     96     98    112     1   109.8000471 387.438400
     97     95    120     1   110.1100470 384.091200
     97    100    113     1   109.8000471 387.438400
     97    100    114     1   109.8000471 387.438400
     98     96    107     1   110.5600475 386.601600
     98     96    108     1   110.5600475 386.601600
     99     98    111     1   108.7700466 392.459200
     99     98    112     1   108.7700466 392.459200
     99    260    275     1   117.5500507 404.174400
    100     97    109     1   110.5600475 386.601600
    100     97    110     1   110.5600475 386.601600
    101    100    113     1   108.7700466 392.459200
    101    100    114     1   108.7700466 392.459200
    101    286    301     1   117.5500507 404.174400
    102     95    120     1   110.1100470 384.091200
    102    103    117     1   109.5600471 388.275200
    102    103    118     1   109.5600471 388.275200
    103    102    115     1   110.5600475 386.601600
    103    102    116     1   110.5600475 386.601600
    103    104    119     1   117.6800502 383.254400
    104    103    117     1   108.8800464 416.726400
    104    103    118     1   108.8800464 416.726400
    107     96    108     1   109.7500473 328.025600
    109     97    110     1   109.7500473 328.025600
    111     98    112     1   107.5800459 329.699200
    113    100    114     1   107.5800459 329.699200
    115    102    116     1   109.7500473 328.025600
    117    103    118     1   108.4600466 328.025600
    121    122    133     1   108.0100461 406.684800
    121    122    134     1   108.0100461 406.684800
    121    123    135     1   108.0100461 406.684800
    121    123    136     1   108.0100461 406.684800
    121    128    141     1   108.0100461 406.684800
    121    128    142     1   108.0100461 406.684800
    122    121    146     1   110.1100470 384.091200
    122    124    137     1   109.8000471 387.438400
    122    124    138     1   109.8000471 387.438400
    123    121    146     1   110.1100470 384.091200
    123    126    139     1   109.8000471 387.438400
    123    126    140     1   109.8000471 387.438400
    124    122    133     1   110.5600475 386.601600
    124    122    134     1   110.5600475 386.601600
    125    124    137     1   108.7700466 392.459200
    125    124    138     1   108.7700466 392.459200
    125    312    327     1   117.5500507 404.174400
    126    123    135     1   110.5600475 386.601600
    126    123    136     1   110.5600475 386.601600
    127    126    139     1   108.7700466 392.459200
    127    126    140     1   108.7700466 392.459200
    127    338    353     1   117.5500507 404.174400
    128    121    146     1   110.1100470 384.091200
    128    129    143     1   109.5600471 388.275200
    128    129    144     1   109.5600471 388.275200
    129    128    141     1   110.5600475 386.601600
    129    128    142     1   110.5600475 386.601600
    129    130    145     1   117.6800502 383.254400
    130    129    143     1   108.8800464 416.726400
    130    129    144     1   108.8800464 416.726400
    133    122    134     1   109.7500473 328.025600
    135    123    136     1   109.7500473 328.025600
    137    124    138     1   107.5800459 329.699200
    139    126    140     1   107.5800459 329.699200
    141    128    142     1   109.7500473 328.025600
    143    129    144     1   108.4600466 328.025600
    147    148    159     1   108.0100461 406.684800
    147    148    160     1   108.0100461 406.684800
    147    149    161     1   108.0100461 406.684800
    147    149    162     1   108.0100461 406.684800
    147    154    167     1   108.0100461 406.684800
    147    154    168     1   108.0100461 406.684800
    148    147    172     1   110.1100470 384.091200
    148    150    163     1   109.8000471 387.438400
    148    150    164     1   109.8000471 387.438400
    149    147    172     1   110.1100470 384.091200
    149    152    165     1   109.8000471 387.438400
    149    152    166     1   109.8000471 387.438400
    150    148    159     1   110.5600475 386.601600
    150    148    160     1   110.5600475 386.601600
    151    150    163     1   108.7700466 392.459200
    151    150    164     1   108.7700466 392.459200
    151    355    356     1   117.5500507 404.174400
    152    149    161     1   110.5600475 386.601600
    152    149    162     1   110.5600475 386.601600
    153    152    165     1   108.7700466 392.459200
    153    152    166     1   108.7700466 392.459200
    153    367    368     1   117.5500507 404.174400
    154    147    172     1   110.1100470 384.091200
    154    155    169     1   109.5600471 388.275200
    154    155    170     1   109.5600471 388.275200
    155    154    167     1   110.5600475 386.601600
    155    154    168     1   110.5600475 386.601600
    155    156    171     1   117.6800502 383.254400
    156    155    169     1   108.8800464 416.726400
    156    155    170     1   108.8800464 416.726400
    159    148    160     1   109.7500473 328.025600
    161    149    162     1   109.7500473 328.025600
    163    150    164     1   107.5800459 329.699200
    165    152    166     1   107.5800459 329.699200
    167    154    168     1   109.7500473 328.025600
    169    155    170     1   108.4600466 328.025600
    173    174    185     1   108.0100461 406.684800
    173    174    186     1   108.0100461 406.684800
    173    175    187     1   108.0100461 406.684800
    173    175    188     1   108.0100461 406.684800
    173    180    193     1   108.0100461 406.684800
    173    180    194     1   108.0100461 406.684800
    174    173    198     1   110.1100470 384.091200
    174    176    189     1   109.8000471 387.438400
    174    176    190     1   109.8000471 387.438400
    175    173    198     1   110.1100470 384.091200
    175    178    191     1   109.8000471 387.438400
    175    178    192     1   109.8000471 387.438400
    176    174    185     1   110.5600475 386.601600
    176    174    186     1   110.5600475 386.601600
    177    176    189     1   108.7700466 392.459200
    177    176    190     1   108.7700466 392.459200
    177    379    380     1   117.5500507 404.174400
    178    175    187     1   110.5600475 386.601600
    178    175    188     1   110.5600475 386.601600
    179    178    191     1   108.7700466 392.459200
    179    178    192     1   108.7700466 392.459200
    179    391    392     1   117.5500507 404.174400
    180    173    198     1   110.1100470 384.091200
    180    181    195     1   109.5600471 388.275200
    180    181    196     1   109.5600471 388.275200
    181    180    193     1   110.5600475 386.601600
    181    180    194     1   110.5600475 386.601600
    181    182    197     1   117.6800502 383.254400
    182    181    195     1   108.8800464 416.726400
    182    181    196     1   108.8800464 416.726400
    185    174    186     1   109.7500473 328.025600
    187    175    188     1   109.7500473 328.025600
    189    176    190     1   107.5800459 329.699200
    191    178    192     1   107.5800459 329.699200
    193    180    194     1   109.7500473 328.025600
    195    181    196     1   108.4600466 328.025600
    199    200    211     1   108.0100461 406.684800
    199    200    212     1   108.0100461 406.684800
    199    201    213     1   108.0100461 406.684800
    199    201    214     1   108.0100461 406.684800
    199    206    219     1   108.0100461 406.684800
    199    206    220     1   108.0100461 406.684800
    200    199    224     1   110.1100470 384.091200
    200    202    215     1   109.8000471 387.438400
    200    202    216     1   109.8000471 387.438400
    201    199    224     1   110.1100470 384.091200
    201    204    217     1   109.8000471 387.438400
    201    204    218     1   109.8000471 387.438400
    202    200    211     1   110.5600475 386.601600
    202    200    212     1   110.5600475 386.601600
    203    202    215     1   108.7700466 392.459200
    203    202    216     1   108.7700466 392.459200
    203    403    404     1   117.5500507 404.174400
    204    201    213     1   110.5600475 386.601600
    204    201    214     1   110.5600475 386.601600
    205    204    217     1   108.7700466 392.459200
    205    204    218     1   108.7700466 392.459200
    205    415    416     1   117.5500507 404.174400
    206    199    224     1   110.1100470 384.091200
    206    207    221     1   109.5600471 388.275200
    206    207    222     1   109.5600471 388.275200
    207    206    219     1   110.5600475 386.601600
    207    206    220     1   110.5600475 386.601600
    207    208    223     1   117.6800502 383.254400
    208    207    221     1   108.8800464 416.726400
    208    207    222     1   108.8800464 416.726400
    211    200    212     1   109.7500473 328.025600
    213    201    214     1   109.7500473 328.025600
    215    202    216     1   107.5800459 329.699200
    217    204    218     1   107.5800459 329.699200
    219    206    220     1   109.7500473 328.025600
    221    207    222     1   108.4600466 328.025600
    225    226    237     1   108.0100461 406.684800
    225    226    238     1   108.0100461 406.684800
    225    227    239     1   108.0100461 406.684800
    225    227    240     1   108.0100461 406.684800
    225    232    245     1   108.0100461 406.684800
    225    232    246     1   108.0100461 406.684800
    226    225    250     1   110.1100470 384.091200
    226    228    241     1   109.8000471 387.438400
    226    228    242     1   109.8000471 387.438400
    227    225    250     1   110.1100470 384.091200
    227    230    243     1   109.8000471 387.438400
    227    230    244     1   109.8000471 387.438400
    228    226    237     1   110.5600475 386.601600
    228    226    238     1   110.5600475 386.601600
    229    228    241     1   108.7700466 392.459200
    229    228    242     1   108.7700466 392.459200
    229    427    428     1   117.5500507 404.174400
    230    227    239     1   110.5600475 386.601600
    230    227    240     1   110.5600475 386.601600
    231    230    243     1   108.7700466 392.459200
    231    230    244     1   108.7700466 392.459200
    231    439    440     1   117.5500507 404.174400
    232    225    250     1   110.1100470 384.091200
    232    233    247     1   109.5600471 388.275200
    232    233    248     1   109.5600471 388.275200
    233    232    245     1   110.5600475 386.601600
    233    232    246     1   110.5600475 386.601600
    233    234    249     1   117.6800502 383.254400
    234    233    247     1   108.8800464 416.726400
    234    233    248     1   108.8800464 416.726400
    237    226    238     1   109.7500473 328.025600
    239    227    240     1   109.7500473 328.025600
    241    228    242     1   107.5800459 329.699200
    243    230    244     1   107.5800459 329.699200
    245    232    246     1   109.7500473 328.025600
    247    233    248     1   108.4600466 328.025600
    251    252    263     1   108.0100461 406.684800
    251    252    264     1   108.0100461 406.684800
    251    253    265     1   108.0100461 406.684800
    251    253    266     1   108.0100461 406.684800
    251    258    271     1   108.0100461 406.684800
    251    258    272     1   108.0100461 406.684800
    252    251    276     1   110.1100470 384.091200
    252    254    267     1   109.8000471 387.438400
    252    254    268     1   109.8000471 387.438400
    253    251    276     1   110.1100470 384.091200
    253    256    269     1   109.8000471 387.438400
    253    256    270     1   109.8000471 387.438400
    254    252    263     1   110.5600475 386.601600
    254    252    264     1   110.5600475 386.601600
    255    254    267     1   108.7700466 392.459200
    255    254    268     1   108.7700466 392.459200
    255    451    452     1   117.5500507 404.174400
    256    253    265     1   110.5600475 386.601600
    256    253    266     1   110.5600475 386.601600
    257    256    269     1   108.7700466 392.459200
    257    256    270     1   108.7700466 392.459200
    257    463    464     1   117.5500507 404.174400
    258    251    276     1   110.1100470 384.091200
    258    259    273     1   109.5600471 388.275200
    258    259    274     1   109.5600471 388.275200
    259    258    271     1   110.5600475 386.601600
    259    258    272     1   110.5600475 386.601600
    259    260    275     1   117.6800502 383.254400
    260    259    273     1   108.8800464 416.726400
    260    259    274     1   108.8800464 416.726400
    263    252    264     1   109.7500473 328.025600
    265    253    266     1   109.7500473 328.025600
    267    254    268     1   107.5800459 329.699200
    269    256    270     1   107.5800459 329.699200
    271    258    272     1   109.7500473 328.025600
    273    259    274     1   108.4600466 328.025600
    277    278    289     1   108.0100461 406.684800
    277    278    290     1   108.0100461 406.684800
    277    279    291     1   108.0100461 406.684800
    277    279    292     1   108.0100461 406.684800
    277    284    297     1   108.0100461 406.684800
    277    284    298     1   108.0100461 406.684800
    278    277    302     1   110.1100470 384.091200
    278    280    293     1   109.8000471 387.438400
    278    280    294     1   109.8000471 387.438400
    279    277    302     1   110.1100470 384.091200
    279    282    295     1   109.8000471 387.438400
    279    282    296     1   109.8000471 387.438400
    280    278    289     1   110.5600475 386.601600
    280    278    290     1   110.5600475 386.601600
    281    280    293     1   108.7700466 392.459200
    281    280    294     1   108.7700466 392.459200
    281    475    476     1   117.5500507 404.174400
    282    279    291     1   110.5600475 386.601600
    282    279    292     1   110.5600475 386.601600
    283    282    295     1   108.7700466 392.459200
    283    282    296     1   108.7700466 392.459200
    283    487    488     1   117.5500507 404.174400
    284    277    302     1   110.1100470 384.091200
    284    285    299     1   109.5600471 388.275200
    284    285    300     1   109.5600471 388.275200
    285    284    297     1   110.5600475 386.601600
    285    284    298     1   110.5600475 386.601600
    285    286    301     1   117.6800502 383.254400
    286    285    299     1   108.8800464 416.726400
    286    285    300     1   108.8800464 416.726400
    289    278    290     1   109.7500473 328.025600
    291    279    292     1   109.7500473 328.025600
    293    280    294     1   107.5800459 329.699200
    295    282    296     1   107.5800459 329.699200
    297    284    298     1   109.7500473 328.025600
    299    285    300     1   108.4600466 328.025600
    303    304    315     1   108.0100461 406.684800
    303    304    316     1   108.0100461 406.684800
    303    305    317     1   108.0100461 406.684800
    303    305    318     1   108.0100461 406.684800
    303    310    323     1   108.0100461 406.684800
    303    310    324     1   108.0100461 406.684800
    304    303    328     1   110.1100470 384.091200
    304    306    319     1   109.8000471 387.438400
    304    306    320     1   109.8000471 387.438400
    305    303    328     1   110.1100470 384.091200
    305    308    321     1   109.8000471 387.438400
    305    308    322     1   109.8000471 387.438400
    306    304    315     1   110.5600475 386.601600
    306    304    316     1   110.5600475 386.601600
    307    306    319     1   108.7700466 392.459200
    307    306    320     1   108.7700466 392.459200
    307    499    500     1   117.5500507 404.174400
    308    305    317     1   110.5600475 386.601600
    308    305    318     1   110.5600475 386.601600
    309    308    321     1   108.7700466 392.459200
    309    308    322     1   108.7700466 392.459200
    309    511    512     1   117.5500507 404.174400
    310    303    328     1   110.1100470 384.091200
    310    311    325     1   109.5600471 388.275200
    310    311    326     1   109.5600471 388.275200
    311    310    323     1   110.5600475 386.601600
    311    310    324     1   110.5600475 386.601600
    311    312    327     1   117.6800502 383.254400
    312    311    325     1   108.8800464 416.726400
    312    311    326     1   108.8800464 416.726400
    315    304    316     1   109.7500473 328.025600
    317    305    318     1   109.7500473 328.025600
    319    306    320     1   107.5800459 329.699200
    321    308    322     1   107.5800459 329.699200
    323    310    324     1   109.7500473 328.025600
    325    311    326     1   108.4600466 328.025600
    329    330    341     1   108.0100461 406.684800
    329    330    342     1   108.0100461 406.684800
    329    331    343     1   108.0100461 406.684800
    329    331    344     1   108.0100461 406.684800
    329    336    349     1   108.0100461 406.684800
    329    336    350     1   108.0100461 406.684800
    330    329    354     1   110.1100470 384.091200
    330    332    345     1   109.8000471 387.438400
    330    332    346     1   109.8000471 387.438400
    331    329    354     1   110.1100470 384.091200
    331    334    347     1   109.8000471 387.438400
    331    334    348     1   109.8000471 387.438400
    332    330    341     1   110.5600475 386.601600
    332    330    342     1   110.5600475 386.601600
    333    332    345     1   108.7700466 392.459200
    333    332    346     1   108.7700466 392.459200
    333    523    524     1   117.5500507 404.174400
    334    331    343     1   110.5600475 386.601600
    334    331    344     1   110.5600475 386.601600
    335    334    347     1   108.7700466 392.459200
    335    334    348     1   108.7700466 392.459200
    335    535    536     1   117.5500507 404.174400
    336    329    354     1   110.1100470 384.091200
    336    337    351     1   109.5600471 388.275200
    336    337    352     1   109.5600471 388.275200
    337    336    349     1   110.5600475 386.601600
    337    336    350     1   110.5600475 386.601600
    337    338    353     1   117.6800502 383.254400
    338    337    351     1   108.8800464 416.726400
    338    337    352     1   108.8800464 416.726400
    341    330    342     1   109.7500473 328.025600
    343    331    344     1   109.7500473 328.025600
    345    332    346     1   107.5800459 329.699200
    347    334    348     1   107.5800459 329.699200
    349    336    350     1   109.7500473 328.025600
    351    337    352     1   108.4600466 328.025600
    355    357    359     1   108.8800464 416.726400
    355    357    360     1   108.8800464 416.726400
    356    355    357     1   117.6800502 383.254400
    357    358    361     1   110.5600475 386.601600
    357    358    362     1   110.5600475 386.601600
    358    357    359     1   109.5600471 388.275200
    358    357    360     1   109.5600471 388.275200
    358    363    364     1   110.1100470 384.091200
    358    363    365     1   110.1100470 384.091200
    358    363    366     1   110.1100470 384.091200
    359    357    360     1   108.4600466 328.025600
    361    358    363     1   108.0100461 406.684800
    361    358    362     1   109.7500473 328.025600
    362    358    363     1   108.0100461 406.684800
    364    363    365     1   108.3000464 339.740800
    364    363    366     1   108.3000464 339.740800
    365    363    366     1   108.3000464 339.740800
    367    369    371     1   108.8800464 416.726400
    367    369    372     1   108.8800464 416.726400
    368    367    369     1   117.6800502 383.254400
    369    370    373     1   110.5600475 386.601600
    369    370    374     1   110.5600475 386.601600
    370    375    376     1   110.1100470 384.091200
    370    375    377     1   110.1100470 384.091200
    370    375    378     1   110.1100470 384.091200
    370    369    371     1   109.5600471 388.275200
    370    369    372     1   109.5600471 388.275200
    371    369    372     1   108.4600466 328.025600
    373    370    375     1   108.0100461 406.684800
    373    370    374     1   109.7500473 328.025600
    374    370    375     1   108.0100461 406.684800
    376    375    377     1   108.3000464 339.740800
    376    375    378     1   108.3000464 339.740800
    377    375    378     1   108.3000464 339.740800
    379    381    383     1   108.8800464 416.726400
    379    381    384     1   108.8800464 416.726400
    380    379    381     1   117.6800502 383.254400
    381    382    385     1   110.5600475 386.601600
    381    382    386     1   110.5600475 386.601600
    382    381    383     1   109.5600471 388.275200
    382    381    384     1   109.5600471 388.275200
    382    387    388     1   110.1100470 384.091200
    382    387    389     1   110.1100470 384.091200
    382    387    390     1   110.1100470 384.091200
    383    381    384     1   108.4600466 328.025600
    385    382    387     1   108.0100461 406.684800
    385    382    386     1   109.7500473 328.025600
    386    382    387     1   108.0100461 406.684800
    388    387    389     1   108.3000464 339.740800
    388    387    390     1   108.3000464 339.740800
    389    387    390     1   108.3000464 339.740800
    391    393    395     1   108.8800464 416.726400
    391    393    396     1   108.8800464 416.726400
    392    391    393     1   117.6800502 383.254400
    393    394    397     1   110.5600475 386.601600
    393    394    398     1   110.5600475 386.601600
    394    399    400     1   110.1100470 384.091200
    394    399    401     1   110.1100470 384.091200
    394    399    402     1   110.1100470 384.091200
    394    393    395     1   109.5600471 388.275200
    394    393    396     1   109.5600471 388.275200
    395    393    396     1   108.4600466 328.025600
    397    394    399     1   108.0100461 406.684800
    397    394    398     1   109.7500473 328.025600
    398    394    399     1   108.0100461 406.684800
    400    399    401     1   108.3000464 339.740800
    400    399    402     1   108.3000464 339.740800
    401    399    402     1   108.3000464 339.740800
    403    405    407     1   108.8800464 416.726400
    403    405    408     1   108.8800464 416.726400
    404    403    405     1   117.6800502 383.254400
    405    406    409     1   110.5600475 386.601600
    405    406    410     1   110.5600475 386.601600
    406    405    407     1   109.5600471 388.275200
    406    405    408     1   109.5600471 388.275200
    406    411    412     1   110.1100470 384.091200
    406    411    413     1   110.1100470 384.091200
    406    411    414     1   110.1100470 384.091200
    407    405    408     1   108.4600466 328.025600
    409    406    411     1   108.0100461 406.684800
    409    406    410     1   109.7500473 328.025600
    410    406    411     1   108.0100461 406.684800
    412    411    413     1   108.3000464 339.740800
    412    411    414     1   108.3000464 339.740800
    413    411    414     1   108.3000464 339.740800
    415    417    419     1   108.8800464 416.726400
    415    417    420     1   108.8800464 416.726400
    416    415    417     1   117.6800502 383.254400
    417    418    421     1   110.5600475 386.601600
    417    418    422     1   110.5600475 386.601600
    418    423    424     1   110.1100470 384.091200
    418    423    425     1   110.1100470 384.091200
    418    423    426     1   110.1100470 384.091200
    418    417    419     1   109.5600471 388.275200
    418    417    420     1   109.5600471 388.275200
    419    417    420     1   108.4600466 328.025600
    421    418    423     1   108.0100461 406.684800
    421    418    422     1   109.7500473 328.025600
    422    418    423     1   108.0100461 406.684800
    424    423    425     1   108.3000464 339.740800
    424    423    426     1   108.3000464 339.740800
    425    423    426     1   108.3000464 339.740800
    427    429    431     1   108.8800464 416.726400
    427    429    432     1   108.8800464 416.726400
    428    427    429     1   117.6800502 383.254400
    429    430    433     1   110.5600475 386.601600
    429    430    434     1   110.5600475 386.601600
    430    429    431     1   109.5600471 388.275200
    430    429    432     1   109.5600471 388.275200
    430    435    436     1   110.1100470 384.091200
    430    435    437     1   110.1100470 384.091200
    430    435    438     1   110.1100470 384.091200
    431    429    432     1   108.4600466 328.025600
    433    430    435     1   108.0100461 406.684800
    433    430    434     1   109.7500473 328.025600
    434    430    435     1   108.0100461 406.684800
    436    435    437     1   108.3000464 339.740800
    436    435    438     1   108.3000464 339.740800
    437    435    438     1   108.3000464 339.740800
    439    441    443     1   108.8800464 416.726400
    439    441    444     1   108.8800464 416.726400
    440    439    441     1   117.6800502 383.254400
    441    442    445     1   110.5600475 386.601600
    441    442    446     1   110.5600475 386.601600
    442    447    448     1   110.1100470 384.091200
    442    447    449     1   110.1100470 384.091200
    442    447    450     1   110.1100470 384.091200
    442    441    443     1   109.5600471 388.275200
    442    441    444     1   109.5600471 388.275200
    443    441    444     1   108.4600466 328.025600
    445    442    447     1   108.0100461 406.684800
    445    442    446     1   109.7500473 328.025600
    446    442    447     1   108.0100461 406.684800
    448    447    449     1   108.3000464 339.740800
    448    447    450     1   108.3000464 339.740800
    449    447    450     1   108.3000464 339.740800
    451    453    455     1   108.8800464 416.726400
    451    453    456     1   108.8800464 416.726400
    452    451    453     1   117.6800502 383.254400
    453    454    457     1   110.5600475 386.601600
    453    454    458     1   110.5600475 386.601600
    454    453    455     1   109.5600471 388.275200
    454    453    456     1   109.5600471 388.275200
    454    459    460     1   110.1100470 384.091200
    454    459    461     1   110.1100470 384.091200
    454    459    462     1   110.1100470 384.091200
    455    453    456     1   108.4600466 328.025600
    457    454    459     1   108.0100461 406.684800
    457    454    458     1   109.7500473 328.025600
    458    454    459     1   108.0100461 406.684800
    460    459    461     1   108.3000464 339.740800
    460    459    462     1   108.3000464 339.740800
    461    459    462     1   108.3000464 339.740800
    463    465    467     1   108.8800464 416.726400
    463    465    468     1   108.8800464 416.726400
    464    463    465     1   117.6800502 383.254400
    465    466    469     1   110.5600475 386.601600
    465    466    470     1   110.5600475 386.601600
    466    471    472     1   110.1100470 384.091200
    466    471    473     1   110.1100470 384.091200
    466    471    474     1   110.1100470 384.091200
    466    465    467     1   109.5600471 388.275200
    466    465    468     1   109.5600471 388.275200
    467    465    468     1   108.4600466 328.025600
    469    466    471     1   108.0100461 406.684800
    469    466    470     1   109.7500473 328.025600
    470    466    471     1   108.0100461 406.684800
    472    471    473     1   108.3000464 339.740800
    472    471    474     1   108.3000464 339.740800
    473    471    474     1   108.3000464 339.740800
    475    477    479     1   108.8800464 416.726400
    475    477    480     1   108.8800464 416.726400
    476    475    477     1   117.6800502 383.254400
    477    478    481     1   110.5600475 386.601600
    477    478    482     1   110.5600475 386.601600
    478    477    479     1   109.5600471 388.275200
    478    477    480     1   109.5600471 388.275200
    478    483    484     1   110.1100470 384.091200
    478    483    485     1   110.1100470 384.091200
    478    483    486     1   110.1100470 384.091200
    479    477    480     1   108.4600466 328.025600
    481    478    483     1   108.0100461 406.684800
    481    478    482     1   109.7500473 328.025600
    482    478    483     1   108.0100461 406.684800
    484    483    485     1   108.3000464 339.740800
    484    483    486     1   108.3000464 339.740800
    485    483    486     1   108.3000464 339.740800
    487    489    491     1   108.8800464 416.726400
    487    489    492     1   108.8800464 416.726400
    488    487    489     1   117.6800502 383.254400
    489    490    493     1   110.5600475 386.601600
    489    490    494     1   110.5600475 386.601600
    490    495    496     1   110.1100470 384.091200
    490    495    497     1   110.1100470 384.091200
    490    495    498     1   110.1100470 384.091200
    490    489    491     1   109.5600471 388.275200
    490    489    492     1   109.5600471 388.275200
    491    489    492     1   108.4600466 328.025600
    493    490    495     1   108.0100461 406.684800
    493    490    494     1   109.7500473 328.025600
    494    490    495     1   108.0100461 406.684800
    496    495    497     1   108.3000464 339.740800
    496    495    498     1   108.3000464 339.740800
    497    495    498     1   108.3000464 339.740800
    499    501    503     1   108.8800464 416.726400
    499    501    504     1   108.8800464 416.726400
    500    499    501     1   117.6800502 383.254400
    501    502    505     1   110.5600475 386.601600
    501    502    506     1   110.5600475 386.601600
    502    501    503     1   109.5600471 388.275200
    502    501    504     1   109.5600471 388.275200
    502    507    508     1   110.1100470 384.091200
    502    507    509     1   110.1100470 384.091200
    502    507    510     1   110.1100470 384.091200
    503    501    504     1   108.4600466 328.025600
    505    502    507     1   108.0100461 406.684800
    505    502    506     1   109.7500473 328.025600
    506    502    507     1   108.0100461 406.684800
    508    507    509     1   108.3000464 339.740800
    508    507    510     1   108.3000464 339.740800
    509    507    510     1   108.3000464 339.740800
    511    513    515     1   108.8800464 416.726400
    511    513    516     1   108.8800464 416.726400
    512    511    513     1   117.6800502 383.254400
    513    514    517     1   110.5600475 386.601600
    513    514    518     1   110.5600475 386.601600
    514    519    520     1   110.1100470 384.091200
    514    519    521     1   110.1100470 384.091200
    514    519    522     1   110.1100470 384.091200
    514    513    515     1   109.5600471 388.275200
    514    513    516     1   109.5600471 388.275200
    515    513    516     1   108.4600466 328.025600
    517    514    519     1   108.0100461 406.684800
    517    514    518     1   109.7500473 328.025600
    518    514    519     1   108.0100461 406.684800
    520    519    521     1   108.3000464 339.740800
    520    519    522     1   108.3000464 339.740800
    521    519    522     1   108.3000464 339.740800
    523    525    527     1   108.8800464 416.726400
    523    525    528     1   108.8800464 416.726400
    524    523    525     1   117.6800502 383.254400
    525    526    529     1   110.5600475 386.601600
    525    526    530     1   110.5600475 386.601600
    526    525    527     1   109.5600471 388.275200
    526    525    528     1   109.5600471 388.275200
    526    531    532     1   110.1100470 384.091200
    526    531    533     1   110.1100470 384.091200
    526    531    534     1   110.1100470 384.091200
    527    525    528     1   108.4600466 328.025600
    529    526    531     1   108.0100461 406.684800
    529    526    530     1   109.7500473 328.025600
    530    526    531     1   108.0100461 406.684800
    532    531    533     1   108.3000464 339.740800
    532    531    534     1   108.3000464 339.740800
    533    531    534     1   108.3000464 339.740800
    535    537    539     1   108.8800464 416.726400
    535    537    540     1   108.8800464 416.726400
    536    535    537     1   117.6800502 383.254400
    537    538    541     1   110.5600475 386.601600
    537    538    542     1   110.5600475 386.601600
    538    543    544     1   110.1100470 384.091200
    538    543    545     1   110.1100470 384.091200
    538    543    546     1   110.1100470 384.091200
    538    537    539     1   109.5600471 388.275200
    538    537    540     1   109.5600471 388.275200
    539    537    540     1   108.4600466 328.025600
    541    538    543     1   108.0100461 406.684800
    541    538    542     1   109.7500473 328.025600
    542    538    543     1   108.0100461 406.684800
    544    543    545     1   108.3000464 339.740800
    544    543    546     1   108.3000464 339.740800
    545    543    546     1   108.3000464 339.740800

[ dihedrals ]
;    ai     aj     ak     al funct         c0         c1         c2         c3         c4         c5
      1      2      3      4     1  0.0000000  0.6508444  3
      1      7     13     14     1  0.0000000  0.6508444  3
      1      8     15     16     1  0.0000000  0.6508444  3
      2      1      7     13     1  0.0000000  0.6508444  3
      2      1      8     15     1  0.0000000  0.6508444  3
      2      3      4      5     1  0.0000000  0.6508444  3
      2      3      4      6     1  0.0000000  0.6508444  3
      7      1      2      3     1  0.0000000  0.6508444  3
      8      1      2      3     1  0.0000000  0.6508444  3
      3      4      5     11     1  0.0000000  0.6508444  3
      3      4      6      9     1  0.0000000  0.6508444  3
      4      5     11     12     1  0.0000000  0.6508444  3
      4      6      9     10     1  0.0000000  0.6508444  3
      5      4      6      9     1  0.0000000  0.6508444  3
      5     11     12     17     1  180.0000771  0.0000000  2
      5     11     12     78     1  0.0000000  0.2928800  2
      5     11     12     78     1  0.0000000  0.4184000  4
      6      4      5     11     1  0.0000000  0.6508444  3
      6      9     10     18     1  180.0000771  0.0000000  2
      6      9     10     52     1  0.0000000  0.2928800  2
      6      9     10     52     1  0.0000000  0.4184000  4
      7      1      8     15     1  0.0000000  0.6508444  3
      7     13     14     20     1  180.0000771  0.0000000  2
      7     13     14    104     1  0.0000000  0.2928800  2
      7     13     14    104     1  0.0000000  0.4184000  4
      8      1      7     13     1  0.0000000  0.6508444  3
      8     15     16     19     1  180.0000771  0.0000000  2
      8     15     16    130     1  0.0000000  0.2928800  2
      8     15     16    130     1  0.0000000  0.4184000  4
      9     10     52     51     1  180.0000771  6.2760000  1
      9     10     52     51     1  0.0000000  0.0000000  2
     10     52     51     50     1  0.0000000  2.2175200  1
     10     52     51     50     1  0.0000000  0.0000000  2
     10     52     51     50     1  180.0000771  0.6276000  3
     10     52     51     50     1  180.0000771  2.0920000  4
     11     12     78     77     1  180.0000771  6.2760000  1
     11     12     78     77     1  0.0000000  0.0000000  2
     12     78     77     76     1  0.0000000  2.2175200  1
     12     78     77     76     1  0.0000000  0.0000000  2
     12     78     77     76     1  180.0000771  0.6276000  3
     12     78     77     76     1  180.0000771  2.0920000  4
     13     14    104    103     1  180.0000771  6.2760000  1
     13     14    104    103     1  0.0000000  0.0000000  2
     14    104    103    102     1  0.0000000  2.2175200  1
     14    104    103    102     1  0.0000000  0.0000000  2
     14    104    103    102     1  180.0000771  0.6276000  3
     14    104    103    102     1  180.0000771  2.0920000  4
     15     16    130    129     1  180.0000771  6.2760000  1
     15     16    130    129     1  0.0000000  0.0000000  2
     16    130    129    128     1  0.0000000  2.2175200  1
     16    130    129    128     1  0.0000000  0.0000000  2
     16    130    129    128     1  180.0000771  0.6276000  3
     16    130    129    128     1  180.0000771  2.0920000  4
     17     12     78     77     1  180.0000771  10.4600000  2
     18     10     52     51     1  180.0000771  10.4600000  2
     19     16    130    129     1  180.0000771  10.4600000  2
     20     14    104    103     1  180.0000771  10.4600000  2
     43     44     46     47     1  0.0000000  0.6508444  3
     43     45     48     49     1  0.0000000  0.6508444  3
     43     50     51     52     1  0.0000000  0.6508444  3
     44     43     45     48     1  0.0000000  0.6508444  3
     44     43     50     51     1  0.0000000  0.6508444  3
     44     46     47     53     1  180.0000771  0.0000000  2
     44     46     47    156     1  0.0000000  0.2928800  2
     44     46     47    156     1  0.0000000  0.4184000  4
     45     43     44     46     1  0.0000000  0.6508444  3
     45     43     50     51     1  0.0000000  0.6508444  3
     45     48     49     54     1  180.0000771  0.0000000  2
     45     48     49    182     1  0.0000000  0.2928800  2
     45     48     49    182     1  0.0000000  0.4184000  4
     46     44     43     50     1  0.0000000  0.6508444  3
     46     47    156    155     1  180.0000771  6.2760000  1
     46     47    156    155     1  0.0000000  0.0000000  2
     47    156    155    154     1  0.0000000  2.2175200  1
     47    156    155    154     1  0.0000000  0.0000000  2
     47    156    155    154     1  180.0000771  0.6276000  3
     47    156    155    154     1  180.0000771  2.0920000  4
     48     45     43     50     1  0.0000000  0.6508444  3
     48     49    182    181     1  180.0000771  6.2760000  1
     48     49    182    181     1  0.0000000  0.0000000  2
     49    182    181    180     1  0.0000000  2.2175200  1
     49    182    181    180     1  0.0000000  0.0000000  2
     49    182    181    180     1  180.0000771  0.6276000  3
     49    182    181    180     1  180.0000771  2.0920000  4
     53     47    156    155     1  180.0000771  10.4600000  2
     54     49    182    181     1  180.0000771  10.4600000  2
     69     70     72     73     1  0.0000000  0.6508444  3
     69     71     74     75     1  0.0000000  0.6508444  3
     69     76     77     78     1  0.0000000  0.6508444  3
     70     69     71     74     1  0.0000000  0.6508444  3
     70     69     76     77     1  0.0000000  0.6508444  3
     70     72     73     79     1  180.0000771  0.0000000  2
     70     72     73    208     1  0.0000000  0.2928800  2
     70     72     73    208     1  0.0000000  0.4184000  4
     71     69     70     72     1  0.0000000  0.6508444  3
     71     69     76     77     1  0.0000000  0.6508444  3
     71     74     75     80     1  180.0000771  0.0000000  2
     71     74     75    234     1  0.0000000  0.2928800  2
     71     74     75    234     1  0.0000000  0.4184000  4
     72     70     69     76     1  0.0000000  0.6508444  3
     72     73    208    207     1  180.0000771  6.2760000  1
     72     73    208    207     1  0.0000000  0.0000000  2
     73    208    207    206     1  0.0000000  2.2175200  1
     73    208    207    206     1  0.0000000  0.0000000  2
     73    208    207    206     1  180.0000771  0.6276000  3
     73    208    207    206     1  180.0000771  2.0920000  4
     74     71     69     76     1  0.0000000  0.6508444  3
     74     75    234    233     1  180.0000771  6.2760000  1
     74     75    234    233     1  0.0000000  0.0000000  2
     75    234    233    232     1  0.0000000  2.2175200  1
     75    234    233    232     1  0.0000000  0.0000000  2
     75    234    233    232     1  180.0000771  0.6276000  3
     75    234    233    232     1  180.0000771  2.0920000  4
     79     73    208    207     1  180.0000771  10.4600000  2
     80     75    234    233     1  180.0000771  10.4600000  2
     95     96     98     99     1  0.0000000  0.6508444  3
     95     97    100    101     1  0.0000000  0.6508444  3
     95    102    103    104     1  0.0000000  0.6508444  3
     96     95     97    100     1  0.0000000  0.6508444  3
     96     95    102    103     1  0.0000000  0.6508444  3
     96     98     99    105     1  180.0000771  0.0000000  2
     96     98     99    260     1  0.0000000  0.2928800  2
     96     98     99    260     1  0.0000000  0.4184000  4
     97     95     96     98     1  0.0000000  0.6508444  3
     97     95    102    103     1  0.0000000  0.6508444  3
     97    100    101    106     1  180.0000771  0.0000000  2
     97    100    101    286     1  0.0000000  0.2928800  2
     97    100    101    286     1  0.0000000  0.4184000  4
     98     96     95    102     1  0.0000000  0.6508444  3
     98     99    260    259     1  180.0000771  6.2760000  1
     98     99    260    259     1  0.0000000  0.0000000  2
     99    260    259    258     1  0.0000000  2.2175200  1
     99    260    259    258     1  0.0000000  0.0000000  2
     99    260    259    258     1  180.0000771  0.6276000  3
     99    260    259    258     1  180.0000771  2.0920000  4
    100     97     95    102     1  0.0000000  0.6508444  3
    100    101    286    285     1  180.0000771  6.2760000  1
    100    101    286    285     1  0.0000000  0.0000000  2
    101    286    285    284     1  0.0000000  2.2175200  1
    101    286    285    284     1  0.0000000  0.0000000  2
    101    286    285    284     1  180.0000771  0.6276000  3
    101    286    285    284     1  180.0000771  2.0920000  4
    105     99    260    259     1  180.0000771  10.4600000  2
    106    101    286    285     1  180.0000771  10.4600000  2
    121    122    124    125     1  0.0000000  0.6508444  3
    121    123    126    127     1  0.0000000  0.6508444  3
    121    128    129    130     1  0.0000000  0.6508444  3
    122    121    123    126     1  0.0000000  0.6508444  3
    122    121    128    129     1  0.0000000  0.6508444  3
    122    124    125    131     1  180.0000771  0.0000000  2
    122    124    125    312     1  0.0000000  0.2928800  2
    122    124    125    312     1  0.0000000  0.4184000  4
    123    121    122    124     1  0.0000000  0.6508444  3
    123    121    128    129     1  0.0000000  0.6508444  3
    123    126    127    132     1  180.0000771  0.0000000  2
    123    126    127    338     1  0.0000000  0.2928800  2
    123    126    127    338     1  0.0000000  0.4184000  4
    124    122    121    128     1  0.0000000  0.6508444  3
    124    125    312    311     1  180.0000771  6.2760000  1
    124    125    312    311     1  0.0000000  0.0000000  2
    125    312    311    310     1  0.0000000  2.2175200  1
    125    312    311    310     1  0.0000000  0.0000000  2
    125    312    311    310     1  180.0000771  0.6276000  3
    125    312    311    310     1  180.0000771  2.0920000  4
    126    123    121    128     1  0.0000000  0.6508444  3
    126    127    338    337     1  180.0000771  6.2760000  1
    126    127    338    337     1  0.0000000  0.0000000  2
    127    338    337    336     1  0.0000000  2.2175200  1
    127    338    337    336     1  0.0000000  0.0000000  2
    127    338    337    336     1  180.0000771  0.6276000  3
    127    338    337    336     1  180.0000771  2.0920000  4
    131    125    312    311     1  180.0000771  10.4600000  2
    132    127    338    337     1  180.0000771  10.4600000  2
    147    148    150    151     1  0.0000000  0.6508444  3
    147    149    152    153     1  0.0000000  0.6508444  3
    147    154    155    156     1  0.0000000  0.6508444  3
    148    147    149    152     1  0.0000000  0.6508444  3
    148    147    154    155     1  0.0000000  0.6508444  3
    148    150    151    355     1  0.0000000  0.2928800  2
    148    150    151    355     1  0.0000000  0.4184000  4
    148    150    151    157     1  180.0000771  0.0000000  2
    149    147    148    150     1  0.0000000  0.6508444  3
    149    147    154    155     1  0.0000000  0.6508444  3
    149    152    153    158     1  180.0000771  0.0000000  2
    149    152    153    367     1  0.0000000  0.2928800  2
    149    152    153    367     1  0.0000000  0.4184000  4
    150    148    147    154     1  0.0000000  0.6508444  3
    150    151    355    357     1  180.0000771  6.2760000  1
    150    151    355    357     1  0.0000000  0.0000000  2
    151    355    357    358     1  0.0000000  2.2175200  1
    151    355    357    358     1  0.0000000  0.0000000  2
    151    355    357    358     1  180.0000771  0.6276000  3
    151    355    357    358     1  180.0000771  2.0920000  4
    152    149    147    154     1  0.0000000  0.6508444  3
    152    153    367    369     1  180.0000771  6.2760000  1
    152    153    367    369     1  0.0000000  0.0000000  2
    153    367    369    370     1  0.0000000  2.2175200  1
    153    367    369    370     1  0.0000000  0.0000000  2
    153    367    369    370     1  180.0000771  0.6276000  3
    153    367    369    370     1  180.0000771  2.0920000  4
    157    151    355    357     1  180.0000771  10.4600000  2
    158    153    367    369     1  180.0000771  10.4600000  2
    173    174    176    177     1  0.0000000  0.6508444  3
    173    175    178    179     1  0.0000000  0.6508444  3
    173    180    181    182     1  0.0000000  0.6508444  3
    174    173    175    178     1  0.0000000  0.6508444  3
    174    173    180    181     1  0.0000000  0.6508444  3
    174    176    177    379     1  0.0000000  0.2928800  2
    174    176    177    379     1  0.0000000  0.4184000  4
    174    176    177    183     1  180.0000771  0.0000000  2
    175    173    174    176     1  0.0000000  0.6508444  3
    175    173    180    181     1  0.0000000  0.6508444  3
    175    178    179    184     1  180.0000771  0.0000000  2
    175    178    179    391     1  0.0000000  0.2928800  2
    175    178    179    391     1  0.0000000  0.4184000  4
    176    174    173    180     1  0.0000000  0.6508444  3
    176    177    379    381     1  180.0000771  6.2760000  1
    176    177    379    381     1  0.0000000  0.0000000  2
    177    379    381    382     1  0.0000000  2.2175200  1
    177    379    381    382     1  0.0000000  0.0000000  2
    177    379    381    382     1  180.0000771  0.6276000  3
    177    379    381    382     1  180.0000771  2.0920000  4
    178    175    173    180     1  0.0000000  0.6508444  3
    178    179    391    393     1  180.0000771  6.2760000  1
    178    179    391    393     1  0.0000000  0.0000000  2
    179    391    393    394     1  0.0000000  2.2175200  1
    179    391    393    394     1  0.0000000  0.0000000  2
    179    391    393    394     1  180.0000771  0.6276000  3
    179    391    393    394     1  180.0000771  2.0920000  4
    183    177    379    381     1  180.0000771  10.4600000  2
    184    179    391    393     1  180.0000771  10.4600000  2
    199    200    202    203     1  0.0000000  0.6508444  3
    199    201    204    205     1  0.0000000  0.6508444  3
    199    206    207    208     1  0.0000000  0.6508444  3
    200    199    201    204     1  0.0000000  0.6508444  3
    200    199    206    207     1  0.0000000  0.6508444  3
    200    202    203    403     1  0.0000000  0.2928800  2
    200    202    203    403     1  0.0000000  0.4184000  4
    200    202    203    209     1  180.0000771  0.0000000  2
    201    199    200    202     1  0.0000000  0.6508444  3
    201    199    206    207     1  0.0000000  0.6508444  3
    201    204    205    210     1  180.0000771  0.0000000  2
    201    204    205    415     1  0.0000000  0.2928800  2
    201    204    205    415     1  0.0000000  0.4184000  4
    202    200    199    206     1  0.0000000  0.6508444  3
    202    203    403    405     1  180.0000771  6.2760000  1
    202    203    403    405     1  0.0000000  0.0000000  2
    203    403    405    406     1  0.0000000  2.2175200  1
    203    403    405    406     1  0.0000000  0.0000000  2
    203    403    405    406     1  180.0000771  0.6276000  3
    203    403    405    406     1  180.0000771  2.0920000  4
    204    201    199    206     1  0.0000000  0.6508444  3
    204    205    415    417     1  180.0000771  6.2760000  1
    204    205    415    417     1  0.0000000  0.0000000  2
    205    415    417    418     1  0.0000000  2.2175200  1
    205    415    417    418     1  0.0000000  0.0000000  2
    205    415    417    418     1  180.0000771  0.6276000  3
    205    415    417    418     1  180.0000771  2.0920000  4
    209    203    403    405     1  180.0000771  10.4600000  2
    210    205    415    417     1  180.0000771  10.4600000  2
    225    226    228    229     1  0.0000000  0.6508444  3
    225    227    230    231     1  0.0000000  0.6508444  3
    225    232    233    234     1  0.0000000  0.6508444  3
    226    225    227    230     1  0.0000000  0.6508444  3
    226    225    232    233     1  0.0000000  0.6508444  3
    226    228    229    427     1  0.0000000  0.2928800  2
    226    228    229    427     1  0.0000000  0.4184000  4
    226    228    229    235     1  180.0000771  0.0000000  2
    227    225    226    228     1  0.0000000  0.6508444  3
    227    225    232    233     1  0.0000000  0.6508444  3
    227    230    231    236     1  180.0000771  0.0000000  2
    227    230    231    439     1  0.0000000  0.2928800  2
    227    230    231    439     1  0.0000000  0.4184000  4
    228    226    225    232     1  0.0000000  0.6508444  3
    228    229    427    429     1  180.0000771  6.2760000  1
    228    229    427    429     1  0.0000000  0.0000000  2
    229    427    429    430     1  0.0000000  2.2175200  1
    229    427    429    430     1  0.0000000  0.0000000  2
    229    427    429    430     1  180.0000771  0.6276000  3
    229    427    429    430     1  180.0000771  2.0920000  4
    230    227    225    232     1  0.0000000  0.6508444  3
    230    231    439    441     1  180.0000771  6.2760000  1
    230    231    439    441     1  0.0000000  0.0000000  2
    231    439    441    442     1  0.0000000  2.2175200  1
    231    439    441    442     1  0.0000000  0.0000000  2
    231    439    441    442     1  180.0000771  0.6276000  3
    231    439    441    442     1  180.0000771  2.0920000  4
    235    229    427    429     1  180.0000771  10.4600000  2
    236    231    439    441     1  180.0000771  10.4600000  2
    251    252    254    255     1  0.0000000  0.6508444  3
    251    253    256    257     1  0.0000000  0.6508444  3
    251    258    259    260     1  0.0000000  0.6508444  3
    252    251    253    256     1  0.0000000  0.6508444  3
    252    251    258    259     1  0.0000000  0.6508444  3
    252    254    255    451     1  0.0000000  0.2928800  2
    252    254    255    451     1  0.0000000  0.4184000  4
    252    254    255    261     1  180.0000771  0.0000000  2
    253    251    252    254     1  0.0000000  0.6508444  3
    253    251    258    259     1  0.0000000  0.6508444  3
    253    256    257    262     1  180.0000771  0.0000000  2
    253    256    257    463     1  0.0000000  0.2928800  2
    253    256    257    463     1  0.0000000  0.4184000  4
    254    252    251    258     1  0.0000000  0.6508444  3
    254    255    451    453     1  180.0000771  6.2760000  1
    254    255    451    453     1  0.0000000  0.0000000  2
    255    451    453    454     1  0.0000000  2.2175200  1
    255    451    453    454     1  0.0000000  0.0000000  2
    255    451    453    454     1  180.0000771  0.6276000  3
    255    451    453    454     1  180.0000771  2.0920000  4
    256    253    251    258     1  0.0000000  0.6508444  3
    256    257    463    465     1  180.0000771  6.2760000  1
    256    257    463    465     1  0.0000000  0.0000000  2
    257    463    465    466     1  0.0000000  2.2175200  1
    257    463    465    466     1  0.0000000  0.0000000  2
    257    463    465    466     1  180.0000771  0.6276000  3
    257    463    465    466     1  180.0000771  2.0920000  4
    261    255    451    453     1  180.0000771  10.4600000  2
    262    257    463    465     1  180.0000771  10.4600000  2
    277    278    280    281     1  0.0000000  0.6508444  3
    277    279    282    283     1  0.0000000  0.6508444  3
    277    284    285    286     1  0.0000000  0.6508444  3
    278    277    279    282     1  0.0000000  0.6508444  3
    278    277    284    285     1  0.0000000  0.6508444  3
    278    280    281    475     1  0.0000000  0.2928800  2
    278    280    281    475     1  0.0000000  0.4184000  4
    278    280    281    287     1  180.0000771  0.0000000  2
    279    277    278    280     1  0.0000000  0.6508444  3
    279    277    284    285     1  0.0000000  0.6508444  3
    279    282    283    288     1  180.0000771  0.0000000  2
    279    282    283    487     1  0.0000000  0.2928800  2
    279    282    283    487     1  0.0000000  0.4184000  4
    280    278    277    284     1  0.0000000  0.6508444  3
    280    281    475    477     1  180.0000771  6.2760000  1
    280    281    475    477     1  0.0000000  0.0000000  2
    281    475    477    478     1  0.0000000  2.2175200  1
    281    475    477    478     1  0.0000000  0.0000000  2
    281    475    477    478     1  180.0000771  0.6276000  3
    281    475    477    478     1  180.0000771  2.0920000  4
    282    279    277    284     1  0.0000000  0.6508444  3
    282    283    487    489     1  180.0000771  6.2760000  1
    282    283    487    489     1  0.0000000  0.0000000  2
    283    487    489    490     1  0.0000000  2.2175200  1
    283    487    489    490     1  0.0000000  0.0000000  2
    283    487    489    490     1  180.0000771  0.6276000  3
    283    487    489    490     1  180.0000771  2.0920000  4
    287    281    475    477     1  180.0000771  10.4600000  2
    288    283    487    489     1  180.0000771  10.4600000  2
    303    304    306    307     1  0.0000000  0.6508444  3
    303    305    308    309     1  0.0000000  0.6508444  3
    303    310    311    312     1  0.0000000  0.6508444  3
    304    303    305    308     1  0.0000000  0.6508444  3
    304    303    310    311     1  0.0000000  0.6508444  3
    304    306    307    499     1  0.0000000  0.2928800  2
    304    306    307    499     1  0.0000000  0.4184000  4
    304    306    307    313     1  180.0000771  0.0000000  2
    305    303    304    306     1  0.0000000  0.6508444  3
    305    303    310    311     1  0.0000000  0.6508444  3
    305    308    309    314     1  180.0000771  0.0000000  2
    305    308    309    511     1  0.0000000  0.2928800  2
    305    308    309    511     1  0.0000000  0.4184000  4
    306    304    303    310     1  0.0000000  0.6508444  3
    306    307    499    501     1  180.0000771  6.2760000  1
    306    307    499    501     1  0.0000000  0.0000000  2
    307    499    501    502     1  0.0000000  2.2175200  1
    307    499    501    502     1  0.0000000  0.0000000  2
    307    499    501    502     1  180.0000771  0.6276000  3
    307    499    501    502     1  180.0000771  2.0920000  4
    308    305    303    310     1  0.0000000  0.6508444  3
    308    309    511    513     1  180.0000771  6.2760000  1
    308    309    511    513     1  0.0000000  0.0000000  2
    309    511    513    514     1  0.0000000  2.2175200  1
    309    511    513    514     1  0.0000000  0.0000000  2
    309    511    513    514     1  180.0000771  0.6276000  3
    309    511    513    514     1  180.0000771  2.0920000  4
    313    307    499    501     1  180.0000771  10.4600000  2
    314    309    511    513     1  180.0000771  10.4600000  2
    329    330    332    333     1  0.0000000  0.6508444  3
    329    331    334    335     1  0.0000000  0.6508444  3
    329    336    337    338     1  0.0000000  0.6508444  3
    330    329    331    334     1  0.0000000  0.6508444  3
    330    329    336    337     1  0.0000000  0.6508444  3
    330    332    333    523     1  0.0000000  0.2928800  2
    330    332    333    523     1  0.0000000  0.4184000  4
    330    332    333    339     1  180.0000771  0.0000000  2
    331    329    330    332     1  0.0000000  0.6508444  3
    331    329    336    337     1  0.0000000  0.6508444  3
    331    334    335    535     1  0.0000000  0.2928800  2
    331    334    335    535     1  0.0000000  0.4184000  4
    331    334    335    340     1  180.0000771  0.0000000  2
    332    330    329    336     1  0.0000000  0.6508444  3
    332    333    523    525     1  180.0000771  6.2760000  1
    332    333    523    525     1  0.0000000  0.0000000  2
    333    523    525    526     1  0.0000000  2.2175200  1
    333    523    525    526     1  0.0000000  0.0000000  2
    333    523    525    526     1  180.0000771  0.6276000  3
    333    523    525    526     1  180.0000771  2.0920000  4
    334    331    329    336     1  0.0000000  0.6508444  3
    334    335    535    537     1  180.0000771  6.2760000  1
    334    335    535    537     1  0.0000000  0.0000000  2
    335    535    537    538     1  0.0000000  2.2175200  1
    335    535    537    538     1  0.0000000  0.0000000  2
    335    535    537    538     1  180.0000771  0.6276000  3
    335    535    537    538     1  180.0000771  2.0920000  4
    339    333    523    525     1  180.0000771  10.4600000  2
    340    335    535    537     1  180.0000771  10.4600000  2
    355    357    358    363     1  0.0000000  0.6508444  3
    367    369    370    375     1  0.0000000  0.6508444  3
    379    381    382    387     1  0.0000000  0.6508444  3
    391    393    394    399     1  0.0000000  0.6508444  3
    403    405    406    411     1  0.0000000  0.6508444  3
    415    417    418    423     1  0.0000000  0.6508444  3
    427    429    430    435     1  0.0000000  0.6508444  3
    439    441    442    447     1  0.0000000  0.6508444  3
    451    453    454    459     1  0.0000000  0.6508444  3
    463    465    466    471     1  0.0000000  0.6508444  3
    475    477    478    483     1  0.0000000  0.6508444  3
    487    489    490    495     1  0.0000000  0.6508444  3
    499    501    502    507     1  0.0000000  0.6508444  3
    511    513    514    519     1  0.0000000  0.6508444  3
    523    525    526    531     1  0.0000000  0.6508444  3
    535    537    538    543     1  0.0000000  0.6508444  3
      9     52     10     18     4  180.0000771  43.9320000  2
     11     78     12     17     4  180.0000771  43.9320000  2
     13    104     14     20     4  180.0000771  43.9320000  2
     15    130     16     19     4  180.0000771  43.9320000  2
     46    156     47     53     4  180.0000771  43.9320000  2
     48    182     49     54     4  180.0000771  43.9320000  2
     72    208     73     79     4  180.0000771  43.9320000  2
     74    234     75     80     4  180.0000771  43.9320000  2
     98    260     99    105     4  180.0000771  43.9320000  2
    100    286    101    106     4  180.0000771  43.9320000  2
    124    312    125    131     4  180.0000771  43.9320000  2
    126    338    127    132     4  180.0000771  43.9320000  2
    150    355    151    157     4  180.0000771  43.9320000  2
    152    367    153    158     4  180.0000771  43.9320000  2
    176    379    177    183     4  180.0000771  43.9320000  2
    178    391    179    184     4  180.0000771  43.9320000  2
    202    403    203    209     4  180.0000771  43.9320000  2
    204    415    205    210     4  180.0000771  43.9320000  2
    228    427    229    235     4  180.0000771  43.9320000  2
    230    439    231    236     4  180.0000771  43.9320000  2
    254    451    255    261     4  180.0000771  43.9320000  2
    256    463    257    262     4  180.0000771  43.9320000  2
    280    475    281    287     4  180.0000771  43.9320000  2
    282    487    283    288     4  180.0000771  43.9320000  2
    306    499    307    313     4  180.0000771  43.9320000  2
    308    511    309    314     4  180.0000771  43.9320000  2
    332    523    333    339     4  180.0000771  43.9320000  2
    334    535    335    340     4  180.0000771  43.9320000  2
      1      2      3     23     1  0.0000000  0.6508444  3
      1      2      3     24     1  0.0000000  0.6508444  3
      1      7     13     37     1  0.0000000  0.6508444  3
      1      7     13     38     1  0.0000000  0.6508444  3
      1      8     15     39     1  0.0000000  0.6508444  3
      1      8     15     40     1  0.0000000  0.6508444  3
      2      1      7     29     1  0.0000000  0.6508444  3
      2      1      7     30     1  0.0000000  0.6508444  3
      2      1      8     31     1  0.0000000  0.6508444  3
      2      1      8     32     1  0.0000000  0.6508444  3
      2      3      4     42     1  0.0000000  0.6508444  3
     41      1      2      3     1  0.0000000  0.6508444  3
      3      4      5     25     1  0.0000000  0.6508444  3
      3      4      5     26     1  0.0000000  0.6508444  3
      3      4      6     27     1  0.0000000  0.6508444  3
      3      4      6     28     1  0.0000000  0.6508444  3
      4      3      2     21     1  0.0000000  0.6508444  3
      4      3      2     22     1  0.0000000  0.6508444  3
      4      5     11     35     1  0.0000000  0.6508444  3
      4      5     11     36     1  0.0000000  0.6508444  3
      4      6      9     33     1  0.0000000  0.6508444  3
      4      6      9     34     1  0.0000000  0.6508444  3
      5      4      3     23     1  0.0000000  0.6508444  3
      5      4      3     24     1  0.0000000  0.6508444  3
      5      4      6     27     1  0.0000000  0.6508444  3
      5      4      6     28     1  0.0000000  0.6508444  3
      6      4      3     23     1  0.0000000  0.6508444  3
      6      4      3     24     1  0.0000000  0.6508444  3
      6      4      5     25     1  0.0000000  0.6508444  3
      6      4      5     26     1  0.0000000  0.6508444  3
      7      1      2     21     1  0.0000000  0.6508444  3
      7      1      2     22     1  0.0000000  0.6508444  3
      7      1      8     31     1  0.0000000  0.6508444  3
      7      1      8     32     1  0.0000000  0.6508444  3
      8      1      2     21     1  0.0000000  0.6508444  3
      8      1      2     22     1  0.0000000  0.6508444  3
      8      1      7     29     1  0.0000000  0.6508444  3
      8      1      7     30     1  0.0000000  0.6508444  3
      9      6      4     42     1  0.0000000  0.6508444  3
      9     10     52     67     1  180.0000771  10.4600000  2
     10      9      6     27     1  0.0000000  0.6508444  3
     10      9      6     28     1  0.0000000  0.6508444  3
     10     52     51     65     1  0.0000000  0.0000000  2
     10     52     51     66     1  0.0000000  0.0000000  2
     11      5      4     42     1  0.0000000  0.6508444  3
     11     12     78     93     1  180.0000771  10.4600000  2
     12     11      5     25     1  0.0000000  0.6508444  3
     12     11      5     26     1  0.0000000  0.6508444  3
     12     78     77     91     1  0.0000000  0.0000000  2
     12     78     77     92     1  0.0000000  0.0000000  2
     41      1      7     13     1  0.0000000  0.6508444  3
     13     14    104    119     1  180.0000771  10.4600000  2
     14     13      7     29     1  0.0000000  0.6508444  3
     14     13      7     30     1  0.0000000  0.6508444  3
     14    104    103    117     1  0.0000000  0.0000000  2
     14    104    103    118     1  0.0000000  0.0000000  2
     41      1      8     15     1  0.0000000  0.6508444  3
     15     16    130    145     1  180.0000771  10.4600000  2
     16     15      8     31     1  0.0000000  0.6508444  3
     16     15      8     32     1  0.0000000  0.6508444  3
     16    130    129    143     1  0.0000000  0.0000000  2
     16    130    129    144     1  0.0000000  0.0000000  2
     17     12     11     35     1  0.0000000  3.3472000  1
     17     12     11     35     1  0.0000000  0.0000000  2
     17     12     11     35     1  180.0000771  0.3347200  3
     17     12     11     36     1  0.0000000  3.3472000  1
     17     12     11     36     1  0.0000000  0.0000000  2
     17     12     11     36     1  180.0000771  0.3347200  3
     17     12     78     93     1  0.0000000  8.3680000  1
     17     12     78     93     1  180.0000771  10.4600000  2
     18     10      9     33     1  0.0000000  3.3472000  1
     18     10      9     33     1  0.0000000  0.0000000  2
     18     10      9     33     1  180.0000771  0.3347200  3
     18     10      9     34     1  0.0000000  3.3472000  1
     18     10      9     34     1  0.0000000  0.0000000  2
     18     10      9     34     1  180.0000771  0.3347200  3
     18     10     52     67     1  0.0000000  8.3680000  1
     18     10     52     67     1  180.0000771  10.4600000  2
     19     16     15     39     1  0.0000000  3.3472000  1
     19     16     15     39     1  0.0000000  0.0000000  2
     19     16     15     39     1  180.0000771  0.3347200  3
     19     16     15     40     1  0.0000000  3.3472000  1
     19     16     15     40     1  0.0000000  0.0000000  2
     19     16     15     40     1  180.0000771  0.3347200  3
     19     16    130    145     1  0.0000000  8.3680000  1
     19     16    130    145     1  180.0000771  10.4600000  2
     20     14     13     37     1  0.0000000  3.3472000  1
     20     14     13     37     1  0.0000000  0.0000000  2
     20     14     13     37     1  180.0000771  0.3347200  3
     20     14     13     38     1  0.0000000  3.3472000  1
     20     14     13     38     1  0.0000000  0.0000000  2
     20     14     13     38     1  180.0000771  0.3347200  3
     20     14    104    119     1  0.0000000  8.3680000  1
     20     14    104    119     1  180.0000771  10.4600000  2
     41      1      2     21     1  0.0000000  0.6508444  3
     21      2      3     23     1  0.0000000  0.6508444  3
     21      2      3     24     1  0.0000000  0.6508444  3
     41      1      2     22     1  0.0000000  0.6508444  3
     22      2      3     23     1  0.0000000  0.6508444  3
     22      2      3     24     1  0.0000000  0.6508444  3
     23      3      4     42     1  0.0000000  0.6508444  3
     24      3      4     42     1  0.0000000  0.6508444  3
     25      5      4     42     1  0.0000000  0.6508444  3
     25      5     11     35     1  0.0000000  0.6508444  3
     25      5     11     36     1  0.0000000  0.6508444  3
     26      5      4     42     1  0.0000000  0.6508444  3
     26      5     11     35     1  0.0000000  0.6508444  3
     26      5     11     36     1  0.0000000  0.6508444  3
     27      6      4     42     1  0.0000000  0.6508444  3
     27      6      9     33     1  0.0000000  0.6508444  3
     27      6      9     34     1  0.0000000  0.6508444  3
     28      6      4     42     1  0.0000000  0.6508444  3
     28      6      9     33     1  0.0000000  0.6508444  3
     28      6      9     34     1  0.0000000  0.6508444  3
     41      1      7     29     1  0.0000000  0.6508444  3
     29      7     13     37     1  0.0000000  0.6508444  3
     29      7     13     38     1  0.0000000  0.6508444  3
     41      1      7     30     1  0.0000000  0.6508444  3
     30      7     13     37     1  0.0000000  0.6508444  3
     30      7     13     38     1  0.0000000  0.6508444  3
     41      1      8     31     1  0.0000000  0.6508444  3
     31      8     15     39     1  0.0000000  0.6508444  3
     31      8     15     40     1  0.0000000  0.6508444  3
     41      1      8     32     1  0.0000000  0.6508444  3
     32      8     15     39     1  0.0000000  0.6508444  3
     32      8     15     40     1  0.0000000  0.6508444  3
     33      9     10     52     1  180.0000771  0.0000000  2
     34      9     10     52     1  180.0000771  0.0000000  2
     35     11     12     78     1  180.0000771  0.0000000  2
     36     11     12     78     1  180.0000771  0.0000000  2
     37     13     14    104     1  180.0000771  0.0000000  2
     38     13     14    104     1  180.0000771  0.0000000  2
     39     15     16    130     1  180.0000771  0.0000000  2
     40     15     16    130     1  180.0000771  0.0000000  2
     43     44     46     59     1  0.0000000  0.6508444  3
     43     44     46     60     1  0.0000000  0.6508444  3
     43     45     48     61     1  0.0000000  0.6508444  3
     43     45     48     62     1  0.0000000  0.6508444  3
     43     50     51     65     1  0.0000000  0.6508444  3
     43     50     51     66     1  0.0000000  0.6508444  3
     44     43     45     57     1  0.0000000  0.6508444  3
     44     43     45     58     1  0.0000000  0.6508444  3
     44     43     50     63     1  0.0000000  0.6508444  3
     44     43     50     64     1  0.0000000  0.6508444  3
     45     43     44     55     1  0.0000000  0.6508444  3
     45     43     44     56     1  0.0000000  0.6508444  3
     45     43     50     63     1  0.0000000  0.6508444  3
     45     43     50     64     1  0.0000000  0.6508444  3
     46     44     43     68     1  0.0000000  0.6508444  3
     46     47    156    171     1  180.0000771  10.4600000  2
     47     46     44     55     1  0.0000000  0.6508444  3
     47     46     44     56     1  0.0000000  0.6508444  3
     47    156    155    169     1  0.0000000  0.0000000  2
     47    156    155    170     1  0.0000000  0.0000000  2
     48     45     43     68     1  0.0000000  0.6508444  3
     48     49    182    197     1  180.0000771  10.4600000  2
     49     48     45     57     1  0.0000000  0.6508444  3
     49     48     45     58     1  0.0000000  0.6508444  3
     49    182    181    195     1  0.0000000  0.0000000  2
     49    182    181    196     1  0.0000000  0.0000000  2
     50     43     44     55     1  0.0000000  0.6508444  3
     50     43     44     56     1  0.0000000  0.6508444  3
     50     43     45     57     1  0.0000000  0.6508444  3
     50     43     45     58     1  0.0000000  0.6508444  3
     50     51     52     67     1  0.0000000  0.0000000  2
     51     50     43     68     1  0.0000000  0.6508444  3
     52     51     50     63     1  0.0000000  0.6508444  3
     52     51     50     64     1  0.0000000  0.6508444  3
     53     47     46     59     1  0.0000000  3.3472000  1
     53     47     46     59     1  0.0000000  0.0000000  2
     53     47     46     59     1  180.0000771  0.3347200  3
     53     47     46     60     1  0.0000000  3.3472000  1
     53     47     46     60     1  0.0000000  0.0000000  2
     53     47     46     60     1  180.0000771  0.3347200  3
     53     47    156    171     1  0.0000000  8.3680000  1
     53     47    156    171     1  180.0000771  10.4600000  2
     54     49     48     61     1  0.0000000  3.3472000  1
     54     49     48     61     1  0.0000000  0.0000000  2
     54     49     48     61     1  180.0000771  0.3347200  3
     54     49     48     62     1  0.0000000  3.3472000  1
     54     49     48     62     1  0.0000000  0.0000000  2
     54     49     48     62     1  180.0000771  0.3347200  3
     54     49    182    197     1  0.0000000  8.3680000  1
     54     49    182    197     1  180.0000771  10.4600000  2
     55     44     43     68     1  0.0000000  0.6508444  3
     55     44     46     59     1  0.0000000  0.6508444  3
     55     44     46     60     1  0.0000000  0.6508444  3
     56     44     43     68     1  0.0000000  0.6508444  3
     56     44     46     59     1  0.0000000  0.6508444  3
     56     44     46     60     1  0.0000000  0.6508444  3
     57     45     43     68     1  0.0000000  0.6508444  3
     57     45     48     61     1  0.0000000  0.6508444  3
     57     45     48     62     1  0.0000000  0.6508444  3
     58     45     43     68     1  0.0000000  0.6508444  3
     58     45     48     61     1  0.0000000  0.6508444  3
     58     45     48     62     1  0.0000000  0.6508444  3
     59     46     47    156     1  180.0000771  0.0000000  2
     60     46     47    156     1  180.0000771  0.0000000  2
     61     48     49    182     1  180.0000771  0.0000000  2
     62     48     49    182     1  180.0000771  0.0000000  2
     63     50     43     68     1  0.0000000  0.6508444  3
     63     50     51     65     1  0.0000000  0.6508444  3
     63     50     51     66     1  0.0000000  0.6508444  3
     64     50     43     68     1  0.0000000  0.6508444  3
     64     50     51     65     1  0.0000000  0.6508444  3
     64     50     51     66     1  0.0000000  0.6508444  3
     65     51     52     67     1  0.0000000  0.0000000  2
     66     51     52     67     1  0.0000000  0.0000000  2
     69     70     72     85     1  0.0000000  0.6508444  3
     69     70     72     86     1  0.0000000  0.6508444  3
     69     71     74     87     1  0.0000000  0.6508444  3
     69     71     74     88     1  0.0000000  0.6508444  3
     69     76     77     91     1  0.0000000  0.6508444  3
     69     76     77     92     1  0.0000000  0.6508444  3
     70     69     71     83     1  0.0000000  0.6508444  3
     70     69     71     84     1  0.0000000  0.6508444  3
     70     69     76     89     1  0.0000000  0.6508444  3
     70     69     76     90     1  0.0000000  0.6508444  3
     71     69     70     81     1  0.0000000  0.6508444  3
     71     69     70     82     1  0.0000000  0.6508444  3
     71     69     76     89     1  0.0000000  0.6508444  3
     71     69     76     90     1  0.0000000  0.6508444  3
     72     70     69     94     1  0.0000000  0.6508444  3
     72     73    208    223     1  180.0000771  10.4600000  2
     73     72     70     81     1  0.0000000  0.6508444  3
     73     72     70     82     1  0.0000000  0.6508444  3
     73    208    207    221     1  0.0000000  0.0000000  2
     73    208    207    222     1  0.0000000  0.0000000  2
     74     71     69     94     1  0.0000000  0.6508444  3
     74     75    234    249     1  180.0000771  10.4600000  2
     75     74     71     83     1  0.0000000  0.6508444  3
     75     74     71     84     1  0.0000000  0.6508444  3
     75    234    233    247     1  0.0000000  0.0000000  2
     75    234    233    248     1  0.0000000  0.0000000  2
     76     69     70     81     1  0.0000000  0.6508444  3
     76     69     70     82     1  0.0000000  0.6508444  3
     76     69     71     83     1  0.0000000  0.6508444  3
     76     69     71     84     1  0.0000000  0.6508444  3
     76     77     78     93     1  0.0000000  0.0000000  2
     77     76     69     94     1  0.0000000  0.6508444  3
     78     77     76     89     1  0.0000000  0.6508444  3
     78     77     76     90     1  0.0000000  0.6508444  3
     79     73     72     85     1  0.0000000  3.3472000  1
     79     73     72     85     1  0.0000000  0.0000000  2
     79     73     72     85     1  180.0000771  0.3347200  3
     79     73     72     86     1  0.0000000  3.3472000  1
     79     73     72     86     1  0.0000000  0.0000000  2
     79     73     72     86     1  180.0000771  0.3347200  3
     79     73    208    223     1  0.0000000  8.3680000  1
     79     73    208    223     1  180.0000771  10.4600000  2
     80     75     74     87     1  0.0000000  3.3472000  1
     80     75     74     87     1  0.0000000  0.0000000  2
     80     75     74     87     1  180.0000771  0.3347200  3
     80     75     74     88     1  0.0000000  3.3472000  1
     80     75     74     88     1  0.0000000  0.0000000  2
     80     75     74     88     1  180.0000771  0.3347200  3
     80     75    234    249     1  0.0000000  8.3680000  1
     80     75    234    249     1  180.0000771  10.4600000  2
     81     70     69     94     1  0.0000000  0.6508444  3
     81     70     72     85     1  0.0000000  0.6508444  3
     81     70     72     86     1  0.0000000  0.6508444  3
     82     70     69     94     1  0.0000000  0.6508444  3
     82     70     72     85     1  0.0000000  0.6508444  3
     82     70     72     86     1  0.0000000  0.6508444  3
     83     71     69     94     1  0.0000000  0.6508444  3
     83     71     74     87     1  0.0000000  0.6508444  3
     83     71     74     88     1  0.0000000  0.6508444  3
     84     71     69     94     1  0.0000000  0.6508444  3
     84     71     74     87     1  0.0000000  0.6508444  3
     84     71     74     88     1  0.0000000  0.6508444  3
     85     72     73    208     1  180.0000771  0.0000000  2
     86     72     73    208     1  180.0000771  0.0000000  2
     87     74     75    234     1  180.0000771  0.0000000  2
     88     74     75    234     1  180.0000771  0.0000000  2
     89     76     69     94     1  0.0000000  0.6508444  3
     89     76     77     91     1  0.0000000  0.6508444  3
     89     76     77     92     1  0.0000000  0.6508444  3
     90     76     69     94     1  0.0000000  0.6508444  3
     90     76     77     91     1  0.0000000  0.6508444  3
     90     76     77     92     1  0.0000000  0.6508444  3
     91     77     78     93     1  0.0000000  0.0000000  2
     92     77     78     93     1  0.0000000  0.0000000  2
     95     96     98    111     1  0.0000000  0.6508444  3
     95     96     98    112     1  0.0000000  0.6508444  3
     95     97    100    113     1  0.0000000  0.6508444  3
     95     97    100    114     1  0.0000000  0.6508444  3
     95    102    103    117     1  0.0000000  0.6508444  3
     95    102    103    118     1  0.0000000  0.6508444  3
     96     95     97    109     1  0.0000000  0.6508444  3
     96     95     97    110     1  0.0000000  0.6508444  3
     96     95    102    115     1  0.0000000  0.6508444  3
     96     95    102    116     1  0.0000000  0.6508444  3
     97     95     96    107     1  0.0000000  0.6508444  3
     97     95     96    108     1  0.0000000  0.6508444  3
     97     95    102    115     1  0.0000000  0.6508444  3
     97     95    102    116     1  0.0000000  0.6508444  3
     98     96     95    120     1  0.0000000  0.6508444  3
     98     99    260    275     1  180.0000771  10.4600000  2
     99     98     96    107     1  0.0000000  0.6508444  3
     99     98     96    108     1  0.0000000  0.6508444  3
     99    260    259    273     1  0.0000000  0.0000000  2
     99    260    259    274     1  0.0000000  0.0000000  2
    100     97     95    120     1  0.0000000  0.6508444  3
    100    101    286    301     1  180.0000771  10.4600000  2
    101    100     97    109     1  0.0000000  0.6508444  3
    101    100     97    110     1  0.0000000  0.6508444  3
    101    286    285    299     1  0.0000000  0.0000000  2
    101    286    285    300     1  0.0000000  0.0000000  2
    102     95     96    107     1  0.0000000  0.6508444  3
    102     95     96    108     1  0.0000000  0.6508444  3
    102     95     97    109     1  0.0000000  0.6508444  3
    102     95     97    110     1  0.0000000  0.6508444  3
    102    103    104    119     1  0.0000000  0.0000000  2
    103    102     95    120     1  0.0000000  0.6508444  3
    104    103    102    115     1  0.0000000  0.6508444  3
    104    103    102    116     1  0.0000000  0.6508444  3
    105     99     98    111     1  0.0000000  3.3472000  1
    105     99     98    111     1  0.0000000  0.0000000  2
    105     99     98    111     1  180.0000771  0.3347200  3
    105     99     98    112     1  0.0000000  3.3472000  1
    105     99     98    112     1  0.0000000  0.0000000  2
    105     99     98    112     1  180.0000771  0.3347200  3
    105     99    260    275     1  0.0000000  8.3680000  1
    105     99    260    275     1  180.0000771  10.4600000  2
    106    101    100    113     1  0.0000000  3.3472000  1
    106    101    100    113     1  0.0000000  0.0000000  2
    106    101    100    113     1  180.0000771  0.3347200  3
    106    101    100    114     1  0.0000000  3.3472000  1
    106    101    100    114     1  0.0000000  0.0000000  2
    106    101    100    114     1  180.0000771  0.3347200  3
    106    101    286    301     1  0.0000000  8.3680000  1
    106    101    286    301     1  180.0000771  10.4600000  2
    107     96     95    120     1  0.0000000  0.6508444  3
    107     96     98    111     1  0.0000000  0.6508444  3
    107     96     98    112     1  0.0000000  0.6508444  3
    108     96     95    120     1  0.0000000  0.6508444  3
    108     96     98    111     1  0.0000000  0.6508444  3
    108     96     98    112     1  0.0000000  0.6508444  3
    109     97     95    120     1  0.0000000  0.6508444  3
    109     97    100    113     1  0.0000000  0.6508444  3
    109     97    100    114     1  0.0000000  0.6508444  3
    110     97     95    120     1  0.0000000  0.6508444  3
    110     97    100    113     1  0.0000000  0.6508444  3
    110     97    100    114     1  0.0000000  0.6508444  3
    111     98     99    260     1  180.0000771  0.0000000  2
    112     98     99    260     1  180.0000771  0.0000000  2
    113    100    101    286     1  180.0000771  0.0000000  2
    114    100    101    286     1  180.0000771  0.0000000  2
    115    102     95    120     1  0.0000000  0.6508444  3
    115    102    103    117     1  0.0000000  0.6508444  3
    115    102    103    118     1  0.0000000  0.6508444  3
    116    102     95    120     1  0.0000000  0.6508444  3
    116    102    103    117     1  0.0000000  0.6508444  3
    116    102    103    118     1  0.0000000  0.6508444  3
    117    103    104    119     1  0.0000000  0.0000000  2
    118    103    104    119     1  0.0000000  0.0000000  2
    121    122    124    137     1  0.0000000  0.6508444  3
    121    122    124    138     1  0.0000000  0.6508444  3
    121    123    126    139     1  0.0000000  0.6508444  3
    121    123    126    140     1  0.0000000  0.6508444  3
    121    128    129    143     1  0.0000000  0.6508444  3
    121    128    129    144     1  0.0000000  0.6508444  3
    122    121    123    135     1  0.0000000  0.6508444  3
    122    121    123    136     1  0.0000000  0.6508444  3
    122    121    128    141     1  0.0000000  0.6508444  3
    122    121    128    142     1  0.0000000  0.6508444  3
    123    121    122    133     1  0.0000000  0.6508444  3
    123    121    122    134     1  0.0000000  0.6508444  3
    123    121    128    141     1  0.0000000  0.6508444  3
    123    121    128    142     1  0.0000000  0.6508444  3
    124    122    121    146     1  0.0000000  0.6508444  3
    124    125    312    327     1  180.0000771  10.4600000  2
    125    124    122    133     1  0.0000000  0.6508444  3
    125    124    122    134     1  0.0000000  0.6508444  3
    125    312    311    325     1  0.0000000  0.0000000  2
    125    312    311    326     1  0.0000000  0.0000000  2
    126    123    121    146     1  0.0000000  0.6508444  3
    126    127    338    353     1  180.0000771  10.4600000  2
    127    126    123    135     1  0.0000000  0.6508444  3
    127    126    123    136     1  0.0000000  0.6508444  3
    127    338    337    351     1  0.0000000  0.0000000  2
    127    338    337    352     1  0.0000000  0.0000000  2
    128    121    122    133     1  0.0000000  0.6508444  3
    128    121    122    134     1  0.0000000  0.6508444  3
    128    121    123    135     1  0.0000000  0.6508444  3
    128    121    123    136     1  0.0000000  0.6508444  3
    128    129    130    145     1  0.0000000  0.0000000  2
    129    128    121    146     1  0.0000000  0.6508444  3
    130    129    128    141     1  0.0000000  0.6508444  3
    130    129    128    142     1  0.0000000  0.6508444  3
    131    125    124    137     1  0.0000000  3.3472000  1
    131    125    124    137     1  0.0000000  0.0000000  2
    131    125    124    137     1  180.0000771  0.3347200  3
    131    125    124    138     1  0.0000000  3.3472000  1
    131    125    124    138     1  0.0000000  0.0000000  2
    131    125    124    138     1  180.0000771  0.3347200  3
    131    125    312    327     1  0.0000000  8.3680000  1
    131    125    312    327     1  180.0000771  10.4600000  2
    132    127    126    139     1  0.0000000  3.3472000  1
    132    127    126    139     1  0.0000000  0.0000000  2
    132    127    126    139     1  180.0000771  0.3347200  3
    132    127    126    140     1  0.0000000  3.3472000  1
    132    127    126    140     1  0.0000000  0.0000000  2
    132    127    126    140     1  180.0000771  0.3347200  3
    132    127    338    353     1  0.0000000  8.3680000  1
    132    127    338    353     1  180.0000771  10.4600000  2
    133    122    121    146     1  0.0000000  0.6508444  3
    133    122    124    137     1  0.0000000  0.6508444  3
    133    122    124    138     1  0.0000000  0.6508444  3
    134    122    121    146     1  0.0000000  0.6508444  3
    134    122    124    137     1  0.0000000  0.6508444  3
    134    122    124    138     1  0.0000000  0.6508444  3
    135    123    121    146     1  0.0000000  0.6508444  3
    135    123    126    139     1  0.0000000  0.6508444  3
    135    123    126    140     1  0.0000000  0.6508444  3
    136    123    121    146     1  0.0000000  0.6508444  3
    136    123    126    139     1  0.0000000  0.6508444  3
    136    123    126    140     1  0.0000000  0.6508444  3
    137    124    125    312     1  180.0000771  0.0000000  2
    138    124    125    312     1  180.0000771  0.0000000  2
    139    126    127    338     1  180.0000771  0.0000000  2
    140    126    127    338     1  180.0000771  0.0000000  2
    141    128    121    146     1  0.0000000  0.6508444  3
    141    128    129    143     1  0.0000000  0.6508444  3
    141    128    129    144     1  0.0000000  0.6508444  3
    142    128    121    146     1  0.0000000  0.6508444  3
    142    128    129    143     1  0.0000000  0.6508444  3
    142    128    129    144     1  0.0000000  0.6508444  3
    143    129    130    145     1  0.0000000  0.0000000  2
    144    129    130    145     1  0.0000000  0.0000000  2
    147    148    150    163     1  0.0000000  0.6508444  3
    147    148    150    164     1  0.0000000  0.6508444  3
    147    149    152    165     1  0.0000000  0.6508444  3
    147    149    152    166     1  0.0000000  0.6508444  3
    147    154    155    169     1  0.0000000  0.6508444  3
    147    154    155    170     1  0.0000000  0.6508444  3
    148    147    149    161     1  0.0000000  0.6508444  3
    148    147    149    162     1  0.0000000  0.6508444  3
    148    147    154    167     1  0.0000000  0.6508444  3
    148    147    154    168     1  0.0000000  0.6508444  3
    149    147    148    159     1  0.0000000  0.6508444  3
    149    147    148    160     1  0.0000000  0.6508444  3
    149    147    154    167     1  0.0000000  0.6508444  3
    149    147    154    168     1  0.0000000  0.6508444  3
    150    148    147    172     1  0.0000000  0.6508444  3
    150    151    355    356     1  180.0000771  10.4600000  2
    151    150    148    159     1  0.0000000  0.6508444  3
    151    150    148    160     1  0.0000000  0.6508444  3
    151    355    357    359     1  0.0000000  0.0000000  2
    151    355    357    360     1  0.0000000  0.0000000  2
    152    149    147    172     1  0.0000000  0.6508444  3
    152    153    367    368     1  180.0000771  10.4600000  2
    153    152    149    161     1  0.0000000  0.6508444  3
    153    152    149    162     1  0.0000000  0.6508444  3
    153    367    369    371     1  0.0000000  0.0000000  2
    153    367    369    372     1  0.0000000  0.0000000  2
    154    147    148    159     1  0.0000000  0.6508444  3
    154    147    148    160     1  0.0000000  0.6508444  3
    154    147    149    161     1  0.0000000  0.6508444  3
    154    147    149    162     1  0.0000000  0.6508444  3
    154    155    156    171     1  0.0000000  0.0000000  2
    155    154    147    172     1  0.0000000  0.6508444  3
    156    155    154    167     1  0.0000000  0.6508444  3
    156    155    154    168     1  0.0000000  0.6508444  3
    157    151    150    163     1  0.0000000  3.3472000  1
    157    151    150    163     1  0.0000000  0.0000000  2
    157    151    150    163     1  180.0000771  0.3347200  3
    157    151    150    164     1  0.0000000  3.3472000  1
    157    151    150    164     1  0.0000000  0.0000000  2
    157    151    150    164     1  180.0000771  0.3347200  3
    157    151    355    356     1  0.0000000  8.3680000  1
    157    151    355    356     1  180.0000771  10.4600000  2
    158    153    152    165     1  0.0000000  3.3472000  1
    158    153    152    165     1  0.0000000  0.0000000  2
    158    153    152    165     1  180.0000771  0.3347200  3
    158    153    152    166     1  0.0000000  3.3472000  1
    158    153    152    166     1  0.0000000  0.0000000  2
    158    153    152    166     1  180.0000771  0.3347200  3
    158    153    367    368     1  0.0000000  8.3680000  1
    158    153    367    368     1  180.0000771  10.4600000  2
    159    148    147    172     1  0.0000000  0.6508444  3
    159    148    150    163     1  0.0000000  0.6508444  3
    159    148    150    164     1  0.0000000  0.6508444  3
    160    148    147    172     1  0.0000000  0.6508444  3
    160    148    150    163     1  0.0000000  0.6508444  3
    160    148    150    164     1  0.0000000  0.6508444  3
    161    149    147    172     1  0.0000000  0.6508444  3
    161    149    152    165     1  0.0000000  0.6508444  3
    161    149    152    166     1  0.0000000  0.6508444  3
    162    149    147    172     1  0.0000000  0.6508444  3
    162    149    152    165     1  0.0000000  0.6508444  3
    162    149    152    166     1  0.0000000  0.6508444  3
    163    150    151    355     1  180.0000771  0.0000000  2
    164    150    151    355     1  180.0000771  0.0000000  2
    165    152    153    367     1  180.0000771  0.0000000  2
    166    152    153    367     1  180.0000771  0.0000000  2
    167    154    147    172     1  0.0000000  0.6508444  3
    167    154    155    169     1  0.0000000  0.6508444  3
    167    154    155    170     1  0.0000000  0.6508444  3
    168    154    147    172     1  0.0000000  0.6508444  3
    168    154    155    169     1  0.0000000  0.6508444  3
    168    154    155    170     1  0.0000000  0.6508444  3
    169    155    156    171     1  0.0000000  0.0000000  2
    170    155    156    171     1  0.0000000  0.0000000  2
    173    174    176    189     1  0.0000000  0.6508444  3
    173    174    176    190     1  0.0000000  0.6508444  3
    173    175    178    191     1  0.0000000  0.6508444  3
    173    175    178    192     1  0.0000000  0.6508444  3
    173    180    181    195     1  0.0000000  0.6508444  3
    173    180    181    196     1  0.0000000  0.6508444  3
    174    173    175    187     1  0.0000000  0.6508444  3
    174    173    175    188     1  0.0000000  0.6508444  3
    174    173    180    193     1  0.0000000  0.6508444  3
    174    173    180    194     1  0.0000000  0.6508444  3
    175    173    174    185     1  0.0000000  0.6508444  3
    175    173    174    186     1  0.0000000  0.6508444  3
    175    173    180    193     1  0.0000000  0.6508444  3
    175    173    180    194     1  0.0000000  0.6508444  3
    176    174    173    198     1  0.0000000  0.6508444  3
    176    177    379    380     1  180.0000771  10.4600000  2
    177    176    174    185     1  0.0000000  0.6508444  3
    177    176    174    186     1  0.0000000  0.6508444  3
    177    379    381    383     1  0.0000000  0.0000000  2
    177    379    381    384     1  0.0000000  0.0000000  2
    178    175    173    198     1  0.0000000  0.6508444  3
    178    179    391    392     1  180.0000771  10.4600000  2
    179    178    175    187     1  0.0000000  0.6508444  3
    179    178    175    188     1  0.0000000  0.6508444  3
    179    391    393    395     1  0.0000000  0.0000000  2
    179    391    393    396     1  0.0000000  0.0000000  2
    180    173    174    185     1  0.0000000  0.6508444  3
    180    173    174    186     1  0.0000000  0.6508444  3
    180    173    175    187     1  0.0000000  0.6508444  3
    180    173    175    188     1  0.0000000  0.6508444  3
    180    181    182    197     1  0.0000000  0.0000000  2
    181    180    173    198     1  0.0000000  0.6508444  3
    182    181    180    193     1  0.0000000  0.6508444  3
    182    181    180    194     1  0.0000000  0.6508444  3
    183    177    176    189     1  0.0000000  3.3472000  1
    183    177    176    189     1  0.0000000  0.0000000  2
    183    177    176    189     1  180.0000771  0.3347200  3
    183    177    176    190     1  0.0000000  3.3472000  1
    183    177    176    190     1  0.0000000  0.0000000  2
    183    177    176    190     1  180.0000771  0.3347200  3
    183    177    379    380     1  0.0000000  8.3680000  1
    183    177    379    380     1  180.0000771  10.4600000  2
    184    179    178    191     1  0.0000000  3.3472000  1
    184    179    178    191     1  0.0000000  0.0000000  2
    184    179    178    191     1  180.0000771  0.3347200  3
    184    179    178    192     1  0.0000000  3.3472000  1
    184    179    178    192     1  0.0000000  0.0000000  2
    184    179    178    192     1  180.0000771  0.3347200  3
    184    179    391    392     1  0.0000000  8.3680000  1
    184    179    391    392     1  180.0000771  10.4600000  2
    185    174    173    198     1  0.0000000  0.6508444  3
    185    174    176    189     1  0.0000000  0.6508444  3
    185    174    176    190     1  0.0000000  0.6508444  3
    186    174    173    198     1  0.0000000  0.6508444  3
    186    174    176    189     1  0.0000000  0.6508444  3
    186    174    176    190     1  0.0000000  0.6508444  3
    187    175    173    198     1  0.0000000  0.6508444  3
    187    175    178    191     1  0.0000000  0.6508444  3
    187    175    178    192     1  0.0000000  0.6508444  3
    188    175    173    198     1  0.0000000  0.6508444  3
    188    175    178    191     1  0.0000000  0.6508444  3
    188    175    178    192     1  0.0000000  0.6508444  3
    189    176    177    379     1  180.0000771  0.0000000  2
    190    176    177    379     1  180.0000771  0.0000000  2
    191    178    179    391     1  180.0000771  0.0000000  2
    192    178    179    391     1  180.0000771  0.0000000  2
    193    180    173    198     1  0.0000000  0.6508444  3
    193    180    181    195     1  0.0000000  0.6508444  3
    193    180    181    196     1  0.0000000  0.6508444  3
    194    180    173    198     1  0.0000000  0.6508444  3
    194    180    181    195     1  0.0000000  0.6508444  3
    194    180    181    196     1  0.0000000  0.6508444  3
    195    181    182    197     1  0.0000000  0.0000000  2
    196    181    182    197     1  0.0000000  0.0000000  2
    199    200    202    215     1  0.0000000  0.6508444  3
    199    200    202    216     1  0.0000000  0.6508444  3
    199    201    204    217     1  0.0000000  0.6508444  3
    199    201    204    218     1  0.0000000  0.6508444  3
    199    206    207    221     1  0.0000000  0.6508444  3
    199    206    207    222     1  0.0000000  0.6508444  3
    200    199    201    213     1  0.0000000  0.6508444  3
    200    199    201    214     1  0.0000000  0.6508444  3
    200    199    206    219     1  0.0000000  0.6508444  3
    200    199    206    220     1  0.0000000  0.6508444  3
    201    199    200    211     1  0.0000000  0.6508444  3
    201    199    200    212     1  0.0000000  0.6508444  3
    201    199    206    219     1  0.0000000  0.6508444  3
    201    199    206    220     1  0.0000000  0.6508444  3
    202    200    199    224     1  0.0000000  0.6508444  3
    202    203    403    404     1  180.0000771  10.4600000  2
    203    202    200    211     1  0.0000000  0.6508444  3
    203    202    200    212     1  0.0000000  0.6508444  3
    203    403    405    407     1  0.0000000  0.0000000  2
    203    403    405    408     1  0.0000000  0.0000000  2
    204    201    199    224     1  0.0000000  0.6508444  3
    204    205    415    416     1  180.0000771  10.4600000  2
    205    204    201    213     1  0.0000000  0.6508444  3
    205    204    201    214     1  0.0000000  0.6508444  3
    205    415    417    419     1  0.0000000  0.0000000  2
    205    415    417    420     1  0.0000000  0.0000000  2
    206    199    200    211     1  0.0000000  0.6508444  3
    206    199    200    212     1  0.0000000  0.6508444  3
    206    199    201    213     1  0.0000000  0.6508444  3
    206    199    201    214     1  0.0000000  0.6508444  3
    206    207    208    223     1  0.0000000  0.0000000  2
    207    206    199    224     1  0.0000000  0.6508444  3
    208    207    206    219     1  0.0000000  0.6508444  3
    208    207    206    220     1  0.0000000  0.6508444  3
    209    203    202    215     1  0.0000000  3.3472000  1
    209    203    202    215     1  0.0000000  0.0000000  2
    209    203    202    215     1  180.0000771  0.3347200  3
    209    203    202    216     1  0.0000000  3.3472000  1
    209    203    202    216     1  0.0000000  0.0000000  2
    209    203    202    216     1  180.0000771  0.3347200  3
    209    203    403    404     1  0.0000000  8.3680000  1
    209    203    403    404     1  180.0000771  10.4600000  2
    210    205    204    217     1  0.0000000  3.3472000  1
    210    205    204    217     1  0.0000000  0.0000000  2
    210    205    204    217     1  180.0000771  0.3347200  3
    210    205    204    218     1  0.0000000  3.3472000  1
    210    205    204    218     1  0.0000000  0.0000000  2
    210    205    204    218     1  180.0000771  0.3347200  3
    210    205    415    416     1  0.0000000  8.3680000  1
    210    205    415    416     1  180.0000771  10.4600000  2
    211    200    199    224     1  0.0000000  0.6508444  3
    211    200    202    215     1  0.0000000  0.6508444  3
    211    200    202    216     1  0.0000000  0.6508444  3
    212    200    199    224     1  0.0000000  0.6508444  3
    212    200    202    215     1  0.0000000  0.6508444  3
    212    200    202    216     1  0.0000000  0.6508444  3
    213    201    199    224     1  0.0000000  0.6508444  3
    213    201    204    217     1  0.0000000  0.6508444  3
    213    201    204    218     1  0.0000000  0.6508444  3
    214    201    199    224     1  0.0000000  0.6508444  3
    214    201    204    217     1  0.0000000  0.6508444  3
    214    201    204    218     1  0.0000000  0.6508444  3
    215    202    203    403     1  180.0000771  0.0000000  2
    216    202    203    403     1  180.0000771  0.0000000  2
    217    204    205    415     1  180.0000771  0.0000000  2
    218    204    205    415     1  180.0000771  0.0000000  2
    219    206    199    224     1  0.0000000  0.6508444  3
    219    206    207    221     1  0.0000000  0.6508444  3
    219    206    207    222     1  0.0000000  0.6508444  3
    220    206    199    224     1  0.0000000  0.6508444  3
    220    206    207    221     1  0.0000000  0.6508444  3
    220    206    207    222     1  0.0000000  0.6508444  3
    221    207    208    223     1  0.0000000  0.0000000  2
    222    207    208    223     1  0.0000000  0.0000000  2
    225    226    228    241     1  0.0000000  0.6508444  3
    225    226    228    242     1  0.0000000  0.6508444  3
    225    227    230    243     1  0.0000000  0.6508444  3
    225    227    230    244     1  0.0000000  0.6508444  3
    225    232    233    247     1  0.0000000  0.6508444  3
    225    232    233    248     1  0.0000000  0.6508444  3
    226    225    227    239     1  0.0000000  0.6508444  3
    226    225    227    240     1  0.0000000  0.6508444  3
    226    225    232    245     1  0.0000000  0.6508444  3
    226    225    232    246     1  0.0000000  0.6508444  3
    227    225    226    237     1  0.0000000  0.6508444  3
    227    225    226    238     1  0.0000000  0.6508444  3
    227    225    232    245     1  0.0000000  0.6508444  3
    227    225    232    246     1  0.0000000  0.6508444  3
    228    226    225    250     1  0.0000000  0.6508444  3
    228    229    427    428     1  180.0000771  10.4600000  2
    229    228    226    237     1  0.0000000  0.6508444  3
    229    228    226    238     1  0.0000000  0.6508444  3
    229    427    429    431     1  0.0000000  0.0000000  2
    229    427    429    432     1  0.0000000  0.0000000  2
    230    227    225    250     1  0.0000000  0.6508444  3
    230    231    439    440     1  180.0000771  10.4600000  2
    231    230    227    239     1  0.0000000  0.6508444  3
    231    230    227    240     1  0.0000000  0.6508444  3
    231    439    441    443     1  0.0000000  0.0000000  2
    231    439    441    444     1  0.0000000  0.0000000  2
    232    225    226    237     1  0.0000000  0.6508444  3
    232    225    226    238     1  0.0000000  0.6508444  3
    232    225    227    239     1  0.0000000  0.6508444  3
    232    225    227    240     1  0.0000000  0.6508444  3
    232    233    234    249     1  0.0000000  0.0000000  2
    233    232    225    250     1  0.0000000  0.6508444  3
    234    233    232    245     1  0.0000000  0.6508444  3
    234    233    232    246     1  0.0000000  0.6508444  3
    235    229    228    241     1  0.0000000  3.3472000  1
    235    229    228    241     1  0.0000000  0.0000000  2
    235    229    228    241     1  180.0000771  0.3347200  3
    235    229    228    242     1  0.0000000  3.3472000  1
    235    229    228    242     1  0.0000000  0.0000000  2
    235    229    228    242     1  180.0000771  0.3347200  3
    235    229    427    428     1  0.0000000  8.3680000  1
    235    229    427    428     1  180.0000771  10.4600000  2
    236    231    230    243     1  0.0000000  3.3472000  1
    236    231    230    243     1  0.0000000  0.0000000  2
    236    231    230    243     1  180.0000771  0.3347200  3
    236    231    230    244     1  0.0000000  3.3472000  1
    236    231    230    244     1  0.0000000  0.0000000  2
    236    231    230    244     1  180.0000771  0.3347200  3
    236    231    439    440     1  0.0000000  8.3680000  1
    236    231    439    440     1  180.0000771  10.4600000  2
    237    226    225    250     1  0.0000000  0.6508444  3
    237    226    228    241     1  0.0000000  0.6508444  3
    237    226    228    242     1  0.0000000  0.6508444  3
    238    226    225    250     1  0.0000000  0.6508444  3
    238    226    228    241     1  0.0000000  0.6508444  3
    238    226    228    242     1  0.0000000  0.6508444  3
    239    227    225    250     1  0.0000000  0.6508444  3
    239    227    230    243     1  0.0000000  0.6508444  3
    239    227    230    244     1  0.0000000  0.6508444  3
    240    227    225    250     1  0.0000000  0.6508444  3
    240    227    230    243     1  0.0000000  0.6508444  3
    240    227    230    244     1  0.0000000  0.6508444  3
    241    228    229    427     1  180.0000771  0.0000000  2
    242    228    229    427     1  180.0000771  0.0000000  2
    243    230    231    439     1  180.0000771  0.0000000  2
    244    230    231    439     1  180.0000771  0.0000000  2
    245    232    225    250     1  0.0000000  0.6508444  3
    245    232    233    247     1  0.0000000  0.6508444  3
    245    232    233    248     1  0.0000000  0.6508444  3
    246    232    225    250     1  0.0000000  0.6508444  3
    246    232    233    247     1  0.0000000  0.6508444  3
    246    232    233    248     1  0.0000000  0.6508444  3
    247    233    234    249     1  0.0000000  0.0000000  2
    248    233    234    249     1  0.0000000  0.0000000  2
    251    252    254    267     1  0.0000000  0.6508444  3
    251    252    254    268     1  0.0000000  0.6508444  3
    251    253    256    269     1  0.0000000  0.6508444  3
    251    253    256    270     1  0.0000000  0.6508444  3
    251    258    259    273     1  0.0000000  0.6508444  3
    251    258    259    274     1  0.0000000  0.6508444  3
    252    251    253    265     1  0.0000000  0.6508444  3
    252    251    253    266     1  0.0000000  0.6508444  3
    252    251    258    271     1  0.0000000  0.6508444  3
    252    251    258    272     1  0.0000000  0.6508444  3
    253    251    252    263     1  0.0000000  0.6508444  3
    253    251    252    264     1  0.0000000  0.6508444  3
    253    251    258    271     1  0.0000000  0.6508444  3
    253    251    258    272     1  0.0000000  0.6508444  3
    254    252    251    276     1  0.0000000  0.6508444  3
    254    255    451    452     1  180.0000771  10.4600000  2
    255    254    252    263     1  0.0000000  0.6508444  3
    255    254    252    264     1  0.0000000  0.6508444  3
    255    451    453    455     1  0.0000000  0.0000000  2
    255    451    453    456     1  0.0000000  0.0000000  2
    256    253    251    276     1  0.0000000  0.6508444  3
    256    257    463    464     1  180.0000771  10.4600000  2
    257    256    253    265     1  0.0000000  0.6508444  3
    257    256    253    266     1  0.0000000  0.6508444  3
    257    463    465    467     1  0.0000000  0.0000000  2
    257    463    465    468     1  0.0000000  0.0000000  2
    258    251    252    263     1  0.0000000  0.6508444  3
    258    251    252    264     1  0.0000000  0.6508444  3
    258    251    253    265     1  0.0000000  0.6508444  3
    258    251    253    266     1  0.0000000  0.6508444  3
    258    259    260    275     1  0.0000000  0.0000000  2
    259    258    251    276     1  0.0000000  0.6508444  3
    260    259    258    271     1  0.0000000  0.6508444  3
    260    259    258    272     1  0.0000000  0.6508444  3
    261    255    254    267     1  0.0000000  3.3472000  1
    261    255    254    267     1  0.0000000  0.0000000  2
    261    255    254    267     1  180.0000771  0.3347200  3
    261    255    254    268     1  0.0000000  3.3472000  1
    261    255    254    268     1  0.0000000  0.0000000  2
    261    255    254    268     1  180.0000771  0.3347200  3
    261    255    451    452     1  0.0000000  8.3680000  1
    261    255    451    452     1  180.0000771  10.4600000  2
    262    257    256    269     1  0.0000000  3.3472000  1
    262    257    256    269     1  0.0000000  0.0000000  2
    262    257    256    269     1  180.0000771  0.3347200  3
    262    257    256    270     1  0.0000000  3.3472000  1
    262    257    256    270     1  0.0000000  0.0000000  2
    262    257    256    270     1  180.0000771  0.3347200  3
    262    257    463    464     1  0.0000000  8.3680000  1
    262    257    463    464     1  180.0000771  10.4600000  2
    263    252    251    276     1  0.0000000  0.6508444  3
    263    252    254    267     1  0.0000000  0.6508444  3
    263    252    254    268     1  0.0000000  0.6508444  3
    264    252    251    276     1  0.0000000  0.6508444  3
    264    252    254    267     1  0.0000000  0.6508444  3
    264    252    254    268     1  0.0000000  0.6508444  3
    265    253    251    276     1  0.0000000  0.6508444  3
    265    253    256    269     1  0.0000000  0.6508444  3
    265    253    256    270     1  0.0000000  0.6508444  3
    266    253    251    276     1  0.0000000  0.6508444  3
    266    253    256    269     1  0.0000000  0.6508444  3
    266    253    256    270     1  0.0000000  0.6508444  3
    267    254    255    451     1  180.0000771  0.0000000  2
    268    254    255    451     1  180.0000771  0.0000000  2
    269    256    257    463     1  180.0000771  0.0000000  2
    270    256    257    463     1  180.0000771  0.0000000  2
    271    258    251    276     1  0.0000000  0.6508444  3
    271    258    259    273     1  0.0000000  0.6508444  3
    271    258    259    274     1  0.0000000  0.6508444  3
    272    258    251    276     1  0.0000000  0.6508444  3
    272    258    259    273     1  0.0000000  0.6508444  3
    272    258    259    274     1  0.0000000  0.6508444  3
    273    259    260    275     1  0.0000000  0.0000000  2
    274    259    260    275     1  0.0000000  0.0000000  2
    277    278    280    293     1  0.0000000  0.6508444  3
    277    278    280    294     1  0.0000000  0.6508444  3
    277    279    282    295     1  0.0000000  0.6508444  3
    277    279    282    296     1  0.0000000  0.6508444  3
    277    284    285    299     1  0.0000000  0.6508444  3
    277    284    285    300     1  0.0000000  0.6508444  3
    278    277    279    291     1  0.0000000  0.6508444  3
    278    277    279    292     1  0.0000000  0.6508444  3
    278    277    284    297     1  0.0000000  0.6508444  3
    278    277    284    298     1  0.0000000  0.6508444  3
    279    277    278    289     1  0.0000000  0.6508444  3
    279    277    278    290     1  0.0000000  0.6508444  3
    279    277    284    297     1  0.0000000  0.6508444  3
    279    277    284    298     1  0.0000000  0.6508444  3
    280    278    277    302     1  0.0000000  0.6508444  3
    280    281    475    476     1  180.0000771  10.4600000  2
    281    280    278    289     1  0.0000000  0.6508444  3
    281    280    278    290     1  0.0000000  0.6508444  3
    281    475    477    479     1  0.0000000  0.0000000  2
    281    475    477    480     1  0.0000000  0.0000000  2
    282    279    277    302     1  0.0000000  0.6508444  3
    282    283    487    488     1  180.0000771  10.4600000  2
    283    282    279    291     1  0.0000000  0.6508444  3
    283    282    279    292     1  0.0000000  0.6508444  3
    283    487    489    491     1  0.0000000  0.0000000  2
    283    487    489    492     1  0.0000000  0.0000000  2
    284    277    278    289     1  0.0000000  0.6508444  3
    284    277    278    290     1  0.0000000  0.6508444  3
    284    277    279    291     1  0.0000000  0.6508444  3
    284    277    279    292     1  0.0000000  0.6508444  3
    284    285    286    301     1  0.0000000  0.0000000  2
    285    284    277    302     1  0.0000000  0.6508444  3
    286    285    284    297     1  0.0000000  0.6508444  3
    286    285    284    298     1  0.0000000  0.6508444  3
    287    281    280    293     1  0.0000000  3.3472000  1
    287    281    280    293     1  0.0000000  0.0000000  2
    287    281    280    293     1  180.0000771  0.3347200  3
    287    281    280    294     1  0.0000000  3.3472000  1
    287    281    280    294     1  0.0000000  0.0000000  2
    287    281    280    294     1  180.0000771  0.3347200  3
    287    281    475    476     1  0.0000000  8.3680000  1
    287    281    475    476     1  180.0000771  10.4600000  2
    288    283    282    295     1  0.0000000  3.3472000  1
    288    283    282    295     1  0.0000000  0.0000000  2
    288    283    282    295     1  180.0000771  0.3347200  3
    288    283    282    296     1  0.0000000  3.3472000  1
    288    283    282    296     1  0.0000000  0.0000000  2
    288    283    282    296     1  180.0000771  0.3347200  3
    288    283    487    488     1  0.0000000  8.3680000  1
    288    283    487    488     1  180.0000771  10.4600000  2
    289    278    277    302     1  0.0000000  0.6508444  3
    289    278    280    293     1  0.0000000  0.6508444  3
    289    278    280    294     1  0.0000000  0.6508444  3
    290    278    277    302     1  0.0000000  0.6508444  3
    290    278    280    293     1  0.0000000  0.6508444  3
    290    278    280    294     1  0.0000000  0.6508444  3
    291    279    277    302     1  0.0000000  0.6508444  3
    291    279    282    295     1  0.0000000  0.6508444  3
    291    279    282    296     1  0.0000000  0.6508444  3
    292    279    277    302     1  0.0000000  0.6508444  3
    292    279    282    295     1  0.0000000  0.6508444  3
    292    279    282    296     1  0.0000000  0.6508444  3
    293    280    281    475     1  180.0000771  0.0000000  2
    294    280    281    475     1  180.0000771  0.0000000  2
    295    282    283    487     1  180.0000771  0.0000000  2
    296    282    283    487     1  180.0000771  0.0000000  2
    297    284    277    302     1  0.0000000  0.6508444  3
    297    284    285    299     1  0.0000000  0.6508444  3
    297    284    285    300     1  0.0000000  0.6508444  3
    298    284    277    302     1  0.0000000  0.6508444  3
    298    284    285    299     1  0.0000000  0.6508444  3
    298    284    285    300     1  0.0000000  0.6508444  3
    299    285    286    301     1  0.0000000  0.0000000  2
    300    285    286    301     1  0.0000000  0.0000000  2
    303    304    306    319     1  0.0000000  0.6508444  3
    303    304    306    320     1  0.0000000  0.6508444  3
    303    305    308    321     1  0.0000000  0.6508444  3
    303    305    308    322     1  0.0000000  0.6508444  3
    303    310    311    325     1  0.0000000  0.6508444  3
    303    310    311    326     1  0.0000000  0.6508444  3
    304    303    305    317     1  0.0000000  0.6508444  3
    304    303    305    318     1  0.0000000  0.6508444  3
    304    303    310    323     1  0.0000000  0.6508444  3
    304    303    310    324     1  0.0000000  0.6508444  3
    305    303    304    315     1  0.0000000  0.6508444  3
    305    303    304    316     1  0.0000000  0.6508444  3
    305    303    310    323     1  0.0000000  0.6508444  3
    305    303    310    324     1  0.0000000  0.6508444  3
    306    304    303    328     1  0.0000000  0.6508444  3
    306    307    499    500     1  180.0000771  10.4600000  2
    307    306    304    315     1  0.0000000  0.6508444  3
    307    306    304    316     1  0.0000000  0.6508444  3
    307    499    501    503     1  0.0000000  0.0000000  2
    307    499    501    504     1  0.0000000  0.0000000  2
    308    305    303    328     1  0.0000000  0.6508444  3
    308    309    511    512     1  180.0000771  10.4600000  2
    309    308    305    317     1  0.0000000  0.6508444  3
    309    308    305    318     1  0.0000000  0.6508444  3
    309    511    513    515     1  0.0000000  0.0000000  2
    309    511    513    516     1  0.0000000  0.0000000  2
    310    303    304    315     1  0.0000000  0.6508444  3
    310    303    304    316     1  0.0000000  0.6508444  3
    310    303    305    317     1  0.0000000  0.6508444  3
    310    303    305    318     1  0.0000000  0.6508444  3
    310    311    312    327     1  0.0000000  0.0000000  2
    311    310    303    328     1  0.0000000  0.6508444  3
    312    311    310    323     1  0.0000000  0.6508444  3
    312    311    310    324     1  0.0000000  0.6508444  3
    313    307    306    319     1  0.0000000  3.3472000  1
    313    307    306    319     1  0.0000000  0.0000000  2
    313    307    306    319     1  180.0000771  0.3347200  3
    313    307    306    320     1  0.0000000  3.3472000  1
    313    307    306    320     1  0.0000000  0.0000000  2
    313    307    306    320     1  180.0000771  0.3347200  3
    313    307    499    500     1  0.0000000  8.3680000  1
    313    307    499    500     1  180.0000771  10.4600000  2
    314    309    308    321     1  0.0000000  3.3472000  1
    314    309    308    321     1  0.0000000  0.0000000  2
    314    309    308    321     1  180.0000771  0.3347200  3
    314    309    308    322     1  0.0000000  3.3472000  1
    314    309    308    322     1  0.0000000  0.0000000  2
    314    309    308    322     1  180.0000771  0.3347200  3
    314    309    511    512     1  0.0000000  8.3680000  1
    314    309    511    512     1  180.0000771  10.4600000  2
    315    304    303    328     1  0.0000000  0.6508444  3
    315    304    306    319     1  0.0000000  0.6508444  3
    315    304    306    320     1  0.0000000  0.6508444  3
    316    304    303    328     1  0.0000000  0.6508444  3
    316    304    306    319     1  0.0000000  0.6508444  3
    316    304    306    320     1  0.0000000  0.6508444  3
    317    305    303    328     1  0.0000000  0.6508444  3
    317    305    308    321     1  0.0000000  0.6508444  3
    317    305    308    322     1  0.0000000  0.6508444  3
    318    305    303    328     1  0.0000000  0.6508444  3
    318    305    308    321     1  0.0000000  0.6508444  3
    318    305    308    322     1  0.0000000  0.6508444  3
    319    306    307    499     1  180.0000771  0.0000000  2
    320    306    307    499     1  180.0000771  0.0000000  2
    321    308    309    511     1  180.0000771  0.0000000  2
    322    308    309    511     1  180.0000771  0.0000000  2
    323    310    303    328     1  0.0000000  0.6508444  3
    323    310    311    325     1  0.0000000  0.6508444  3
    323    310    311    326     1  0.0000000  0.6508444  3
    324    310    303    328     1  0.0000000  0.6508444  3
    324    310    311    325     1  0.0000000  0.6508444  3
    324    310    311    326     1  0.0000000  0.6508444  3
    325    311    312    327     1  0.0000000  0.0000000  2
    326    311    312    327     1  0.0000000  0.0000000  2
    329    330    332    345     1  0.0000000  0.6508444  3
    329    330    332    346     1  0.0000000  0.6508444  3
    329    331    334    347     1  0.0000000  0.6508444  3
    329    331    334    348     1  0.0000000  0.6508444  3
    329    336    337    351     1  0.0000000  0.6508444  3
    329    336    337    352     1  0.0000000  0.6508444  3
    330    329    331    343     1  0.0000000  0.6508444  3
    330    329    331    344     1  0.0000000  0.6508444  3
    330    329    336    349     1  0.0000000  0.6508444  3
    330    329    336    350     1  0.0000000  0.6508444  3
    331    329    330    341     1  0.0000000  0.6508444  3
    331    329    330    342     1  0.0000000  0.6508444  3
    331    329    336    349     1  0.0000000  0.6508444  3
    331    329    336    350     1  0.0000000  0.6508444  3
    332    330    329    354     1  0.0000000  0.6508444  3
    332    333    523    524     1  180.0000771  10.4600000  2
    333    332    330    341     1  0.0000000  0.6508444  3
    333    332    330    342     1  0.0000000  0.6508444  3
    333    523    525    527     1  0.0000000  0.0000000  2
    333    523    525    528     1  0.0000000  0.0000000  2
    334    331    329    354     1  0.0000000  0.6508444  3
    334    335    535    536     1  180.0000771  10.4600000  2
    335    334    331    343     1  0.0000000  0.6508444  3
    335    334    331    344     1  0.0000000  0.6508444  3
    335    535    537    539     1  0.0000000  0.0000000  2
    335    535    537    540     1  0.0000000  0.0000000  2
    336    329    330    341     1  0.0000000  0.6508444  3
    336    329    330    342     1  0.0000000  0.6508444  3
    336    329    331    343     1  0.0000000  0.6508444  3
    336    329    331    344     1  0.0000000  0.6508444  3
    336    337    338    353     1  0.0000000  0.0000000  2
    337    336    329    354     1  0.0000000  0.6508444  3
    338    337    336    349     1  0.0000000  0.6508444  3
    338    337    336    350     1  0.0000000  0.6508444  3
    339    333    332    345     1  0.0000000  3.3472000  1
    339    333    332    345     1  0.0000000  0.0000000  2
    339    333    332    345     1  180.0000771  0.3347200  3
    339    333    332    346     1  0.0000000  3.3472000  1
    339    333    332    346     1  0.0000000  0.0000000  2
    339    333    332    346     1  180.0000771  0.3347200  3
    339    333    523    524     1  0.0000000  8.3680000  1
    339    333    523    524     1  180.0000771  10.4600000  2
    340    335    334    347     1  0.0000000  3.3472000  1
    340    335    334    347     1  0.0000000  0.0000000  2
    340    335    334    347     1  180.0000771  0.3347200  3
    340    335    334    348     1  0.0000000  3.3472000  1
    340    335    334    348     1  0.0000000  0.0000000  2
    340    335    334    348     1  180.0000771  0.3347200  3
    340    335    535    536     1  0.0000000  8.3680000  1
    340    335    535    536     1  180.0000771  10.4600000  2
    341    330    329    354     1  0.0000000  0.6508444  3
    341    330    332    345     1  0.0000000  0.6508444  3
    341    330    332    346     1  0.0000000  0.6508444  3
    342    330    329    354     1  0.0000000  0.6508444  3
    342    330    332    345     1  0.0000000  0.6508444  3
    342    330    332    346     1  0.0000000  0.6508444  3
    343    331    329    354     1  0.0000000  0.6508444  3
    343    331    334    347     1  0.0000000  0.6508444  3
    343    331    334    348     1  0.0000000  0.6508444  3
    344    331    329    354     1  0.0000000  0.6508444  3
    344    331    334    347     1  0.0000000  0.6508444  3
    344    331    334    348     1  0.0000000  0.6508444  3
    345    332    333    523     1  180.0000771  0.0000000  2
    346    332    333    523     1  180.0000771  0.0000000  2
    347    334    335    535     1  180.0000771  0.0000000  2
    348    334    335    535     1  180.0000771  0.0000000  2
    349    336    329    354     1  0.0000000  0.6508444  3
    349    336    337    351     1  0.0000000  0.6508444  3
    349    336    337    352     1  0.0000000  0.6508444  3
    350    336    329    354     1  0.0000000  0.6508444  3
    350    336    337    351     1  0.0000000  0.6508444  3
    350    336    337    352     1  0.0000000  0.6508444  3
    351    337    338    353     1  0.0000000  0.0000000  2
    352    337    338    353     1  0.0000000  0.0000000  2
    355    357    358    361     1  0.0000000  0.6508444  3
    355    357    358    362     1  0.0000000  0.6508444  3
    356    355    357    358     1  0.0000000  0.0000000  2
    356    355    357    359     1  0.0000000  0.0000000  2
    356    355    357    360     1  0.0000000  0.0000000  2
    357    358    363    364     1  0.0000000  0.6508444  3
    357    358    363    365     1  0.0000000  0.6508444  3
    357    358    363    366     1  0.0000000  0.6508444  3
    359    357    358    363     1  0.0000000  0.6508444  3
    359    357    358    361     1  0.0000000  0.6508444  3
    359    357    358    362     1  0.0000000  0.6508444  3
    360    357    358    363     1  0.0000000  0.6508444  3
    360    357    358    361     1  0.0000000  0.6508444  3
    360    357    358    362     1  0.0000000  0.6508444  3
    361    358    363    364     1  0.0000000  0.6508444  3
    361    358    363    365     1  0.0000000  0.6508444  3
    361    358    363    366     1  0.0000000  0.6508444  3
    362    358    363    364     1  0.0000000  0.6508444  3
    362    358    363    365     1  0.0000000  0.6508444  3
    362    358    363    366     1  0.0000000  0.6508444  3
    367    369    370    373     1  0.0000000  0.6508444  3
    367    369    370    374     1  0.0000000  0.6508444  3
    368    367    369    370     1  0.0000000  0.0000000  2
    368    367    369    371     1  0.0000000  0.0000000  2
    368    367    369    372     1  0.0000000  0.0000000  2
    369    370    375    376     1  0.0000000  0.6508444  3
    369    370    375    377     1  0.0000000  0.6508444  3
    369    370    375    378     1  0.0000000  0.6508444  3
    371    369    370    375     1  0.0000000  0.6508444  3
    371    369    370    373     1  0.0000000  0.6508444  3
    371    369    370    374     1  0.0000000  0.6508444  3
    372    369    370    375     1  0.0000000  0.6508444  3
    372    369    370    373     1  0.0000000  0.6508444  3
    372    369    370    374     1  0.0000000  0.6508444  3
    373    370    375    376     1  0.0000000  0.6508444  3
    373    370    375    377     1  0.0000000  0.6508444  3
    373    370    375    378     1  0.0000000  0.6508444  3
    374    370    375    376     1  0.0000000  0.6508444  3
    374    370    375    377     1  0.0000000  0.6508444  3
    374    370    375    378     1  0.0000000  0.6508444  3
    379    381    382    385     1  0.0000000  0.6508444  3
    379    381    382    386     1  0.0000000  0.6508444  3
    380    379    381    382     1  0.0000000  0.0000000  2
    380    379    381    383     1  0.0000000  0.0000000  2
    380    379    381    384     1  0.0000000  0.0000000  2
    381    382    387    388     1  0.0000000  0.6508444  3
    381    382    387    389     1  0.0000000  0.6508444  3
    381    382    387    390     1  0.0000000  0.6508444  3
    383    381    382    387     1  0.0000000  0.6508444  3
    383    381    382    385     1  0.0000000  0.6508444  3
    383    381    382    386     1  0.0000000  0.6508444  3
    384    381    382    387     1  0.0000000  0.6508444  3
    384    381    382    385     1  0.0000000  0.6508444  3
    384    381    382    386     1  0.0000000  0.6508444  3
    385    382    387    388     1  0.0000000  0.6508444  3
    385    382    387    389     1  0.0000000  0.6508444  3
    385    382    387    390     1  0.0000000  0.6508444  3
    386    382    387    388     1  0.0000000  0.6508444  3
    386    382    387    389     1  0.0000000  0.6508444  3
    386    382    387    390     1  0.0000000  0.6508444  3
    391    393    394    397     1  0.0000000  0.6508444  3
    391    393    394    398     1  0.0000000  0.6508444  3
    392    391    393    394     1  0.0000000  0.0000000  2
    392    391    393    395     1  0.0000000  0.0000000  2
    392    391    393    396     1  0.0000000  0.0000000  2
    393    394    399    400     1  0.0000000  0.6508444  3
    393    394    399    401     1  0.0000000  0.6508444  3
    393    394    399    402     1  0.0000000  0.6508444  3
    395    393    394    399     1  0.0000000  0.6508444  3
    395    393    394    397     1  0.0000000  0.6508444  3
    395    393    394    398     1  0.0000000  0.6508444  3
    396    393    394    399     1  0.0000000  0.6508444  3
    396    393    394    397     1  0.0000000  0.6508444  3
    396    393    394    398     1  0.0000000  0.6508444  3
    397    394    399    400     1  0.0000000  0.6508444  3
    397    394    399    401     1  0.0000000  0.6508444  3
    397    394    399    402     1  0.0000000  0.6508444  3
    398    394    399    400     1  0.0000000  0.6508444  3
    398    394    399    401     1  0.0000000  0.6508444  3
    398    394    399    402     1  0.0000000  0.6508444  3
    403    405    406    409     1  0.0000000  0.6508444  3
    403    405    406    410     1  0.0000000  0.6508444  3
    404    403    405    406     1  0.0000000  0.0000000  2
    404    403    405    407     1  0.0000000  0.0000000  2
    404    403    405    408     1  0.0000000  0.0000000  2
    405    406    411    412     1  0.0000000  0.6508444  3
    405    406    411    413     1  0.0000000  0.6508444  3
    405    406    411    414     1  0.0000000  0.6508444  3
    407    405    406    411     1  0.0000000  0.6508444  3
    407    405    406    409     1  0.0000000  0.6508444  3
    407    405    406    410     1  0.0000000  0.6508444  3
    408    405    406    411     1  0.0000000  0.6508444  3
    408    405    406    409     1  0.0000000  0.6508444  3
    408    405    406    410     1  0.0000000  0.6508444  3
    409    406    411    412     1  0.0000000  0.6508444  3
    409    406    411    413     1  0.0000000  0.6508444  3
    409    406    411    414     1  0.0000000  0.6508444  3
    410    406    411    412     1  0.0000000  0.6508444  3
    410    406    411    413     1  0.0000000  0.6508444  3
    410    406    411    414     1  0.0000000  0.6508444  3
    415    417    418    421     1  0.0000000  0.6508444  3
    415    417    418    422     1  0.0000000  0.6508444  3
    416    415    417    418     1  0.0000000  0.0000000  2
    416    415    417    419     1  0.0000000  0.0000000  2
    416    415    417    420     1  0.0000000  0.0000000  2
    417    418    423    424     1  0.0000000  0.6508444  3
    417    418    423    425     1  0.0000000  0.6508444  3
    417    418    423    426     1  0.0000000  0.6508444  3
    419    417    418    423     1  0.0000000  0.6508444  3
    419    417    418    421     1  0.0000000  0.6508444  3
    419    417    418    422     1  0.0000000  0.6508444  3
    420    417    418    423     1  0.0000000  0.6508444  3
    420    417    418    421     1  0.0000000  0.6508444  3
    420    417    418    422     1  0.0000000  0.6508444  3
    421    418    423    424     1  0.0000000  0.6508444  3
    421    418    423    425     1  0.0000000  0.6508444  3
    421    418    423    426     1  0.0000000  0.6508444  3
    422    418    423    424     1  0.0000000  0.6508444  3
    422    418    423    425     1  0.0000000  0.6508444  3
    422    418    423    426     1  0.0000000  0.6508444  3
    427    429    430    433     1  0.0000000  0.6508444  3
    427    429    430    434     1  0.0000000  0.6508444  3
    428    427    429    430     1  0.0000000  0.0000000  2
    428    427    429    431     1  0.0000000  0.0000000  2
    428    427    429    432     1  0.0000000  0.0000000  2
    429    430    435    436     1  0.0000000  0.6508444  3
    429    430    435    437     1  0.0000000  0.6508444  3
    429    430    435    438     1  0.0000000  0.6508444  3
    431    429    430    435     1  0.0000000  0.6508444  3
    431    429    430    433     1  0.0000000  0.6508444  3
    431    429    430    434     1  0.0000000  0.6508444  3
    432    429    430    435     1  0.0000000  0.6508444  3
    432    429    430    433     1  0.0000000  0.6508444  3
    432    429    430    434     1  0.0000000  0.6508444  3
    433    430    435    436     1  0.0000000  0.6508444  3
    433    430    435    437     1  0.0000000  0.6508444  3
    433    430    435    438     1  0.0000000  0.6508444  3
    434    430    435    436     1  0.0000000  0.6508444  3
    434    430    435    437     1  0.0000000  0.6508444  3
    434    430    435    438     1  0.0000000  0.6508444  3
    439    441    442    445     1  0.0000000  0.6508444  3
    439    441    442    446     1  0.0000000  0.6508444  3
    440    439    441    442     1  0.0000000  0.0000000  2
    440    439    441    443     1  0.0000000  0.0000000  2
    440    439    441    444     1  0.0000000  0.0000000  2
    441    442    447    448     1  0.0000000  0.6508444  3
    441    442    447    449     1  0.0000000  0.6508444  3
    441    442    447    450     1  0.0000000  0.6508444  3
    443    441    442    447     1  0.0000000  0.6508444  3
    443    441    442    445     1  0.0000000  0.6508444  3
    443    441    442    446     1  0.0000000  0.6508444  3
    444    441    442    447     1  0.0000000  0.6508444  3
    444    441    442    445     1  0.0000000  0.6508444  3
    444    441    442    446     1  0.0000000  0.6508444  3
    445    442    447    448     1  0.0000000  0.6508444  3
    445    442    447    449     1  0.0000000  0.6508444  3
    445    442    447    450     1  0.0000000  0.6508444  3
    446    442    447    448     1  0.0000000  0.6508444  3
    446    442    447    449     1  0.0000000  0.6508444  3
    446    442    447    450     1  0.0000000  0.6508444  3
    451    453    454    457     1  0.0000000  0.6508444  3
    451    453    454    458     1  0.0000000  0.6508444  3
    452    451    453    454     1  0.0000000  0.0000000  2
    452    451    453    455     1  0.0000000  0.0000000  2
    452    451    453    456     1  0.0000000  0.0000000  2
    453    454    459    460     1  0.0000000  0.6508444  3
    453    454    459    461     1  0.0000000  0.6508444  3
    453    454    459    462     1  0.0000000  0.6508444  3
    455    453    454    459     1  0.0000000  0.6508444  3
    455    453    454    457     1  0.0000000  0.6508444  3
    455    453    454    458     1  0.0000000  0.6508444  3
    456    453    454    459     1  0.0000000  0.6508444  3
    456    453    454    457     1  0.0000000  0.6508444  3
    456    453    454    458     1  0.0000000  0.6508444  3
    457    454    459    460     1  0.0000000  0.6508444  3
    457    454    459    461     1  0.0000000  0.6508444  3
    457    454    459    462     1  0.0000000  0.6508444  3
    458    454    459    460     1  0.0000000  0.6508444  3
    458    454    459    461     1  0.0000000  0.6508444  3
    458    454    459    462     1  0.0000000  0.6508444  3
    463    465    466    469     1  0.0000000  0.6508444  3
    463    465    466    470     1  0.0000000  0.6508444  3
    464    463    465    466     1  0.0000000  0.0000000  2
    464    463    465    467     1  0.0000000  0.0000000  2
    464    463    465    468     1  0.0000000  0.0000000  2
    465    466    471    472     1  0.0000000  0.6508444  3
    465    466    471    473     1  0.0000000  0.6508444  3
    465    466    471    474     1  0.0000000  0.6508444  3
    467    465    466    471     1  0.0000000  0.6508444  3
    467    465    466    469     1  0.0000000  0.6508444  3
    467    465    466    470     1  0.0000000  0.6508444  3
    468    465    466    471     1  0.0000000  0.6508444  3
    468    465    466    469     1  0.0000000  0.6508444  3
    468    465    466    470     1  0.0000000  0.6508444  3
    469    466    471    472     1  0.0000000  0.6508444  3
    469    466    471    473     1  0.0000000  0.6508444  3
    469    466    471    474     1  0.0000000  0.6508444  3
    470    466    471    472     1  0.0000000  0.6508444  3
    470    466    471    473     1  0.0000000  0.6508444  3
    470    466    471    474     1  0.0000000  0.6508444  3
    475    477    478    481     1  0.0000000  0.6508444  3
    475    477    478    482     1  0.0000000  0.6508444  3
    476    475    477    478     1  0.0000000  0.0000000  2
    476    475    477    479     1  0.0000000  0.0000000  2
    476    475    477    480     1  0.0000000  0.0000000  2
    477    478    483    484     1  0.0000000  0.6508444  3
    477    478    483    485     1  0.0000000  0.6508444  3
    477    478    483    486     1  0.0000000  0.6508444  3
    479    477    478    483     1  0.0000000  0.6508444  3
    479    477    478    481     1  0.0000000  0.6508444  3
    479    477    478    482     1  0.0000000  0.6508444  3
    480    477    478    483     1  0.0000000  0.6508444  3
    480    477    478    481     1  0.0000000  0.6508444  3
    480    477    478    482     1  0.0000000  0.6508444  3
    481    478    483    484     1  0.0000000  0.6508444  3
    481    478    483    485     1  0.0000000  0.6508444  3
    481    478    483    486     1  0.0000000  0.6508444  3
    482    478    483    484     1  0.0000000  0.6508444  3
    482    478    483    485     1  0.0000000  0.6508444  3
    482    478    483    486     1  0.0000000  0.6508444  3
    487    489    490    493     1  0.0000000  0.6508444  3
    487    489    490    494     1  0.0000000  0.6508444  3
    488    487    489    490     1  0.0000000  0.0000000  2
    488    487    489    491     1  0.0000000  0.0000000  2
    488    487    489    492     1  0.0000000  0.0000000  2
    489    490    495    496     1  0.0000000  0.6508444  3
    489    490    495    497     1  0.0000000  0.6508444  3
    489    490    495    498     1  0.0000000  0.6508444  3
    491    489    490    495     1  0.0000000  0.6508444  3
    491    489    490    493     1  0.0000000  0.6508444  3
    491    489    490    494     1  0.0000000  0.6508444  3
    492    489    490    495     1  0.0000000  0.6508444  3
    492    489    490    493     1  0.0000000  0.6508444  3
    492    489    490    494     1  0.0000000  0.6508444  3
    493    490    495    496     1  0.0000000  0.6508444  3
    493    490    495    497     1  0.0000000  0.6508444  3
    493    490    495    498     1  0.0000000  0.6508444  3
    494    490    495    496     1  0.0000000  0.6508444  3
    494    490    495    497     1  0.0000000  0.6508444  3
    494    490    495    498     1  0.0000000  0.6508444  3
    499    501    502    505     1  0.0000000  0.6508444  3
    499    501    502    506     1  0.0000000  0.6508444  3
    500    499    501    502     1  0.0000000  0.0000000  2
    500    499    501    503     1  0.0000000  0.0000000  2
    500    499    501    504     1  0.0000000  0.0000000  2
    501    502    507    508     1  0.0000000  0.6508444  3
    501    502    507    509     1  0.0000000  0.6508444  3
    501    502    507    510     1  0.0000000  0.6508444  3
    503    501    502    507     1  0.0000000  0.6508444  3
    503    501    502    505     1  0.0000000  0.6508444  3
    503    501    502    506     1  0.0000000  0.6508444  3
    504    501    502    507     1  0.0000000  0.6508444  3
    504    501    502    505     1  0.0000000  0.6508444  3
    504    501    502    506     1  0.0000000  0.6508444  3
    505    502    507    508     1  0.0000000  0.6508444  3
    505    502    507    509     1  0.0000000  0.6508444  3
    505    502    507    510     1  0.0000000  0.6508444  3
    506    502    507    508     1  0.0000000  0.6508444  3
    506    502    507    509     1  0.0000000  0.6508444  3
    506    502    507    510     1  0.0000000  0.6508444  3
    511    513    514    517     1  0.0000000  0.6508444  3
    511    513    514    518     1  0.0000000  0.6508444  3
    512    511    513    514     1  0.0000000  0.0000000  2
    512    511    513    515     1  0.0000000  0.0000000  2
    512    511    513    516     1  0.0000000  0.0000000  2
    513    514    519    520     1  0.0000000  0.6508444  3
    513    514    519    521     1  0.0000000  0.6508444  3
    513    514    519    522     1  0.0000000  0.6508444  3
    515    513    514    519     1  0.0000000  0.6508444  3
    515    513    514    517     1  0.0000000  0.6508444  3
    515    513    514    518     1  0.0000000  0.6508444  3
    516    513    514    519     1  0.0000000  0.6508444  3
    516    513    514    517     1  0.0000000  0.6508444  3
    516    513    514    518     1  0.0000000  0.6508444  3
    517    514    519    520     1  0.0000000  0.6508444  3
    517    514    519    521     1  0.0000000  0.6508444  3
    517    514    519    522     1  0.0000000  0.6508444  3
    518    514    519    520     1  0.0000000  0.6508444  3
    518    514    519    521     1  0.0000000  0.6508444  3
    518    514    519    522     1  0.0000000  0.6508444  3
    523    525    526    529     1  0.0000000  0.6508444  3
    523    525    526    530     1  0.0000000  0.6508444  3
    524    523    525    526     1  0.0000000  0.0000000  2
    524    523    525    527     1  0.0000000  0.0000000  2
    524    523    525    528     1  0.0000000  0.0000000  2
    525    526    531    532     1  0.0000000  0.6508444  3
    525    526    531    533     1  0.0000000  0.6508444  3
    525    526    531    534     1  0.0000000  0.6508444  3
    527    525    526    531     1  0.0000000  0.6508444  3
    527    525    526    529     1  0.0000000  0.6508444  3
    527    525    526    530     1  0.0000000  0.6508444  3
    528    525    526    531     1  0.0000000  0.6508444  3
    528    525    526    529     1  0.0000000  0.6508444  3
    528    525    526    530     1  0.0000000  0.6508444  3
    529    526    531    532     1  0.0000000  0.6508444  3
    529    526    531    533     1  0.0000000  0.6508444  3
    529    526    531    534     1  0.0000000  0.6508444  3
    530    526    531    532     1  0.0000000  0.6508444  3
    530    526    531    533     1  0.0000000  0.6508444  3
    530    526    531    534     1  0.0000000  0.6508444  3
    535    537    538    541     1  0.0000000  0.6508444  3
    535    537    538    542     1  0.0000000  0.6508444  3
    536    535    537    538     1  0.0000000  0.0000000  2
    536    535    537    539     1  0.0000000  0.0000000  2
    536    535    537    540     1  0.0000000  0.0000000  2
    537    538    543    544     1  0.0000000  0.6508444  3
    537    538    543    545     1  0.0000000  0.6508444  3
    537    538    543    546     1  0.0000000  0.6508444  3
    539    537    538    543     1  0.0000000  0.6508444  3
    539    537    538    541     1  0.0000000  0.6508444  3
    539    537    538    542     1  0.0000000  0.6508444  3
    540    537    538    543     1  0.0000000  0.6508444  3
    540    537    538    541     1  0.0000000  0.6508444  3
    540    537    538    542     1  0.0000000  0.6508444  3
    541    538    543    544     1  0.0000000  0.6508444  3
    541    538    543    545     1  0.0000000  0.6508444  3
    541    538    543    546     1  0.0000000  0.6508444  3
    542    538    543    544     1  0.0000000  0.6508444  3
    542    538    543    545     1  0.0000000  0.6508444  3
    542    538    543    546     1  0.0000000  0.6508444  3
     10     51     52     67     4  180.0000771  4.6024000  2
     12     77     78     93     4  180.0000771  4.6024000  2
     14    103    104    119     4  180.0000771  4.6024000  2
     16    129    130    145     4  180.0000771  4.6024000  2
     47    155    156    171     4  180.0000771  4.6024000  2
     49    181    182    197     4  180.0000771  4.6024000  2
     73    207    208    223     4  180.0000771  4.6024000  2
     75    233    234    249     4  180.0000771  4.6024000  2
     99    259    260    275     4  180.0000771  4.6024000  2
    101    285    286    301     4  180.0000771  4.6024000  2
    125    311    312    327     4  180.0000771  4.6024000  2
    127    337    338    353     4  180.0000771  4.6024000  2
    151    357    355    356     4  180.0000771  4.6024000  2
    153    369    367    368     4  180.0000771  4.6024000  2
    177    381    379    380     4  180.0000771  4.6024000  2
    179    393    391    392     4  180.0000771  4.6024000  2
    203    405    403    404     4  180.0000771  4.6024000  2
    205    417    415    416     4  180.0000771  4.6024000  2
    229    429    427    428     4  180.0000771  4.6024000  2
    231    441    439    440     4  180.0000771  4.6024000  2
    255    453    451    452     4  180.0000771  4.6024000  2
    257    465    463    464     4  180.0000771  4.6024000  2
    281    477    475    476     4  180.0000771  4.6024000  2
    283    489    487    488     4  180.0000771  4.6024000  2
    307    501    499    500     4  180.0000771  4.6024000  2
    309    513    511    512     4  180.0000771  4.6024000  2
    333    525    523    524     4  180.0000771  4.6024000  2
    335    537    535    536     4  180.0000771  4.6024000  2

;[ system ]
;; Name
;Generic title
;
;[ molecules ]
;; Compound       #mols
;g2dp_pamam           1
