G2DP-PAMAM in water
25824
    1aaa     N1    1   6.153   4.895   4.055  0.7503 -0.5329  0.1631
    1aaa     C1    2   6.211   4.820   4.171 -0.2149  0.1617  0.1636
    1aaa     C2    3   6.339   4.755   4.140 -0.1211  0.1859 -0.3987
    1aaa     N2    4   6.416   4.696   4.261 -0.0249 -0.0934  0.0700
    1aaa     C3    5   6.372   4.552   4.293 -0.4959  0.1751 -0.4907
    1aaa     C4    6   6.404   4.785   4.391 -0.5875 -0.0993  0.5297
    1aaa     C5    7   6.004   4.917   4.074 -0.5606  0.5180  0.7584
    1aaa     C6    8   6.162   4.814   3.923 -0.2518 -0.6821  0.8531
    1aaa     C7    9   6.480   4.733   4.515  0.0316  0.9924 -0.2818
    1aaa     C8   10   6.627   4.714   4.494 -0.1339 -1.2718 -0.7510
    1aaa     C9   11   6.407   4.446   4.178  0.2286 -0.5639  0.3352
    1aaa    C10   12   6.338   4.318   4.207 -0.6433  0.6855 -0.6861
    1aaa    C11   13   5.977   5.003   4.197  0.6003 -0.0758 -0.0277
    1aaa    C12   14   5.829   5.021   4.235 -0.2632 -0.1641  0.2181
    1aaa    C13   15   6.124   4.900   3.800  0.4753  0.2430  0.0890
    1aaa    C14   16   6.150   4.826   3.674  0.2585  0.4508  0.1094
    1aaa     O1   17   6.222   4.316   4.228 -0.3010  0.5746  0.5396
    1aaa     O2   18   6.677   4.663   4.397  0.0868  0.0476 -0.4847
    1aaa     O3   19   6.110   4.708   3.662 -0.5122  0.2959 -0.1183
    1aaa     O4   20   5.745   4.940   4.200 -0.1395  0.4836  0.2325
    1aaa     H1   21   6.126   4.756   4.196 -3.7304  4.4880  0.3750
    1aaa     H2   22   6.220   4.883   4.259 -0.2664 -1.6518  1.5237
    1aaa     H3   23   6.402   4.837   4.103 -0.7008  1.0211  0.4248
    1aaa     H4   24   6.327   4.685   4.057 -0.5670  1.3493 -1.3390
    1aaa     H5   25   6.266   4.565   4.315 -0.2990  2.5335 -0.7500
    1aaa     H6   26   6.427   4.515   4.380  1.1466  1.4994 -0.9095
    1aaa     H7   27   6.446   4.885   4.374 -2.0121  0.7714  1.8499
    1aaa     H8   28   6.299   4.806   4.410 -0.6071 -1.1571  1.7270
    1aaa     H9   29   5.962   4.968   3.987 -0.0616 -0.8348 -0.2992
    1aaa    H10   30   5.952   4.822   4.083 -1.4245  0.8230 -0.6697
    1aaa    H11   31   6.267   4.789   3.907  0.2049  0.6775  1.5740
    1aaa    H12   32   6.099   4.726   3.931 -0.6268 -0.4244  0.7396
    1aaa    H13   33   6.469   4.800   4.601 -0.0468  0.0974  0.4163
    1aaa    H14   34   6.456   4.629   4.543 -1.4634  1.4105  0.0859
    1aaa    H15   35   6.515   4.434   4.190  0.3749  1.2622  1.0902
    1aaa    H16   36   6.392   4.491   4.078  0.3650  2.2055  1.4684
    1aaa    H17   37   6.035   4.959   4.279  0.4735  0.5392  0.3941
    1aaa    H18   38   6.014   5.105   4.180  0.0502  0.3292  1.1507
    1aaa    H19   39   6.015   4.915   3.798  0.1079 -1.9901 -1.6346
    1aaa    H20   40   6.181   4.992   3.815  1.5409 -0.4501  0.4095
    1aaa    H37   41   6.201   4.985   4.043 -1.3582  0.6623  0.1597
    1aaa    H38   42   6.518   4.700   4.249  0.0371  2.3374  0.7687
    2bbb     N1   43   6.910   4.849   4.781 -0.1553 -0.4285  0.8942
    2bbb     C1   44   6.949   4.955   4.880 -0.3948 -0.1922 -0.1628
    2bbb     C2   45   6.995   4.720   4.776 -0.3204 -0.0631 -0.9134
    2bbb     C3   46   6.885   4.927   5.016  0.0468 -0.4832 -0.2311
    2bbb     C4   47   6.933   5.011   5.127  0.2783 -0.2595  0.0186
    2bbb     C5   48   7.151   4.725   4.750  0.5584 -1.5075 -0.7275
    2bbb     C6   49   7.218   4.592   4.751  0.4545  0.2640 -0.1666
    2bbb     C7   50   6.915   4.912   4.641  0.6494 -0.2827 -0.8032
    2bbb     C8   51   6.850   4.824   4.536  0.3838  0.6084 -0.2843
    2bbb     N2   52   6.708   4.790   4.575  0.3624 -0.0437  0.6356
    2bbb     O1   53   7.035   5.068   5.122 -0.6804 -0.7855 -0.0308
    2bbb     O2   54   7.155   4.491   4.767 -0.0395 -0.4111 -0.5959
    2bbb     H1   55   7.057   4.969   4.877 -0.3579 -0.3902  0.2251
    2bbb     H2   56   6.912   5.052   4.847 -2.0442 -0.0684  1.8184
    2bbb     H3   57   6.948   4.669   4.692 -0.6737 -1.1202 -0.0998
    2bbb     H4   58   6.978   4.661   4.867  2.6882  3.4511  2.3076
    2bbb     H5   59   6.776   4.934   5.010 -0.0514  0.9839  2.0241
    2bbb     H6   60   6.905   4.828   5.060  1.7927  0.4088  1.1183
    2bbb     H7   61   7.188   4.800   4.820 -3.5332  2.3923 -2.1987
    2bbb     H8   62   7.165   4.773   4.652  0.8026  0.2314  0.1340
    2bbb     H9   63   7.017   4.928   4.606  1.6060 -1.8227  1.0893
    2bbb    H10   64   6.853   5.000   4.654  0.4932 -0.4663 -0.2594
    2bbb    H11   65   6.908   4.734   4.512  0.5966  0.4980  0.5796
    2bbb    H12   66   6.833   4.879   4.443 -3.4612 -1.8489 -1.2684
    2bbb    H13   67   6.662   4.838   4.651 -1.1772  1.8963 -1.4082
    2bbb    H25   68   6.816   4.818   4.806 -1.0455  0.4155 -1.1440
    3bbb     N1   69   6.354   4.043   3.987  0.4039 -0.2393 -0.6025
    3bbb     C1   70   6.218   3.981   3.984  0.4383  0.6100 -0.0865
    3bbb     C2   71   6.440   4.001   3.866  0.2406  0.4578  0.0108
    3bbb     C3   72   6.103   4.079   3.938 -0.0804  0.6460  0.9324
    3bbb     C4   73   5.970   4.013   3.913 -0.2547 -0.5856  0.4832
    3bbb     C5   74   6.381   4.030   3.726  0.0459  0.5292 -0.3693
    3bbb     C6   75   6.295   3.920   3.664  0.6868 -0.3674 -0.6055
    3bbb     C7   76   6.425   3.994   4.112  0.4000  0.5035  0.2067
    3bbb     C8   77   6.388   4.073   4.241 -0.6718 -0.8286 -0.6592
    3bbb     N2   78   6.423   4.210   4.222  0.1203  0.0630  0.1227
    3bbb     O1   79   5.943   3.896   3.940  0.1691  0.2196  0.7391
    3bbb     O2   80   6.179   3.905   3.699  0.2959  0.2752  0.1673
    3bbb     H1   81   6.230   3.887   3.930  1.4690  0.4931  0.3120
    3bbb     H2   82   6.189   3.944   4.083 -1.1478 -1.2320 -1.1733
    3bbb     H3   83   6.468   3.896   3.874 -0.6673  0.0364 -1.8208
    3bbb     H4   84   6.532   4.060   3.861  1.3983 -1.2952 -0.5205
    3bbb     H5   85   6.089   4.161   4.010 -1.0530  2.0040 -0.7372
    3bbb     H6   86   6.130   4.128   3.844  1.2884 -2.2913 -0.3404
    3bbb     H7   87   6.468   4.048   3.662  1.1786  0.9350  1.2312
    3bbb     H8   88   6.323   4.122   3.734  1.9882  1.6555  2.2305
    3bbb     H9   89   6.531   4.004   4.087  0.3228 -0.0201 -0.3740
    3bbb    H10   90   6.388   3.891   4.119 -1.9425  1.0754 -2.0726
    3bbb    H11   91   6.433   4.021   4.326 -2.2488  0.5771  1.1137
    3bbb    H12   92   6.280   4.062   4.256 -0.6301 -0.9156 -0.4273
    3bbb    H13   93   6.521   4.215   4.194  0.6455 -2.1546  1.3279
    3bbb    H25   94   6.354   4.146   3.995 -1.1916 -0.3601  1.9950
    4bbb     N1   95   5.521   5.314   4.525  0.1531  0.0904 -0.3297
    4bbb     C1   96   5.538   5.430   4.621 -0.4670  0.2595  0.5442
    4bbb     C2   97   5.447   5.210   4.607  0.5903  0.0321 -0.5900
    4bbb     C3   98   5.561   5.567   4.539  0.5517  0.1409 -0.2578
    4bbb     C4   99   5.533   5.688   4.628 -0.1094 -0.2832  0.2924
    4bbb     C5  100   5.309   5.183   4.540  0.5295 -0.4154 -0.5414
    4bbb     C6  101   5.204   5.295   4.563 -0.2995  0.6756 -0.3267
    4bbb     C7  102   5.657   5.270   4.464 -0.3458 -0.2547  1.0117
    4bbb     C8  103   5.655   5.166   4.349 -0.0407  0.7319  0.2258
    4bbb     N2  104   5.792   5.128   4.312 -0.2270  0.0322 -0.1444
    4bbb     O1  105   5.478   5.683   4.732 -0.9831 -1.1614 -0.2452
    4bbb     O2  106   5.230   5.413   4.558  0.1024 -0.2793  0.3210
    4bbb     H1  107   5.452   5.444   4.688 -0.6639 -0.0192  0.3507
    4bbb     H2  108   5.629   5.410   4.677  0.7089  1.3733 -0.8977
    4bbb     H3  109   5.442   5.250   4.708  0.5436 -1.5446  0.0622
    4bbb     H4  110   5.511   5.125   4.630  0.9900  0.6457  0.6627
    4bbb     H5  111   5.664   5.563   4.501  0.9878  1.7733  0.6921
    4bbb     H6  112   5.487   5.570   4.458 -1.2965 -0.0181  1.3707
    4bbb     H7  113   5.277   5.087   4.583  0.4204 -0.1528 -0.0322
    4bbb     H8  114   5.316   5.162   4.433 -0.8729 -1.4639 -0.4599
    4bbb     H9  115   5.724   5.235   4.542  2.3280  0.1436 -0.9909
    4bbb    H10  116   5.708   5.361   4.432  0.6096  0.4202  4.1302
    4bbb    H11  117   5.600   5.211   4.265 -1.0477  0.0829  0.5171
    4bbb    H12  118   5.605   5.071   4.373  1.5517 -0.5257 -1.2369
    4bbb    H13  119   5.865   5.192   4.338 -0.1055  0.2518 -1.0002
    4bbb    H25  120   5.459   5.343   4.448  0.3157  0.7241 -0.2295
    5bbb     N1  121   6.288   5.096   3.353  0.8672  0.2390  0.4252
    5bbb     C1  122   6.175   5.097   3.251  0.5218 -0.5343 -0.2652
    5bbb     C2  123   6.404   5.183   3.312  0.3665 -0.1372  0.3153
    5bbb     C3  124   6.212   5.067   3.103  0.5306 -0.1141  0.2262
    5bbb     C4  125   6.089   5.016   3.025 -0.5442  0.0695  0.2559
    5bbb     C5  126   6.370   5.340   3.311 -0.1296  0.5478  0.6541
    5bbb     C6  127   6.493   5.418   3.262  0.7907  0.7532 -0.0941
    5bbb     C7  128   6.336   4.952   3.367 -0.1892 -0.0673  0.5973
    5bbb     C8  129   6.250   4.853   3.442  0.0186 -1.1921  0.4423
    5bbb     N2  130   6.222   4.906   3.579  0.2405 -0.1752  0.0640
    5bbb     O1  131   5.973   5.016   3.069  0.2549 -0.3937  0.3402
    5bbb     O2  132   6.607   5.373   3.265 -0.0442 -0.5167  0.1718
    5bbb     H1  133   6.092   5.040   3.290 -0.2477  0.3426 -0.5720
    5bbb     H2  134   6.123   5.192   3.264  1.1832 -0.4269  1.9825
    5bbb     H3  135   6.441   5.148   3.215  1.3649  0.6009  0.4232
    5bbb     H4  136   6.483   5.167   3.384  2.7666 -0.7316 -2.2901
    5bbb     H5  137   6.254   5.141   3.035 -3.2785  1.2325 -0.8456
    5bbb     H6  138   6.287   4.987   3.103 -0.4977 -1.1310 -1.4868
    5bbb     H7  139   6.341   5.379   3.409 -1.2138  1.9898 -0.1988
    5bbb     H8  140   6.282   5.366   3.251  1.1983  1.1144 -1.1365
    5bbb     H9  141   6.432   4.958   3.420 -0.4451  1.6332  0.9403
    5bbb    H10  142   6.366   4.920   3.267 -0.0675  0.4651  0.4595
    5bbb    H11  143   6.299   4.755   3.450  0.2251 -1.0479  1.0212
    5bbb    H12  144   6.155   4.846   3.388  0.0479  1.0659 -0.0020
    5bbb    H13  145   6.256   4.993   3.618  2.2359 -0.5030 -0.8122
    5bbb    H25  146   6.250   5.132   3.442 -2.5941  0.2705 -0.9145
    6bbb     N1  147   6.769   4.906   5.504  0.3599 -0.0260 -0.3462
    6bbb     C1  148   6.635   4.977   5.542 -0.2545 -0.0267  0.3770
    6bbb     C2  149   6.811   4.799   5.606  0.0775  0.1177  0.5118
    6bbb     C3  150   6.637   5.069   5.655  0.4529  0.4056 -0.2131
    6bbb     C4  151   6.502   5.142   5.670  0.6340 -0.9064 -0.3580
    6bbb     C5  152   6.913   4.694   5.557  0.1932  0.7000  0.3853
    6bbb     C6  153   6.947   4.575   5.648 -0.3084 -0.0671  0.3522
    6bbb     C7  154   6.877   5.011   5.469 -0.6417  0.1032 -0.3793
    6bbb     C8  155   6.850   5.105   5.346 -0.3913  0.0089 -0.1053
    6bbb     N2  156   6.835   5.024   5.231  0.1331 -0.0301 -0.6021
    6bbb     O1  157   6.436   5.184   5.574  0.2984 -0.0168 -0.4380
    6bbb     O2  158   6.889   4.555   5.750 -0.0449  0.6787 -0.0962
    6bbb     H1  159   6.603   5.031   5.452  1.2714  0.1923 -0.0744
    6bbb     H2  160   6.570   4.893   5.564  0.5623 -0.2300  2.2222
    6bbb     H3  161   6.725   4.746   5.646 -0.5980 -0.5269 -1.6873
    6bbb     H4  162   6.860   4.869   5.674  0.1815  0.2523  0.3009
    6bbb     H5  163   6.668   5.025   5.750  1.9640 -0.5754 -1.1284
    6bbb     H6  164   6.706   5.151   5.629  2.0301 -0.9067 -0.3084
    6bbb     H7  165   7.004   4.739   5.518  0.0809 -0.0933 -0.8391
    6bbb     H8  166   6.879   4.652   5.461  1.2168  0.5764  0.0685
    6bbb     H9  167   6.970   4.961   5.444 -0.1679  1.0333 -0.5017
    6bbb    H10  168   6.898   5.076   5.554  0.3459 -1.2293  0.4394
    6bbb    H11  169   6.941   5.165   5.340  0.2579 -1.0817 -2.5268
    6bbb    H12  170   6.758   5.163   5.356 -1.2896 -1.0457 -1.7741
    6bbb    H13  171   6.748   4.973   5.223 -0.9556  1.5602  0.5756
    6bbb    H25  172   6.749   4.855   5.417  2.3957  0.6250 -1.2505
    7bbb     N1  173   7.648   4.351   4.712 -0.2906 -0.5459  0.9216
    7bbb     C1  174   7.707   4.293   4.591 -0.2828  0.4306  0.3123
    7bbb     C2  175   7.631   4.237   4.813 -0.2649  0.4982 -0.2027
    7bbb     C3  176   7.763   4.393   4.485  0.0169  0.0322  0.2116
    7bbb     C4  177   7.848   4.324   4.385 -0.0634  0.1427 -0.3160
    7bbb     C5  178   7.763   4.200   4.886  0.2963 -0.0921  0.1600
    7bbb     C6  179   7.753   4.078   4.974  0.1802 -0.2200 -0.0386
    7bbb     C7  180   7.517   4.419   4.673  0.1384  0.7334  0.4344
    7bbb     C8  181   7.438   4.485   4.789  0.1923  0.3933  0.1619
    7bbb     N2  182   7.355   4.597   4.747 -0.5423 -1.0898  0.5329
    7bbb     O1  183   7.920   4.233   4.417  0.2464  0.5293 -0.8402
    7bbb     O2  184   7.656   4.036   5.027  0.3896  0.4908 -0.7704
    7bbb     H1  185   7.793   4.238   4.630 -1.0617 -0.4922  0.7961
    7bbb     H2  186   7.630   4.233   4.541 -0.8908  2.4850 -1.3326
    7bbb     H3  187   7.603   4.147   4.757  1.0763 -1.0615  1.5030
    7bbb     H4  188   7.547   4.254   4.881 -0.7900 -1.3392 -0.3166
    7bbb     H5  189   7.679   4.443   4.435 -0.5636  0.0023  1.1286
    7bbb     H6  190   7.826   4.470   4.531 -1.4292  0.3771  1.7280
    7bbb     H7  191   7.789   4.282   4.955 -0.4545  0.8587 -0.6555
    7bbb     H8  192   7.850   4.184   4.821  2.4680  1.4133  2.5020
    7bbb     H9  193   7.454   4.338   4.634 -0.7376  0.4740  2.2957
    7bbb    H10  194   7.542   4.495   4.598 -0.7710  0.2124 -0.4359
    7bbb    H11  195   7.510   4.521   4.864 -2.1116  1.1525  2.1645
    7bbb    H12  196   7.378   4.409   4.841  0.0452 -0.3573 -1.0770
    7bbb    H13  197   7.393   4.684   4.712  0.0107 -0.2682  2.9643
    7bbb    H25  198   7.707   4.425   4.753  0.6832 -1.6129  1.4798
    8bbb     N1  199   5.553   3.929   3.898 -0.0770  0.0298  0.3097
    8bbb     C1  200   5.410   3.964   3.928  0.4672 -0.0797 -0.8524
    8bbb     C2  201   5.605   3.820   3.986 -0.4829 -0.2337  0.0219
    8bbb     C3  202   5.331   4.059   3.834 -0.3722  0.7110  0.0187
    8bbb     C4  203   5.185   4.029   3.839 -0.5602  0.2033 -0.4727
    8bbb     C5  204   5.582   3.673   3.938 -0.3025  0.4700 -0.0894
    8bbb     C6  205   5.678   3.581   4.010  0.1303 -0.0645  0.2560
    8bbb     C7  206   5.637   4.051   3.887 -0.3007  0.1959  0.0063
    8bbb     C8  207   5.756   4.049   3.790  0.0066  0.2145 -0.3518
    8bbb     N2  208   5.877   4.099   3.853 -0.1778 -0.7092  0.4542
    8bbb     O1  209   5.152   3.909   3.858  0.3579 -0.3332  0.3512
    8bbb     O2  210   5.643   3.515   4.107  0.3049  0.5534  0.3709
    8bbb     H1  211   5.358   3.869   3.939  1.1111 -0.2614  1.0214
    8bbb     H2  212   5.407   4.015   4.025 -1.9085 -0.0228 -0.8772
    8bbb     H3  213   5.557   3.842   4.082 -2.5867 -1.0713 -0.7653
    8bbb     H4  214   5.712   3.835   3.993 -0.5904 -0.1289  1.9103
    8bbb     H5  215   5.348   4.155   3.884 -0.1420  0.2886  0.7566
    8bbb     H6  216   5.384   4.073   3.739  0.6100  1.0295  0.5946
    8bbb     H7  217   5.609   3.655   3.834  1.4557 -2.0998  0.7278
    8bbb     H8  218   5.479   3.638   3.956 -0.5076  1.2260  0.2678
    8bbb     H9  219   5.683   4.069   3.984 -1.8677 -0.0984  0.8212
    8bbb    H10  220   5.569   4.131   3.858 -1.7185 -1.1492 -0.5002
    8bbb    H11  221   5.725   4.121   3.714 -1.2929 -1.2139 -1.2229
    8bbb    H12  222   5.781   3.962   3.728  0.4235  0.5221 -0.6165
    8bbb    H13  223   5.899   4.197   3.860  1.0981 -1.0717  2.4944
    8bbb    H25  224   5.542   3.894   3.801 -0.0990  2.0295 -0.4559
    9bbb     N1  225   6.469   3.575   3.386  0.1391  0.3581 -0.0364
    9bbb     C1  226   6.521   3.559   3.246 -0.3632 -0.4215  0.4512
    9bbb     C2  227   6.457   3.442   3.462 -0.5227  0.5835  0.0925
    9bbb     C3  228   6.669   3.517   3.251  0.3007  0.5191 -0.0940
    9bbb     C4  229   6.755   3.563   3.130 -0.6504 -0.1268 -0.3173
    9bbb     C5  230   6.384   3.318   3.402  0.9078  0.6317  0.1859
    9bbb     C6  231   6.231   3.324   3.391  0.9634  0.2640 -0.0013
    9bbb     C7  232   6.344   3.657   3.385  0.4344 -0.0031  0.1185
    9bbb     C8  233   6.288   3.719   3.513  0.0149  0.0139 -0.2238
    9bbb     N2  234   6.353   3.833   3.572 -0.3799 -0.3709  0.0810
    9bbb     O1  235   6.694   3.616   3.040 -0.1777  0.5218  0.3843
    9bbb     O2  236   6.160   3.400   3.453  0.5812 -0.2110  0.2574
    9bbb     H1  237   6.457   3.486   3.196 -1.4461  1.2559 -0.7090
    9bbb     H2  238   6.517   3.654   3.193 -1.1590 -1.6517 -1.8260
    9bbb     H3  239   6.413   3.472   3.557 -1.5353 -0.4850 -0.0182
    9bbb     H4  240   6.560   3.408   3.472 -1.7064 -3.2738  0.6986
    9bbb     H5  241   6.716   3.563   3.339  1.9737 -2.8555  0.9368
    9bbb     H6  242   6.672   3.408   3.257 -1.5141  0.4499  0.3566
    9bbb     H7  243   6.411   3.233   3.467  0.6527  1.1165  0.9338
    9bbb     H8  244   6.424   3.293   3.303 -0.3181  1.1784 -0.4601
    9bbb     H9  245   6.263   3.599   3.341 -0.3376  0.4353  0.9254
    9bbb    H10  246   6.361   3.742   3.318 -0.3564 -1.2330 -1.7100
    9bbb    H11  247   6.269   3.643   3.590  0.3268 -1.9730 -2.0102
    9bbb    H12  248   6.183   3.744   3.491 -0.3343 -0.1780  1.1007
    9bbb    H13  249   6.451   3.850   3.554  0.1143 -1.9104  1.2263
    9bbb    H25  250   6.535   3.631   3.441  0.8408  0.9777 -1.4600
   10bbb     N1  251   5.655   6.169   4.589 -0.2616  0.5964  0.0209
   10bbb     C1  252   5.764   6.247   4.512 -0.0970  0.1701  0.1909
   10bbb     C2  253   5.658   6.209   4.735 -0.8290 -0.1365  0.0047
   10bbb     C3  254   5.770   6.233   4.354 -0.1111 -0.3658  0.2095
   10bbb     C4  255   5.630   6.259   4.293 -0.0884  0.4029  0.2625
   10bbb     C5  256   5.630   6.357   4.765 -0.3111  0.5071 -0.1932
   10bbb     C6  257   5.508   6.418   4.690 -0.4755 -0.2637  0.0105
   10bbb     C7  258   5.692   6.023   4.583  0.2874  0.1933 -0.6126
   10bbb     C8  259   5.582   5.936   4.640 -0.2155  0.7063  0.2594
   10bbb     N2  260   5.600   5.804   4.574  0.7431  0.5728 -0.2867
   10bbb     O1  261   5.541   6.172   4.303 -0.2408 -0.7737  0.5448
   10bbb     O2  262   5.502   6.438   4.572  0.0086  0.3499 -0.0174
   10bbb     H1  263   5.747   6.353   4.532 -2.1186 -0.1441  0.4071
   10bbb     H2  264   5.860   6.215   4.552  1.2286 -0.7341 -3.3533
   10bbb     H3  265   5.756   6.187   4.778  0.5993  0.2368 -2.8033
   10bbb     H4  266   5.580   6.150   4.784 -1.2479 -0.7142 -1.3234
   10bbb     H5  267   5.843   6.306   4.315  2.1567 -2.0816  1.0141
   10bbb     H6  268   5.804   6.132   4.330  1.3253  0.5778 -2.0713
   10bbb     H7  269   5.715   6.419   4.733 -0.1536  0.4975  0.2113
   10bbb     H8  270   5.640   6.380   4.871 -0.1352  0.2041 -0.1436
   10bbb     H9  271   5.788   6.010   4.633 -0.2173  2.2445  1.0357
   10bbb    H10  272   5.708   6.001   4.477  0.7290 -0.0817 -0.4926
   10bbb    H11  273   5.491   5.997   4.633  0.1739  1.6807  2.5425
   10bbb    H12  274   5.593   5.923   4.749 -1.4355  1.1015  0.4393
   10bbb    H13  275   5.615   5.798   4.474 -1.3751  0.0595 -0.6341
   10bbb    H25  276   5.562   6.191   4.549 -0.4409  1.7832  1.0425
   11bbb     N1  277   4.718   5.352   4.670  0.1973 -0.1228  1.0345
   11bbb     C1  278   4.590   5.272   4.691  0.2483 -0.1198  0.0560
   11bbb     C2  279   4.702   5.448   4.556 -0.2250  0.4666  0.5905
   11bbb     C3  280   4.584   5.147   4.783 -0.2120 -0.5652 -0.6434
   11bbb     C4  281   4.448   5.071   4.798 -0.1667 -0.3086 -0.3975
   11bbb     C5  282   4.707   5.385   4.411  1.3303 -0.0070  0.1672
   11bbb     C6  283   4.694   5.490   4.300  0.0215  0.0533  0.5824
   11bbb     C7  284   4.839   5.256   4.650 -1.1351 -0.3960 -0.6474
   11bbb     C8  285   4.971   5.335   4.647  0.2426  0.1004 -1.0653
   11bbb     N2  286   5.079   5.246   4.597  0.2056 -0.8608  0.2916
   11bbb     O1  287   4.347   5.091   4.732  0.2528  0.0382 -0.2388
   11bbb     O2  288   4.719   5.610   4.319  0.0344  0.1098 -0.1260
   11bbb     H1  289   4.514   5.346   4.716  1.1433  0.9762 -0.3754
   11bbb     H2  290   4.562   5.238   4.591  0.2478 -0.7022  0.2556
   11bbb     H3  291   4.782   5.523   4.560 -1.1390  1.6032 -1.0658
   11bbb     H4  292   4.612   5.509   4.558 -0.1329  0.6444 -0.2839
   11bbb     H5  293   4.646   5.073   4.732  0.2046 -0.0245 -0.9263
   11bbb     H6  294   4.624   5.165   4.884 -0.3421  0.4279 -0.7556
   11bbb     H7  295   4.618   5.324   4.390  0.9519  0.6930 -0.3225
   11bbb     H8  296   4.791   5.318   4.390  1.5005 -0.0444  0.9437
   11bbb     H9  297   4.827   5.196   4.559 -0.4523  1.7029 -2.1912
   11bbb    H10  298   4.849   5.190   4.737  0.8168  0.9316  0.2159
   11bbb    H11  299   5.001   5.368   4.747  0.9436 -1.6682 -0.6679
   11bbb    H12  300   4.981   5.424   4.583  1.2694  0.9658  0.2437
   11bbb    H13  301   5.065   5.146   4.589 -1.7020 -0.6322  0.3188
   11bbb    H25  302   4.732   5.400   4.761  0.7970 -0.1175  0.9427
   12bbb     N1  303   5.988   4.893   2.541 -0.5923  0.4317 -0.4631
   12bbb     C1  304   6.084   4.873   2.419  0.2153 -0.4536 -0.5781
   12bbb     C2  305   5.862   4.970   2.500  0.1775 -0.2192  0.0321
   12bbb     C3  306   6.026   4.782   2.313 -0.2008 -0.1130  0.0021
   12bbb     C4  307   6.044   4.631   2.346  0.2068 -0.0421 -0.3796
   12bbb     C5  308   5.738   4.931   2.580 -0.6617 -0.0259  0.9114
   12bbb     C6  309   5.675   4.798   2.544  0.6112  0.2980  0.2200
   12bbb     C7  310   6.068   4.962   2.652 -0.3410 -0.0786  0.5785
   12bbb     C8  311   6.002   4.976   2.790 -0.6713  0.5987 -0.0045
   12bbb     N2  312   6.108   4.994   2.888 -0.0357  0.2438  0.7782
   12bbb     O1  313   6.083   4.591   2.458 -0.0720  0.3818  0.8167
   12bbb     O2  314   5.734   4.714   2.479 -0.0711  0.0481  0.0772
   12bbb     H1  315   6.093   4.975   2.381 -2.9882  0.5797  1.1111
   12bbb     H2  316   6.183   4.838   2.447  0.6436 -0.5268 -2.0928
   12bbb     H3  317   5.831   4.951   2.397  0.1398  0.3609 -0.0683
   12bbb     H4  318   5.879   5.077   2.518  1.6210 -0.1097 -1.6708
   12bbb     H5  319   5.922   4.806   2.288 -0.0609 -0.3475 -0.8608
   12bbb     H6  320   6.074   4.795   2.215 -0.9698  0.5258 -0.3067
   12bbb     H7  321   5.660   5.006   2.561  0.4128  0.7373 -0.7815
   12bbb     H8  322   5.759   4.942   2.687 -0.9492 -0.5024  1.0195
   12bbb     H9  323   6.098   5.058   2.609 -1.1265  0.2569  0.7530
   12bbb    H10  324   6.155   4.899   2.669 -0.4011 -0.2018  0.4261
   12bbb    H11  325   5.950   4.881   2.807  1.1097 -0.1610  1.6396
   12bbb    H12  326   5.946   5.070   2.790 -0.8423  0.6072 -3.3797
   12bbb    H13  327   6.203   4.998   2.853  0.5039 -2.8653  1.6458
   12bbb    H25  328   5.969   4.798   2.578  0.2908 -0.8817 -3.1059
   13bbb     N1  329   6.680   5.816   3.041 -0.3594 -0.8762  0.3704
   13bbb     C1  330   6.809   5.738   3.018  0.6628  0.3068  0.3686
   13bbb     C2  331   6.712   5.955   3.099 -0.1159  0.3948 -0.0624
   13bbb     C3  332   6.898   5.802   2.913 -0.6756 -0.0404 -0.0927
   13bbb     C4  333   6.843   5.791   2.766  0.0249 -0.1810  0.2075
   13bbb     C5  334   6.594   6.049   3.139 -0.5061 -0.0136  0.0202
   13bbb     C6  335   6.645   6.190   3.169  0.0145  0.1562  0.4518
   13bbb     C7  336   6.582   5.746   3.133 -0.4720  0.2343  0.5444
   13bbb     C8  337   6.552   5.595   3.094 -0.6893 -0.4112  0.0491
   13bbb     N2  338   6.463   5.535   3.195 -0.1843 -0.2041 -0.4859
   13bbb     O1  339   6.741   5.729   2.740 -0.9176 -0.0191 -0.5539
   13bbb     O2  340   6.755   6.221   3.131  0.0806 -0.3345 -0.3604
   13bbb     H1  341   6.855   5.747   3.116 -0.6557  1.2825  0.9335
   13bbb     H2  342   6.798   5.633   2.990  2.3629 -0.1725  1.3593
   13bbb     H3  343   6.766   6.015   3.026  0.1407  1.3365  0.8844
   13bbb     H4  344   6.774   5.936   3.187  0.5525  0.7157 -0.4568
   13bbb     H5  345   6.925   5.907   2.934  1.6357 -1.0233  2.3613
   13bbb     H6  346   6.994   5.750   2.910 -1.1358 -0.9058  0.0791
   13bbb     H7  347   6.527   6.007   3.215  0.4423 -1.8572 -0.1181
   13bbb     H8  348   6.534   6.055   3.048  1.7526 -0.0716 -1.5540
   13bbb     H9  349   6.494   5.809   3.121 -0.2487  0.3072 -0.8831
   13bbb    H10  350   6.620   5.752   3.235 -1.6539  0.2078  1.0023
   13bbb    H11  351   6.645   5.536   3.097 -0.3506  0.1093  0.0049
   13bbb    H12  352   6.513   5.595   2.991 -0.3778 -1.7690 -0.0938
   13bbb    H13  353   6.373   5.581   3.211  0.1429  0.4978 -0.6067
   13bbb    H25  354   6.629   5.823   2.953  0.4616  0.3977 -0.0346
   14ccc     N1  355   6.460   5.168   5.802  0.3317 -0.1434  0.1953
   14ccc     H4  356   6.524   5.131   5.871  0.0620 -1.0454 -0.0241
   14ccc     C3  357   6.384   5.292   5.828  0.1157  0.0347  0.1012
   14ccc     C4  358   6.234   5.263   5.857  0.2132  0.4791 -0.0370
   14ccc     H5  359   6.396   5.357   5.741  0.1092 -1.2942 -0.9295
   14ccc     H6  360   6.443   5.342   5.907  1.7251  0.6103 -1.3885
   14ccc     H7  361   6.225   5.189   5.937 -1.4950 -0.8888 -1.4083
   14ccc     H8  362   6.195   5.353   5.905  0.6981  0.9456 -0.5061
   14ccc     N2  363   6.143   5.214   5.742 -0.5632 -0.0423 -0.3120
   14ccc     H9  364   6.156   5.113   5.727 -1.7931 -0.2650  0.0524
   14ccc    H10  365   6.041   5.227   5.747 -0.8157 -0.7537 -2.6329
   14ccc    H11  366   6.161   5.254   5.649  2.9114 -0.3571  0.0940
   15ccc     N1  367   7.031   4.480   5.594 -0.7951 -0.2437 -0.5733
   15ccc     H4  368   7.054   4.488   5.496  0.9059 -0.0060 -0.1943
   15ccc     C3  369   7.078   4.359   5.665 -0.1108 -0.6982  0.1077
   15ccc     C4  370   7.225   4.363   5.711 -0.6608  0.2043  0.2506
   15ccc     H5  371   7.047   4.269   5.611 -0.4806 -1.3150  1.3099
   15ccc     H6  372   7.018   4.358   5.757 -1.1068 -2.6004 -0.5127
   15ccc     H7  373   7.252   4.257   5.718  0.6703  0.1005 -3.9663
   15ccc     H8  374   7.282   4.406   5.629 -1.6417  0.4381 -0.3195
   15ccc     N2  375   7.272   4.431   5.834 -0.1299  0.4319 -0.1856
   15ccc     H9  376   7.250   4.382   5.922 -0.2532  1.7027  0.5189
   15ccc    H10  377   7.375   4.444   5.834 -0.1980  0.9726 -0.5266
   15ccc    H11  378   7.230   4.525   5.835 -0.6308  0.2370  1.9022
   16ccc     N1  379   7.853   4.378   4.254  1.3054 -0.3376  0.1078
   16ccc     H4  380   7.789   4.454   4.233  0.4863 -1.2639 -0.8066
   16ccc     C3  381   7.930   4.323   4.143 -0.0344 -0.1639  0.5666
   16ccc     C4  382   7.902   4.398   4.011 -0.3407 -0.0328  0.2959
   16ccc     H5  383   7.910   4.217   4.127 -0.1168 -0.0995  0.2445
   16ccc     H6  384   8.036   4.318   4.169 -0.0611  0.6204  0.8720
   16ccc     H7  385   7.913   4.505   4.029  2.6366  0.3925 -2.9841
   16ccc     H8  386   7.975   4.367   3.936 -1.2846  0.7559 -0.9839
   16ccc     N2  387   7.765   4.384   3.950 -0.3530  0.3775  0.2758
   16ccc     H9  388   7.770   4.434   3.861  0.6643 -0.9972 -0.4738
   16ccc    H10  389   7.736   4.287   3.929  0.9654  0.1566 -0.6237
   16ccc    H11  390   7.690   4.421   4.010  1.2431  1.7870  1.5122
   17ccc     N1  391   7.869   4.014   4.992 -0.8064  0.1094 -0.3586
   17ccc     H4  392   7.942   4.048   4.930  0.0508  1.8637  1.4904
   17ccc     C3  393   7.906   3.908   5.089 -0.2587 -0.5233  0.3097
   17ccc     C4  394   7.921   3.951   5.233 -0.5751  0.2459 -0.2959
   17ccc     H5  395   8.004   3.867   5.059  0.1382  0.2393  0.5271
   17ccc     H6  396   7.833   3.827   5.083  1.6040 -2.2444  0.0765
   17ccc     H7  397   8.002   4.024   5.242  1.0692 -1.5448  0.0450
   17ccc     H8  398   7.820   3.981   5.262 -0.6870 -1.0554  0.7915
   17ccc     N2  399   7.969   3.846   5.325  0.3364 -0.4864 -0.0922
   17ccc     H9  400   7.912   3.761   5.324  0.1452 -0.3562 -1.2613
   17ccc    H10  401   8.070   3.827   5.312  0.1051 -0.3261 -2.5576
   17ccc    H11  402   7.957   3.879   5.422 -1.4586 -2.8443  0.5719
   18ccc     N1  403   5.093   4.129   3.840  0.0843  0.1594 -0.0026
   18ccc     H4  404   5.108   4.229   3.832 -3.1101  0.6594 -0.9803
   18ccc     C3  405   4.959   4.087   3.839  0.4013 -0.1343 -0.3639
   18ccc     C4  406   4.898   4.038   3.972 -0.1900 -0.2047  0.3548
   18ccc     H5  407   4.935   4.012   3.762 -0.2810 -0.0981 -0.1909
   18ccc     H6  408   4.908   4.182   3.818  0.9145 -0.1574 -1.8658
   18ccc     H7  409   4.941   3.941   3.998  1.9458  0.7446  0.5257
   18ccc     H8  410   4.908   4.116   4.047  1.3650 -1.0088  1.0318
   18ccc     N2  411   4.758   4.006   3.965 -0.2564 -0.2428 -0.7881
   18ccc     H9  412   4.734   3.935   4.036  0.0110 -0.5776 -1.0271
   18ccc    H10  413   4.706   4.092   3.986  0.8382  0.4705 -0.9106
   18ccc    H11  414   4.735   3.969   3.872 -0.7315 -0.0182 -0.7637
   19ccc     N1  415   5.809   3.593   3.967  0.3548  0.1197 -0.4910
   19ccc     H4  416   5.828   3.656   3.891  1.2175 -1.1670 -1.3879
   19ccc     C3  417   5.925   3.518   4.015 -0.1285 -0.2903  0.0806
   19ccc     C4  418   6.022   3.611   4.087 -0.3590  0.1779 -0.3080
   19ccc     H5  419   5.967   3.469   3.927 -0.7144 -2.1140  0.7664
   19ccc     H6  420   5.894   3.443   4.089 -0.4088 -0.9565 -0.7074
   19ccc     H7  421   6.118   3.566   4.110  0.0784  0.5978 -1.2716
   19ccc     H8  422   6.043   3.707   4.039  1.4468 -0.1594 -0.2336
   19ccc     N2  423   5.974   3.645   4.226  0.0839  0.2759 -0.1524
   19ccc     H9  424   5.977   3.556   4.277  3.4303 -0.3037 -1.1173
   19ccc    H10  425   6.041   3.712   4.268 -1.3698  0.9473  1.2024
   19ccc    H11  426   5.879   3.684   4.231  0.5454  1.2376  2.6633
   20ccc     N1  427   6.895   3.544   3.131 -0.0597  0.0156  0.5027
   20ccc     H4  428   6.934   3.523   3.222 -0.9061 -0.9364  0.6614
   20ccc     C3  429   6.996   3.587   3.030  0.1993  0.0099 -0.7057
   20ccc     C4  430   7.139   3.556   3.088 -0.4705  0.3349 -0.2996
   20ccc     H5  431   6.971   3.693   3.014 -1.4077 -0.6145 -2.7650
   20ccc     H6  432   6.980   3.530   2.938  1.6916  1.2148 -1.7476
   20ccc     H7  433   7.213   3.579   3.011  0.7450 -0.1946  0.6890
   20ccc     H8  434   7.167   3.619   3.172 -0.4932 -1.4186  1.0681
   20ccc     N2  435   7.159   3.408   3.135  0.2874 -0.0986 -0.2398
   20ccc     H9  436   7.235   3.408   3.204  0.7338  1.8840 -0.6817
   20ccc    H10  437   7.075   3.361   3.174 -0.9310  1.2957 -1.0648
   20ccc    H11  438   7.190   3.346   3.059  0.7641  1.4221 -1.3233
   21ccc     N1  439   6.165   3.243   3.299 -0.2197 -0.0684  0.5326
   21ccc     H4  440   6.222   3.179   3.244  0.6893  0.4257  0.8758
   21ccc     C3  441   6.022   3.253   3.264 -0.4051  0.5247 -0.1103
   21ccc     C4  442   5.983   3.249   3.108  0.8981  0.0633 -0.3388
   21ccc     H5  443   5.979   3.345   3.305 -1.6097 -0.1607  0.1911
   21ccc     H6  444   5.979   3.166   3.314 -2.3729  1.8611  0.6360
   21ccc     H7  445   5.874   3.247   3.110  0.8764  0.6570  1.6782
   21ccc     H8  446   6.011   3.345   3.064  0.4361 -0.0771 -0.9476
   21ccc     N2  447   6.040   3.146   3.023  0.7939  0.5324  0.4610
   21ccc     H9  448   6.016   3.054   3.064  1.0223  0.3297  0.1504
   21ccc    H10  449   6.013   3.154   2.924  0.0745 -1.5531  0.4357
   21ccc    H11  450   6.142   3.159   3.019  0.5151  3.7190  1.2258
   22ccc     N1  451   5.608   6.379   4.226 -0.1787 -0.1136 -0.4043
   22ccc     H4  452   5.683   6.444   4.207 -0.2398  0.5279  1.3312
   22ccc     C3  453   5.472   6.411   4.174 -0.1121  0.0447 -0.4801
   22ccc     C4  454   5.389   6.488   4.283 -0.1665 -0.1709  0.2685
   22ccc     H5  455   5.416   6.325   4.136 -0.9170  0.4163 -0.1561
   22ccc     H6  456   5.487   6.481   4.091 -2.3732  0.4064 -0.6481
   22ccc     H7  457   5.300   6.535   4.241  0.4047  1.3657  0.7086
   22ccc     H8  458   5.362   6.411   4.355 -1.1174  1.2055  1.4600
   22ccc     N2  459   5.476   6.599   4.340 -0.6067 -0.6286 -0.2732
   22ccc     H9  460   5.493   6.675   4.272 -0.8848  0.1870  0.5651
   22ccc    H10  461   5.430   6.635   4.424  2.5883 -0.4061  1.5369
   22ccc    H11  462   5.569   6.566   4.371  0.3108  1.1804 -0.9049
   23ccc     N1  463   5.414   6.458   4.782 -0.1436 -0.4633 -0.0586
   23ccc     H4  464   5.425   6.424   4.877 -2.4037 -2.5722 -0.4448
   23ccc     C3  465   5.295   6.533   4.739  0.0461  0.7009  0.0724
   23ccc     C4  466   5.182   6.541   4.845 -0.6858  0.2684 -0.7016
   23ccc     H5  467   5.251   6.474   4.658  2.3523 -2.8763  1.2122
   23ccc     H6  468   5.332   6.633   4.713  0.9578  0.5049  0.5724
   23ccc     H7  469   5.224   6.567   4.942 -1.4741 -0.6881 -0.0888
   23ccc     H8  470   5.105   6.610   4.812 -1.1213  0.2224  0.1806
   23ccc     N2  471   5.102   6.409   4.874 -0.0093  0.0853 -0.2452
   23ccc     H9  472   5.157   6.354   4.942  0.2276  1.0066  0.3268
   23ccc    H10  473   5.004   6.429   4.899  0.7301  1.9369  1.4365
   23ccc    H11  474   5.105   6.350   4.790  0.4268  0.9238 -0.8290
   24ccc     N1  475   4.448   4.984   4.907 -0.0298  0.1559 -0.2762
   24ccc     H4  476   4.530   4.979   4.967 -0.0236  2.7421  0.0371
   24ccc     C3  477   4.323   4.933   4.964  0.0045  0.5827  0.5948
   24ccc     C4  478   4.334   4.817   5.062 -0.5283  0.6611 -0.4335
   24ccc     H5  479   4.278   4.888   4.875  1.5180 -0.7761  0.4905
   24ccc     H6  480   4.254   5.011   5.001 -1.5206 -0.6331  0.4397
   24ccc     H7  481   4.238   4.766   5.062  0.1752 -0.7891 -2.2748
   24ccc     H8  482   4.397   4.733   5.031 -1.1250 -0.1146  0.4156
   24ccc     N2  483   4.382   4.863   5.202  0.8011 -0.9547  0.0688
   24ccc     H9  484   4.394   4.785   5.269 -0.6543 -0.6904  0.6933
   24ccc    H10  485   4.459   4.932   5.200  0.4858 -0.6179 -0.8670
   24ccc    H11  486   4.310   4.925   5.243 -0.0606 -1.7974 -0.1431
   25ccc     N1  487   4.672   5.452   4.172  0.4076  0.3749  0.1478
   25ccc     H4  488   4.657   5.354   4.155 -1.3239  0.7400 -0.6137
   25ccc     C3  489   4.721   5.531   4.061  0.4865 -0.2477  0.2859
   25ccc     C4  490   4.750   5.440   3.944  0.2086 -0.4392  0.8885
   25ccc     H5  491   4.812   5.589   4.084  1.0441 -0.4488 -1.2670
   25ccc     H6  492   4.643   5.599   4.024  0.5339 -0.8594 -1.0068
   25ccc     H7  493   4.830   5.484   3.885 -0.9544  2.6518  1.4274
   25ccc     H8  494   4.781   5.346   3.990 -0.6164 -0.5454  1.2404
   25ccc     N2  495   4.632   5.406   3.854 -0.5825  0.0878  0.1046
   25ccc     H9  496   4.663   5.370   3.762  0.9828 -0.0978  0.6636
   25ccc    H10  497   4.584   5.322   3.891 -2.6519  0.1085 -2.2900
   25ccc    H11  498   4.564   5.482   3.841  0.2031  0.5920 -1.1766
   26ccc     N1  499   6.018   4.546   2.238 -0.1121  0.7103 -0.6523
   26ccc     H4  500   5.991   4.585   2.148 -1.7288  0.4075 -0.3274
   26ccc     C3  501   6.030   4.394   2.240 -1.0796 -0.1779 -0.0744
   26ccc     C4  502   5.891   4.330   2.261  0.0523  0.8948 -0.0858
   26ccc     H5  503   6.086   4.360   2.328 -0.1158  0.2787 -0.4933
   26ccc     H6  504   6.088   4.372   2.150 -0.9045 -0.1807  0.0392
   26ccc     H7  505   5.893   4.221   2.265  0.7814  0.9034  3.5028
   26ccc     H8  506   5.861   4.366   2.360  0.5587  0.3671  0.2651
   26ccc     N2  507   5.785   4.379   2.165  0.4503  0.0329  0.1322
   26ccc     H9  508   5.785   4.335   2.072 -1.0411  0.6869 -0.2014
   26ccc    H10  509   5.691   4.366   2.205  0.8568  1.4327  1.6557
   26ccc    H11  510   5.793   4.479   2.143  2.6802 -0.0427  0.3242
   27ccc     N1  511   5.539   4.781   2.578  0.0822 -0.3696 -0.1968
   27ccc     H4  512   5.485   4.852   2.627 -3.2094 -3.0245  0.4009
   27ccc     C3  513   5.459   4.671   2.527 -0.2710 -0.9406  0.4569
   27ccc     C4  514   5.318   4.675   2.581  0.5627  0.4735  0.0958
   27ccc     H5  515   5.507   4.580   2.564  1.6392  0.6260  2.0878
   27ccc     H6  516   5.468   4.664   2.418 -0.7138  0.7334  0.2744
   27ccc     H7  517   5.322   4.680   2.690  1.3082  1.9462  0.0247
   27ccc     H8  518   5.276   4.769   2.546 -0.4615 -0.4117 -1.1617
   27ccc     N2  519   5.241   4.553   2.534  0.2721  0.5242 -0.1165
   27ccc     H9  520   5.241   4.484   2.611 -0.2127 -0.8602 -1.3093
   27ccc    H10  521   5.142   4.577   2.518  0.1542  0.0355 -0.1294
   27ccc    H11  522   5.292   4.519   2.451  0.3046  0.3472 -0.0235
   28ccc     N1  523   6.917   5.853   2.673 -0.8530 -0.4109 -0.4064
   28ccc     H4  524   7.003   5.893   2.710 -0.1981 -3.1137  1.2746
   28ccc     C3  525   6.889   5.849   2.527 -0.5850 -0.1535 -0.2992
   28ccc     C4  526   6.771   5.937   2.492  0.6010  0.3712  0.5746
   28ccc     H5  527   6.861   5.747   2.500  1.2977 -1.1173  1.1733
   28ccc     H6  528   6.977   5.871   2.464 -0.7566 -0.0134 -0.4911
   28ccc     H7  529   6.711   5.911   2.405 -0.6155  1.5177  1.0361
   28ccc     H8  530   6.701   5.938   2.576 -0.6690 -2.7626 -0.2839
   28ccc     N2  531   6.809   6.084   2.486  0.9634  0.3445  0.0025
   28ccc     H9  532   6.842   6.120   2.395 -0.8943 -1.2541 -1.4137
   28ccc    H10  533   6.724   6.141   2.503  0.9515  0.2820  0.1452
   28ccc    H11  534   6.882   6.091   2.558 -0.9944 -1.3115  2.3118
   29ccc     N1  535   6.559   6.276   3.233 -0.1291 -0.2786 -0.5827
   29ccc     H4  536   6.467   6.243   3.256 -0.5333  1.0232 -0.2282
   29ccc     C3  537   6.591   6.399   3.295 -0.1522 -0.0102  0.4937
   29ccc     C4  538   6.456   6.446   3.356 -0.1636 -0.4733 -0.5978
   29ccc     H5  539   6.632   6.468   3.221 -0.9771  0.4209  0.4280
   29ccc     H6  540   6.659   6.378   3.378  0.0133  0.6950  0.5405
   29ccc     H7  541   6.389   6.467   3.273  0.1182 -0.9244 -0.9411
   29ccc     H8  542   6.416   6.356   3.404  2.3150 -1.1876  0.2543
   29ccc     N2  543   6.460   6.567   3.448 -0.1135 -0.0820 -0.1611
   29ccc     H9  544   6.536   6.553   3.516 -1.6403  0.8725  1.8834
   29ccc    H10  545   6.464   6.654   3.393  0.5408  1.0968  1.6673
   29ccc    H11  546   6.371   6.570   3.501 -0.0593  0.3702 -0.0915
   30SOL     OW  547   1.358   3.753   0.428  0.7029 -0.5326 -0.3152
   30SOL    HW1  548   1.332   3.807   0.354  2.4531 -0.0458 -0.6070
   30SOL    HW2  549   1.453   3.760   0.431  0.6455  0.4244  2.7039
   31SOL     OW  550   3.213   0.414   3.800  0.2722  0.2985 -0.2821
   31SOL    HW1  551   3.173   0.339   3.843 -2.2049  0.6278 -1.8473
   31SOL    HW2  552   3.152   0.486   3.816  1.3214  1.3836 -0.9880
   32SOL     OW  553   1.481   0.070   1.976 -0.4933 -0.3640 -0.5867
   32SOL    HW1  554   1.550   0.137   1.979 -0.1640 -0.7198  0.0116
   32SOL    HW2  555   1.404   0.117   1.945  0.1325 -0.0674 -1.7845
   33SOL     OW  556   3.910   3.083   5.840 -0.1127 -0.1032 -0.7145
   33SOL    HW1  557   3.833   3.026   5.833 -0.5456  0.6031 -1.8982
   33SOL    HW2  558   3.922   3.119   5.752 -0.1041  1.9546  0.0733
   34SOL     OW  559   3.720   0.072   3.596  0.4463 -0.1934 -0.0269
   34SOL    HW1  560   3.730  -0.020   3.573  0.1917  0.2197 -2.0004
   34SOL    HW2  561   3.797   0.115   3.560 -0.2550  0.5907 -0.6462
   35SOL     OW  562   1.861   0.460   6.175  0.4988 -0.0705 -0.7702
   35SOL    HW1  563   1.768   0.465   6.154 -0.1038 -1.5549  1.1924
   35SOL    HW2  564   1.880   0.366   6.173  1.1159 -0.0675  1.9264
   36SOL     OW  565   5.978   0.809   6.316  0.0960 -0.1999  0.4507
   36SOL    HW1  566   5.919   0.846   6.381 -0.4717 -0.6520  0.1971
   36SOL    HW2  567   5.930   0.735   6.278  0.4023  0.0750 -0.5012
   37SOL     OW  568   3.781   3.933   5.743 -0.0709  0.0281  0.0862
   37SOL    HW1  569   3.710   3.964   5.800 -1.4882  0.3133 -1.7266
   37SOL    HW2  570   3.839   3.885   5.801 -2.1912 -0.9250  1.5566
   38SOL     OW  571   2.412   5.696   4.586 -0.1057 -0.2074  0.5675
   38SOL    HW1  572   2.479   5.759   4.613 -1.0380  1.0077  0.0931
   38SOL    HW2  573   2.459   5.612   4.583  1.4332  0.6287  0.1307
   39SOL     OW  574   3.392   6.034   3.091 -0.2127 -0.2664  0.3332
   39SOL    HW1  575   3.464   6.069   3.037 -0.9486  0.4327 -0.2132
   39SOL    HW2  576   3.381   6.098   3.161 -0.7803  0.0072  0.0008
   40SOL     OW  577   4.414   5.363   0.222 -0.2066  0.6417  0.0994
   40SOL    HW1  578   4.402   5.276   0.261 -1.5448  1.9351  2.8152
   40SOL    HW2  579   4.340   5.373   0.162  0.1188 -0.1717 -0.4604
   41SOL     OW  580   0.499   2.039   5.324 -0.3669  0.4174 -0.5315
   41SOL    HW1  581   0.408   2.056   5.351 -0.1978  0.7947 -0.1999
   41SOL    HW2  582   0.537   2.125   5.311  0.3034  0.2975  0.5295
   42SOL     OW  583   4.486   1.665   4.574  0.6899 -0.4618  0.2657
   42SOL    HW1  584   4.574   1.697   4.555  0.4384  0.3096  0.3434
   42SOL    HW2  585   4.430   1.743   4.567  0.1401 -0.7681  1.0381
   43SOL     OW  586   4.512   4.362   2.258 -0.2269 -0.6233  0.0496
   43SOL    HW1  587   4.469   4.357   2.343 -0.3550 -0.4814 -0.0051
   43SOL    HW2  588   4.563   4.281   2.252 -0.2844 -0.6737  0.2241
   44SOL     OW  589   0.739   2.494   2.315  0.0868  0.5461 -0.4673
   44SOL    HW1  590   0.800   2.429   2.280 -1.1481 -1.1627  0.4138
   44SOL    HW2  591   0.752   2.491   2.410 -0.3442  1.2235 -0.3805
   45SOL     OW  592   4.872   2.665   4.794  0.1368 -0.1716  0.2302
   45SOL    HW1  593   4.786   2.700   4.768  0.3150 -0.1345 -0.3283
   45SOL    HW2  594   4.908   2.732   4.852  0.7285  0.8915 -1.2938
   46SOL     OW  595   1.848   4.205   2.816 -0.9922 -0.0086  0.3278
   46SOL    HW1  596   1.897   4.154   2.881  0.1918 -0.3702 -0.7917
   46SOL    HW2  597   1.850   4.150   2.737 -1.2162  1.0075 -0.4008
   47SOL     OW  598   4.558   0.367   1.636 -0.1550  0.1076 -0.0644
   47SOL    HW1  599   4.583   0.279   1.608 -0.4120  0.3914 -1.2501
   47SOL    HW2  600   4.512   0.403   1.560  1.1215  1.7580 -0.0968
   48SOL     OW  601   5.349   2.769   0.053  1.0079 -0.3264  0.3267
   48SOL    HW1  602   5.442   2.748   0.046  1.1344 -0.1317  1.3469
   48SOL    HW2  603   5.304   2.690   0.020  1.5211 -0.4011 -0.2117
   49SOL     OW  604   1.304   0.554   5.835  0.5588 -0.0804  0.5963
   49SOL    HW1  605   1.380   0.601   5.870  0.7351  0.4968 -0.4983
   49SOL    HW2  606   1.339   0.501   5.764  0.0745 -0.5517  0.7021
   50SOL     OW  607   0.071   5.700   5.193 -0.4551 -0.0487 -0.1999
   50SOL    HW1  608   0.115   5.673   5.112 -1.7853  0.7238 -1.2190
   50SOL    HW2  609   0.123   5.775   5.224  0.2236 -0.5196 -0.1693
   51SOL     OW  610   4.590   0.592   5.701 -0.2529  0.5778 -0.5871
   51SOL    HW1  611   4.636   0.539   5.767  0.9143  0.2932 -1.6059
   51SOL    HW2  612   4.504   0.551   5.695 -1.0739  1.6700  2.0114
   52SOL     OW  613   2.053   0.355   0.955 -0.1904 -0.2607  0.3852
   52SOL    HW1  614   1.986   0.294   0.924  0.4857 -1.1712  0.6744
   52SOL    HW2  615   2.032   0.368   1.048  0.2495 -0.8368  0.5658
   53SOL     OW  616   5.509   3.923   0.484 -0.7378  0.5378  0.0603
   53SOL    HW1  617   5.531   3.879   0.402  0.3119  1.9087 -0.4423
   53SOL    HW2  618   5.414   3.931   0.483 -0.8184 -0.4351 -0.5044
   54SOL     OW  619   2.100   5.081   4.929  0.8791 -0.1484 -0.2098
   54SOL    HW1  620   2.108   5.028   5.008  0.6899 -2.6361 -1.7408
   54SOL    HW2  621   2.015   5.123   4.936  1.8335  1.6773  1.9438
   55SOL     OW  622   2.312   3.168   5.046 -0.3002 -0.4672  0.1003
   55SOL    HW1  623   2.348   3.250   5.080 -0.9611 -0.4800  0.8845
   55SOL    HW2  624   2.328   3.171   4.952  0.6545  0.0626  0.2693
   56SOL     OW  625   0.885   6.363   2.291  0.4298 -0.2688 -0.3924
   56SOL    HW1  626   0.793   6.369   2.266  0.5339  0.9497 -0.5499
   56SOL    HW2  627   0.933   6.382   2.210  0.7894  0.5998  0.0080
   57SOL     OW  628   6.371   1.096   4.471  0.4101 -0.5365 -0.2609
   57SOL    HW1  629   6.345   1.042   4.545 -1.4922  0.0766 -0.4331
   57SOL    HW2  630   6.394   1.033   4.403  0.4580 -1.1126  0.2738
   58SOL     OW  631   1.119   2.365   3.150 -0.1432  0.4410 -0.1863
   58SOL    HW1  632   1.065   2.432   3.191  1.6254  2.4391 -0.9439
   58SOL    HW2  633   1.201   2.365   3.200  0.5613  0.1572 -1.2887
   59SOL     OW  634   4.897   1.465   1.737  0.2349 -0.3001 -0.3228
   59SOL    HW1  635   4.833   1.422   1.793  1.2506 -0.8915  0.4240
   59SOL    HW2  636   4.914   1.549   1.780 -3.3539  2.0592 -2.8835
   60SOL     OW  637   4.228   5.727   3.282  0.1068 -0.1764  0.2088
   60SOL    HW1  638   4.147   5.704   3.327  1.4435 -1.4177  2.1795
   60SOL    HW2  639   4.296   5.683   3.333  1.9749  0.3566 -1.7035
   61SOL     OW  640   2.206   6.323   5.850  0.4545  0.1372  0.4513
   61SOL    HW1  641   2.284   6.276   5.878  0.3727 -0.4117 -0.2289
   61SOL    HW2  642   2.233   6.372   5.773 -0.2324 -1.2559 -0.7148
   62SOL     OW  643   4.810   0.207   3.975 -0.4155 -0.0737 -0.2349
   62SOL    HW1  644   4.811   0.167   4.062 -0.5872 -1.9079 -1.0258
   62SOL    HW2  645   4.891   0.258   3.971  0.8041 -1.8888  0.1866
   63SOL     OW  646   5.971   0.495   2.561 -0.2752 -0.8300 -0.0324
   63SOL    HW1  647   5.952   0.573   2.612  1.0987 -0.8986  0.6462
   63SOL    HW2  648   5.911   0.428   2.594  2.0655 -1.5387  3.2492
   64SOL     OW  649   5.467   2.265   6.192 -0.0585  0.6058  0.0273
   64SOL    HW1  650   5.401   2.321   6.232 -0.4417 -1.1895  2.0689
   64SOL    HW2  651   5.516   2.323   6.134 -0.5215  3.0000  1.8969
   65SOL     OW  652   6.072   6.245   3.888  0.1232  0.8522  0.4517
   65SOL    HW1  653   6.024   6.302   3.829 -1.2565 -0.0415  0.6702
   65SOL    HW2  654   6.089   6.300   3.965 -1.4781  0.9013  0.8014
   66SOL     OW  655   1.192   3.944   2.366  0.6463 -0.2051 -0.6791
   66SOL    HW1  656   1.273   3.953   2.316  1.2993 -0.3570  0.3362
   66SOL    HW2  657   1.133   4.008   2.326  1.0289 -0.5599 -1.8655
   67SOL     OW  658   1.993   6.146   5.863 -0.1439 -0.2262  0.1186
   67SOL    HW1  659   1.942   6.155   5.944  0.9596 -1.1368  0.9669
   67SOL    HW2  660   2.064   6.210   5.872 -0.2237 -0.0838 -0.2870
   68SOL     OW  661   2.996   1.781   0.886  0.0714  0.3442  0.2310
   68SOL    HW1  662   3.002   1.773   0.981  1.8903 -0.4243  0.0950
   68SOL    HW2  663   3.045   1.860   0.865  0.4575  0.0179 -0.1232
   69SOL     OW  664   6.028   2.401   2.740  0.4833 -0.1037  0.5222
   69SOL    HW1  665   6.061   2.491   2.752  1.1102 -0.4482  1.5084
   69SOL    HW2  666   6.097   2.357   2.691  0.2561 -0.0966  0.1955
   70SOL     OW  667   4.379   0.107   4.572  0.4861 -0.0546  0.1711
   70SOL    HW1  668   4.410   0.119   4.482  1.0247 -0.2579  0.3292
   70SOL    HW2  669   4.377   0.012   4.584 -1.1336 -0.0987 -0.1584
   71SOL     OW  670   1.290   2.370   6.211  0.7991 -0.4104  0.0342
   71SOL    HW1  671   1.343   2.312   6.156  1.2346 -0.4836  0.5203
   71SOL    HW2  672   1.234   2.416   6.149  2.8130  1.1550 -0.7431
   72SOL     OW  673   0.016   1.890   3.087 -0.2587  0.4822  0.0519
   72SOL    HW1  674   0.083   1.854   3.028  0.8112  1.3900  0.6651
   72SOL    HW2  675  -0.022   1.813   3.128  1.2391 -0.0536  0.5339
   73SOL     OW  676   2.153   5.943   1.759 -0.5783  0.6600  0.5694
   73SOL    HW1  677   2.158   5.979   1.847 -0.0620 -0.3920  0.9825
   73SOL    HW2  678   2.059   5.938   1.741 -0.6691  1.9148  0.6045
   74SOL     OW  679   4.368   4.495   4.301 -0.1821 -0.1264  0.2506
   74SOL    HW1  680   4.380   4.472   4.393 -2.7755  1.5911  1.1600
   74SOL    HW2  681   4.375   4.591   4.299 -1.2776 -0.0301 -1.1011
   75SOL     OW  682   4.661   5.860   1.558  0.0339 -0.2598 -0.2921
   75SOL    HW1  683   4.647   5.803   1.634  1.3539 -1.3510 -0.8343
   75SOL    HW2  684   4.694   5.942   1.596 -0.9403 -0.1781  0.4221
   76SOL     OW  685   5.626   5.711   5.730  0.3770  0.3897 -0.0178
   76SOL    HW1  686   5.573   5.778   5.772 -0.2102  0.9455 -1.5614
   76SOL    HW2  687   5.643   5.745   5.642  2.3134 -0.3069  0.0323
   77SOL     OW  688   2.814   5.752   4.454 -0.7726  0.1137 -0.1343
   77SOL    HW1  689   2.808   5.672   4.403  3.0477 -1.5070  1.5837
   77SOL    HW2  690   2.745   5.743   4.520  0.3287 -2.4742  0.7860
   78SOL     OW  691   5.470   2.393   2.831  0.2837  0.5555 -0.0918
   78SOL    HW1  692   5.381   2.360   2.845  0.8363 -0.7269  0.6084
   78SOL    HW2  693   5.493   2.435   2.914  1.1528 -1.1886  0.5973
   79SOL     OW  694   2.578   4.682   4.069 -0.5645 -0.0103 -0.4712
   79SOL    HW1  695   2.589   4.682   3.974  1.0015  0.3826 -0.3088
   79SOL    HW2  696   2.633   4.610   4.100 -0.8470  0.0341  0.1601
   80SOL     OW  697   5.181   3.403   6.101  0.1885  0.8011  0.4304
   80SOL    HW1  698   5.183   3.341   6.174 -0.0205 -0.3256 -0.4704
   80SOL    HW2  699   5.119   3.470   6.128  0.4075  0.6028  1.4415
   81SOL     OW  700   4.705   0.723   2.570 -0.0678 -0.1046 -0.5759
   81SOL    HW1  701   4.689   0.629   2.566 -0.9463  0.0570 -1.0860
   81SOL    HW2  702   4.637   0.762   2.515 -1.1659  0.9915  1.4100
   82SOL     OW  703   2.771   3.849   3.360  0.5864 -0.0748  0.1783
   82SOL    HW1  704   2.708   3.915   3.390 -0.1943  0.1278 -1.7270
   82SOL    HW2  705   2.849   3.865   3.413 -0.5842  0.3860  1.8556
   83SOL     OW  706   5.439   3.757   3.136 -0.0578  0.3840 -0.4821
   83SOL    HW1  707   5.463   3.832   3.080  0.1749  0.7324  0.0793
   83SOL    HW2  708   5.448   3.681   3.078 -1.4642  0.8808 -1.4248
   84SOL     OW  709   3.234   6.194   0.502 -0.2185 -0.2866  0.1473
   84SOL    HW1  710   3.297   6.262   0.479  0.0008 -0.1158  1.2113
   84SOL    HW2  711   3.264   6.160   0.587 -0.0604 -2.0271 -0.5618
   85SOL     OW  712   5.767   5.458   2.358  0.2227 -0.0692  0.6305
   85SOL    HW1  713   5.738   5.450   2.267  0.9414  0.2157  0.3764
   85SOL    HW2  714   5.840   5.519   2.355  1.5999 -1.6317  1.1162
   86SOL     OW  715   2.476   3.861   5.587  0.7855  0.4558 -0.1968
   86SOL    HW1  716   2.404   3.868   5.649 -0.8812  1.7454 -2.1474
   86SOL    HW2  717   2.554   3.882   5.638 -0.2232 -0.6219  1.8928
   87SOL     OW  718   2.318   2.430   5.207  0.0883  0.0799  0.1854
   87SOL    HW1  719   2.295   2.341   5.181 -2.1004  0.6897 -0.1629
   87SOL    HW2  720   2.413   2.435   5.195 -0.1153 -1.1948 -3.0731
   88SOL     OW  721   4.376   5.830   5.295  0.4612 -0.5953  0.3142
   88SOL    HW1  722   4.386   5.912   5.248 -0.6105  0.1891  1.4030
   88SOL    HW2  723   4.339   5.770   5.230  0.7816 -0.1034 -0.3452
   89SOL     OW  724   1.827   2.304   3.676  0.0833  0.6206  0.2229
   89SOL    HW1  725   1.791   2.273   3.759 -0.6947 -3.9533 -1.5118
   89SOL    HW2  726   1.921   2.288   3.683 -0.0156 -0.0240  0.1781
   90SOL     OW  727   5.940   4.703   3.354  0.4321  0.0831  0.2245
   90SOL    HW1  728   5.853   4.710   3.313  0.7935  1.5860 -0.3649
   90SOL    HW2  729   5.989   4.647   3.295  0.3415  0.5809 -0.3374
   91SOL     OW  730   5.396   5.412   5.833 -0.6012  0.2110 -0.5309
   91SOL    HW1  731   5.308   5.414   5.794 -0.7090  0.7929 -0.2785
   91SOL    HW2  732   5.405   5.498   5.874 -0.4219 -0.3219  0.5714
   92SOL     OW  733   3.844   3.731   1.855 -0.7195  0.2421  0.3725
   92SOL    HW1  734   3.768   3.740   1.912 -1.1788 -2.6740  0.3644
   92SOL    HW2  735   3.826   3.653   1.803  0.9787  1.1749 -1.7580
   93SOL     OW  736   1.806   4.950   3.253 -0.6130  0.5868 -0.4481
   93SOL    HW1  737   1.738   5.016   3.260 -0.1317  1.0730 -0.3252
   93SOL    HW2  738   1.886   4.999   3.236 -0.3802 -0.0102 -1.1504
   94SOL     OW  739   1.367   0.590   4.301 -0.3735 -0.2054  0.1777
   94SOL    HW1  740   1.323   0.641   4.233  1.0612  1.6215  0.5225
   94SOL    HW2  741   1.460   0.613   4.292 -0.0010 -0.8119  1.9898
   95SOL     OW  742   4.533   4.389   3.129  1.0910 -0.0976 -0.1719
   95SOL    HW1  743   4.498   4.470   3.167  0.7889 -0.8683  1.2749
   95SOL    HW2  744   4.620   4.380   3.169 -0.0695 -2.0534  2.2219
   96SOL     OW  745   2.199   5.486   1.847 -0.3695 -0.1913 -0.4490
   96SOL    HW1  746   2.145   5.416   1.885 -1.5827  1.2563  0.6320
   96SOL    HW2  747   2.272   5.496   1.910 -1.3758  0.9438  0.5914
   97SOL     OW  748   6.099   3.606   1.257 -0.2912  0.0168 -0.3342
   97SOL    HW1  749   6.147   3.625   1.177  1.1640  0.3890  0.5875
   97SOL    HW2  750   6.139   3.526   1.291 -0.3170  0.3204  0.4370
   98SOL     OW  751   2.841   5.749   5.749  0.3769  0.0673 -0.3365
   98SOL    HW1  752   2.769   5.810   5.733 -0.9263 -0.8939  1.4689
   98SOL    HW2  753   2.798   5.664   5.759  1.9574 -0.8469 -0.8793
   99SOL     OW  754   5.000   2.240   2.307  0.0148 -0.1726 -1.0137
   99SOL    HW1  755   4.972   2.212   2.394 -0.0419 -1.4812 -1.4461
   99SOL    HW2  756   4.948   2.319   2.290  0.4784  0.4683  0.3786
  100SOL     OW  757   6.169   5.089   0.864  0.1763  0.0714  0.3974
  100SOL    HW1  758   6.124   5.149   0.804 -0.8061  0.3981  1.4227
  100SOL    HW2  759   6.135   5.002   0.841  0.5586  0.0633 -0.1653
  101SOL     OW  760   1.980   1.640   3.407 -0.2439 -0.4360 -0.2781
  101SOL    HW1  761   1.985   1.602   3.495 -1.6508  0.2227  0.1096
  101SOL    HW2  762   2.064   1.618   3.367 -0.0954 -1.9175  0.7511
  102SOL     OW  763   1.018   3.097   5.780 -0.1553 -1.1927 -0.1734
  102SOL    HW1  764   1.040   3.035   5.849 -0.0199 -0.8747  0.0675
  102SOL    HW2  765   0.941   3.059   5.737 -1.0588 -0.7303  0.9946
  103SOL     OW  766   4.489   0.063   5.195 -0.2094  0.2441  0.0386
  103SOL    HW1  767   4.442  -0.020   5.203 -0.3419  0.4689  1.9463
  103SOL    HW2  768   4.423   0.125   5.163 -0.0896 -0.3620 -1.4810
  104SOL     OW  769   0.761   1.422   0.802  0.3628 -0.5440 -0.4415
  104SOL    HW1  770   0.693   1.436   0.735  0.8743 -1.1927 -1.1162
  104SOL    HW2  771   0.713   1.387   0.877 -0.0827 -0.7852 -0.8333
  105SOL     OW  772   6.145   6.049   4.066  0.0620  0.1060 -0.4149
  105SOL    HW1  773   6.148   6.120   4.001 -0.2982  1.6096  1.1416
  105SOL    HW2  774   6.237   6.031   4.086  0.1820 -0.4620 -1.4019
  106SOL     OW  775   2.745   0.228   1.782  0.2429 -0.2897 -0.0341
  106SOL    HW1  776   2.712   0.229   1.693 -0.0860  1.3910  0.0852
  106SOL    HW2  777   2.840   0.235   1.773  0.2221 -0.2853 -0.2478
  107SOL     OW  778   3.627   3.088   4.528  0.2203  0.2087 -0.3822
  107SOL    HW1  779   3.656   3.179   4.524 -0.3344  0.3741 -0.6945
  107SOL    HW2  780   3.532   3.092   4.521  0.0182 -0.2777  1.4591
  108SOL     OW  781   4.828   2.976   0.970  0.5113  0.6277 -0.6809
  108SOL    HW1  782   4.755   3.031   0.999  0.9617  1.1981 -0.6142
  108SOL    HW2  783   4.873   2.953   1.052 -0.3867 -0.8949 -0.5681
  109SOL     OW  784   4.801   5.425   0.010  0.4512  0.5599  0.4106
  109SOL    HW1  785   4.880   5.475   0.031  0.7706 -0.0335  0.6279
  109SOL    HW2  786   4.730   5.475   0.051  0.6545  1.3282 -0.1521
  110SOL     OW  787   3.486   4.393   5.112 -0.2764  0.5628  0.1901
  110SOL    HW1  788   3.537   4.386   5.193  1.2148  0.6276 -0.6968
  110SOL    HW2  789   3.474   4.303   5.084 -0.0900  0.5700  0.0820
  111SOL     OW  790   3.367   5.580   2.232  0.0357 -0.3738 -0.1355
  111SOL    HW1  791   3.356   5.645   2.301 -2.0126  1.4706 -2.0280
  111SOL    HW2  792   3.405   5.629   2.159 -2.0034 -1.1011 -1.7846
  112SOL     OW  793   2.123   4.838   0.720 -0.5968  0.3330  0.4888
  112SOL    HW1  794   2.062   4.792   0.663  0.6501  1.3773 -1.8667
  112SOL    HW2  795   2.108   4.931   0.699 -0.2640  0.7709  2.0970
  113SOL     OW  796   4.261   2.691   4.264 -0.4642 -0.3281 -0.1554
  113SOL    HW1  797   4.323   2.648   4.322 -0.8399 -1.4465 -0.5611
  113SOL    HW2  798   4.179   2.694   4.314 -0.2354  0.6867  0.1859
  114SOL     OW  799   4.390   2.790   5.769  0.0727 -0.0348 -0.3612
  114SOL    HW1  800   4.372   2.876   5.732  0.9956  0.2480 -0.1881
  114SOL    HW2  801   4.442   2.745   5.702  1.8438  0.5187  0.5705
  115SOL     OW  802   2.131   2.015   1.343 -0.1606  0.1321  0.0082
  115SOL    HW1  803   2.176   2.079   1.287 -0.3715 -1.5844 -2.3042
  115SOL    HW2  804   2.175   1.932   1.324 -0.1656 -0.5210  2.5958
  116SOL     OW  805   0.881   1.085   6.016 -0.1725 -0.5501 -0.3513
  116SOL    HW1  806   0.920   1.144   6.080  2.4408 -2.4138 -0.0830
  116SOL    HW2  807   0.805   1.048   6.061 -0.1935  0.4826  0.4975
  117SOL     OW  808   1.268   1.462   1.698  0.3166  0.2995  0.0159
  117SOL    HW1  809   1.314   1.545   1.708  0.7783  0.3934 -2.3796
  117SOL    HW2  810   1.310   1.404   1.761  1.8236  1.1531 -0.1620
  118SOL     OW  811   2.764   3.675   2.433  0.1637  0.4133  0.1744
  118SOL    HW1  812   2.807   3.600   2.391 -1.7208 -0.1012 -0.9706
  118SOL    HW2  813   2.713   3.636   2.504 -1.2779  0.4907 -0.7824
  119SOL     OW  814   5.506   4.842   2.220 -0.8221 -0.1980 -0.8502
  119SOL    HW1  815   5.448   4.912   2.250 -1.7659 -0.8900 -1.0085
  119SOL    HW2  816   5.457   4.799   2.149  0.0306 -0.5875 -1.2176
  120SOL     OW  817   4.031   1.383   4.064 -0.0153 -0.8336 -0.0860
  120SOL    HW1  818   4.050   1.453   4.000  1.5198  1.5169  2.7077
  120SOL    HW2  819   4.116   1.361   4.101 -0.8342 -2.2536  1.0185
  121SOL     OW  820   0.814   1.802   5.193 -0.5982 -0.3597  0.3279
  121SOL    HW1  821   0.900   1.842   5.183 -0.6711  0.2959  1.9283
  121SOL    HW2  822   0.766   1.826   5.114  1.0378 -1.7452 -1.1482
  122SOL     OW  823   0.489   5.409   1.331 -0.7348 -0.0555 -0.0166
  122SOL    HW1  824   0.441   5.442   1.255 -0.9383 -1.0941 -0.3557
  122SOL    HW2  825   0.434   5.431   1.406 -0.8509  0.3870 -0.2287
  123SOL     OW  826   2.048   4.063   2.166 -0.4260  0.0160  0.7600
  123SOL    HW1  827   1.988   4.073   2.240 -3.2069  1.3963 -1.4750
  123SOL    HW2  828   2.105   4.139   2.170 -1.3913  0.7530  0.8124
  124SOL     OW  829   1.920   6.301   2.265  0.6775  0.1629  0.1735
  124SOL    HW1  830   1.874   6.359   2.325  0.1142  0.5741 -0.6359
  124SOL    HW2  831   1.923   6.216   2.310 -0.4871  0.2476  0.4198
  125SOL     OW  832   6.182   0.621   2.927 -0.2413 -0.0539 -0.3861
  125SOL    HW1  833   6.165   0.538   2.972  1.2552 -0.9181 -1.3068
  125SOL    HW2  834   6.241   0.597   2.855  0.8312  1.9275 -0.2392
  126SOL     OW  835   1.193   2.811   2.073 -0.0160 -0.1140  0.3067
  126SOL    HW1  836   1.258   2.881   2.080  0.1124 -0.3967  2.3975
  126SOL    HW2  837   1.244   2.730   2.073 -0.3103 -0.3255  1.6518
  127SOL     OW  838   4.511   1.580   0.811  0.3601  0.0688 -0.1732
  127SOL    HW1  839   4.433   1.565   0.758 -0.8169  2.0909  0.8586
  127SOL    HW2  840   4.573   1.511   0.784 -1.0612 -0.4324 -2.3656
  128SOL     OW  841   5.121   0.784   5.741 -0.6657 -0.3961 -0.3166
  128SOL    HW1  842   5.133   0.855   5.677 -1.7498 -0.7275 -0.9168
  128SOL    HW2  843   5.143   0.824   5.825  1.9518 -0.2656 -0.9715
  129SOL     OW  844   3.696   4.456   2.179  0.1095  0.5679  1.0131
  129SOL    HW1  845   3.730   4.472   2.091  0.1151 -1.6125  0.5569
  129SOL    HW2  846   3.734   4.526   2.232 -1.1223  2.8907 -0.9433
  130SOL     OW  847   5.902   3.276   3.565  0.1621  0.2558 -0.4945
  130SOL    HW1  848   5.908   3.362   3.606 -0.1327 -0.3420  0.8394
  130SOL    HW2  849   5.835   3.287   3.497 -0.2654  0.9316  0.0280
  131SOL     OW  850   0.157   0.426   2.375 -0.0346  0.3355 -0.1085
  131SOL    HW1  851   0.117   0.340   2.361 -1.5484  0.6480  1.7757
  131SOL    HW2  852   0.092   0.488   2.340  0.3215  0.7537 -0.0342
  132SOL     OW  853   1.253   5.695   2.814 -0.2973 -0.0148  0.1022
  132SOL    HW1  854   1.222   5.716   2.726 -0.6845 -0.5235  0.1125
  132SOL    HW2  855   1.195   5.746   2.872 -0.7821 -0.5577  0.1011
  133SOL     OW  856   1.271   5.893   2.376 -0.1914  0.7230 -0.4024
  133SOL    HW1  857   1.290   5.978   2.415  0.2899  0.1608  0.6194
  133SOL    HW2  858   1.180   5.901   2.346 -0.7549  1.0324  1.2745
  134SOL     OW  859   4.195   5.819   2.598  0.6707  0.2109  0.1175
  134SOL    HW1  860   4.187   5.904   2.641  0.5937 -0.1185  0.7768
  134SOL    HW2  861   4.105   5.795   2.575  0.7592  0.5901 -0.6445
  135SOL     OW  862   5.889   5.845   6.194  0.0606 -0.3415  0.1451
  135SOL    HW1  863   5.966   5.834   6.250  1.1943  0.3835 -1.1835
  135SOL    HW2  864   5.841   5.917   6.234  0.1847 -0.6584  0.8778
  136SOL     OW  865   5.753   3.821   4.271  0.0134 -0.4269 -0.1541
  136SOL    HW1  866   5.770   3.907   4.233 -0.1834 -0.8129 -1.1306
  136SOL    HW2  867   5.744   3.838   4.365  1.9612  0.3352 -0.0566
  137SOL     OW  868   1.396   2.572   3.769  0.2492 -0.7726  0.4230
  137SOL    HW1  869   1.459   2.519   3.818  0.0257 -2.4684 -1.0199
  137SOL    HW2  870   1.344   2.508   3.720  0.7450  0.7802 -2.3633
  138SOL     OW  871   5.160   1.203   2.486  0.3745  0.5349 -0.1823
  138SOL    HW1  872   5.116   1.261   2.549 -0.4737 -0.5153  0.2306
  138SOL    HW2  873   5.148   1.246   2.401 -2.2540 -0.1081 -0.2193
  139SOL     OW  874   5.473   2.425   1.672  0.3270  0.3500 -0.2520
  139SOL    HW1  875   5.474   2.482   1.596  0.8826 -0.0840 -0.5744
  139SOL    HW2  876   5.531   2.467   1.735  0.0746  0.5698 -0.1603
  140SOL     OW  877   1.591   4.216   2.897  0.0042  0.8303  0.0611
  140SOL    HW1  878   1.680   4.219   2.863  0.1855 -2.6030 -0.1959
  140SOL    HW2  879   1.601   4.217   2.992  0.9013 -3.7366  0.2371
  141SOL     OW  880   2.568   3.392   4.860  0.3932  0.2536 -0.3160
  141SOL    HW1  881   2.536   3.404   4.950  1.7920 -0.1255  0.2545
  141SOL    HW2  882   2.504   3.333   4.820 -1.1440  1.6910 -0.1020
  142SOL     OW  883   2.913   0.627   3.194 -0.4715  0.0761  0.2536
  142SOL    HW1  884   2.933   0.717   3.169 -0.8353  0.4263  1.1566
  142SOL    HW2  885   2.992   0.598   3.241 -0.2948 -0.1264 -0.1710
  143SOL     OW  886   2.789   2.616   5.842  0.1836  0.5276 -0.4247
  143SOL    HW1  887   2.796   2.520   5.846  0.9152  0.5369 -1.1901
  143SOL    HW2  888   2.863   2.647   5.894 -0.1458  0.6905 -0.0428
  144SOL     OW  889   0.057   2.486   2.762 -0.0041  0.4283 -0.2573
  144SOL    HW1  890   0.060   2.514   2.671 -1.2546 -0.9578 -0.7625
  144SOL    HW2  891   0.108   2.405   2.764 -0.7083 -0.0117  0.0895
  145SOL     OW  892   3.827   2.945   1.680  0.3231 -0.6876  0.4663
  145SOL    HW1  893   3.746   2.911   1.717 -0.5636  0.3785 -0.4222
  145SOL    HW2  894   3.849   2.884   1.609 -1.2797  0.5269 -1.1487
  146SOL     OW  895   0.754   1.101   5.553  0.4336 -0.0920 -0.0707
  146SOL    HW1  896   0.834   1.080   5.602  0.3522 -1.3940 -0.4368
  146SOL    HW2  897   0.702   1.020   5.558 -0.8310  0.7131  0.1012
  147SOL     OW  898   3.896   4.009   2.370 -0.1329  0.1515 -0.2944
  147SOL    HW1  899   3.832   4.080   2.359  0.6585  0.8978 -0.2088
  147SOL    HW2  900   3.850   3.942   2.421 -0.9561  0.5206 -0.5438
  148SOL     OW  901   3.728   5.924   0.623  0.3752 -0.1424  0.5340
  148SOL    HW1  902   3.806   5.905   0.675  0.4047 -0.6023  0.3259
  148SOL    HW2  903   3.701   6.012   0.651  1.2705  0.2451  0.2457
  149SOL     OW  904   4.610   5.027   0.763  0.1179 -0.3699 -0.5227
  149SOL    HW1  905   4.521   5.021   0.798  0.8702 -1.2099  1.3737
  149SOL    HW2  906   4.602   5.085   0.687 -1.6908  1.4024  0.8954
  150SOL     OW  907   3.135   1.074   5.555  0.2187  0.2109  0.2711
  150SOL    HW1  908   3.147   1.114   5.469 -0.4902  0.4202  0.2632
  150SOL    HW2  909   3.118   1.147   5.614  2.9679  0.3108  1.0605
  151SOL     OW  910   4.046   3.968   1.757 -0.3415 -0.1994  0.4375
  151SOL    HW1  911   3.969   3.983   1.703 -0.6915 -0.2742  0.9075
  151SOL    HW2  912   4.086   3.889   1.722 -0.8364 -0.5233  0.5847
  152SOL     OW  913   1.908   3.619   2.040 -0.0487  0.0735  0.6325
  152SOL    HW1  914   1.961   3.663   2.107  0.8635  1.2767 -0.8208
  152SOL    HW2  915   1.820   3.616   2.078  0.4417  0.7426  1.8791
  153SOL     OW  916   3.821   5.608   6.013 -0.3422 -0.2185  0.1430
  153SOL    HW1  917   3.866   5.527   6.036  2.3348  0.4541 -2.1300
  153SOL    HW2  918   3.788   5.593   5.924  0.1881  1.1078 -0.3161
  154SOL     OW  919   4.555   6.220   0.885 -0.0132  0.1441  0.5907
  154SOL    HW1  920   4.472   6.216   0.838  0.2353 -0.6075  0.1827
  154SOL    HW2  921   4.600   6.296   0.847 -0.4759  0.4983  0.7516
  155SOL     OW  922   0.262   4.326   1.026 -0.7525 -0.2354 -0.1013
  155SOL    HW1  923   0.169   4.351   1.031 -0.7279 -0.0837 -0.3644
  155SOL    HW2  924   0.300   4.391   0.966  0.1763  1.6821  2.3814
  156SOL     OW  925   1.215   4.128   0.960  0.3497  0.0990  0.1955
  156SOL    HW1  926   1.215   4.059   0.894 -0.5241 -0.6575  0.9554
  156SOL    HW2  927   1.300   4.171   0.950  1.2112 -1.5292  0.1578
  157SOL     OW  928   1.613   3.409   5.550  0.3600 -0.0695  0.6210
  157SOL    HW1  929   1.520   3.388   5.549  0.3035 -0.1092  2.4893
  157SOL    HW2  930   1.639   3.412   5.458 -1.0992 -1.7193  0.1237
  158SOL     OW  931   0.855   2.265   2.069  0.3820  0.3665  0.2714
  158SOL    HW1  932   0.932   2.321   2.064  2.4799 -2.3284 -0.1972
  158SOL    HW2  933   0.890   2.178   2.090 -2.5034 -1.0756 -0.3408
  159SOL     OW  934   4.156   0.099   1.072  0.5727  0.0973  0.5836
  159SOL    HW1  935   4.190   0.030   1.129 -0.3194 -1.5895 -0.8343
  159SOL    HW2  936   4.077   0.129   1.115  0.3204 -0.6306  0.6445
  160SOL     OW  937   2.770   5.889   0.205 -0.4763 -0.2709 -0.1597
  160SOL    HW1  938   2.720   5.808   0.213  0.7303 -0.8244  3.4390
  160SOL    HW2  939   2.844   5.866   0.148 -1.5439 -0.8761 -1.3491
  161SOL     OW  940   4.018   2.244   6.220 -0.0860  0.2123 -0.9619
  161SOL    HW1  941   3.999   2.191   6.297 -1.4492 -0.7521 -1.9143
  161SOL    HW2  942   3.938   2.238   6.167  0.7557  0.9870 -2.3736
  162SOL     OW  943   3.692   0.618   5.467 -1.0114  0.3706 -0.5287
  162SOL    HW1  944   3.788   0.616   5.466 -1.0199 -0.1248 -0.1935
  162SOL    HW2  945   3.666   0.539   5.420 -1.2605  1.0276 -1.5316
  163SOL     OW  946   5.699   0.644   6.019 -0.1961  0.4743 -0.3925
  163SOL    HW1  947   5.653   0.711   6.069 -1.0027 -1.6267  1.8233
  163SOL    HW2  948   5.630   0.592   5.978 -0.0081 -2.4797  2.6535
  164SOL     OW  949   2.973   0.187   3.171  0.2131 -0.1346  0.0915
  164SOL    HW1  950   2.881   0.201   3.192 -0.2230 -2.3609 -0.1690
  164SOL    HW2  951   2.999   0.268   3.126 -0.8747  1.5741  2.3022
  165SOL     OW  952   5.243   0.386   0.822 -0.5412  0.0450  0.3027
  165SOL    HW1  953   5.276   0.416   0.737  2.0640 -1.5039  0.6409
  165SOL    HW2  954   5.322   0.367   0.873 -2.0277 -0.6734  2.4961
  166SOL     OW  955   1.444   2.224   0.235 -0.2815  0.3909  0.1007
  166SOL    HW1  956   1.420   2.316   0.244  1.1067  0.8888 -0.8131
  166SOL    HW2  957   1.387   2.190   0.165 -2.1879 -0.0286  1.7884
  167SOL     OW  958   0.378   0.428   0.254 -0.0675 -0.0183 -0.0791
  167SOL    HW1  959   0.323   0.354   0.282  1.5466 -1.6338 -0.9882
  167SOL    HW2  960   0.461   0.388   0.230  0.1993  1.8352 -2.6176
  168SOL     OW  961   0.425   3.190   5.157  0.0536  0.2293 -0.5451
  168SOL    HW1  962   0.493   3.250   5.128  0.8447 -0.1526  0.4596
  168SOL    HW2  963   0.464   3.142   5.230 -1.0426 -0.5162 -0.4130
  169SOL     OW  964   3.413   4.770   1.178 -0.5565  0.1931  0.5790
  169SOL    HW1  965   3.349   4.787   1.246  0.6473  1.4118  1.4793
  169SOL    HW2  966   3.465   4.697   1.211 -0.1754  0.5740  0.8309
  170SOL     OW  967   1.138   4.802   4.103 -0.1628  0.4344 -0.2024
  170SOL    HW1  968   1.146   4.852   4.022  0.7142  1.2351  0.3546
  170SOL    HW2  969   1.057   4.835   4.143 -1.5156 -1.1287 -1.4867
  171SOL     OW  970   4.848   1.683   1.371  0.2718 -0.4525  0.1912
  171SOL    HW1  971   4.768   1.729   1.394 -0.0740 -0.9270 -0.0535
  171SOL    HW2  972   4.827   1.590   1.383  0.4399 -0.6454 -0.9073
  172SOL     OW  973   4.064   2.352   2.640 -0.6550 -0.0760  0.5806
  172SOL    HW1  974   4.034   2.426   2.588 -2.0455 -1.0543 -0.0691
  172SOL    HW2  975   4.065   2.278   2.579 -0.9543 -0.9406  1.5840
  173SOL     OW  976   4.296   5.009   1.328 -0.0584 -0.5504 -0.1223
  173SOL    HW1  977   4.256   5.059   1.400  0.7924  0.3031 -0.2208
  173SOL    HW2  978   4.269   4.919   1.344 -1.5145 -0.0944  0.1490
  174SOL     OW  979   6.051   5.434   4.087 -0.6905 -0.0226  0.1131
  174SOL    HW1  980   6.030   5.378   4.162  2.3194 -0.6423  0.6530
  174SOL    HW2  981   6.026   5.522   4.115 -2.7916 -0.6761  0.4247
  175SOL     OW  982   0.319   0.936   0.545  0.6193 -0.0622  0.2926
  175SOL    HW1  983   0.414   0.926   0.537  0.7938  0.3243  1.6384
  175SOL    HW2  984   0.285   0.847   0.542  0.9185 -0.1532 -1.1298
  176SOL     OW  985   5.047   2.550   3.841  0.5261 -0.6089  0.0318
  176SOL    HW1  986   5.099   2.585   3.769  1.2131 -0.1220  0.7463
  176SOL    HW2  987   5.111   2.516   3.903 -0.0093 -0.2577  0.7990
  177SOL     OW  988   1.683   0.640   0.586  0.1186  0.0787  0.6581
  177SOL    HW1  989   1.670   0.585   0.663  1.5315 -0.9162  0.2214
  177SOL    HW2  990   1.617   0.709   0.595  0.3438  0.0876  2.8242
  178SOL     OW  991   5.599   1.441   6.291  0.8420 -0.4685 -0.6367
  178SOL    HW1  992   5.659   1.455   6.364  0.3572 -1.6810  0.0220
  178SOL    HW2  993   5.515   1.473   6.323  0.4738 -1.6500 -0.3731
  179SOL     OW  994   2.023   3.126   4.539 -0.4935  0.5300 -0.6390
  179SOL    HW1  995   2.109   3.089   4.558 -1.0032 -0.1946  0.3511
  179SOL    HW2  996   1.984   3.143   4.625 -0.7106  2.4216 -1.0608
  180SOL     OW  997   5.059   2.660   5.619 -0.2005 -0.5868 -0.1193
  180SOL    HW1  998   4.964   2.667   5.635 -0.0750 -0.6637  0.7305
  180SOL    HW2  999   5.092   2.749   5.629 -0.0721 -0.6896  0.4237
  181SOL     OW 1000   4.799   2.254   3.618  0.1076 -0.6439 -0.2184
  181SOL    HW1 1001   4.716   2.289   3.652 -0.7240 -2.5013 -0.2133
  181SOL    HW2 1002   4.816   2.306   3.540 -0.5348  0.4235  0.3177
  182SOL     OW 1003   4.235   4.684   2.668  0.8060  0.2791  0.9019
  182SOL    HW1 1004   4.307   4.635   2.707 -0.1272  0.1171  2.4914
  182SOL    HW2 1005   4.185   4.619   2.618  0.8333  0.0595  1.1631
  183SOL     OW 1006   1.997   2.658   2.890  0.1492  0.5351  0.0225
  183SOL    HW1 1007   2.061   2.601   2.847 -1.7343 -1.2466 -0.6092
  183SOL    HW2 1008   2.019   2.746   2.860  0.2663 -0.3737 -2.8670
  184SOL     OW 1009   1.160   3.405   3.118 -0.4268 -0.2115 -0.1465
  184SOL    HW1 1010   1.252   3.407   3.091 -0.7664  0.6645 -1.3533
  184SOL    HW2 1011   1.157   3.462   3.195  0.0546 -0.2498 -0.0960
  185SOL     OW 1012   3.347   1.179   3.839 -0.4397 -0.1432  0.2287
  185SOL    HW1 1013   3.318   1.260   3.881 -0.1386  0.4133 -0.6112
  185SOL    HW2 1014   3.276   1.154   3.781 -0.4756 -0.4178  0.3862
  186SOL     OW 1015   5.035   4.032   2.627 -0.6824  0.5317 -0.1999
  186SOL    HW1 1016   5.044   4.043   2.721 -1.2775 -0.8618  0.0368
  186SOL    HW2 1017   5.031   3.937   2.613  0.4883  0.6490 -1.7368
  187SOL     OW 1018   1.121   1.521   3.152  0.7106 -0.2548  0.0028
  187SOL    HW1 1019   1.093   1.582   3.221 -0.3830 -0.4144 -0.2850
  187SOL    HW2 1020   1.102   1.567   3.070 -0.1998 -0.9904 -0.2159
  188SOL     OW 1021   4.446   5.811   4.539  0.3386  0.0194 -0.3316
  188SOL    HW1 1022   4.373   5.832   4.597  0.1381  1.0279 -0.9256
  188SOL    HW2 1023   4.517   5.868   4.568 -0.2329  1.6807 -2.0038
  189SOL     OW 1024   5.225   3.733   4.687  0.3325  0.3380  0.1827
  189SOL    HW1 1025   5.239   3.734   4.782  1.1489 -0.3648  0.0787
  189SOL    HW2 1026   5.186   3.648   4.670  1.0296  0.0969 -0.2246
  190SOL     OW 1027   0.033   4.829   0.619 -0.5443 -0.2138 -0.5823
  190SOL    HW1 1028   0.041   4.872   0.703  0.5984 -0.6288 -0.4548
  190SOL    HW2 1029   0.001   4.897   0.560 -0.6947  0.2626  0.0393
  191SOL     OW 1030   2.372   5.823   0.425  0.4319  0.3815 -0.1075
  191SOL    HW1 1031   2.396   5.900   0.476  0.2565  1.2622 -1.2814
  191SOL    HW2 1032   2.454   5.790   0.390  0.4772  0.2202  0.1533
  192SOL     OW 1033   6.330   4.337   0.408 -0.0523  1.5112 -0.2424
  192SOL    HW1 1034   6.380   4.417   0.390 -1.9357  2.6296 -0.6792
  192SOL    HW2 1035   6.355   4.277   0.337  2.8149  0.9164  1.1101
  193SOL     OW 1036   1.344   0.092   3.719 -0.1537  0.5061 -0.0065
  193SOL    HW1 1037   1.365   0.008   3.680 -1.1261 -0.3271  1.1922
  193SOL    HW2 1038   1.249   0.100   3.709 -0.5064  0.0929  2.4078
  194SOL     OW 1039   1.994   4.279   1.636  0.3185  0.3827  0.5165
  194SOL    HW1 1040   1.980   4.372   1.650 -1.3201 -0.0320  2.0564
  194SOL    HW2 1041   2.046   4.274   1.556  1.6333  2.6419  1.1584
  195SOL     OW 1042   0.805   0.040   4.786 -0.3455  0.4191  0.4446
  195SOL    HW1 1043   0.881   0.084   4.825 -0.0668  2.1567 -1.8579
  195SOL    HW2 1044   0.822  -0.054   4.800  0.8771  0.8514  2.2751
  196SOL     OW 1045   4.069   5.679   5.822  0.1466  0.0729 -0.4178
  196SOL    HW1 1046   4.028   5.597   5.794  0.0598  0.2696 -0.8804
  196SOL    HW2 1047   4.142   5.651   5.877 -0.5633 -0.2873  0.3835
  197SOL     OW 1048   2.218   0.663   2.841  0.4572 -0.0778 -0.1594
  197SOL    HW1 1049   2.275   0.685   2.915  1.8208 -0.5375 -1.0331
  197SOL    HW2 1050   2.152   0.732   2.840 -0.1607 -0.5741  2.0306
  198SOL     OW 1051   6.192   0.797   2.681 -0.4086  0.1140 -0.1731
  198SOL    HW1 1052   6.215   0.795   2.774 -0.4671 -1.5682 -0.1661
  198SOL    HW2 1053   6.267   0.759   2.637 -0.5989  0.4365 -0.7833
  199SOL     OW 1054   0.634   5.668   5.711  0.1483  0.4607  0.0733
  199SOL    HW1 1055   0.649   5.574   5.709 -1.5819  0.1479 -1.1391
  199SOL    HW2 1056   0.713   5.706   5.672  0.4751 -0.5683 -0.3021
  200SOL     OW 1057   5.053   1.355   3.572 -0.1946  0.6883  0.1875
  200SOL    HW1 1058   4.987   1.380   3.507  0.3412  0.1712 -0.5656
  200SOL    HW2 1059   5.117   1.305   3.523 -0.2921 -0.5916  1.3120
  201SOL     OW 1060   4.474   6.228   4.368  0.3697 -0.1056 -0.2571
  201SOL    HW1 1061   4.426   6.152   4.336  0.3637 -0.4009  0.4302
  201SOL    HW2 1062   4.561   6.193   4.391  1.2576  0.5919 -2.3690
  202SOL     OW 1063   3.059   2.518   0.383  0.0762  0.7731  0.3899
  202SOL    HW1 1064   3.011   2.499   0.464  0.7633 -1.3918  0.3723
  202SOL    HW2 1065   3.151   2.502   0.406  0.7078  3.4364  0.0392
  203SOL     OW 1066   1.849   3.756   5.231 -0.2321 -0.4524  0.1524
  203SOL    HW1 1067   1.874   3.688   5.294  0.4492  0.7514  1.2243
  203SOL    HW2 1068   1.930   3.804   5.214 -1.2408  1.9374  1.7216
  204SOL     OW 1069   6.074   2.425   4.975 -0.4576  0.3461  0.1130
  204SOL    HW1 1070   6.072   2.452   5.066 -0.9796 -0.3801  0.3247
  204SOL    HW2 1071   6.142   2.358   4.971 -0.1456  0.6701 -0.1236
  205SOL     OW 1072   3.029   2.219   1.025  0.3247  0.5097  0.5017
  205SOL    HW1 1073   2.955   2.179   0.979  0.2950  2.3833 -1.2222
  205SOL    HW2 1074   3.001   2.222   1.116 -0.7079 -1.0141  0.2710
  206SOL     OW 1075   0.323   5.998   0.679  0.4784  0.0762  0.0138
  206SOL    HW1 1076   0.317   5.906   0.653  0.4464 -0.7107  2.4877
  206SOL    HW2 1077   0.279   6.001   0.765 -1.9155  2.9333 -1.1163
  207SOL     OW 1078   3.371   0.108   5.329  0.0208  0.2009  0.5610
  207SOL    HW1 1079   3.360   0.037   5.265 -0.5187  1.7328 -1.1487
  207SOL    HW2 1080   3.454   0.149   5.306 -0.1472  0.7313  0.8783
  208SOL     OW 1081   0.151   5.643   2.245  0.1392  0.4241  0.2852
  208SOL    HW1 1082   0.215   5.580   2.212 -1.6248 -0.0169 -2.6430
  208SOL    HW2 1083   0.178   5.727   2.208 -0.1092  0.5243  0.3308
  209SOL     OW 1084   0.547   1.847   0.992 -0.1499  0.0223  0.0173
  209SOL    HW1 1085   0.500   1.855   0.909 -0.5763 -1.2168  0.1142
  209SOL    HW2 1086   0.569   1.754   0.999  1.2756  0.3583  0.5577
  210SOL     OW 1087   0.316   1.670   0.941  0.4239  0.5760  0.1909
  210SOL    HW1 1088   0.229   1.631   0.947  2.1817 -4.3427 -1.0004
  210SOL    HW2 1089   0.329   1.684   0.847  0.8178  1.6793  0.3954
  211SOL     OW 1090   3.139   0.489   1.534 -0.3192 -0.6361  0.4814
  211SOL    HW1 1091   3.212   0.427   1.529  1.7943  1.7813 -0.1269
  211SOL    HW2 1092   3.063   0.438   1.505  1.2453 -2.9813  0.2059
  212SOL     OW 1093   3.182   1.471   5.146 -0.2682  0.2126 -0.6549
  212SOL    HW1 1094   3.146   1.524   5.216 -2.7969 -1.2752 -0.6877
  212SOL    HW2 1095   3.237   1.406   5.190 -1.1923 -0.2088 -0.0950
  213SOL     OW 1096   1.048   3.742   6.185 -0.5741 -0.2642 -0.0054
  213SOL    HW1 1097   0.970   3.766   6.135 -0.4772  0.6584  0.2756
  213SOL    HW2 1098   1.043   3.647   6.193 -1.0991 -0.3252 -0.9313
  214SOL     OW 1099   3.065   0.074   0.718 -0.9748  0.1820  0.3726
  214SOL    HW1 1100   3.110   0.139   0.772  0.3519  0.2906 -0.8216
  214SOL    HW2 1101   3.048   0.001   0.777  0.0659  0.4618  1.0434
  215SOL     OW 1102   3.148   2.997   0.266  0.4613 -0.2073  0.3079
  215SOL    HW1 1103   3.196   3.050   0.201  1.6012 -0.0902  1.2228
  215SOL    HW2 1104   3.181   3.027   0.350 -0.0382 -1.2913  0.9019
  216SOL     OW 1105   4.963   0.419   5.385 -0.0112 -0.2831  0.2245
  216SOL    HW1 1106   4.974   0.347   5.323 -0.7223 -1.0407  0.9482
  216SOL    HW2 1107   4.881   0.399   5.431  1.8729 -1.3603  3.4795
  217SOL     OW 1108   1.525   5.977   1.231  0.6175  0.5549 -0.2667
  217SOL    HW1 1109   1.507   6.047   1.293  0.7412  1.3771 -1.1281
  217SOL    HW2 1110   1.494   5.897   1.274 -0.6379  1.2956  0.2327
  218SOL     OW 1111   0.989   3.642   1.820 -0.2717  0.5339  0.2481
  218SOL    HW1 1112   1.038   3.560   1.815 -0.6586  0.2017  1.4033
  218SOL    HW2 1113   0.899   3.618   1.798 -0.6821  0.3159  1.9626
  219SOL     OW 1114   2.830   2.588   3.950  0.2153 -0.4032 -0.1011
  219SOL    HW1 1115   2.833   2.492   3.942  2.0002 -0.4238  0.2796
  219SOL    HW2 1116   2.922   2.613   3.961 -0.0434  1.4986 -1.7615
  220SOL     OW 1117   6.355   6.034   2.218  0.0104  0.1854 -0.1227
  220SOL    HW1 1118   6.368   6.024   2.124 -1.4756  0.0869 -0.3446
  220SOL    HW2 1119   6.357   5.945   2.252 -1.8084 -0.0176 -0.4364
  221SOL     OW 1120   2.515   4.007   2.506 -0.5428  0.6168 -0.2195
  221SOL    HW1 1121   2.487   4.050   2.425  0.4934  0.1792 -0.8248
  221SOL    HW2 1122   2.604   3.977   2.488 -0.4567  0.1332  0.9393
  222SOL     OW 1123   3.588   4.702   6.138 -0.1645  0.4035  0.1851
  222SOL    HW1 1124   3.546   4.616   6.145  1.6003 -0.4281  1.0370
  222SOL    HW2 1125   3.662   4.688   6.078  2.1201  0.4561  2.8181
  223SOL     OW 1126   2.773   5.780   5.124  0.3190  0.0270 -0.5414
  223SOL    HW1 1127   2.815   5.853   5.168 -0.9805  2.2928 -2.8064
  223SOL    HW2 1128   2.680   5.790   5.144  0.1262 -1.0699 -0.8239
  224SOL     OW 1129   2.639   5.086   6.121 -0.2622 -0.1201 -0.4607
  224SOL    HW1 1130   2.660   5.014   6.061 -1.8991  1.0546 -2.5869
  224SOL    HW2 1131   2.546   5.074   6.141 -0.3962  1.0279 -0.3253
  225SOL     OW 1132   5.977   4.747   0.565 -1.0830 -0.3622 -0.2559
  225SOL    HW1 1133   5.973   4.652   0.550 -0.2816 -0.4071 -0.2008
  225SOL    HW2 1134   6.033   4.780   0.495 -0.6988 -0.0347  0.2025
  226SOL     OW 1135   5.701   0.275   3.458 -0.1147 -0.3792 -0.2048
  226SOL    HW1 1136   5.777   0.333   3.462  0.9223 -1.7264  0.2508
  226SOL    HW2 1137   5.652   0.306   3.382 -0.1973  1.7758  0.6365
  227SOL     OW 1138   4.607   0.116   1.496  0.1009 -0.3592  0.3518
  227SOL    HW1 1139   4.667   0.149   1.429  0.1928  1.2060  1.1667
  227SOL    HW2 1140   4.662   0.065   1.555  0.6433  1.0423  1.0770
  228SOL     OW 1141   6.032   2.799   1.507 -0.1031 -0.0157  0.3148
  228SOL    HW1 1142   6.080   2.859   1.450  0.5670 -0.0332  0.8546
  228SOL    HW2 1143   5.946   2.789   1.464 -0.4395  1.7501  0.5144
  229SOL     OW 1144   1.638   5.637   3.135  0.3130  0.3474 -0.3955
  229SOL    HW1 1145   1.734   5.644   3.140  0.5387 -1.6694 -0.7249
  229SOL    HW2 1146   1.609   5.651   3.225  1.1615 -1.1547  0.1639
  230SOL     OW 1147   5.133   1.306   1.671  0.2227 -0.4173  0.7777
  230SOL    HW1 1148   5.066   1.368   1.701  0.1281 -0.6163  0.9748
  230SOL    HW2 1149   5.163   1.343   1.588 -0.7482 -0.7710  0.2490
  231SOL     OW 1150   2.889   6.147   5.467 -0.2549 -0.1557  0.3790
  231SOL    HW1 1151   2.816   6.139   5.529 -0.6329  1.3186  0.1599
  231SOL    HW2 1152   2.920   6.237   5.478  0.3923 -0.2200 -0.7778
  232SOL     OW 1153   2.384   1.992   0.867 -0.5731 -0.0958 -0.2074
  232SOL    HW1 1154   2.431   1.915   0.897 -0.2721  0.1904  0.0690
  232SOL    HW2 1155   2.311   2.002   0.929 -0.1567  0.2908  0.2295
  233SOL     OW 1156   2.800   0.351   4.858  0.3918  0.0443 -0.5146
  233SOL    HW1 1157   2.751   0.422   4.900 -1.3292  0.0504 -2.4243
  233SOL    HW2 1158   2.882   0.392   4.829 -0.1369  0.9990 -0.6915
  234SOL     OW 1159   5.710   2.175   5.711 -0.1129 -0.4893  0.1429
  234SOL    HW1 1160   5.679   2.092   5.676 -1.5406  0.6028 -1.3119
  234SOL    HW2 1161   5.647   2.240   5.680  1.6204  1.3257  0.2081
  235SOL     OW 1162   2.705   6.144   6.115  0.9681  0.0966 -0.1226
  235SOL    HW1 1163   2.734   6.159   6.205  0.2318 -2.9612  0.7406
  235SOL    HW2 1164   2.785   6.130   6.065  1.3675  1.5871  0.0470
  236SOL     OW 1165   6.274   4.193   5.913 -0.3987 -0.1862 -0.2374
  236SOL    HW1 1166   6.316   4.118   5.871 -0.8871 -0.5513 -0.0811
  236SOL    HW2 1167   6.335   4.220   5.981  1.0639  1.2796 -2.0255
  237SOL     OW 1168   0.435   2.760   5.707  0.5352  0.2742 -0.1345
  237SOL    HW1 1169   0.494   2.828   5.740  2.1565 -0.9972 -0.2929
  237SOL    HW2 1170   0.487   2.680   5.708 -0.8687 -0.7162 -1.3005
  238SOL     OW 1171   0.966   3.286   1.298  0.0658 -0.1077  0.6578
  238SOL    HW1 1172   0.994   3.197   1.316  1.9582  0.5996  1.5189
  238SOL    HW2 1173   1.041   3.340   1.323  0.0518  1.5494 -2.3842
  239SOL     OW 1174   0.295   6.253   0.495  0.1136 -0.2908 -0.0686
  239SOL    HW1 1175   0.333   6.166   0.484  1.2654 -0.0672  1.6478
  239SOL    HW2 1176   0.367   6.313   0.474  0.1111  0.1834  1.1971
  240SOL     OW 1177   2.793   2.495   4.665  0.3021  0.4141 -0.5450
  240SOL    HW1 1178   2.782   2.590   4.662 -1.2641  0.3494  1.0586
  240SOL    HW2 1179   2.775   2.465   4.576 -0.0654  1.5541 -0.8680
  241SOL     OW 1180   0.184   5.897   5.684  0.1349 -0.6198  0.7689
  241SOL    HW1 1181   0.270   5.871   5.649  0.8920 -0.6873  2.5926
  241SOL    HW2 1182   0.168   5.836   5.756 -1.6304 -0.8169  0.2493
  242SOL     OW 1183   5.149   6.212   3.385 -0.0317 -0.0845 -0.0402
  242SOL    HW1 1184   5.087   6.256   3.325 -1.0809 -2.4436 -0.7915
  242SOL    HW2 1185   5.156   6.123   3.351  2.3030 -0.4590  1.2137
  243SOL     OW 1186   5.402   6.107   1.063 -0.1746 -0.3265  0.1319
  243SOL    HW1 1187   5.469   6.122   1.130  0.2295 -0.7812 -0.1636
  243SOL    HW2 1188   5.431   6.157   0.988  0.2945 -1.2016 -0.2866
  244SOL     OW 1189   2.032   1.058   1.394  0.2975  0.2906 -0.4625
  244SOL    HW1 1190   2.115   1.088   1.357  0.4846 -1.2083 -1.3273
  244SOL    HW2 1191   2.052   0.974   1.435 -0.9462 -0.5816 -1.5363
  245SOL     OW 1192   5.658   2.679   1.694  0.1484 -0.1121  0.2325
  245SOL    HW1 1193   5.601   2.673   1.771 -0.6654 -0.9621 -0.4046
  245SOL    HW2 1194   5.735   2.727   1.725 -0.0042 -0.7269  1.6729
  246SOL     OW 1195   4.603   2.757   4.588 -0.1894 -0.6506  0.1912
  246SOL    HW1 1196   4.688   2.791   4.560 -0.8125  2.2189  1.4538
  246SOL    HW2 1197   4.564   2.722   4.507  0.3352  2.2279 -1.4430
  247SOL     OW 1198   1.484   4.347   5.399 -0.7254 -0.9223 -1.0386
  247SOL    HW1 1199   1.528   4.422   5.360  0.8640 -1.0090  0.4598
  247SOL    HW2 1200   1.552   4.282   5.412 -1.0944 -0.9175  1.7187
  248SOL     OW 1201   5.076   5.495   0.502 -0.2722  0.4827  0.4389
  248SOL    HW1 1202   5.077   5.410   0.460 -0.5940  0.9639 -0.5806
  248SOL    HW2 1203   5.105   5.479   0.592  1.4286 -0.4332 -0.2367
  249SOL     OW 1204   2.134   5.312   3.635 -0.2899 -0.4029 -0.0887
  249SOL    HW1 1205   2.173   5.253   3.571 -0.5339 -0.5558 -0.0957
  249SOL    HW2 1206   2.089   5.378   3.582  3.6711  2.5345 -0.3510
  250SOL     OW 1207   2.048   0.087   6.035  0.0858 -0.2195 -0.0890
  250SOL    HW1 1208   2.110   0.038   5.980 -0.0258 -0.7009  0.2033
  250SOL    HW2 1209   2.072   0.178   6.023  1.2803 -0.4307  0.5144
  251SOL     OW 1210   3.481   5.338   1.263  0.1265 -0.3946  0.3580
  251SOL    HW1 1211   3.527   5.288   1.196  0.0529  0.6810 -0.5326
  251SOL    HW2 1212   3.548   5.391   1.304 -0.1100  0.3060 -0.1380
  252SOL     OW 1213   1.500   6.304   1.752 -0.1043  0.2752  0.0587
  252SOL    HW1 1214   1.487   6.213   1.779 -0.3053 -0.1843 -1.4745
  252SOL    HW2 1215   1.520   6.350   1.833  2.6826 -1.6150  0.6020
  253SOL     OW 1216   5.320   0.716   3.486 -0.3800 -0.3131  0.2362
  253SOL    HW1 1217   5.227   0.711   3.510 -0.3958 -0.8105  0.0907
  253SOL    HW2 1218   5.334   0.639   3.431  0.0150  0.0058 -0.1133
  254SOL     OW 1219   3.354   1.868   0.408  0.0166 -0.4538 -0.2082
  254SOL    HW1 1220   3.317   1.918   0.335 -1.3429  1.4120  1.6342
  254SOL    HW2 1221   3.285   1.807   0.433  0.3001 -0.7591 -0.1551
  255SOL     OW 1222   2.853   4.462   2.882  0.4261 -0.1027 -0.1828
  255SOL    HW1 1223   2.912   4.389   2.861  0.4384  0.1793 -1.1776
  255SOL    HW2 1224   2.810   4.435   2.963  1.7485 -0.4237  0.4550
  256SOL     OW 1225   3.990   2.011   3.722  0.1311 -0.0832  0.9377
  256SOL    HW1 1226   4.066   2.056   3.758  1.4950 -2.4979  1.2646
  256SOL    HW2 1227   3.976   2.052   3.636  2.1643  0.0380  0.6261
  257SOL     OW 1228   5.160   5.463   5.702 -0.0484 -0.0711 -0.7175
  257SOL    HW1 1229   5.207   5.402   5.644  1.6375  0.5722 -0.0882
  257SOL    HW2 1230   5.113   5.521   5.642 -1.8895 -2.0616 -1.3314
  258SOL     OW 1231   0.360   5.462   1.053  0.0400 -0.6200  0.4760
  258SOL    HW1 1232   0.279   5.507   1.029  0.8159  0.0331 -1.1298
  258SOL    HW2 1233   0.370   5.394   0.986  1.9495  0.8131 -0.8319
  259SOL     OW 1234   2.214   4.687   2.538  0.0105  0.3755 -0.1519
  259SOL    HW1 1235   2.268   4.763   2.560  1.1557 -0.5447  0.2739
  259SOL    HW2 1236   2.263   4.612   2.569 -0.9677 -0.5819 -0.8298
  260SOL     OW 1237   5.618   4.777   5.286  0.4079  0.0032 -0.2005
  260SOL    HW1 1238   5.647   4.818   5.367  2.8805  0.1341 -1.0544
  260SOL    HW2 1239   5.550   4.716   5.313 -0.1002  1.3199  1.7085
  261SOL     OW 1240   5.576   5.904   2.225 -0.5895 -0.1037  0.0627
  261SOL    HW1 1241   5.480   5.901   2.223 -0.5968 -3.0362  0.1415
  261SOL    HW2 1242   5.599   5.888   2.316 -0.0887 -1.9858 -0.3419
  262SOL     OW 1243   5.547   3.580   1.674  0.3724  0.4309 -0.1366
  262SOL    HW1 1244   5.612   3.628   1.725  0.2274  1.4915 -0.9242
  262SOL    HW2 1245   5.466   3.586   1.725  0.8622 -0.8810  0.8400
  263SOL     OW 1246   3.854   3.982   5.172  0.3791 -0.0435  0.2512
  263SOL    HW1 1247   3.909   4.007   5.246  1.8963 -0.0573 -0.8259
  263SOL    HW2 1248   3.831   4.064   5.130  1.2523 -0.1478 -0.4462
  264SOL     OW 1249   3.329   3.968   1.584  0.2183  0.2765 -0.5303
  264SOL    HW1 1250   3.317   3.875   1.564 -0.9751  0.1430  0.6768
  264SOL    HW2 1251   3.411   3.972   1.632  0.1339 -0.2090 -0.3381
  265SOL     OW 1252   1.835   3.118   1.594  0.2028  0.3828 -0.1152
  265SOL    HW1 1253   1.814   3.163   1.512  0.5926  1.1456  0.1965
  265SOL    HW2 1254   1.861   3.030   1.567 -2.1542 -0.2446 -0.6174
  266SOL     OW 1255   4.800   2.752   1.735 -0.5968 -0.3276 -0.3786
  266SOL    HW1 1256   4.865   2.699   1.781 -0.2304 -0.6925 -1.3026
  266SOL    HW2 1257   4.789   2.829   1.791  1.0232 -0.0064 -0.4299
  267SOL     OW 1258   1.633   5.484   3.838  0.3462  0.0958  0.0060
  267SOL    HW1 1259   1.619   5.460   3.746 -2.8932 -0.2651  0.4611
  267SOL    HW2 1260   1.670   5.572   3.834  1.5989 -0.4403 -1.6175
  268SOL     OW 1261   5.531   0.777   2.186  0.2087  0.1574 -0.0869
  268SOL    HW1 1262   5.527   0.805   2.277 -1.5835 -0.4907  0.0786
  268SOL    HW2 1263   5.555   0.684   2.191 -1.7887 -0.3892 -0.1296
  269SOL     OW 1264   5.550   4.186   5.183  0.3423  0.2244 -0.3172
  269SOL    HW1 1265   5.598   4.267   5.198  0.9526 -0.1798 -0.0725
  269SOL    HW2 1266   5.607   4.133   5.127 -0.9742  0.8145 -2.3350
  270SOL     OW 1267   0.460   2.481   1.761  0.5191 -0.4935 -0.8179
  270SOL    HW1 1268   0.417   2.532   1.829  1.6555  0.9434 -1.1430
  270SOL    HW2 1269   0.535   2.440   1.806  1.2170  0.3836 -1.1569
  271SOL     OW 1270   5.900   0.670   4.187 -0.9000  0.1592  0.5143
  271SOL    HW1 1271   5.937   0.582   4.189  3.8495  1.8917  0.7162
  271SOL    HW2 1272   5.879   0.685   4.095 -2.4193 -1.2966  0.5682
  272SOL     OW 1273   4.445   5.012   1.059 -0.4215 -0.1559 -0.2275
  272SOL    HW1 1274   4.358   5.019   1.020 -1.4879 -2.9455  1.3490
  272SOL    HW2 1275   4.461   4.918   1.064  1.6489  0.2186  1.7294
  273SOL     OW 1276   1.741   5.452   0.960  0.3259 -0.0562  0.4915
  273SOL    HW1 1277   1.676   5.404   0.908 -0.2975  1.7404 -0.4702
  273SOL    HW2 1278   1.802   5.385   0.989 -0.8155 -1.5134 -0.3159
  274SOL     OW 1279   4.409   1.687   5.974 -0.0738 -0.2389  0.1670
  274SOL    HW1 1280   4.418   1.781   5.987 -2.3546 -0.1769  1.8410
  274SOL    HW2 1281   4.326   1.677   5.926  0.0687 -1.3979  0.1287
  275SOL     OW 1282   5.743   0.011   2.340  0.2170 -1.1013 -0.1900
  275SOL    HW1 1283   5.730  -0.015   2.249 -0.8731 -1.6629  0.1078
  275SOL    HW2 1284   5.667   0.066   2.360  0.7066 -0.5716  0.2350
  276SOL     OW 1285   4.601   4.684   3.928 -0.0207 -0.1548 -0.1889
  276SOL    HW1 1286   4.571   4.686   4.019 -0.5326  0.3447 -0.3636
  276SOL    HW2 1287   4.683   4.734   3.928 -0.4663  0.5983 -0.1511
  277SOL     OW 1288   0.351   3.895   0.433 -0.3037 -0.3027 -0.6034
  277SOL    HW1 1289   0.440   3.860   0.434  0.1143  0.5739 -2.4644
  277SOL    HW2 1290   0.323   3.892   0.524  3.4088  3.8707  1.0316
  278SOL     OW 1291   4.807   4.542   0.494 -0.7561 -0.4614  0.1503
  278SOL    HW1 1292   4.838   4.540   0.403 -0.1114  0.9041  0.3161
  278SOL    HW2 1293   4.713   4.557   0.487 -0.8542 -1.2357 -0.2980
  279SOL     OW 1294   5.132   1.336   4.711 -0.3470  0.6414 -0.1659
  279SOL    HW1 1295   5.141   1.417   4.659  1.2114  1.7542  1.7122
  279SOL    HW2 1296   5.078   1.362   4.786 -0.5285 -0.3097  0.0385
  280SOL     OW 1297   0.424   2.866   6.061 -0.3881  0.6105  0.0257
  280SOL    HW1 1298   0.479   2.787   6.056 -0.9877  0.1974 -0.2199
  280SOL    HW2 1299   0.453   2.920   5.988 -0.4004  0.3348 -0.1870
  281SOL     OW 1300   2.323   5.606   5.883  0.0019 -0.2288 -0.1277
  281SOL    HW1 1301   2.394   5.665   5.857  0.0854  0.1154  0.8526
  281SOL    HW2 1302   2.271   5.657   5.946 -2.2749  0.2660 -2.2068
  282SOL     OW 1303   5.085   4.567   4.463  0.3487 -0.8076  0.6579
  282SOL    HW1 1304   5.072   4.498   4.528 -0.0030  0.0094  1.4916
  282SOL    HW2 1305   5.027   4.545   4.391 -0.9671 -0.5529  1.6125
  283SOL     OW 1306   4.164   4.959   0.011 -0.0233 -0.3989  0.5693
  283SOL    HW1 1307   4.098   4.980   0.078  1.3989  0.1406  1.8568
  283SOL    HW2 1308   4.198   5.045  -0.015  2.1215 -0.7429  2.0000
  284SOL     OW 1309   6.175   3.138   5.250  0.1698 -0.0240 -0.4443
  284SOL    HW1 1310   6.085   3.150   5.218  0.1741 -0.5009 -0.6400
  284SOL    HW2 1311   6.215   3.079   5.186  0.0852 -1.2637  0.6185
  285SOL     OW 1312   0.225   5.195   4.986 -0.0519  0.2278  0.6544
  285SOL    HW1 1313   0.312   5.223   5.015 -0.5830  2.1099  0.5676
  285SOL    HW2 1314   0.165   5.226   5.054 -0.9387  1.5353 -0.6690
  286SOL     OW 1315   3.021   1.049   3.404 -0.2939  0.2757 -0.0716
  286SOL    HW1 1316   3.003   0.983   3.337  1.4544 -0.4743  0.1482
  286SOL    HW2 1317   3.008   1.132   3.359 -0.2183 -0.2152 -1.0223
  287SOL     OW 1318   1.956   3.058   0.048  0.3730  0.0096  0.1989
  287SOL    HW1 1319   1.925   3.141   0.012 -0.0878  0.0492  0.6765
  287SOL    HW2 1320   2.033   3.036  -0.005  1.4745  1.5475  1.0775
  288SOL     OW 1321   1.312   0.648   1.095 -0.1359  0.4305 -0.1706
  288SOL    HW1 1322   1.325   0.557   1.066  0.6607  0.5830 -0.3183
  288SOL    HW2 1323   1.228   0.646   1.141 -0.5132 -0.2168 -0.8534
  289SOL     OW 1324   4.602   0.280   5.466 -0.7961  0.1029 -0.1154
  289SOL    HW1 1325   4.559   0.355   5.425  2.1795  0.2364 -3.4202
  289SOL    HW2 1326   4.589   0.208   5.405  2.7786 -0.0041 -0.9876
  290SOL     OW 1327   4.609   4.948   3.080  0.1824 -0.0207  0.6264
  290SOL    HW1 1328   4.625   4.866   3.127  0.0666  0.2097  1.0636
  290SOL    HW2 1329   4.640   5.017   3.139 -2.3486  0.4591  1.5188
  291SOL     OW 1330   2.062   3.205   2.609 -0.0117 -0.4116  0.3971
  291SOL    HW1 1331   1.993   3.222   2.545  0.4682 -2.1922 -0.6568
  291SOL    HW2 1332   2.143   3.223   2.561  0.3181  1.0031  1.4144
  292SOL     OW 1333   2.075   6.027   4.945 -0.0887 -1.3679  0.3341
  292SOL    HW1 1334   2.034   6.114   4.950  0.3126 -1.1927  0.6764
  292SOL    HW2 1335   2.117   6.017   5.031  2.3059 -0.6847 -0.6866
  293SOL     OW 1336   1.057   1.940   3.551 -0.2982  0.0851  0.0640
  293SOL    HW1 1337   0.968   1.907   3.539 -0.7150  0.6961  1.3389
  293SOL    HW2 1338   1.051   2.034   3.530  0.0412  0.1319  0.1723
  294SOL     OW 1339   2.584   3.940   1.094  0.1205 -0.3904 -0.3062
  294SOL    HW1 1340   2.639   3.884   1.039 -3.0011 -2.7413 -1.3242
  294SOL    HW2 1341   2.567   4.018   1.041  0.4066 -0.7895 -0.9838
  295SOL     OW 1342   0.751   5.793   3.536  0.0364 -0.1282  0.2585
  295SOL    HW1 1343   0.820   5.728   3.552  1.4981  1.2203 -0.2595
  295SOL    HW2 1344   0.763   5.858   3.606 -1.9256 -0.7872  1.2652
  296SOL     OW 1345   1.057   1.993   0.995 -0.2663 -0.0161  0.6387
  296SOL    HW1 1346   1.078   1.966   1.085  0.8236  0.0474  0.4210
  296SOL    HW2 1347   0.994   2.065   1.005  1.9892  1.9702  1.5048
  297SOL     OW 1348   2.925   3.450   4.525  0.0610 -0.3307 -0.6246
  297SOL    HW1 1349   2.919   3.467   4.619 -1.9264  0.2230 -0.8145
  297SOL    HW2 1350   2.853   3.390   4.507  0.2700 -0.2363 -1.8440
  298SOL     OW 1351   0.654   2.466   3.460  0.4001 -0.5664  0.1074
  298SOL    HW1 1352   0.692   2.525   3.395 -1.6531 -0.5860 -1.2072
  298SOL    HW2 1353   0.646   2.382   3.414 -1.3241 -0.5134  0.2471
  299SOL     OW 1354   4.049   1.780   0.381 -0.0439 -0.1192 -0.6176
  299SOL    HW1 1355   4.100   1.777   0.462 -1.1178 -1.0886  0.0505
  299SOL    HW2 1356   4.002   1.697   0.379 -1.0043  0.4218 -1.5984
  300SOL     OW 1357   0.059   2.536   2.459  0.2182  0.0124 -0.3600
  300SOL    HW1 1358  -0.005   2.492   2.402 -0.0413  1.4241 -1.1914
  300SOL    HW2 1359   0.127   2.470   2.474 -2.1166 -2.1234  1.8500
  301SOL     OW 1360   0.323   3.905   4.897 -0.1071 -0.3116  0.2679
  301SOL    HW1 1361   0.330   3.811   4.915 -2.3287 -0.8797 -1.3783
  301SOL    HW2 1362   0.329   3.912   4.802  2.7184  1.5951  0.4683
  302SOL     OW 1363   2.434   3.729   6.135 -0.1249  0.1198 -0.2904
  302SOL    HW1 1364   2.490   3.786   6.084  0.4675  1.1299  1.4313
  302SOL    HW2 1365   2.492   3.690   6.200 -1.0894 -0.1357  0.4367
  303SOL     OW 1366   4.484   5.277   4.041  0.3618  0.4526 -0.1831
  303SOL    HW1 1367   4.465   5.194   3.999  2.3208  0.4657 -1.2049
  303SOL    HW2 1368   4.402   5.302   4.083 -1.0291 -0.6939 -2.0656
  304SOL     OW 1369   6.015   2.256   3.770 -0.1222 -0.0783 -0.2504
  304SOL    HW1 1370   6.021   2.214   3.684  2.2730  0.2829 -0.3360
  304SOL    HW2 1371   5.938   2.218   3.811  0.2529 -2.3063 -1.4857
  305SOL     OW 1372   1.884   6.223   2.004 -0.0306 -0.1870  0.1014
  305SOL    HW1 1373   1.912   6.220   2.096 -1.1344 -2.1564  0.4392
  305SOL    HW2 1374   1.889   6.315   1.980  0.0404  0.4156  2.2300
  306SOL     OW 1375   3.787   2.973   6.223 -0.3780  0.6690 -0.6212
  306SOL    HW1 1376   3.814   2.919   6.149  0.5088  0.5822 -0.2535
  306SOL    HW2 1377   3.743   2.912   6.282  0.5740  0.3408 -0.2320
  307SOL     OW 1378   4.594   2.074   1.385 -0.3284 -0.6535  0.2004
  307SOL    HW1 1379   4.536   2.123   1.444  0.3173 -0.5542  0.7588
  307SOL    HW2 1380   4.632   2.005   1.439 -0.2466 -0.9828 -0.2689
  308SOL     OW 1381   0.456   5.450   3.700 -0.6100  0.4210  0.7410
  308SOL    HW1 1382   0.543   5.475   3.731 -0.3596 -0.0931  0.4718
  308SOL    HW2 1383   0.472   5.377   3.641 -1.1395  0.9315 -0.0609
  309SOL     OW 1384   3.476   3.878   5.389 -0.3086  0.1249 -0.2903
  309SOL    HW1 1385   3.567   3.862   5.412 -0.2075  0.2215 -0.6118
  309SOL    HW2 1386   3.468   3.847   5.299 -1.1396 -1.8975  0.4178
  310SOL     OW 1387   3.054   5.636   5.612 -0.3418 -0.2456 -0.0390
  310SOL    HW1 1388   2.976   5.644   5.667 -1.5286 -1.1723 -1.4885
  310SOL    HW2 1389   3.036   5.692   5.536  0.1285 -0.9119 -0.6589
  311SOL     OW 1390   2.005   1.606   5.737 -0.0403  0.2100 -0.5101
  311SOL    HW1 1391   2.007   1.664   5.813 -0.1119 -2.6423  1.8547
  311SOL    HW2 1392   1.914   1.580   5.729  0.3233 -1.2646 -0.0973
  312SOL     OW 1393   5.545   1.773   3.734  0.1283  0.1047 -0.1308
  312SOL    HW1 1394   5.638   1.797   3.732 -0.1233  1.0922 -0.1674
  312SOL    HW2 1395   5.500   1.853   3.759 -0.8281 -0.0400 -1.3173
  313SOL     OW 1396   6.275   0.841   3.776 -0.1236 -0.3078 -0.3000
  313SOL    HW1 1397   6.257   0.932   3.801 -0.2257 -0.4524  0.1441
  313SOL    HW2 1398   6.358   0.821   3.819 -0.7710 -0.8691  0.7254
  314SOL     OW 1399   2.929   2.020   0.137 -0.1751 -0.4793  0.0360
  314SOL    HW1 1400   2.891   1.953   0.081 -1.2114 -1.7169  2.1127
  314SOL    HW2 1401   2.871   2.096   0.128 -0.6882 -0.8839 -0.0851
  315SOL     OW 1402   2.562   2.084   1.878  0.3000 -0.0387 -0.4987
  315SOL    HW1 1403   2.553   2.100   1.972 -0.1887  0.9202 -0.6951
  315SOL    HW2 1404   2.626   2.149   1.849 -1.6706  1.6628 -1.3020
  316SOL     OW 1405   1.133   0.534   3.605  0.1902 -0.4914 -0.0812
  316SOL    HW1 1406   1.204   0.501   3.550  0.7786  0.9074 -0.1833
  316SOL    HW2 1407   1.077   0.584   3.546 -0.0783 -0.3587  0.2790
  317SOL     OW 1408   6.076   2.176   2.410  0.4070  0.9903 -0.1743
  317SOL    HW1 1409   6.024   2.137   2.340  3.5995 -1.6662 -1.3355
  317SOL    HW2 1410   6.027   2.159   2.490 -0.6429 -1.1645 -1.2061
  318SOL     OW 1411   4.917   2.251   3.079 -0.5126 -0.0810  0.3707
  318SOL    HW1 1412   4.997   2.247   3.130 -1.5091 -0.6640  1.9529
  318SOL    HW2 1413   4.899   2.345   3.070  0.0397  0.0396  0.4870
  319SOL     OW 1414   0.406   1.412   6.057  0.4555  0.1063  0.2898
  319SOL    HW1 1415   0.437   1.322   6.045 -0.0348  0.0001 -0.1957
  319SOL    HW2 1416   0.312   1.408   6.039  0.0235  0.3294  2.2574
  320SOL     OW 1417   3.066   5.385   2.751 -0.2463  0.1321  0.3445
  320SOL    HW1 1418   3.028   5.472   2.744  0.6328  0.5371  0.5980
  320SOL    HW2 1419   3.085   5.374   2.844  0.5675  0.0669  0.1734
  321SOL     OW 1420   1.037   4.758   3.076  0.7235 -0.2883  0.2002
  321SOL    HW1 1421   1.127   4.726   3.077  0.6433 -0.6193 -1.1433
  321SOL    HW2 1422   0.984   4.679   3.068  0.4198  0.0166 -0.9336
  322SOL     OW 1423   0.265   3.421   4.069 -0.6328 -0.3626  0.2087
  322SOL    HW1 1424   0.353   3.385   4.057 -0.2909  0.8191 -1.1124
  322SOL    HW2 1425   0.222   3.359   4.128  1.5491 -0.1771  2.1541
  323SOL     OW 1426   0.433   0.678   0.694  0.3759  0.3470  0.0171
  323SOL    HW1 1427   0.338   0.677   0.678  0.4264 -1.6188 -0.4092
  323SOL    HW2 1428   0.471   0.636   0.617  1.6338  1.2379  0.1156
  324SOL     OW 1429   3.101   2.912   5.005 -0.5565  0.0302 -0.6026
  324SOL    HW1 1430   3.078   2.962   5.083  1.3225  1.8778 -1.1236
  324SOL    HW2 1431   3.148   2.835   5.039  1.9645  1.7723  0.1554
  325SOL     OW 1432   0.141   4.613   6.118 -0.0255 -0.1352 -0.2035
  325SOL    HW1 1433   0.127   4.700   6.155 -0.5724 -1.2544  2.3747
  325SOL    HW2 1434   0.236   4.609   6.104  0.0266  0.8031 -0.2151
  326SOL     OW 1435   2.889   5.754   3.467  0.2702  0.0798 -0.2182
  326SOL    HW1 1436   2.937   5.694   3.523  1.1868  1.0069  0.0168
  326SOL    HW2 1437   2.956   5.801   3.418 -0.4385  0.6550 -0.6697
  327SOL     OW 1438   3.815   3.915   4.124 -0.3366  0.0881 -0.0173
  327SOL    HW1 1439   3.752   3.858   4.081  0.4608 -0.0559 -1.0201
  327SOL    HW2 1440   3.775   3.934   4.209 -1.4344 -0.5005 -0.3793
  328SOL     OW 1441   1.031   1.113   3.504  0.5892 -0.5151 -0.1484
  328SOL    HW1 1442   1.077   1.044   3.553  0.7192 -0.6852 -0.5050
  328SOL    HW2 1443   1.044   1.089   3.412  1.4621  0.5164 -0.3077
  329SOL     OW 1444   3.088   4.010   2.776 -0.5917  0.6709 -0.0022
  329SOL    HW1 1445   3.132   3.929   2.801 -0.6240  0.4729 -0.5671
  329SOL    HW2 1446   3.141   4.046   2.705 -0.7045  1.0235  0.0907
  330SOL     OW 1447   3.104   3.891   5.164  0.4531 -0.2117 -0.3145
  330SOL    HW1 1448   3.089   3.949   5.239 -1.4056  1.7709 -2.0781
  330SOL    HW2 1449   3.142   3.812   5.203  3.0017  2.0563  2.2450
  331SOL     OW 1450   1.622   3.476   0.023  0.1657  0.3229 -0.0133
  331SOL    HW1 1451   1.647   3.385   0.010 -0.3817  0.4061 -1.9425
  331SOL    HW2 1452   1.539   3.471   0.071  0.5812 -0.1493  0.6741
  332SOL     OW 1453   5.391   1.111   2.236 -0.0649 -0.3779  0.4042
  332SOL    HW1 1454   5.379   1.116   2.331  0.2187 -0.6503  0.4540
  332SOL    HW2 1455   5.333   1.041   2.208 -0.3031 -0.1578  0.3505
  333SOL     OW 1456   0.318   1.283   2.639 -0.0824  0.7650 -0.1825
  333SOL    HW1 1457   0.291   1.199   2.677 -0.0621  1.1873  0.8105
  333SOL    HW2 1458   0.322   1.267   2.545  1.3955 -0.7860  0.0896
  334SOL     OW 1459   4.119   0.527   3.587  0.1522  0.0775  0.7817
  334SOL    HW1 1460   4.200   0.570   3.559 -0.5903  0.6944 -0.4810
  334SOL    HW2 1461   4.117   0.446   3.536 -0.3613  0.3842  0.3155
  335SOL     OW 1462   3.750   3.821   5.495  0.0429  0.2542 -1.0007
  335SOL    HW1 1463   3.841   3.819   5.463  0.7356 -3.3254  0.6403
  335SOL    HW2 1464   3.757   3.851   5.585 -0.1688 -1.1109 -0.5022
  336SOL     OW 1465   3.724   0.512   3.065  0.7967  0.3652  0.1784
  336SOL    HW1 1466   3.816   0.536   3.060  1.0053 -0.4436  0.0684
  336SOL    HW2 1467   3.689   0.534   2.979  0.1654  3.4358  1.0764
  337SOL     OW 1468   4.015   3.207   4.717 -0.0537  0.2288 -0.9357
  337SOL    HW1 1469   4.090   3.195   4.658 -0.2133 -0.6360 -0.9679
  337SOL    HW2 1470   4.047   3.266   4.785  1.2260 -1.4930  0.0325
  338SOL     OW 1471   0.528   4.071   6.357  0.3487 -0.0715  0.5060
  338SOL    HW1 1472   0.514   4.160   6.326 -3.8872 -0.4605  0.6903
  338SOL    HW2 1473   0.497   4.072   6.448  0.4225 -1.6775  0.5811
  339SOL     OW 1474   0.979   0.393   2.007 -0.1700  0.2796 -0.3331
  339SOL    HW1 1475   1.060   0.416   1.961  0.8297 -0.1064  1.1820
  339SOL    HW2 1476   0.925   0.351   1.939  1.3027 -0.3777 -1.1441
  340SOL     OW 1477   1.357   4.838   2.179 -0.2102 -0.0493 -1.0280
  340SOL    HW1 1478   1.419   4.887   2.126  0.3509  0.1017 -0.2607
  340SOL    HW2 1479   1.302   4.904   2.220 -0.8669 -0.1826 -1.6882
  341SOL     OW 1480   1.172   3.472   0.440 -0.4527 -0.2862  0.3806
  341SOL    HW1 1481   1.088   3.504   0.473 -0.5205  0.7875 -0.7793
  341SOL    HW2 1482   1.172   3.494   0.347  1.2211 -0.0314  0.4053
  342SOL     OW 1483   2.911   1.419   5.139 -0.6443  0.1848 -0.0821
  342SOL    HW1 1484   2.912   1.328   5.109 -0.0207  0.4422 -0.8720
  342SOL    HW2 1485   3.003   1.443   5.147 -0.8024  0.5219  0.8586
  343SOL     OW 1486   3.090   5.630   3.619 -0.3520  0.1525 -1.1065
  343SOL    HW1 1487   3.163   5.589   3.572 -0.1764  0.4591 -1.0963
  343SOL    HW2 1488   3.122   5.643   3.708 -0.2525  0.7377 -1.2294
  344SOL     OW 1489   1.262   1.597   5.211  0.4278 -0.3313 -0.1706
  344SOL    HW1 1490   1.248   1.643   5.294  2.0651 -2.1955  1.2327
  344SOL    HW2 1491   1.319   1.655   5.160  0.2367  0.3807  0.4072
  345SOL     OW 1492   3.673   0.865   1.418  0.2581 -0.0490 -0.0247
  345SOL    HW1 1493   3.613   0.791   1.426 -0.1039  0.1438 -0.8536
  345SOL    HW2 1494   3.652   0.921   1.493 -1.9918  0.9865 -1.3291
  346SOL     OW 1495   3.355   0.311   1.476  0.1783  0.1492  0.4783
  346SOL    HW1 1496   3.340   0.295   1.569 -0.8225  1.0698  0.5083
  346SOL    HW2 1497   3.446   0.286   1.461  0.6548  0.8712  1.9238
  347SOL     OW 1498   1.960   4.152   0.055 -1.2948  0.3879 -0.1024
  347SOL    HW1 1499   1.938   4.232   0.102 -1.7691 -0.1122  0.5600
  347SOL    HW2 1500   1.952   4.175  -0.037  0.6427  1.6778 -0.0152
  348SOL     OW 1501   2.981   6.103   0.673 -0.4955  0.6035 -0.0662
  348SOL    HW1 1502   2.990   6.013   0.642 -1.6043  1.3795 -2.9631
  348SOL    HW2 1503   3.030   6.155   0.609  0.1265  2.0811  1.5479
  349SOL     OW 1504   5.903   2.937   2.309  0.1948  0.0889  0.3745
  349SOL    HW1 1505   5.917   3.002   2.240  0.6175  0.7753  1.0945
  349SOL    HW2 1506   5.840   2.978   2.368  1.8703  0.6689  1.8525
  350SOL     OW 1507   5.442   2.442   2.186 -0.3530 -0.0170 -0.0421
  350SOL    HW1 1508   5.520   2.468   2.137  0.3825 -0.9656  0.5866
  350SOL    HW2 1509   5.461   2.469   2.276 -1.2121  0.7006 -0.0654
  351SOL     OW 1510   4.897   4.335   2.981 -0.2238  0.0658  0.1751
  351SOL    HW1 1511   4.833   4.386   2.932 -0.6732 -0.7418 -0.1037
  351SOL    HW2 1512   4.942   4.399   3.037 -2.1549  0.4715  1.3353
  352SOL     OW 1513   5.673   5.408   3.697  0.5511  0.0627 -0.0309
  352SOL    HW1 1514   5.694   5.469   3.626 -0.0832 -1.5235 -1.6824
  352SOL    HW2 1515   5.751   5.354   3.706 -0.2365 -1.3877 -1.3749
  353SOL     OW 1516   6.087   5.699   4.016  0.7931  0.3484 -0.0215
  353SOL    HW1 1517   6.079   5.663   3.928 -1.8905  0.6750 -0.0044
  353SOL    HW2 1518   6.013   5.759   4.024  1.4798  1.0119  2.1664
  354SOL     OW 1519   2.440   2.042   3.110 -0.7498 -0.1994  0.3942
  354SOL    HW1 1520   2.417   2.009   3.023 -0.2227  0.5222 -0.0341
  354SOL    HW2 1521   2.369   2.012   3.166 -0.8871 -1.0304 -0.2025
  355SOL     OW 1522   1.926   0.044   5.446 -0.5528 -0.3177 -0.8810
  355SOL    HW1 1523   1.986  -0.016   5.490  1.1113  2.1352  0.4111
  355SOL    HW2 1524   1.940   0.027   5.353  3.2317  0.9374 -0.7320
  356SOL     OW 1525   5.622   1.171   5.486  0.3902  0.0039 -0.2480
  356SOL    HW1 1526   5.670   1.123   5.553  0.9495  0.0439 -0.6082
  356SOL    HW2 1527   5.640   1.123   5.405  0.5369  0.5225 -0.5279
  357SOL     OW 1528   0.406   2.876   2.644  0.3174 -0.4827 -0.1514
  357SOL    HW1 1529   0.382   2.914   2.559  1.1016 -1.2837 -0.7475
  357SOL    HW2 1530   0.386   2.945   2.707  1.6467  0.9505 -1.1933
  358SOL     OW 1531   2.317   3.839   4.986 -0.0600  0.1287  0.0882
  358SOL    HW1 1532   2.330   3.768   4.923  0.1620  0.0865  0.1806
  358SOL    HW2 1533   2.281   3.910   4.934 -0.3253 -0.0657  0.0025
  359SOL     OW 1534   1.981   5.497   3.012  0.0566 -0.5400  0.6096
  359SOL    HW1 1535   1.957   5.589   3.005 -1.9586 -1.1103 -0.6164
  359SOL    HW2 1536   2.067   5.498   3.055 -1.7192  1.7237  4.6511
  360SOL     OW 1537   3.851   0.225   3.921 -0.1257  0.0016 -0.0814
  360SOL    HW1 1538   3.813   0.300   3.874  0.7976  0.6023  0.1171
  360SOL    HW2 1539   3.825   0.238   4.012  1.5039  1.0573  0.2662
  361SOL     OW 1540   1.044   2.505   0.092 -0.1038  0.1141  0.2864
  361SOL    HW1 1541   1.046   2.472   0.002 -0.1379  0.2541  0.2339
  361SOL    HW2 1542   0.981   2.577   0.090  1.8903  1.9649 -0.2291
  362SOL     OW 1543   1.477   6.237   2.175  0.2109 -0.0907 -0.3840
  362SOL    HW1 1544   1.411   6.253   2.107 -1.4797 -1.7447  0.7847
  362SOL    HW2 1545   1.539   6.310   2.165 -1.1425  0.9043 -2.2764
  363SOL     OW 1546   2.313   1.553   1.758 -0.1569  0.1265  0.5524
  363SOL    HW1 1547   2.309   1.585   1.667  1.0235 -0.6174  0.2153
  363SOL    HW2 1548   2.336   1.460   1.749  1.3771  0.3716  1.6366
  364SOL     OW 1549   1.619   6.089   2.684 -0.2896  0.2567  0.2219
  364SOL    HW1 1550   1.650   6.068   2.772  2.5812  0.2191 -0.6940
  364SOL    HW2 1551   1.611   6.185   2.684 -0.9615  0.2132  0.6751
  365SOL     OW 1552   1.287   3.803   1.197 -0.1235 -0.2846 -0.2478
  365SOL    HW1 1553   1.218   3.864   1.222 -0.6096 -0.9432  0.0569
  365SOL    HW2 1554   1.242   3.719   1.187  0.1144 -0.1743 -2.8994
  366SOL     OW 1555   5.653   0.739   2.498  0.5309  0.3530  0.4475
  366SOL    HW1 1556   5.651   0.704   2.586  0.9439 -0.8627 -0.0118
  366SOL    HW2 1557   5.562   0.734   2.468  0.7637 -1.5716 -0.0636
  367SOL     OW 1558   4.769   5.484   5.006  0.1872  0.1657 -0.4147
  367SOL    HW1 1559   4.864   5.473   5.008  0.2277  0.3704 -1.0596
  367SOL    HW2 1560   4.752   5.556   5.067  0.5270  0.6585 -0.9006
  368SOL     OW 1561   0.551   2.987   4.148  0.1367 -0.0846 -0.1056
  368SOL    HW1 1562   0.486   2.919   4.134 -0.2767  0.0422  1.0778
  368SOL    HW2 1563   0.626   2.959   4.095 -0.5228 -0.7290 -0.7267
  369SOL     OW 1564   4.084   0.808   1.879 -0.0808  0.4984 -0.5700
  369SOL    HW1 1565   4.152   0.874   1.864 -0.0681  0.3770 -1.0461
  369SOL    HW2 1566   4.002   0.853   1.860 -0.1715  0.7684  0.4076
  370SOL     OW 1567   3.788   5.064   5.940  0.0198 -0.3140  0.1878
  370SOL    HW1 1568   3.698   5.076   5.912 -1.0505  2.3922  3.9556
  370SOL    HW2 1569   3.796   4.969   5.953 -2.6500 -0.5524  0.7144
  371SOL     OW 1570   0.528   1.071   5.750  0.0745 -0.3043 -0.5542
  371SOL    HW1 1571   0.574   0.987   5.747 -0.5063 -0.6186 -0.7065
  371SOL    HW2 1572   0.437   1.048   5.768  0.2348  0.3973  1.4524
  372SOL     OW 1573   3.392   3.490   5.664 -0.1577  0.6438 -0.0723
  372SOL    HW1 1574   3.318   3.432   5.679  0.2071  0.4534  1.0777
  372SOL    HW2 1575   3.359   3.555   5.601 -1.4792  0.8933  0.8340
  373SOL     OW 1576   5.187   2.527   2.566 -0.3023  0.4280 -0.0545
  373SOL    HW1 1577   5.265   2.563   2.610  1.3495 -2.0314 -0.7527
  373SOL    HW2 1578   5.170   2.444   2.612 -0.7703 -0.4331 -1.7084
  374SOL     OW 1579   3.442   6.095   6.047  0.0165 -0.4134 -0.5157
  374SOL    HW1 1580   3.532   6.102   6.080 -0.3828 -1.0882  0.7936
  374SOL    HW2 1581   3.440   6.012   6.000 -0.1699 -0.9358  0.3774
  375SOL     OW 1582   2.917   2.784   1.708 -0.6587 -0.2585 -0.0467
  375SOL    HW1 1583   2.831   2.761   1.742 -0.8229  1.1835  0.5957
  375SOL    HW2 1584   2.928   2.876   1.732  0.4254  0.0101 -1.4349
  376SOL     OW 1585   2.716   3.970   3.086 -0.7895  0.0097  0.3248
  376SOL    HW1 1586   2.779   3.988   3.156  1.4747 -2.5243 -0.8591
  376SOL    HW2 1587   2.695   4.056   3.049 -0.8014  1.2571  2.9842
  377SOL     OW 1588   3.463   4.143   2.170  0.1199  0.0376 -0.1920
  377SOL    HW1 1589   3.546   4.165   2.210 -0.1178 -0.7219  0.7567
  377SOL    HW2 1590   3.458   4.047   2.176 -0.9226  0.0879 -0.0047
  378SOL     OW 1591   2.202   3.611   1.360 -0.2708  0.0114  0.4273
  378SOL    HW1 1592   2.214   3.660   1.279 -1.6722 -0.1135  0.1168
  378SOL    HW2 1593   2.238   3.524   1.342 -1.8150 -0.4516 -0.5465
  379SOL     OW 1594   1.421   0.437   3.992  0.0600  0.0205 -0.3060
  379SOL    HW1 1595   1.471   0.403   3.917 -0.6374 -0.3509 -0.6165
  379SOL    HW2 1596   1.338   0.468   3.954 -0.3569 -0.2902  0.3228
  380SOL     OW 1597   2.770   1.443   4.650  1.2470  0.4855  0.1335
  380SOL    HW1 1598   2.731   1.360   4.680  0.7464 -0.1605 -2.1215
  380SOL    HW2 1599   2.821   1.418   4.573  0.6767  2.3591 -0.8870
  381SOL     OW 1600   0.210   3.651   3.664  0.0025  0.5858  0.7253
  381SOL    HW1 1601   0.171   3.683   3.745  0.1000  1.2839  0.5063
  381SOL    HW2 1602   0.210   3.556   3.673 -0.2412  0.6460  1.4235
  382SOL     OW 1603   1.632   5.764   1.794 -0.0452 -0.2888 -0.2617
  382SOL    HW1 1604   1.687   5.779   1.717 -0.8159  1.3845 -0.5329
  382SOL    HW2 1605   1.545   5.747   1.758 -0.1435 -0.8004  0.2099
  383SOL     OW 1606   0.353   4.614   0.582  0.5037  0.5124 -0.3138
  383SOL    HW1 1607   0.349   4.573   0.668 -1.3412  1.8896  0.3414
  383SOL    HW2 1608   0.418   4.684   0.591 -0.3197  1.2280  0.2780
  384SOL     OW 1609   1.237   6.077   1.605 -0.0832 -0.6606  0.0629
  384SOL    HW1 1610   1.229   5.995   1.555  2.3175 -1.0581  0.1809
  384SOL    HW2 1611   1.295   6.131   1.552  0.4009 -0.0555  1.1773
  385SOL     OW 1612   4.465   0.208   5.743  0.2708 -0.0008  0.3411
  385SOL    HW1 1613   4.420   0.284   5.705  1.3085 -0.7034 -2.5172
  385SOL    HW2 1614   4.397   0.142   5.750 -0.1790  0.4987  0.8047
  386SOL     OW 1615   6.231   5.355   5.497  0.2962  0.0566 -0.0160
  386SOL    HW1 1616   6.315   5.399   5.496  0.3803 -0.0480  0.9558
  386SOL    HW2 1617   6.173   5.409   5.444  0.5748  0.9818  0.6029
  387SOL     OW 1618   5.486   0.826   1.051  0.1430 -0.0369  0.4289
  387SOL    HW1 1619   5.570   0.786   1.074 -0.3522 -1.7600 -0.5571
  387SOL    HW2 1620   5.448   0.766   0.986 -1.3687  1.2611  0.0528
  388SOL     OW 1621   1.322   3.483   4.488 -0.2415  0.3888 -0.1160
  388SOL    HW1 1622   1.363   3.448   4.409 -0.6137 -0.0342 -0.1255
  388SOL    HW2 1623   1.232   3.450   4.485 -0.0715 -0.1969  0.8279
  389SOL     OW 1624   0.046   2.922   3.370 -0.1708 -0.4927  0.1416
  389SOL    HW1 1625   0.081   2.912   3.459 -1.7547 -2.5174  0.5923
  389SOL    HW2 1626   0.089   2.854   3.319  2.7092  2.2176 -1.4457
  390SOL     OW 1627   6.378   1.872   5.185 -0.3512 -0.3894  0.0076
  390SOL    HW1 1628   6.449   1.830   5.234 -0.1085  1.0662  0.9490
  390SOL    HW2 1629   6.355   1.948   5.237 -1.1265  0.3753 -1.4033
  391SOL     OW 1630   0.308   5.449   2.775  0.5177 -0.1866 -0.7776
  391SOL    HW1 1631   0.347   5.402   2.702 -0.6782 -0.2895 -1.3809
  391SOL    HW2 1632   0.285   5.535   2.738 -0.6061 -0.4407 -0.6897
  392SOL     OW 1633   2.978   0.590   2.315 -0.1011 -0.7887  0.5041
  392SOL    HW1 1634   3.026   0.565   2.394  0.9941 -0.5414 -0.0519
  392SOL    HW2 1635   3.030   0.662   2.278 -1.0792 -0.3118  0.0286
  393SOL     OW 1636   2.516   5.699   0.017  0.3030 -0.5462  0.6612
  393SOL    HW1 1637   2.426   5.730   0.010  0.7218  0.3248 -2.5461
  393SOL    HW2 1638   2.568   5.767  -0.025  2.1168 -2.2809 -0.0857
  394SOL     OW 1639   4.750   3.893   5.150 -0.3382 -0.1421  0.7341
  394SOL    HW1 1640   4.736   3.975   5.104  1.2336 -0.2554 -0.0163
  394SOL    HW2 1641   4.814   3.914   5.218 -1.1348 -0.4190  1.6008
  395SOL     OW 1642   5.374   1.233   5.973 -0.3114 -0.6513  0.3886
  395SOL    HW1 1643   5.392   1.225   5.879  2.1903  0.4042  0.6970
  395SOL    HW2 1644   5.338   1.321   5.983 -1.0625 -0.9481  0.3931
  396SOL     OW 1645   2.780   5.941   2.182  0.4511  0.2969 -0.7525
  396SOL    HW1 1646   2.685   5.941   2.182  0.4400  0.6800 -1.7066
  396SOL    HW2 1647   2.804   6.030   2.208  0.5966 -0.3000  1.3824
  397SOL     OW 1648   4.010   1.792   5.346 -0.0158  0.3201 -0.0105
  397SOL    HW1 1649   4.011   1.820   5.255 -0.5455 -3.0149 -1.1793
  397SOL    HW2 1650   4.100   1.768   5.366  0.1389  1.2362  0.4572
  398SOL     OW 1651   4.831   1.970   4.758 -0.2986  0.1352 -0.0666
  398SOL    HW1 1652   4.869   2.021   4.686 -1.2469 -0.2935 -0.9016
  398SOL    HW2 1653   4.818   2.034   4.828  0.4103  0.6175 -0.3609
  399SOL     OW 1654   1.712   5.393   3.160  0.4420  0.5868  0.0695
  399SOL    HW1 1655   1.768   5.397   3.083  1.3073  0.2220  0.6531
  399SOL    HW2 1656   1.668   5.478   3.164  0.7365  0.7692 -0.5669
  400SOL     OW 1657   1.464   6.006   1.805 -0.2448  0.5583 -0.3188
  400SOL    HW1 1658   1.512   5.928   1.835 -1.0157 -0.0006 -0.5098
  400SOL    HW2 1659   1.372   5.981   1.811 -0.4708  0.9077 -1.8197
  401SOL     OW 1660   0.318   0.951   6.224 -0.1126  0.2339 -0.1916
  401SOL    HW1 1661   0.409   0.921   6.222 -0.1793  0.0514 -1.0433
  401SOL    HW2 1662   0.275   0.895   6.289  0.4025  0.3702  0.2627
  402SOL     OW 1663   3.614   3.973   1.983 -0.2202 -0.1597  0.4736
  402SOL    HW1 1664   3.627   3.899   2.042  0.2716 -0.3531  0.1340
  402SOL    HW2 1665   3.682   4.036   2.007 -0.3095 -0.0420  0.4218
  403SOL     OW 1666   2.713   6.206   0.581 -0.5124 -0.0580  0.4535
  403SOL    HW1 1667   2.809   6.215   0.581 -0.5626  0.5317  1.1346
  403SOL    HW2 1668   2.692   6.183   0.672 -0.9637 -0.8756  0.1552
  404SOL     OW 1669   0.768   0.424   5.622  0.0533  0.1741 -0.0442
  404SOL    HW1 1670   0.798   0.504   5.665  2.6972 -0.8083  0.1647
  404SOL    HW2 1671   0.771   0.358   5.691 -0.6711 -0.4080 -0.5552
  405SOL     OW 1672   6.217   3.321   1.823 -0.6178  0.4760 -0.9171
  405SOL    HW1 1673   6.175   3.290   1.743 -0.0022 -0.4175 -0.9099
  405SOL    HW2 1674   6.308   3.292   1.816 -0.9579 -1.3766  0.9374
  406SOL     OW 1675   0.716   2.240   0.237  0.2817  0.6208 -0.0333
  406SOL    HW1 1676   0.696   2.325   0.275  1.4220  0.8497  0.0901
  406SOL    HW2 1677   0.806   2.222   0.265 -0.8392 -1.9588  2.4303
  407SOL     OW 1678   1.523   5.811   5.678  0.2478  0.4267  0.4633
  407SOL    HW1 1679   1.543   5.822   5.585 -2.0628  0.0695 -0.1437
  407SOL    HW2 1680   1.595   5.758   5.712  0.2570 -0.9575 -1.5345
  408SOL     OW 1681   3.910   0.208   3.463  0.0144  0.1638 -0.2207
  408SOL    HW1 1682   3.999   0.241   3.449  0.2336 -1.2187 -2.6931
  408SOL    HW2 1683   3.854   0.267   3.413 -0.2977  0.2371  0.2114
  409SOL     OW 1684   5.205   2.241   1.427 -0.1197 -0.5052 -0.0802
  409SOL    HW1 1685   5.109   2.244   1.425 -0.1929  1.7229  2.1568
  409SOL    HW2 1686   5.226   2.204   1.513  1.1130 -2.4579 -1.1505
  410SOL     OW 1687   5.596   4.393   0.218 -0.4887 -0.6097 -0.1544
  410SOL    HW1 1688   5.550   4.420   0.297 -1.3154  0.2505 -0.9051
  410SOL    HW2 1689   5.609   4.474   0.169  0.2678 -1.0898 -0.7731
  411SOL     OW 1690   2.624   5.650   0.287  0.4411  0.0773  0.4664
  411SOL    HW1 1691   2.682   5.577   0.265 -0.3636 -0.0989 -1.2656
  411SOL    HW2 1692   2.557   5.649   0.218 -0.5444  1.4252  1.3519
  412SOL     OW 1693   2.423   4.948   0.595  0.0238  0.7018 -0.5981
  412SOL    HW1 1694   2.403   4.855   0.598 -1.2198  0.9472 -0.8110
  412SOL    HW2 1695   2.481   4.958   0.520  1.0500 -0.0400  0.0599
  413SOL     OW 1696   5.986   0.302   3.805  0.0882 -0.6083 -0.0355
  413SOL    HW1 1697   6.051   0.349   3.753  0.4111 -1.1103 -0.0939
  413SOL    HW2 1698   5.970   0.357   3.881 -2.3134  1.4651 -1.8528
  414SOL     OW 1699   2.987   2.187   6.217 -0.3296  0.4238  0.4352
  414SOL    HW1 1700   3.040   2.115   6.184 -0.5882 -0.0053  0.9353
  414SOL    HW2 1701   2.956   2.233   6.139  0.7501  0.6639  0.1401
  415SOL     OW 1702   4.896   0.981   5.256  0.4751  0.3865  0.1952
  415SOL    HW1 1703   4.840   1.016   5.188 -2.2884 -2.2423  0.8858
  415SOL    HW2 1704   4.960   0.928   5.210 -1.4910 -1.5341 -0.5014
  416SOL     OW 1705   5.155   3.668   4.085  0.4521 -0.2530  0.5380
  416SOL    HW1 1706   5.074   3.618   4.090 -0.6376  1.4831  1.3011
  416SOL    HW2 1707   5.130   3.752   4.045  1.4656  1.0268  2.4207
  417SOL     OW 1708   5.386   5.397   4.261  0.7926  0.1095  0.3182
  417SOL    HW1 1709   5.472   5.426   4.231  0.2386  1.8110  0.2846
  417SOL    HW2 1710   5.323   5.448   4.209 -0.2741 -1.6591 -0.2098
  418SOL     OW 1711   6.207   2.333   5.450  0.5137  0.3631  0.0665
  418SOL    HW1 1712   6.120   2.306   5.479 -0.2086  0.1298 -2.0809
  418SOL    HW2 1713   6.235   2.399   5.513 -1.5373  0.9709  0.3893
  419SOL     OW 1714   6.198   5.256   5.186 -0.2828 -0.1987 -0.2706
  419SOL    HW1 1715   6.186   5.346   5.216  0.0749 -0.0757 -0.4949
  419SOL    HW2 1716   6.171   5.257   5.094  4.4268  0.8761 -1.8964
  420SOL     OW 1717   2.103   3.490   3.878  0.1938 -0.3259  0.5417
  420SOL    HW1 1718   2.153   3.570   3.895  0.9381 -0.9986  1.6986
  420SOL    HW2 1719   2.121   3.469   3.787 -0.6692  1.2577 -0.0279
  421SOL     OW 1720   2.101   1.511   4.770 -0.6208 -0.2973 -0.0793
  421SOL    HW1 1721   2.080   1.498   4.678  2.6739 -1.9576 -0.7461
  421SOL    HW2 1722   2.095   1.424   4.809 -3.2654  0.5678  1.7107
  422SOL     OW 1723   3.790   1.590   2.655  0.1129 -0.0180 -0.1117
  422SOL    HW1 1724   3.819   1.512   2.701 -2.5356  0.5756  2.9913
  422SOL    HW2 1725   3.704   1.566   2.619 -0.5316  1.2596  0.5001
  423SOL     OW 1726   2.635   3.205   6.049 -0.0219 -0.2338  0.3505
  423SOL    HW1 1727   2.565   3.238   5.992 -1.2283 -1.5002  1.0350
  423SOL    HW2 1728   2.625   3.110   6.047  1.5438 -0.4402  0.6828
  424SOL     OW 1729   3.351   6.381   4.062 -0.0690  0.3329  0.3990
  424SOL    HW1 1730   3.422   6.375   3.998 -0.0632  1.2458  0.2990
  424SOL    HW2 1731   3.271   6.369   4.012 -0.0016 -0.3711  0.4577
  425SOL     OW 1732   5.319   2.899   0.496  0.2152 -0.0298  0.4847
  425SOL    HW1 1733   5.303   2.820   0.546 -0.7319 -0.7430 -0.8775
  425SOL    HW2 1734   5.302   2.970   0.558  0.5151 -0.8788  1.5668
  426SOL     OW 1735   6.055   3.169   2.005 -0.2974 -0.2523  0.7044
  426SOL    HW1 1736   5.974   3.189   1.959 -0.3554 -1.3948  0.2851
  426SOL    HW2 1737   6.125   3.203   1.948 -0.3039 -2.5780 -0.8249
  427SOL     OW 1738   0.544   4.710   1.911  0.2211 -0.3970  1.0529
  427SOL    HW1 1739   0.508   4.791   1.949 -0.3639  0.3799 -1.0264
  427SOL    HW2 1740   0.603   4.677   1.979 -2.1452 -0.1394  3.4051
  428SOL     OW 1741   1.148   3.670   5.594  0.0419  0.0772 -0.2423
  428SOL    HW1 1742   1.100   3.587   5.584 -0.6459  0.3867  0.3564
  428SOL    HW2 1743   1.140   3.712   5.509  1.6717 -1.1094 -1.0310
  429SOL     OW 1744   1.624   5.181   1.262 -0.3134 -0.6913 -0.2584
  429SOL    HW1 1745   1.673   5.103   1.286  1.5375  0.4092 -0.2840
  429SOL    HW2 1746   1.574   5.203   1.341 -0.7891 -1.8200 -0.2286
  430SOL     OW 1747   3.878   0.066   4.983 -0.2601  0.3083 -0.1461
  430SOL    HW1 1748   3.886   0.128   5.056  0.4253  2.3457 -1.8493
  430SOL    HW2 1749   3.795   0.090   4.942  0.3364  0.5823 -1.2200
  431SOL     OW 1750   1.475   0.182   0.372  0.1922 -0.2587 -0.4587
  431SOL    HW1 1751   1.539   0.234   0.323 -1.2800  1.0223 -1.1305
  431SOL    HW2 1752   1.494   0.200   0.464  0.9859 -0.1618 -0.6360
  432SOL     OW 1753   0.069   0.405   5.507 -0.2453  1.2094 -0.2068
  432SOL    HW1 1754   0.035   0.458   5.435 -0.5574  0.9012 -0.2919
  432SOL    HW2 1755   0.089   0.468   5.576 -2.2075  1.3226  0.3271
  433SOL     OW 1756   3.513   4.245   5.686 -0.1737  0.1408  0.6104
  433SOL    HW1 1757   3.526   4.329   5.729  0.8965 -0.0617  0.7045
  433SOL    HW2 1758   3.522   4.180   5.756 -0.2901 -0.0888  0.4154
  434SOL     OW 1759   1.219   0.869   2.455  0.2319  0.1934 -0.3415
  434SOL    HW1 1760   1.270   0.877   2.536  1.6101 -1.2040 -1.0251
  434SOL    HW2 1761   1.267   0.920   2.391 -1.5499  2.3818 -0.0451
  435SOL     OW 1762   1.532   2.242   2.073  0.5065  0.0390 -0.2851
  435SOL    HW1 1763   1.512   2.279   1.987 -0.2656 -0.1543 -0.1949
  435SOL    HW2 1764   1.576   2.312   2.120 -0.1682  0.5516 -0.4131
  436SOL     OW 1765   4.987   0.448   3.746 -0.1393  0.2511  0.0637
  436SOL    HW1 1766   5.026   0.412   3.825 -0.2822  0.3962  0.2017
  436SOL    HW2 1767   4.961   0.372   3.695 -4.0525 -0.0071  2.0784
  437SOL     OW 1768   3.352   6.311   5.124 -0.2217  0.1905  0.0075
  437SOL    HW1 1769   3.315   6.223   5.126  0.0553  0.0791  0.4088
  437SOL    HW2 1770   3.317   6.350   5.044 -0.0312 -0.4179 -0.3792
  438SOL     OW 1771   1.756   0.268   2.801  0.3513  0.2361  0.3386
  438SOL    HW1 1772   1.782   0.312   2.720 -0.1458  0.5521  0.3507
  438SOL    HW2 1773   1.733   0.339   2.861 -0.8071 -0.0352  0.2429
  439SOL     OW 1774   3.378   1.084   5.905  0.2122 -0.7560  0.3309
  439SOL    HW1 1775   3.470   1.106   5.895  0.0442 -0.5336 -0.9612
  439SOL    HW2 1776   3.365   1.008   5.849 -0.1151 -1.6410  1.5603
  440SOL     OW 1777   4.624   2.024   5.526 -0.1804 -0.3031  0.2758
  440SOL    HW1 1778   4.543   2.075   5.516  0.4059  1.1625  2.3885
  440SOL    HW2 1779   4.595   1.936   5.549 -1.1835  0.2814  1.3137
  441SOL     OW 1780   2.204   4.471   4.640  0.1792  0.4991  0.1399
  441SOL    HW1 1781   2.227   4.550   4.689 -1.3892  0.8509  0.3389
  441SOL    HW2 1782   2.261   4.474   4.563 -0.5786  2.4000 -0.4063
  442SOL     OW 1783   4.727   3.704   5.457 -0.6529 -0.3359  0.4966
  442SOL    HW1 1784   4.728   3.739   5.546  0.3892 -1.2217  0.8558
  442SOL    HW2 1785   4.720   3.781   5.401  1.8861  0.5383  1.2455
  443SOL     OW 1786   3.324   4.758   2.969  0.3052  0.0967  0.4927
  443SOL    HW1 1787   3.353   4.675   3.006  2.4483  1.6413  2.6399
  443SOL    HW2 1788   3.378   4.770   2.891  0.0954 -0.4397  0.2617
  444SOL     OW 1789   4.518   2.831   1.130  0.3878  0.2609 -0.1240
  444SOL    HW1 1790   4.520   2.921   1.096 -0.3209  0.4477  0.3019
  444SOL    HW2 1791   4.609   2.810   1.149  0.6001  0.7541 -0.5792
  445SOL     OW 1792   1.754   1.183   3.483  0.2467 -0.1864  0.4043
  445SOL    HW1 1793   1.773   1.255   3.542  1.4335 -1.4908  1.6886
  445SOL    HW2 1794   1.693   1.128   3.532  1.3230 -1.3364  0.4998
  446SOL     OW 1795   2.296   0.790   3.646  0.2890 -0.0517 -0.2225
  446SOL    HW1 1796   2.225   0.803   3.582 -0.2106 -0.0005  0.3336
  446SOL    HW2 1797   2.375   0.819   3.600 -0.1954  0.8860 -0.4949
  447SOL     OW 1798   5.437   3.480   0.319  0.2984  0.0792  0.1409
  447SOL    HW1 1799   5.504   3.441   0.374  1.1870  2.2243  0.6549
  447SOL    HW2 1800   5.467   3.463   0.229  1.3992  0.7985  0.3619
  448SOL     OW 1801   0.214   4.767   0.877 -0.2407 -0.7644  0.4635
  448SOL    HW1 1802   0.268   4.806   0.807 -1.1198 -1.3976 -0.5923
  448SOL    HW2 1803   0.147   4.833   0.894 -0.7738 -1.1244 -0.1937
  449SOL     OW 1804   5.539   6.149   1.793 -0.1734  0.2945  0.1194
  449SOL    HW1 1805   5.573   6.217   1.735 -2.8335  0.4501 -1.4595
  449SOL    HW2 1806   5.519   6.075   1.734 -3.1179  0.5174  0.6625
  450SOL     OW 1807   2.790   6.140   0.849  0.2468  0.6362  0.0692
  450SOL    HW1 1808   2.802   6.062   0.904 -1.6328 -0.5112 -1.0470
  450SOL    HW2 1809   2.864   6.137   0.788  0.0851 -0.4325 -0.1022
  451SOL     OW 1810   5.489   0.681   0.819  0.1923  0.0840 -0.0203
  451SOL    HW1 1811   5.549   0.624   0.868 -0.8933 -1.3967 -0.3233
  451SOL    HW2 1812   5.521   0.678   0.729  1.8519  2.3568  0.3960
  452SOL     OW 1813   5.388   3.756   2.496  0.7421 -0.4328 -0.0165
  452SOL    HW1 1814   5.337   3.783   2.571  2.2526  0.0716  0.8791
  452SOL    HW2 1815   5.327   3.709   2.440 -0.2041 -1.7000  1.9962
  453SOL     OW 1816   3.466   2.946   1.986 -0.1085 -0.0036 -0.0739
  453SOL    HW1 1817   3.375   2.925   1.963 -0.1177  0.7417 -0.7456
  453SOL    HW2 1818   3.475   3.039   1.969  0.5341  0.1277  0.8717
  454SOL     OW 1819   4.314   5.697   3.590  0.0554  0.0852 -0.2909
  454SOL    HW1 1820   4.329   5.618   3.539 -0.7639 -1.1447  1.2658
  454SOL    HW2 1821   4.228   5.684   3.629  0.5174  1.0909  1.1408
  455SOL     OW 1822   2.867   1.898   5.049 -0.0813  0.5415  0.4285
  455SOL    HW1 1823   2.805   1.941   4.990 -0.1097  0.5633  0.4745
  455SOL    HW2 1824   2.812   1.847   5.108 -0.1336  1.4978  1.2333
  456SOL     OW 1825   4.138   6.373   5.230 -0.0861 -0.9126  0.1604
  456SOL    HW1 1826   4.219   6.328   5.255 -0.3785 -1.6705 -0.2166
  456SOL    HW2 1827   4.105   6.322   5.156 -0.1776  0.2342 -0.5981
  457SOL     OW 1828   4.316   0.355   2.904  0.3035  0.3226  0.2355
  457SOL    HW1 1829   4.253   0.426   2.915 -0.5050 -0.3391  0.0536
  457SOL    HW2 1830   4.371   0.383   2.830 -1.0323  0.0717 -0.9050
  458SOL     OW 1831   5.316   5.910   3.046 -0.2753  0.5407 -0.0988
  458SOL    HW1 1832   5.285   6.000   3.040 -0.9229  0.2452 -1.4882
  458SOL    HW2 1833   5.346   5.902   3.137 -1.1787  1.8362  0.3545
  459SOL     OW 1834   5.649   3.715   2.585  0.4019 -0.3963  0.3665
  459SOL    HW1 1835   5.677   3.784   2.524  1.2918 -3.0035 -2.4077
  459SOL    HW2 1836   5.555   3.704   2.567  0.1430  0.3785  1.1782
  460SOL     OW 1837   1.685   3.053   1.301 -0.3645 -0.0590 -0.7709
  460SOL    HW1 1838   1.739   3.014   1.232  0.6056 -1.4017  0.6659
  460SOL    HW2 1839   1.735   3.128   1.333 -0.4258  0.0665 -0.9713
  461SOL     OW 1840   2.241   1.650   1.477  0.2387 -0.4517  0.6706
  461SOL    HW1 1841   2.280   1.593   1.411  0.4129  0.9601 -0.5222
  461SOL    HW2 1842   2.150   1.661   1.448  0.8924  2.0379 -0.7917
  462SOL     OW 1843   2.938   5.318   2.459 -0.0376  0.8996 -0.4601
  462SOL    HW1 1844   2.997   5.341   2.530  1.8065 -2.9005 -0.4850
  462SOL    HW2 1845   2.852   5.307   2.501  0.5996  0.6352  0.8280
  463SOL     OW 1846   2.574   0.908   3.939  0.2517  0.0545 -0.1209
  463SOL    HW1 1847   2.652   0.862   3.907 -0.9864 -1.0404 -1.7259
  463SOL    HW2 1848   2.567   0.985   3.883 -0.7864 -0.8002 -1.2191
  464SOL     OW 1849   1.193   5.082   1.979  0.3279 -0.1565 -0.1004
  464SOL    HW1 1850   1.224   5.154   1.923 -0.7470  1.0068  0.7355
  464SOL    HW2 1851   1.203   5.116   2.068 -2.2846 -0.1163  0.2412
  465SOL     OW 1852   0.627   5.701   0.721  0.0324  0.4747  0.3678
  465SOL    HW1 1853   0.571   5.631   0.686  1.2562  0.4147 -1.6167
  465SOL    HW2 1854   0.668   5.662   0.799 -0.6764 -0.3765  0.3349
  466SOL     OW 1855   0.288   0.770   0.041 -0.3071  0.7506 -0.1198
  466SOL    HW1 1856   0.278   0.772   0.136  1.2779 -1.7840  0.2091
  466SOL    HW2 1857   0.205   0.734   0.008  0.0558 -0.8196  0.5959
  467SOL     OW 1858   1.203   0.725   6.370  0.7453  0.7496  1.2536
  467SOL    HW1 1859   1.179   0.633   6.365  0.4174  0.8725  0.4357
  467SOL    HW2 1860   1.124   0.772   6.344  1.8251  1.1705 -1.6108
  468SOL     OW 1861   1.982   1.000   3.843 -0.2089  0.0565 -0.4262
  468SOL    HW1 1862   2.055   1.034   3.791 -1.9004  1.6971 -1.9254
  468SOL    HW2 1863   2.015   0.995   3.932  1.5388  1.3372 -0.9560
  469SOL     OW 1864   3.608   2.797   4.571 -0.1575  0.4688  0.0111
  469SOL    HW1 1865   3.610   2.815   4.477  1.4232  0.2882 -0.0145
  469SOL    HW2 1866   3.601   2.883   4.612 -0.1784  0.5935 -0.2533
  470SOL     OW 1867   3.458   0.656   0.131  0.1549 -0.4525 -0.2704
  470SOL    HW1 1868   3.532   0.717   0.127 -0.6494  0.6879  1.1093
  470SOL    HW2 1869   3.425   0.654   0.041  1.4780 -0.5313 -0.7905
  471SOL     OW 1870   4.875   0.060   1.772  0.1972  0.4435 -0.3330
  471SOL    HW1 1871   4.878   0.152   1.744 -0.6019  1.0779  1.5478
  471SOL    HW2 1872   4.965   0.029   1.760  0.4913  1.4766 -0.9136
  472SOL     OW 1873   1.127   1.730   3.329 -0.2331 -0.7965 -0.8639
  472SOL    HW1 1874   1.223   1.728   3.323 -0.1209  0.8244 -0.1804
  472SOL    HW2 1875   1.109   1.736   3.423 -0.8554  1.8099 -1.0648
  473SOL     OW 1876   0.031   0.181   2.354 -0.1213 -0.4742  0.5809
  473SOL    HW1 1877  -0.049   0.227   2.331  0.1669 -0.3100 -0.1319
  473SOL    HW2 1878   0.008   0.088   2.350 -0.0520 -0.4588 -0.5552
  474SOL     OW 1879   0.834   1.176   2.146 -0.0043 -0.8364 -0.2876
  474SOL    HW1 1880   0.905   1.212   2.094  0.2859  0.4124  0.8984
  474SOL    HW2 1881   0.868   1.093   2.179  1.7772  0.6202  1.8746
  475SOL     OW 1882   4.297   3.814   3.784 -0.3509 -0.0015 -0.0781
  475SOL    HW1 1883   4.315   3.721   3.773 -0.2004  0.0777 -0.5538
  475SOL    HW2 1884   4.224   3.818   3.846 -1.0858 -0.4833 -0.8914
  476SOL     OW 1885   2.225   3.296   4.294 -0.2712 -1.0137 -0.2784
  476SOL    HW1 1886   2.248   3.346   4.216  0.9353 -1.3140 -0.1260
  476SOL    HW2 1887   2.292   3.318   4.358 -0.8161 -1.3631  0.4315
  477SOL     OW 1888   2.621   2.080   1.322  0.8627  0.2176  0.4331
  477SOL    HW1 1889   2.576   1.998   1.305 -0.3628  0.6126  1.6598
  477SOL    HW2 1890   2.586   2.140   1.256 -0.0717  0.3934  1.0754
  478SOL     OW 1891   1.808   3.823   5.514  0.5603 -0.1050  0.6608
  478SOL    HW1 1892   1.871   3.889   5.544  1.5716 -0.8746  0.3026
  478SOL    HW2 1893   1.758   3.800   5.592  1.6977 -0.5195  1.2967
  479SOL     OW 1894   5.216   2.682   4.046 -0.2762 -0.0907  0.5502
  479SOL    HW1 1895   5.310   2.696   4.058  0.0722 -0.2862 -1.5426
  479SOL    HW2 1896   5.186   2.760   4.000 -0.7257 -0.8529 -0.5007
  480SOL     OW 1897   5.055   5.371   6.099  0.3656 -0.5510 -0.3232
  480SOL    HW1 1898   5.118   5.310   6.059  1.7327  1.1024 -0.7956
  480SOL    HW2 1899   5.101   5.406   6.176 -0.8234 -0.8955  0.5761
  481SOL     OW 1900   0.223   6.235   2.615 -0.1937  0.2648  0.2552
  481SOL    HW1 1901   0.179   6.294   2.553  0.3333 -0.6293 -1.0030
  481SOL    HW2 1902   0.189   6.261   2.700  0.4072  2.7257 -0.1855
  482SOL     OW 1903   2.030   4.398   2.436 -0.3277 -0.2626 -0.4279
  482SOL    HW1 1904   2.032   4.489   2.408 -1.6596  0.5917  1.9155
  482SOL    HW2 1905   2.114   4.384   2.479 -1.3634  1.0575  2.2648
  483SOL     OW 1906   1.030   2.651   5.162  0.3842 -0.3621  0.0854
  483SOL    HW1 1907   0.950   2.646   5.109  0.3547 -2.5058  0.2744
  483SOL    HW2 1908   1.101   2.635   5.100  0.7850  1.9559 -0.1669
  484SOL     OW 1909   4.815   0.816   4.840  0.1649 -0.1793 -0.0791
  484SOL    HW1 1910   4.888   0.765   4.876  0.3681  0.3211  0.2392
  484SOL    HW2 1911   4.772   0.853   4.917 -0.0652  0.0083 -0.2968
  485SOL     OW 1912   0.902   6.004   3.689 -0.1537 -0.0116  0.4113
  485SOL    HW1 1913   0.895   5.923   3.738 -1.9035  1.1717  2.2781
  485SOL    HW2 1914   0.973   6.052   3.731 -0.5583  0.3121  0.7360
  486SOL     OW 1915   3.490   2.575   5.975  0.3839  0.1325 -0.5332
  486SOL    HW1 1916   3.442   2.650   5.940  0.9591  0.7078 -0.1101
  486SOL    HW2 1917   3.453   2.560   6.062  0.5197  0.1560 -0.4705
  487SOL     OW 1918   1.510   0.832   0.561 -0.5983  0.1603 -0.2392
  487SOL    HW1 1919   1.438   0.834   0.623  0.2997 -0.8512  0.8738
  487SOL    HW2 1920   1.544   0.921   0.560 -1.4795  0.5015 -0.3299
  488SOL     OW 1921   4.890   3.111   6.355 -0.5886 -0.1472 -0.4812
  488SOL    HW1 1922   4.834   3.096   6.279 -1.4853  1.5085 -0.2012
  488SOL    HW2 1923   4.967   3.056   6.340 -2.2090 -2.4304 -0.9260
  489SOL     OW 1924   5.211   1.158   3.839  0.2396  0.1428  0.2995
  489SOL    HW1 1925   5.304   1.144   3.819 -0.1481 -0.6049 -1.0951
  489SOL    HW2 1926   5.170   1.072   3.825 -0.4035  0.0003  2.6335
  490SOL     OW 1927   6.098   5.117   4.485 -0.4640 -0.3451 -0.2355
  490SOL    HW1 1928   6.185   5.089   4.514 -0.7130 -0.4346  0.4442
  490SOL    HW2 1929   6.039   5.049   4.517 -0.9473  0.4053  0.5262
  491SOL     OW 1930   2.237   1.591   3.307  0.6822 -0.0511  0.1090
  491SOL    HW1 1931   2.309   1.646   3.276 -0.3486 -0.7102 -4.1380
  491SOL    HW2 1932   2.249   1.508   3.262 -0.8339 -1.4255  2.0564
  492SOL     OW 1933   3.261   4.162   5.343 -0.5073 -0.2166  0.2583
  492SOL    HW1 1934   3.280   4.205   5.260 -0.2259  0.0845  0.4724
  492SOL    HW2 1935   3.347   4.150   5.384 -0.4025 -2.3777 -0.4463
  493SOL     OW 1936   0.587   5.746   0.310 -0.4156 -0.2071 -0.6331
  493SOL    HW1 1937   0.509   5.752   0.255  0.3397  1.4856 -1.5793
  493SOL    HW2 1938   0.619   5.836   0.318  2.3770 -1.0135 -1.6697
  494SOL     OW 1939   3.144   0.787   2.226 -0.2467  0.2474 -0.0917
  494SOL    HW1 1940   3.213   0.734   2.266  1.3278  1.8906 -0.5381
  494SOL    HW2 1941   3.147   0.870   2.273 -1.3281  0.6545 -0.7100
  495SOL     OW 1942   3.850   4.282   3.796  0.2021  0.4747 -0.1436
  495SOL    HW1 1943   3.861   4.319   3.884  1.4705  0.2209 -0.1779
  495SOL    HW2 1944   3.815   4.355   3.745  0.1701  0.8525  0.3960
  496SOL     OW 1945   4.723   4.016   2.763 -0.3529  0.4775  0.2145
  496SOL    HW1 1946   4.696   3.997   2.673 -0.9938  0.2663  0.4478
  496SOL    HW2 1947   4.644   4.051   2.805 -0.1071  0.4022  0.7451
  497SOL     OW 1948   5.222   4.625   0.457  0.8477 -0.2828 -0.3281
  497SOL    HW1 1949   5.135   4.664   0.448  0.6774 -0.3756  0.7811
  497SOL    HW2 1950   5.216   4.570   0.535  1.8889 -0.3379 -0.2725
  498SOL     OW 1951   5.354   3.914   0.106 -0.1998  0.3137  0.3643
  498SOL    HW1 1952   5.415   3.863   0.160 -1.0682  0.7855  1.8432
  498SOL    HW2 1953   5.410   3.967   0.050  0.7387  0.0221  0.9969
  499SOL     OW 1954   5.016   4.681   4.868  0.2967 -0.2040 -0.4423
  499SOL    HW1 1955   5.031   4.766   4.908 -1.0047 -0.7234  1.2448
  499SOL    HW2 1956   5.104   4.647   4.852  0.8403  0.9143  0.0479
  500SOL     OW 1957   0.546   0.465   3.554  0.1795  0.2636  0.2003
  500SOL    HW1 1958   0.563   0.404   3.625 -0.8893  0.2491  0.4690
  500SOL    HW2 1959   0.632   0.494   3.526  0.8544 -2.8028 -1.2430
  501SOL     OW 1960   4.468   3.675   3.477 -0.1245  0.4258  0.1316
  501SOL    HW1 1961   4.406   3.606   3.452 -1.2891  1.8279 -1.1020
  501SOL    HW2 1962   4.515   3.639   3.552 -2.4834 -0.6927  1.1845
  502SOL     OW 1963   5.693   1.784   0.016  0.4985  0.0080  0.4571
  502SOL    HW1 1964   5.634   1.856  -0.008  1.3445  0.8973  0.9875
  502SOL    HW2 1965   5.718   1.803   0.107 -0.7556 -1.9861  1.2909
  503SOL     OW 1966   0.382   1.749   6.095 -0.2099 -0.4819  0.2405
  503SOL    HW1 1967   0.385   1.690   6.019 -1.8437  1.0998 -1.1626
  503SOL    HW2 1968   0.289   1.753   6.118 -0.1443  1.5222  0.2814
  504SOL     OW 1969   3.833   3.080   3.611  0.1887 -0.1493  0.2634
  504SOL    HW1 1970   3.741   3.075   3.583  0.1503  1.3523  0.0583
  504SOL    HW2 1971   3.883   3.055   3.534  0.0345  2.5419 -0.7998
  505SOL     OW 1972   2.954   1.178   2.385 -0.2181 -0.6080 -0.3282
  505SOL    HW1 1973   2.885   1.186   2.451 -0.3751  1.6769 -0.6832
  505SOL    HW2 1974   3.009   1.255   2.399  0.1623 -0.4604 -2.3582
  506SOL     OW 1975   0.516   1.630   2.792 -0.0984  0.2273  0.1203
  506SOL    HW1 1976   0.436   1.578   2.782  1.2604 -1.7814 -1.0331
  506SOL    HW2 1977   0.574   1.599   2.722  1.9533  1.1144  1.3236
  507SOL     OW 1978   1.181   6.063   2.858  0.3735 -0.3006  0.3485
  507SOL    HW1 1979   1.220   5.992   2.909  0.2857 -1.1957 -0.7829
  507SOL    HW2 1980   1.224   6.057   2.772  0.4499  1.1041  0.2639
  508SOL     OW 1981   6.365   1.434   4.256 -0.2372 -0.1722  0.3467
  508SOL    HW1 1982   6.284   1.483   4.243  0.4505  1.2524  1.2582
  508SOL    HW2 1983   6.350   1.351   4.211 -1.3068  0.9819 -1.5534
  509SOL     OW 1984   3.994   4.358   6.225  0.5748  0.6070  0.2081
  509SOL    HW1 1985   3.964   4.269   6.242 -0.1091  0.9405  0.7658
  509SOL    HW2 1986   4.039   4.384   6.305  1.5418  0.4617 -0.2692
  510SOL     OW 1987   4.388   5.184   3.461  0.6351  0.1574  0.2608
  510SOL    HW1 1988   4.332   5.202   3.385 -0.7759  2.2879  1.7003
  510SOL    HW2 1989   4.336   5.127   3.517  0.6933  0.5789  0.7446
  511SOL     OW 1990   3.232   3.933   4.214  0.3143 -0.7206  0.0978
  511SOL    HW1 1991   3.173   3.871   4.258 -0.9823  0.2594 -0.2247
  511SOL    HW2 1992   3.320   3.904   4.240 -0.2897 -2.1654  0.6492
  512SOL     OW 1993   0.822   2.857   2.615 -0.2178  0.2709  0.1019
  512SOL    HW1 1994   0.863   2.898   2.538  1.6482 -3.0506 -0.8811
  512SOL    HW2 1995   0.896   2.833   2.671 -0.9749 -2.9100 -0.1159
  513SOL     OW 1996   4.614   5.071   4.419 -0.3254 -0.0985  0.5775
  513SOL    HW1 1997   4.622   4.976   4.424 -0.2797 -0.1082  0.3040
  513SOL    HW2 1998   4.519   5.087   4.419 -0.4483 -0.3241 -2.6031
  514SOL     OW 1999   0.585   0.156   3.250 -0.1804 -0.3391  0.0987
  514SOL    HW1 2000   0.645   0.226   3.277 -1.5410  0.9300 -0.0418
  514SOL    HW2 2001   0.631   0.111   3.180  1.0113 -0.0210  0.6426
  515SOL     OW 2002   6.270   5.697   3.429 -0.2955  0.3363  0.0820
  515SOL    HW1 2003   6.199   5.709   3.366 -1.0925 -1.1840  0.6552
  515SOL    HW2 2004   6.247   5.618   3.477  3.1474 -1.8890 -1.5363
  516SOL     OW 2005   5.288   6.298   1.207  0.4255 -0.0287 -0.4370
  516SOL    HW1 2006   5.321   6.228   1.149  1.3642 -1.0926  1.3062
  516SOL    HW2 2007   5.206   6.326   1.166  0.4588 -1.5492 -1.6481
  517SOL     OW 2008   4.167   2.874   3.336 -0.1581 -0.4546  0.2662
  517SOL    HW1 2009   4.220   2.926   3.276  0.2168 -1.6476 -0.4815
  517SOL    HW2 2010   4.091   2.929   3.354  0.0015  0.1744 -0.8542
  518SOL     OW 2011   2.744   2.861   2.577 -0.7808  0.0740  0.1408
  518SOL    HW1 2012   2.748   2.796   2.506  0.8221  0.2785  0.0050
  518SOL    HW2 2013   2.826   2.849   2.625 -1.2483  0.8420  1.1548
  519SOL     OW 2014   5.166   6.215   0.356 -0.2757  0.4200  0.6014
  519SOL    HW1 2015   5.074   6.241   0.355 -0.3460  0.2825 -1.7065
  519SOL    HW2 2016   5.170   6.143   0.419 -2.0709 -0.5587 -0.3277
  520SOL     OW 2017   0.502   3.879   5.878 -0.0835 -0.4907 -0.6380
  520SOL    HW1 2018   0.457   3.856   5.797 -1.4884  0.3509 -0.1132
  520SOL    HW2 2019   0.583   3.922   5.849 -0.9624  0.5492 -1.6055
  521SOL     OW 2020   2.191   0.640   4.495 -0.4307 -0.9146 -0.0442
  521SOL    HW1 2021   2.206   0.564   4.439  0.6405 -0.2106 -0.7528
  521SOL    HW2 2022   2.096   0.653   4.492 -0.5047 -1.5526 -0.8153
  522SOL     OW 2023   3.034   4.011   1.081  0.4841  0.0410 -0.5116
  522SOL    HW1 2024   2.969   3.963   1.134 -1.7474  1.5027 -1.7490
  522SOL    HW2 2025   3.076   3.943   1.028 -0.3107 -0.9414  0.0735
  523SOL     OW 2026   1.915   2.875   4.380 -0.3584  0.1158  0.0329
  523SOL    HW1 2027   1.937   2.949   4.436 -1.2551 -0.3284  1.0136
  523SOL    HW2 2028   1.828   2.848   4.410 -0.2290 -1.0500 -0.6016
  524SOL     OW 2029   4.401   6.222   6.319  0.3308  0.3597 -0.8682
  524SOL    HW1 2030   4.491   6.243   6.293  0.4692  1.9123  0.6605
  524SOL    HW2 2031   4.355   6.305   6.313 -0.7346 -0.1979 -0.5853
  525SOL     OW 2032   3.038   2.857   4.084  0.6371 -0.1109 -0.1301
  525SOL    HW1 2033   3.119   2.883   4.127  1.0170  0.7224 -1.3086
  525SOL    HW2 2034   3.046   2.762   4.072  0.8297 -0.2468  0.9432
  526SOL     OW 2035   3.017   5.335   5.449  0.2221  0.3385 -0.0212
  526SOL    HW1 2036   2.984   5.410   5.400 -1.3467 -0.2564  0.0363
  526SOL    HW2 2037   3.102   5.315   5.410 -0.1311  1.0535 -1.2119
  527SOL     OW 2038   4.530   0.967   1.621 -0.2746 -0.6454  0.4116
  527SOL    HW1 2039   4.478   0.942   1.544  1.2232  0.1622 -0.9089
  527SOL    HW2 2040   4.621   0.953   1.594  0.2460 -1.9087  2.6339
  528SOL     OW 2041   3.393   3.117   2.567  0.7644 -0.0332 -0.2010
  528SOL    HW1 2042   3.411   3.110   2.660 -1.5999 -1.6590  0.2443
  528SOL    HW2 2043   3.389   3.026   2.536  1.4960  0.4709 -1.8962
  529SOL     OW 2044   2.105   1.130   2.719  0.3639  0.3355  0.2422
  529SOL    HW1 2045   2.021   1.165   2.748 -1.3645 -1.8940 -1.6896
  529SOL    HW2 2046   2.105   1.145   2.624  1.0407 -1.7375 -0.1400
  530SOL     OW 2047   1.845   3.945   5.907  0.2934 -0.2767  0.4117
  530SOL    HW1 2048   1.876   3.906   5.988  1.6639  0.4741  0.2826
  530SOL    HW2 2049   1.784   3.881   5.870 -0.2750 -0.6656  1.9639
  531SOL     OW 2050   5.537   4.518   5.066  0.1195  0.0931 -0.3616
  531SOL    HW1 2051   5.442   4.521   5.073  0.1872 -0.7045  1.1917
  531SOL    HW2 2052   5.560   4.595   5.014 -1.3699  0.2735 -0.7774
  532SOL     OW 2053   1.343   0.839   1.707 -0.0029 -0.0310 -0.2832
  532SOL    HW1 2054   1.399   0.914   1.685  0.0889  0.0731  0.2984
  532SOL    HW2 2055   1.372   0.769   1.648  0.6622  0.0581 -0.0654
  533SOL     OW 2056   4.277   5.465   3.855 -0.1574  0.1034 -0.4930
  533SOL    HW1 2057   4.184   5.484   3.842 -0.8706 -2.2332  0.6365
  533SOL    HW2 2058   4.278   5.381   3.900  2.5126  0.4145  0.1941
  534SOL     OW 2059   1.902   2.512   4.091 -0.0200  0.0642 -0.0535
  534SOL    HW1 2060   1.896   2.572   4.017 -2.1793  1.0925  0.8674
  534SOL    HW2 2061   1.945   2.434   4.055 -0.9893  0.5195 -2.4012
  535SOL     OW 2062   2.878   4.263   0.421  0.0646 -0.3283 -0.0659
  535SOL    HW1 2063   2.802   4.207   0.405  0.7826 -0.6832 -2.7721
  535SOL    HW2 2064   2.883   4.271   0.516 -2.4104 -1.5668  0.2437
  536SOL     OW 2065   1.086   0.176   2.142  0.4832  0.4036  0.0499
  536SOL    HW1 2066   1.037   0.247   2.101  0.6603  0.0018 -0.8727
  536SOL    HW2 2067   1.155   0.220   2.192 -2.3480  1.1924  3.6975
  537SOL     OW 2068   3.305   5.673   4.372 -0.4208  0.3732  0.2039
  537SOL    HW1 2069   3.329   5.766   4.380 -0.1749  0.3110  0.1970
  537SOL    HW2 2070   3.225   5.673   4.320 -0.1990  0.5529 -0.1376
  538SOL     OW 2071   3.390   0.403   4.059  0.0487 -0.3862 -0.3785
  538SOL    HW1 2072   3.434   0.435   3.981 -1.1035  0.9468 -0.5293
  538SOL    HW2 2073   3.319   0.347   4.026  1.0441 -1.8235 -0.1689
  539SOL     OW 2074   3.760   3.121   2.451 -0.2089  0.1154  0.2924
  539SOL    HW1 2075   3.713   3.050   2.496 -1.2089 -0.1157 -1.0655
  539SOL    HW2 2076   3.694   3.190   2.441  0.4180  0.7521  0.4925
  540SOL     OW 2077   0.967   0.250   5.226  0.2866  0.2591 -0.1484
  540SOL    HW1 2078   0.946   0.272   5.135 -0.0345 -0.1670 -0.1829
  540SOL    HW2 2079   1.057   0.217   5.222  0.3389  0.4145 -0.2828
  541SOL     OW 2080   3.926   4.003   0.950  0.0815  0.9562  0.1352
  541SOL    HW1 2081   3.972   4.050   0.880 -0.6288  0.7604 -0.4754
  541SOL    HW2 2082   3.883   4.072   1.000 -0.0836  1.0348 -0.1145
  542SOL     OW 2083   5.346   4.411   2.323 -0.2836 -0.1624  0.0377
  542SOL    HW1 2084   5.429   4.365   2.311  1.2276  1.9649  1.6565
  542SOL    HW2 2085   5.306   4.412   2.236  1.9959 -0.1202 -1.0858
  543SOL     OW 2086   3.607   3.053   2.800 -0.8503  0.5536 -0.0987
  543SOL    HW1 2087   3.534   3.049   2.862  0.3136 -0.9353  1.2564
  543SOL    HW2 2088   3.672   3.108   2.843 -0.4378  0.3476 -0.4578
  544SOL     OW 2089   4.375   5.737   6.323  0.1543  0.0869 -0.0806
  544SOL    HW1 2090   4.281   5.745   6.304  0.1276 -0.9684 -0.4584
  544SOL    HW2 2091   4.417   5.796   6.260 -0.2142 -0.0405 -0.4540
  545SOL     OW 2092   1.971   2.046   1.566 -0.5428  0.1683  0.2531
  545SOL    HW1 2093   2.014   2.128   1.592  0.3849 -0.0518 -0.5697
  545SOL    HW2 2094   2.010   2.023   1.482 -2.2862 -0.0288 -0.5568
  546SOL     OW 2095   4.285   2.049   5.225  0.5487  0.5102 -0.0545
  546SOL    HW1 2096   4.370   2.005   5.216  0.8814  0.3424  2.9311
  546SOL    HW2 2097   4.306   2.142   5.211  0.8579  0.3013 -1.0798
  547SOL     OW 2098   3.968   4.229   4.730 -0.1859  0.1604 -0.4023
  547SOL    HW1 2099   3.914   4.305   4.706  2.7117  2.1618 -1.0441
  547SOL    HW2 2100   4.022   4.212   4.653 -0.0506 -1.9935  0.0959
  548SOL     OW 2101   5.602   4.362   1.047 -0.0113  0.5686  0.1968
  548SOL    HW1 2102   5.562   4.291   0.996  1.4227 -0.2198  0.1229
  548SOL    HW2 2103   5.615   4.432   0.983  0.3248  0.1697 -0.1829
  549SOL     OW 2104   4.113   1.224   0.402 -0.9109 -0.2370  0.5316
  549SOL    HW1 2105   4.070   1.301   0.366 -0.5293 -0.7126 -1.0317
  549SOL    HW2 2106   4.148   1.177   0.325 -0.9130 -1.8349  1.4473
  550SOL     OW 2107   0.041   6.276   0.408 -0.1349 -0.0535 -0.2802
  550SOL    HW1 2108   0.050   6.295   0.314 -0.3147  1.6982  0.0341
  550SOL    HW2 2109   0.130   6.258   0.437 -0.1555 -1.2962 -0.8974
  551SOL     OW 2110   3.030   0.652   6.368 -0.3110  0.7637  0.6317
  551SOL    HW1 2111   2.957   0.595   6.342  1.1797 -0.2802 -1.5123
  551SOL    HW2 2112   2.997   0.741   6.356 -1.7676  0.3633  1.3778
  552SOL     OW 2113   2.891   1.147   5.172 -0.1039  1.1871 -0.5872
  552SOL    HW1 2114   2.960   1.090   5.138  1.3459  3.0070 -0.8534
  552SOL    HW2 2115   2.820   1.088   5.195  1.9715 -0.9118  0.8650
  553SOL     OW 2116   0.414   5.931   1.058  0.3941 -0.1263 -0.0522
  553SOL    HW1 2117   0.442   6.019   1.034  1.6746 -0.6902 -0.7873
  553SOL    HW2 2118   0.320   5.931   1.045  0.1732  1.4936  1.2031
  554SOL     OW 2119   4.011   5.620   4.229 -0.4594 -0.5664  0.0844
  554SOL    HW1 2120   3.993   5.531   4.198  1.0523 -0.5270 -1.0889
  554SOL    HW2 2121   4.102   5.636   4.201 -1.3223  2.0600 -1.5351
  555SOL     OW 2122   0.775   4.354   1.122  0.6011  0.7629 -0.3275
  555SOL    HW1 2123   0.861   4.335   1.083  0.4401  0.8880 -0.7524
  555SOL    HW2 2124   0.752   4.274   1.169 -0.2716 -0.3347 -2.4561
  556SOL     OW 2125   5.095   2.673   1.659 -0.5118  0.1350  0.0514
  556SOL    HW1 2126   5.126   2.736   1.593  1.7426 -0.4512  0.4758
  556SOL    HW2 2127   5.035   2.616   1.611  0.3471  0.3060 -1.2747
  557SOL     OW 2128   0.960   2.931   0.012  0.3516  0.1080 -1.2182
  557SOL    HW1 2129   0.974   2.985   0.090 -0.6020 -1.9898  0.4889
  557SOL    HW2 2130   0.886   2.972  -0.032  0.0032  0.5263 -0.2683
  558SOL     OW 2131   3.432   0.188   1.961  0.3143 -0.7486  0.2831
  558SOL    HW1 2132   3.420   0.095   1.982  1.5545 -0.7372  1.1106
  558SOL    HW2 2133   3.500   0.189   1.893  0.8070 -0.4230  0.7677
  559SOL     OW 2134   5.718   4.689   3.225 -0.2081  0.3431  0.0453
  559SOL    HW1 2135   5.691   4.775   3.191  0.8274  0.7256  0.1383
  559SOL    HW2 2136   5.693   4.627   3.157 -2.0012  0.5628  0.4721
  560SOL     OW 2137   4.961   4.580   4.231 -0.2432  0.3796 -0.6095
  560SOL    HW1 2138   4.866   4.578   4.219 -0.4671  0.4326  0.9777
  560SOL    HW2 2139   4.997   4.568   4.143 -1.7176  1.0389 -1.3269
  561SOL     OW 2140   4.582   2.660   6.130 -0.4279  0.2730  0.6386
  561SOL    HW1 2141   4.532   2.741   6.121 -0.8251 -0.1673 -2.1892
  561SOL    HW2 2142   4.669   2.680   6.096 -0.5226 -0.4599 -0.0772
  562SOL     OW 2143   2.911   4.218   3.829 -0.1087 -0.4572  0.2112
  562SOL    HW1 2144   2.837   4.171   3.788  0.0503  0.5865 -1.3716
  562SOL    HW2 2145   2.941   4.159   3.898 -1.7812 -1.3555  0.2448
  563SOL     OW 2146   4.591   5.412   5.423 -0.0537 -0.4604  0.5330
  563SOL    HW1 2147   4.668   5.465   5.402  0.5319 -0.9660  1.3609
  563SOL    HW2 2148   4.557   5.384   5.338  1.0755 -0.7936  0.1795
  564SOL     OW 2149   5.476   1.167   1.716  0.0800 -0.0655 -0.3651
  564SOL    HW1 2150   5.518   1.252   1.730  0.6268 -0.2651 -0.7272
  564SOL    HW2 2151   5.527   1.107   1.770  0.4400 -0.3598 -1.0181
  565SOL     OW 2152   5.950   1.370   5.721  0.3279 -0.1712  0.2948
  565SOL    HW1 2153   5.858   1.361   5.696 -0.0299  1.7846  0.7176
  565SOL    HW2 2154   5.947   1.411   5.808  1.5979  0.2136  0.1750
  566SOL     OW 2155   1.090   3.311   2.880 -0.0068  0.5978 -0.1739
  566SOL    HW1 2156   1.156   3.255   2.839  1.3212  2.1810 -0.3013
  566SOL    HW2 2157   1.132   3.346   2.958 -1.3839  0.1875  0.8005
  567SOL     OW 2158   2.422   4.868   5.825  0.3401 -0.4869  0.0928
  567SOL    HW1 2159   2.507   4.870   5.869  0.3895  0.6152 -0.0332
  567SOL    HW2 2160   2.430   4.934   5.756  0.3255 -2.2506 -1.7039
  568SOL     OW 2161   3.815   3.430   4.699  0.0632  0.1706  0.2618
  568SOL    HW1 2162   3.817   3.471   4.785 -1.5915 -0.7155  0.7807
  568SOL    HW2 2163   3.883   3.362   4.703 -0.1098  0.0296  0.9384
  569SOL     OW 2164   3.160   1.714   0.619 -0.3380  0.8207 -0.3058
  569SOL    HW1 2165   3.088   1.762   0.578  0.4993  1.4391 -1.1086
  569SOL    HW2 2166   3.134   1.705   0.710 -1.5207  0.8503 -0.6225
  570SOL     OW 2167   2.842   4.112   2.656  0.4025  0.3953 -0.9312
  570SOL    HW1 2168   2.809   4.039   2.604 -2.8994 -0.6308  2.1476
  570SOL    HW2 2169   2.921   4.078   2.698  0.4411 -0.4063 -1.6165
  571SOL     OW 2170   3.537   2.284   1.328 -0.4923 -0.7004 -0.6273
  571SOL    HW1 2171   3.627   2.258   1.350 -0.2783  0.8741  0.5210
  571SOL    HW2 2172   3.486   2.266   1.407 -1.0459 -0.9143 -1.0282
  572SOL     OW 2173   2.345   6.038   1.181 -0.1219  0.6030  0.1063
  572SOL    HW1 2174   2.276   6.076   1.236  1.4604 -0.3992  3.0358
  572SOL    HW2 2175   2.326   5.944   1.183  0.1742  0.5204 -0.8242
  573SOL     OW 2176   1.649   0.519   6.034  0.1821 -0.0010 -0.2885
  573SOL    HW1 2177   1.657   0.491   5.943 -0.6533 -0.0663 -0.3578
  573SOL    HW2 2178   1.555   0.539   6.044  0.0923 -0.8900  0.8165
  574SOL     OW 2179   1.142   2.532   1.555 -0.2316 -0.1830  0.5490
  574SOL    HW1 2180   1.182   2.456   1.513 -0.3351 -1.6253  2.8878
  574SOL    HW2 2181   1.048   2.511   1.558 -0.3647  0.3966  0.5245
  575SOL     OW 2182   0.060   4.549   3.531  0.0211 -0.2350  0.5667
  575SOL    HW1 2183  -0.012   4.529   3.471 -0.5381 -0.4265  1.2931
  575SOL    HW2 2184   0.113   4.613   3.483 -1.2379  0.7745  0.4435
  576SOL     OW 2185   4.717   6.091   5.224  0.2914 -0.3090  0.3755
  576SOL    HW1 2186   4.637   6.143   5.233  0.3277 -0.3192  0.7775
  576SOL    HW2 2187   4.783   6.153   5.195 -0.0534 -0.4634 -0.8130
  577SOL     OW 2188   3.667   6.077   3.782  0.0851 -0.2691  0.0661
  577SOL    HW1 2189   3.615   6.104   3.706 -1.8736 -0.2538  1.3410
  577SOL    HW2 2190   3.686   6.158   3.828 -0.1752 -0.4364  0.4708
  578SOL     OW 2191   4.263   1.431   0.197 -0.4653 -0.2011  0.3107
  578SOL    HW1 2192   4.244   1.486   0.120  2.0117 -0.9350 -0.9569
  578SOL    HW2 2193   4.236   1.343   0.171 -1.4182 -0.1474  1.0761
  579SOL     OW 2194   4.450   5.834   3.989 -0.3157 -0.0870  0.3002
  579SOL    HW1 2195   4.374   5.885   4.019  0.1872  0.2915  0.9475
  579SOL    HW2 2196   4.516   5.900   3.967 -1.0083 -0.2504 -2.7859
  580SOL     OW 2197   2.860   1.721   1.798 -0.2009  0.0952  0.0899
  580SOL    HW1 2198   2.881   1.659   1.868 -3.2561  1.6192  2.6371
  580SOL    HW2 2199   2.770   1.698   1.773 -0.9758  2.6540  0.2665
  581SOL     OW 2200   2.555   1.954   4.572 -0.6493 -0.0853 -0.0406
  581SOL    HW1 2201   2.460   1.945   4.560 -0.4919 -1.0795 -0.6481
  581SOL    HW2 2202   2.587   1.864   4.574  0.4539  0.2626 -1.2472
  582SOL     OW 2203   1.476   2.395   5.425  0.4864 -1.1372  0.4938
  582SOL    HW1 2204   1.556   2.394   5.372 -0.0705 -1.8872 -0.3669
  582SOL    HW2 2205   1.458   2.488   5.440  1.4750 -0.9576  0.6474
  583SOL     OW 2206   2.023   3.131   5.730  0.3636  0.5029 -0.0992
  583SOL    HW1 2207   2.059   3.053   5.687 -0.8459  0.3613 -0.9073
  583SOL    HW2 2208   1.960   3.097   5.794  0.3243  0.7947  0.0196
  584SOL     OW 2209   5.850   6.108   3.387  0.5332  0.2294 -0.2139
  584SOL    HW1 2210   5.787   6.069   3.448 -0.7555  0.3364 -1.4168
  584SOL    HW2 2211   5.855   6.200   3.414  1.6601 -0.1642  1.0554
  585SOL     OW 2212   4.015   4.124   3.268 -0.2305  0.1225 -0.6895
  585SOL    HW1 2213   3.994   4.089   3.181 -1.9209  0.7064 -0.5684
  585SOL    HW2 2214   3.962   4.204   3.275 -1.9615 -1.0767  1.6994
  586SOL     OW 2215   2.806   5.656   3.203  0.0047  0.2450  0.0892
  586SOL    HW1 2216   2.836   5.565   3.206 -0.0884  0.1937 -0.4210
  586SOL    HW2 2217   2.843   5.696   3.281 -0.5451 -0.4094  0.6988
  587SOL     OW 2218   5.896   5.023   1.251  0.0977 -0.4149 -0.6655
  587SOL    HW1 2219   5.880   4.961   1.322 -0.6249  0.5638  0.0496
  587SOL    HW2 2220   5.828   5.004   1.186 -1.3988  0.8935  0.4426
  588SOL     OW 2221   4.006   0.635   3.860 -0.2975  0.3680  0.5798
  588SOL    HW1 2222   3.952   0.601   3.931 -1.4968  1.5980  0.3136
  588SOL    HW2 2223   3.956   0.616   3.781  0.4924 -0.0025  0.1648
  589SOL     OW 2224   0.758   5.417   4.784 -0.0622  0.1789 -0.3884
  589SOL    HW1 2225   0.755   5.333   4.739 -0.3040 -1.0288  1.7446
  589SOL    HW2 2226   0.849   5.445   4.777  0.3042 -0.8908 -0.0596
  590SOL     OW 2227   4.961   1.967   1.647 -0.1777 -0.0560 -0.4331
  590SOL    HW1 2228   4.946   1.873   1.652 -2.8790  0.3501  0.4856
  590SOL    HW2 2229   4.959   1.997   1.738  0.8576  0.8922 -0.6996
  591SOL     OW 2230   3.370   2.503   6.226 -0.3937 -0.2402 -0.1836
  591SOL    HW1 2231   3.394   2.414   6.249 -0.1204 -0.5505 -1.5860
  591SOL    HW2 2232   3.293   2.522   6.280 -0.2209 -1.1729  0.4075
  592SOL     OW 2233   5.079   4.392   1.851 -0.2623  0.0136 -0.0003
  592SOL    HW1 2234   5.128   4.438   1.784  0.5989  0.1904  0.7230
  592SOL    HW2 2235   4.991   4.430   1.848 -0.8343 -1.2819 -2.2751
  593SOL     OW 2236   2.430   4.166   3.645  0.6546 -0.2490  0.0142
  593SOL    HW1 2237   2.372   4.119   3.705  0.3363  1.4643  1.1263
  593SOL    HW2 2238   2.370   4.205   3.581  0.7138  0.2843  0.2810
  594SOL     OW 2239   5.234   5.611   3.360  0.5499  0.0447 -0.2651
  594SOL    HW1 2240   5.165   5.548   3.340 -1.4102  2.2153 -0.7574
  594SOL    HW2 2241   5.304   5.558   3.399 -1.3166 -2.2879  0.1625
  595SOL     OW 2242   3.226   2.836   1.230 -0.3399  0.0343  0.0447
  595SOL    HW1 2243   3.278   2.764   1.265  0.6876  0.5363 -0.3878
  595SOL    HW2 2244   3.263   2.852   1.143 -2.3266 -0.6622 -0.9709
  596SOL     OW 2245   1.748   1.598   0.650 -0.0421 -0.7842 -0.1864
  596SOL    HW1 2246   1.753   1.684   0.691 -1.4068  0.0189 -1.6120
  596SOL    HW2 2247   1.686   1.550   0.704  2.1887 -1.6510  1.8002
  597SOL     OW 2248   1.997   1.887   1.794  0.0518  0.1848 -1.0079
  597SOL    HW1 2249   1.993   1.964   1.737 -2.7164 -0.0523 -1.2646
  597SOL    HW2 2250   1.939   1.823   1.752 -1.1098 -0.4512  1.4025
  598SOL     OW 2251   1.921   0.703   3.794  0.3402  0.6195 -0.4760
  598SOL    HW1 2252   1.967   0.763   3.735 -0.5081  0.3774 -1.4351
  598SOL    HW2 2253   1.836   0.689   3.751  0.3392 -0.8870 -0.0322
  599SOL     OW 2254   5.679   1.423   4.296 -0.0852 -0.1124  0.2829
  599SOL    HW1 2255   5.588   1.393   4.296 -0.0282 -0.5067  2.9095
  599SOL    HW2 2256   5.698   1.441   4.388  2.4657  0.0839 -0.2228
  600SOL     OW 2257   4.025   5.357   3.812  0.4618 -0.0645  0.4742
  600SOL    HW1 2258   4.080   5.282   3.790  1.5592  1.2549 -1.6712
  600SOL    HW2 2259   3.936   5.328   3.794  0.8079 -1.0839  0.3650
  601SOL     OW 2260   1.183   3.857   5.956 -0.2576 -0.2686  0.1918
  601SOL    HW1 2261   1.276   3.835   5.962 -0.4418 -0.7331  1.6963
  601SOL    HW2 2262   1.145   3.824   6.037 -1.1382  2.8504  1.2021
  602SOL     OW 2263   0.786   3.949   4.472 -0.7953  0.0936 -0.0256
  602SOL    HW1 2264   0.769   3.856   4.462  1.1537 -0.3896  0.6633
  602SOL    HW2 2265   0.741   3.990   4.399 -2.0709 -1.3295 -0.0782
  603SOL     OW 2266   2.598   1.751   5.205  0.1555  0.0149 -0.7426
  603SOL    HW1 2267   2.577   1.845   5.203  2.5148  0.6115 -0.3530
  603SOL    HW2 2268   2.513   1.708   5.218 -0.7799  2.2078  1.1949
  604SOL     OW 2269   4.086   5.502   1.376  0.7393 -0.2538  0.3260
  604SOL    HW1 2270   4.075   5.407   1.362  1.4608 -0.0305 -2.2815
  604SOL    HW2 2271   4.024   5.523   1.445  0.5371 -2.6282  0.9565
  605SOL     OW 2272   5.868   1.186   2.270  0.0685  0.2752 -0.0188
  605SOL    HW1 2273   5.912   1.160   2.189  0.4967  3.1318 -0.8392
  605SOL    HW2 2274   5.775   1.190   2.247  0.2981  2.2082 -0.8064
  606SOL     OW 2275   1.339   4.501   1.620 -0.1233  0.2105 -0.5096
  606SOL    HW1 2276   1.374   4.420   1.657  1.7570  0.6684 -1.1450
  606SOL    HW2 2277   1.246   4.501   1.643  0.2338 -1.2132  1.1014
  607SOL     OW 2278   3.523   4.395   0.679  0.0190 -0.3322 -0.3953
  607SOL    HW1 2279   3.579   4.371   0.605 -0.2191  0.2533 -0.7760
  607SOL    HW2 2280   3.434   4.393   0.643  0.0392  2.0075 -0.7439
  608SOL     OW 2281   0.566   5.322   2.931 -0.2683  0.1033  0.0477
  608SOL    HW1 2282   0.555   5.384   2.859 -0.6955  1.1048  0.9457
  608SOL    HW2 2283   0.542   5.371   3.009 -1.8275 -1.5580  0.6888
  609SOL     OW 2284   0.748   2.257   4.154  0.1893 -0.1904  0.6826
  609SOL    HW1 2285   0.697   2.309   4.217  1.3116  0.3001  1.2114
  609SOL    HW2 2286   0.726   2.294   4.069 -0.0118  0.2943  0.9415
  610SOL     OW 2287   4.434   3.358   1.177 -0.1028  0.2701 -0.5832
  610SOL    HW1 2288   4.504   3.404   1.131 -0.2576  0.7033 -0.3863
  610SOL    HW2 2289   4.360   3.419   1.175 -0.5536 -0.2758 -1.0019
  611SOL     OW 2290   1.328   4.410   5.846 -0.2693  0.0161 -0.1495
  611SOL    HW1 2291   1.322   4.480   5.911 -0.3956  0.1964 -0.3526
  611SOL    HW2 2292   1.398   4.437   5.787  1.2121 -1.1060  1.0383
  612SOL     OW 2293   2.232   6.018   5.174 -0.7815 -0.1328  0.1451
  612SOL    HW1 2294   2.235   6.084   5.244 -3.6500  0.5835 -0.3024
  612SOL    HW2 2295   2.294   5.951   5.202  0.2220  1.4558  1.9672
  613SOL     OW 2296   2.329   4.555   3.945  0.0297 -0.7076  0.0500
  613SOL    HW1 2297   2.401   4.492   3.953  1.7027  0.8516 -1.7976
  613SOL    HW2 2298   2.267   4.512   3.886  0.3993 -1.2677  0.0569
  614SOL     OW 2299   0.147   2.547   4.412  0.1689  0.5727  0.3748
  614SOL    HW1 2300   0.117   2.532   4.323  2.1775  1.5494 -0.5392
  614SOL    HW2 2301   0.181   2.462   4.442 -0.0378  0.3622  0.0095
  615SOL     OW 2302   2.112   4.585   6.159  0.3556 -0.3846  0.0467
  615SOL    HW1 2303   2.042   4.627   6.209  1.5453  0.4549  1.0633
  615SOL    HW2 2304   2.137   4.651   6.094  1.3341 -0.0159  0.7848
  616SOL     OW 2305   2.480   5.887   1.006  0.2655 -0.4472  0.0076
  616SOL    HW1 2306   2.436   5.804   1.023 -0.3090 -0.3681 -0.9955
  616SOL    HW2 2307   2.440   5.949   1.067  0.0287 -0.7063  0.1159
  617SOL     OW 2308   4.668   3.559   2.754  0.2944 -0.4212  0.0108
  617SOL    HW1 2309   4.752   3.587   2.791  0.7304  0.2194 -1.3729
  617SOL    HW2 2310   4.603   3.615   2.797  0.3199 -2.0820  2.3621
  618SOL     OW 2311   3.849   6.081   4.816 -0.4138  0.5312 -0.4492
  618SOL    HW1 2312   3.869   6.089   4.722 -1.5090  1.5224 -0.6237
  618SOL    HW2 2313   3.934   6.073   4.858  0.1737  1.4725 -1.4126
  619SOL     OW 2314   1.220   3.124   5.602  0.0697  0.1049  0.0930
  619SOL    HW1 2315   1.140   3.133   5.655  0.4267  2.6873  0.3239
  619SOL    HW2 2316   1.291   3.124   5.666  0.3858  0.8395 -0.2511
  620SOL     OW 2317   2.503   1.014   0.280 -0.4720 -0.7067 -0.1323
  620SOL    HW1 2318   2.590   1.027   0.318 -0.1580 -0.6141 -0.8639
  620SOL    HW2 2319   2.518   1.014   0.185 -1.2948 -0.4825 -0.2720
  621SOL     OW 2320   6.136   5.801   4.322 -0.0212  0.3538 -0.0864
  621SOL    HW1 2321   6.209   5.785   4.263  1.3745  1.4930  1.2464
  621SOL    HW2 2322   6.063   5.827   4.265  0.9747  0.4240 -1.3542
  622SOL     OW 2323   0.919   2.359   6.244 -0.2551  0.0838 -0.0632
  622SOL    HW1 2324   0.941   2.269   6.268 -2.4234 -0.4413  0.2332
  622SOL    HW2 2325   0.825   2.367   6.264 -0.5555  1.8511 -1.7949
  623SOL     OW 2326   2.119   5.410   1.614 -0.6738 -0.2435  0.2779
  623SOL    HW1 2327   2.169   5.482   1.653 -0.0146 -0.6370  0.1693
  623SOL    HW2 2328   2.142   5.334   1.667 -1.9221 -0.2509  0.8409
  624SOL     OW 2329   5.695   1.884   4.684  0.0415 -0.2464  0.7648
  624SOL    HW1 2330   5.695   1.946   4.611  2.5350 -0.4554  0.4876
  624SOL    HW2 2331   5.645   1.809   4.653 -0.9984  0.6458  0.2163
  625SOL     OW 2332   3.899   5.066   0.862  0.1373 -0.0824 -0.2486
  625SOL    HW1 2333   3.807   5.039   0.855 -0.0848  0.6243 -0.1474
  625SOL    HW2 2334   3.942   4.991   0.903 -0.6547  0.0794  0.9459
  626SOL     OW 2335   1.121   5.946   5.508  0.3817 -0.1619  0.7241
  626SOL    HW1 2336   1.157   5.891   5.578 -0.1404 -1.2288  0.1928
  626SOL    HW2 2337   1.176   5.925   5.432 -0.0473 -0.2316  0.4291
  627SOL     OW 2338   1.893   3.221   3.200 -0.7150 -0.4469 -0.1468
  627SOL    HW1 2339   1.948   3.209   3.277 -1.6525  0.1912  0.6399
  627SOL    HW2 2340   1.877   3.315   3.196  0.2365 -0.3087 -1.7885
  628SOL     OW 2341   3.004   4.311   0.174  0.2064 -0.3272  0.4958
  628SOL    HW1 2342   2.954   4.301   0.255  0.0161  2.4589  0.8227
  628SOL    HW2 2343   2.939   4.338   0.108  0.3211 -2.7600 -0.7009
  629SOL     OW 2344   5.979   0.286   5.758 -0.2593  0.2689  0.8392
  629SOL    HW1 2345   5.931   0.248   5.683 -0.7271  1.5152  0.4768
  629SOL    HW2 2346   6.051   0.225   5.774 -0.6000 -0.4179 -0.1403
  630SOL     OW 2347   0.590   2.305   5.709  0.6333  0.0235  0.1796
  630SOL    HW1 2348   0.578   2.232   5.770  0.1189  0.0796  0.1451
  630SOL    HW2 2349   0.664   2.278   5.654  0.3722 -0.5211  0.0940
  631SOL     OW 2350   2.081   1.374   1.122  0.3627 -0.7858  0.1294
  631SOL    HW1 2351   2.082   1.419   1.038  1.0048 -0.5015  0.2822
  631SOL    HW2 2352   2.113   1.286   1.102 -0.8451 -1.1767 -0.1595
  632SOL     OW 2353   2.247   4.294   3.459  0.1814 -0.3735  0.1679
  632SOL    HW1 2354   2.241   4.348   3.381 -2.6827 -0.2363  0.3778
  632SOL    HW2 2355   2.213   4.209   3.433 -0.4620 -0.4356  1.1365
  633SOL     OW 2356   2.648   4.612   2.355 -0.2453  0.2376 -0.5454
  633SOL    HW1 2357   2.644   4.663   2.436  0.6220 -1.2050  0.4653
  633SOL    HW2 2358   2.621   4.673   2.286  1.9632  2.4217  0.3878
  634SOL     OW 2359   2.015   3.601   1.546  0.0287  0.5341  0.4483
  634SOL    HW1 2360   1.933   3.584   1.498 -0.0788 -0.1382  0.8666
  634SOL    HW2 2361   2.080   3.614   1.477  0.0142 -1.0801  0.0884
  635SOL     OW 2362   0.095   1.349   4.483 -0.0972  0.0706  0.5288
  635SOL    HW1 2363   0.056   1.393   4.407 -0.4934 -0.1528  0.6011
  635SOL    HW2 2364   0.056   1.262   4.482 -1.7233  0.7248  2.1974
  636SOL     OW 2365   0.283   3.776   0.654 -0.1709 -0.6670  0.1108
  636SOL    HW1 2366   0.205   3.721   0.661 -1.1700  0.5324 -1.1460
  636SOL    HW2 2367   0.291   3.816   0.741  0.1132 -2.1339  0.7970
  637SOL     OW 2368   4.575   1.225   2.683 -0.1980 -0.1144 -0.6456
  637SOL    HW1 2369   4.617   1.175   2.753 -0.9633 -0.5437 -0.4844
  637SOL    HW2 2370   4.505   1.168   2.651 -0.9246  0.7463 -0.6334
  638SOL     OW 2371   0.099   5.641   1.597 -0.4204 -0.1959  0.1051
  638SOL    HW1 2372   0.183   5.601   1.620 -1.8017 -3.0033  0.6745
  638SOL    HW2 2373   0.045   5.630   1.674 -1.9733 -0.3738 -0.9683
  639SOL     OW 2374   1.836   5.024   1.346  0.1903  0.4810 -0.2816
  639SOL    HW1 2375   1.835   5.077   1.426 -0.8802 -0.5230  0.4023
  639SOL    HW2 2376   1.929   5.007   1.330  0.6186  2.9904 -0.8470
  640SOL     OW 2377   2.389   1.317   4.609 -0.2326 -0.5197 -0.2148
  640SOL    HW1 2378   2.421   1.274   4.529 -1.2008 -1.3224 -0.2003
  640SOL    HW2 2379   2.295   1.299   4.609 -0.4457  0.5406  0.4738
  641SOL     OW 2380   5.263   3.511   2.745  0.3229 -0.5255 -0.2332
  641SOL    HW1 2381   5.291   3.421   2.728 -0.0055 -0.4280 -1.3941
  641SOL    HW2 2382   5.178   3.518   2.702 -0.4484 -0.1467  1.3094
  642SOL     OW 2383   1.377   5.994   4.389  0.2486  0.1644  0.3199
  642SOL    HW1 2384   1.398   6.024   4.477 -0.3111 -1.2708  0.9812
  642SOL    HW2 2385   1.463   5.977   4.349  0.5140  1.0957  0.4780
  643SOL     OW 2386   3.771   2.851   3.751  0.2331  0.1712  0.0434
  643SOL    HW1 2387   3.722   2.819   3.676 -0.0859  1.6033 -0.3956
  643SOL    HW2 2388   3.809   2.934   3.722  2.4455 -0.5726  0.5696
  644SOL     OW 2389   2.184   2.527   3.292 -0.0773 -0.0645  0.1206
  644SOL    HW1 2390   2.209   2.437   3.271 -0.3292  0.2474 -1.7447
  644SOL    HW2 2391   2.235   2.581   3.230 -0.9261  0.9711  0.2908
  645SOL     OW 2392   0.799   5.576   0.945  0.4073  0.6569 -0.0364
  645SOL    HW1 2393   0.841   5.515   0.885  0.9085 -0.2381  1.1974
  645SOL    HW2 2394   0.871   5.623   0.987  0.0444  1.6696 -0.5060
  646SOL     OW 2395   0.897   4.998   1.584  0.1950 -0.2695  0.0368
  646SOL    HW1 2396   0.840   4.928   1.616 -1.5860  1.4766  0.9032
  646SOL    HW2 2397   0.879   5.072   1.641  0.9341  1.3396 -1.7019
  647SOL     OW 2398   2.110   3.186   3.380  0.3254  0.2002  0.4911
  647SOL    HW1 2399   2.129   3.092   3.381 -1.2121 -0.2292 -2.2823
  647SOL    HW2 2400   2.186   3.225   3.337 -0.4808 -0.2607 -1.4475
  648SOL     OW 2401   0.247   5.511   0.192  0.4302  0.0918 -0.1507
  648SOL    HW1 2402   0.237   5.498   0.286  1.0266 -0.8149 -0.1999
  648SOL    HW2 2403   0.247   5.422   0.155  0.7529  0.4074 -0.9443
  649SOL     OW 2404   4.625   1.018   3.954  0.3143  0.2640 -0.3168
  649SOL    HW1 2405   4.695   1.080   3.936  1.8833 -1.7617 -1.5400
  649SOL    HW2 2406   4.631   1.002   4.048  1.3286  0.3106 -0.3649
  650SOL     OW 2407   4.068   4.837   1.052  0.3856 -0.5095 -0.1004
  650SOL    HW1 2408   3.986   4.789   1.042  0.3314 -1.2510  3.0593
  650SOL    HW2 2409   4.136   4.770   1.058  0.7477 -0.0875  0.8115
  651SOL     OW 2410   1.107   2.107   2.326 -0.0141 -0.2352 -0.2606
  651SOL    HW1 2411   1.100   2.074   2.236 -0.6769 -0.8840  0.0180
  651SOL    HW2 2412   1.139   2.197   2.316  1.6787 -0.8699 -1.0536
  652SOL     OW 2413   5.655   1.746   1.042 -0.0147  0.0223 -0.4653
  652SOL    HW1 2414   5.616   1.833   1.035  0.8561  0.3561 -1.3671
  652SOL    HW2 2415   5.592   1.696   1.094  0.1572  1.5907  1.3670
  653SOL     OW 2416   1.791   3.791   4.698 -0.3909 -0.2365  0.2138
  653SOL    HW1 2417   1.794   3.846   4.619  1.6379 -0.4488  0.1009
  653SOL    HW2 2418   1.856   3.723   4.682 -2.3721 -2.3324  0.6504
  654SOL     OW 2419   3.893   0.835   0.232  0.8168  0.2212  0.5552
  654SOL    HW1 2420   3.862   0.850   0.322 -0.5932 -0.2440  0.1647
  654SOL    HW2 2421   3.926   0.746   0.232 -0.9293 -0.4664  0.1794
  655SOL     OW 2422   3.296   1.472   0.575  0.3000  0.1534  0.0469
  655SOL    HW1 2423   3.377   1.492   0.620  1.6243  3.0256 -3.0799
  655SOL    HW2 2424   3.255   1.558   0.560 -1.6265 -0.8955 -1.3046
  656SOL     OW 2425   0.549   2.126   2.684  0.1240  0.1750  0.7089
  656SOL    HW1 2426   0.504   2.046   2.712 -0.0306  0.2773  0.7601
  656SOL    HW2 2427   0.512   2.145   2.598  0.0326  0.2850  0.7711
  657SOL     OW 2428   2.714   5.336   6.084 -0.1024  0.2031 -0.1905
  657SOL    HW1 2429   2.687   5.245   6.094  0.6901 -0.0651 -0.3719
  657SOL    HW2 2430   2.683   5.380   6.163 -1.4383  0.0225 -0.5907
  658SOL     OW 2431   5.070   0.036   1.016  0.6011  0.7920  0.5859
  658SOL    HW1 2432   5.038   0.123   0.992 -0.8126 -0.5148 -3.0431
  658SOL    HW2 2433   5.147   0.023   0.961 -0.1681 -0.8034 -0.1885
  659SOL     OW 2434   0.838   4.705   5.735  0.4529  0.0842  0.3074
  659SOL    HW1 2435   0.892   4.694   5.657 -0.6220  0.3900 -0.5024
  659SOL    HW2 2436   0.823   4.799   5.741 -1.1953 -0.0925 -0.3616
  660SOL     OW 2437   1.611   2.651   1.210  0.1708  0.2094 -0.0200
  660SOL    HW1 2438   1.515   2.661   1.208  0.2361  1.1725  0.7773
  660SOL    HW2 2439   1.632   2.611   1.127 -0.8635  0.7086 -0.5510
  661SOL     OW 2440   3.318   5.791   0.004 -0.3810  0.2857 -0.1434
  661SOL    HW1 2441   3.289   5.798  -0.088  1.2464  1.6747 -0.6107
  661SOL    HW2 2442   3.279   5.710   0.035 -1.3769  0.0165 -1.9266
  662SOL     OW 2443   4.375   2.517   1.330 -0.4709 -0.5799  0.2149
  662SOL    HW1 2444   4.372   2.427   1.300 -1.6413 -0.2009 -0.8833
  662SOL    HW2 2445   4.362   2.570   1.251  1.1375  0.6042  0.6728
  663SOL     OW 2446   4.212   1.478   1.009  0.0126  0.0394 -0.4046
  663SOL    HW1 2447   4.136   1.420   1.007 -0.8433  1.0611  0.6058
  663SOL    HW2 2448   4.285   1.424   0.981 -0.7825 -1.4858  0.3583
  664SOL     OW 2449   5.505   1.924   0.720 -0.0411 -0.2981  0.2878
  664SOL    HW1 2450   5.443   1.862   0.759  1.0923 -0.9910  1.0510
  664SOL    HW2 2451   5.449   1.992   0.682 -1.2592  0.6407  3.4110
  665SOL     OW 2452   2.036   2.530   1.929 -0.0835 -0.4967  0.1059
  665SOL    HW1 2453   2.012   2.622   1.925  0.3283 -0.3530  0.9176
  665SOL    HW2 2454   2.119   2.528   1.975  0.0964 -1.2443 -0.2327
  666SOL     OW 2455   1.253   1.974   4.029 -0.1684  0.0634 -0.5160
  666SOL    HW1 2456   1.342   1.998   4.055  0.1684 -1.8892  0.3581
  666SOL    HW2 2457   1.264   1.897   3.973 -1.2880 -0.1575 -0.4624
  667SOL     OW 2458   1.617   3.029   0.318  0.5585  0.3226 -0.1762
  667SOL    HW1 2459   1.551   2.976   0.274  1.1452  0.5912 -1.4180
  667SOL    HW2 2460   1.599   3.017   0.411 -1.2501  0.4037 -0.4821
  668SOL     OW 2461   4.609   2.517   5.826  0.6457 -0.0993 -0.1599
  668SOL    HW1 2462   4.519   2.494   5.850  1.1210 -0.6106  1.2277
  668SOL    HW2 2463   4.641   2.440   5.778  0.6843 -0.3654  0.2879
  669SOL     OW 2464   0.721   5.892   5.890 -0.3404 -0.1317 -0.3654
  669SOL    HW1 2465   0.629   5.890   5.916 -1.4294  0.6202 -3.5876
  669SOL    HW2 2466   0.750   5.801   5.897 -1.9465 -0.7442 -1.0166
  670SOL     OW 2467   4.990   5.967   2.423  0.0949 -0.1321 -0.1395
  670SOL    HW1 2468   4.944   6.030   2.367  0.8280 -1.7832 -2.7265
  670SOL    HW2 2469   4.927   5.896   2.435  1.0469 -1.2773 -1.6614
  671SOL     OW 2470   6.323   3.993   4.880  0.0762  0.6646 -0.0735
  671SOL    HW1 2471   6.270   4.059   4.834 -1.2155  1.5131  2.4085
  671SOL    HW2 2472   6.272   3.912   4.872  0.4460  0.5126 -1.0602
  672SOL     OW 2473   4.844   0.277   3.270 -0.5609 -0.6321 -0.1530
  672SOL    HW1 2474   4.852   0.189   3.307 -0.0518 -0.0925  1.0703
  672SOL    HW2 2475   4.751   0.299   3.280 -0.9272 -1.4593 -1.5206
  673SOL     OW 2476   0.567   2.482   1.180  0.0027  0.3351  0.2749
  673SOL    HW1 2477   0.564   2.398   1.226  1.4005 -0.0444 -0.2878
  673SOL    HW2 2478   0.611   2.541   1.240 -2.7675  1.3045  1.5427
  674SOL     OW 2479   2.260   3.773   1.580 -0.1714 -0.2780  0.7147
  674SOL    HW1 2480   2.233   3.714   1.510  0.4825  1.2276 -0.8832
  674SOL    HW2 2481   2.215   3.855   1.560  1.9291  0.9071  0.6044
  675SOL     OW 2482   1.895   4.554   2.871 -0.5106  0.0305  0.3926
  675SOL    HW1 2483   1.952   4.619   2.913 -0.9252  1.8414 -1.6396
  675SOL    HW2 2484   1.924   4.554   2.780 -2.0239 -0.9761 -0.1166
  676SOL     OW 2485   0.579   3.865   3.800  0.1965  0.0238 -0.5820
  676SOL    HW1 2486   0.584   3.772   3.778  1.2325 -0.2293  0.5723
  676SOL    HW2 2487   0.649   3.878   3.865  1.2970  1.9997 -2.0185
  677SOL     OW 2488   4.112   6.355   3.060  0.1369 -0.3461 -0.1562
  677SOL    HW1 2489   4.084   6.371   2.970 -1.6648  0.1033  0.4483
  677SOL    HW2 2490   4.183   6.292   3.052 -0.9081 -1.3857 -1.8212
  678SOL     OW 2491   1.488   5.202   0.620 -0.2792 -0.1492 -0.4585
  678SOL    HW1 2492   1.452   5.287   0.592  1.2051  0.5500 -0.3259
  678SOL    HW2 2493   1.414   5.142   0.613 -1.1617  0.9824 -1.3493
  679SOL     OW 2494   2.988   4.989   4.223 -0.3536 -0.4593 -0.4681
  679SOL    HW1 2495   2.907   4.974   4.175 -0.9267  0.7965  0.0652
  679SOL    HW2 2496   2.965   4.977   4.315  0.4307 -1.5870 -0.4054
  680SOL     OW 2497   4.937   5.918   3.184  0.1537 -0.3404  0.1530
  680SOL    HW1 2498   4.849   5.952   3.167  0.7857  0.7221 -1.2294
  680SOL    HW2 2499   4.976   5.908   3.097  1.4927 -0.4926  0.7491
  681SOL     OW 2500   2.160   2.843   0.210 -0.9226 -0.0070 -0.4967
  681SOL    HW1 2501   2.066   2.855   0.222 -0.7828  0.1990  0.5805
  681SOL    HW2 2502   2.188   2.797   0.290 -0.2461 -0.8507 -1.2066
  682SOL     OW 2503   1.538   6.317   1.474 -0.7035  0.7968  0.6102
  682SOL    HW1 2504   1.467   6.262   1.441 -1.0050  1.3592  0.3167
  682SOL    HW2 2505   1.535   6.306   1.569  0.4953 -1.2477  0.4812
  683SOL     OW 2506   4.263   2.334   1.672 -0.6270 -0.4791 -0.0466
  683SOL    HW1 2507   4.202   2.400   1.639 -0.4315  0.8379  1.9903
  683SOL    HW2 2508   4.213   2.285   1.737 -0.0592 -0.6570  0.2678
  684SOL     OW 2509   3.284   1.341   4.333 -0.0276  0.0629 -0.3087
  684SOL    HW1 2510   3.300   1.400   4.406 -1.3008  1.4317 -1.0902
  684SOL    HW2 2511   3.243   1.264   4.373 -1.4001  1.0981  0.3698
  685SOL     OW 2512   2.635   1.113   4.717 -0.1595  0.2556 -0.3291
  685SOL    HW1 2513   2.711   1.093   4.662  1.0433  0.2479  1.2860
  685SOL    HW2 2514   2.611   1.030   4.756  0.7834  0.7206  1.3322
  686SOL     OW 2515   3.014   5.355   4.665  0.6767  0.2289 -0.2763
  686SOL    HW1 2516   2.968   5.362   4.749  0.6344  1.9526 -0.4148
  686SOL    HW2 2517   3.105   5.378   4.685  0.5687  1.1306 -0.7705
  687SOL     OW 2518   0.874   4.712   3.421  0.3253  0.8862 -0.0252
  687SOL    HW1 2519   0.835   4.706   3.508 -0.4156 -0.4712 -0.4102
  687SOL    HW2 2520   0.962   4.676   3.432  0.0645  0.2617  0.0845
  688SOL     OW 2521   5.050   4.889   5.368 -0.0394  0.1106  0.4627
  688SOL    HW1 2522   5.140   4.881   5.335 -0.2055 -2.3670  0.4008
  688SOL    HW2 2523   5.015   4.800   5.364 -3.2356  1.2698 -1.4568
  689SOL     OW 2524   4.749   3.251   1.019 -0.4221 -0.1398 -0.0493
  689SOL    HW1 2525   4.747   3.283   0.929 -0.3536  0.0998  0.0358
  689SOL    HW2 2526   4.668   3.200   1.028 -0.4512 -0.1257 -0.2304
  690SOL     OW 2527   4.487   4.154   2.872  0.7577  0.2724  0.5742
  690SOL    HW1 2528   4.479   4.236   2.921 -1.2439  0.8612 -0.6319
  690SOL    HW2 2529   4.405   4.108   2.889  0.6609 -0.1813 -1.0075
  691SOL     OW 2530   4.969   1.834   3.758 -0.0538 -0.0990  0.3784
  691SOL    HW1 2531   4.954   1.850   3.665  0.7916 -0.3848  0.1895
  691SOL    HW2 2532   4.942   1.915   3.801  2.2978  1.1687 -0.3801
  692SOL     OW 2533   0.756   3.008   0.909  0.5547  0.2273 -0.1745
  692SOL    HW1 2534   0.752   3.082   0.848 -1.0568  0.7107  0.4511
  692SOL    HW2 2535   0.666   2.999   0.941  1.1666 -0.6209  1.4213
  693SOL     OW 2536   2.875   2.304   3.994 -0.2210  0.1068  0.2456
  693SOL    HW1 2537   2.839   2.255   3.920 -0.7355  0.1564  0.4604
  693SOL    HW2 2538   2.964   2.326   3.967 -0.8764  1.3904 -0.9855
  694SOL     OW 2539   4.585   1.512   4.857 -0.4959  0.1548 -0.4027
  694SOL    HW1 2540   4.581   1.496   4.762 -2.3364 -2.6200  0.0153
  694SOL    HW2 2541   4.664   1.465   4.885 -0.5142  0.1010 -0.4402
  695SOL     OW 2542   1.700   6.382   2.795 -0.8505 -0.5681 -0.2083
  695SOL    HW1 2543   1.721   6.475   2.802 -0.1132 -0.6763 -0.8997
  695SOL    HW2 2544   1.616   6.373   2.841 -2.1715  0.8688 -2.2119
  696SOL     OW 2545   5.084   1.748   2.531 -0.2508  0.3583  0.5084
  696SOL    HW1 2546   5.069   1.836   2.565  0.2291  1.0428 -0.9819
  696SOL    HW2 2547   5.034   1.745   2.450  0.5861 -0.3553 -0.0027
  697SOL     OW 2548   1.364   1.444   3.103  0.3538  0.0474 -0.1749
  697SOL    HW1 2549   1.367   1.364   3.155 -0.4061 -0.7302 -1.2732
  697SOL    HW2 2550   1.274   1.475   3.111  0.8795  1.3366  1.0017
  698SOL     OW 2551   5.743   5.760   0.355 -0.3518 -0.3512  0.4819
  698SOL    HW1 2552   5.650   5.776   0.343 -0.6033 -1.6401  0.5563
  698SOL    HW2 2553   5.779   5.758   0.266 -0.0500  1.8344  0.4951
  699SOL     OW 2554   5.302   1.782   5.697 -0.0476  0.0659  0.3529
  699SOL    HW1 2555   5.309   1.689   5.675 -1.3639 -0.3226  1.4490
  699SOL    HW2 2556   5.253   1.784   5.779  1.0442  1.6724  1.0368
  700SOL     OW 2557   4.016   0.817   3.192  0.9632 -0.1242 -0.2748
  700SOL    HW1 2558   4.071   0.767   3.131  0.7953 -2.9955  1.7043
  700SOL    HW2 2559   4.077   0.854   3.255  0.9098  0.0648 -0.3345
  701SOL     OW 2560   4.923   1.177   6.203  0.0214 -0.5617 -0.2415
  701SOL    HW1 2561   4.986   1.166   6.132 -0.6720  1.2772 -1.1949
  701SOL    HW2 2562   4.945   1.261   6.243 -0.6211 -0.8035  0.6552
  702SOL     OW 2563   3.752   3.233   0.788 -0.3541 -0.0710  0.1398
  702SOL    HW1 2564   3.785   3.323   0.779  0.1924 -0.2483  0.3882
  702SOL    HW2 2565   3.695   3.222   0.712  0.9162 -0.0973 -0.8482
  703SOL     OW 2566   3.793   5.210   2.583  0.0799 -0.1527 -0.4916
  703SOL    HW1 2567   3.879   5.178   2.555 -0.0070 -0.2114 -0.6968
  703SOL    HW2 2568   3.746   5.226   2.501 -0.6626 -1.6229 -0.3871
  704SOL     OW 2569   6.145   0.007   1.167 -0.5178  0.4708  0.0029
  704SOL    HW1 2570   6.189  -0.076   1.185  0.7956  0.9656 -0.7922
  704SOL    HW2 2571   6.216   0.069   1.150 -1.5092  1.2648 -1.5170
  705SOL     OW 2572   5.767   2.113   1.436 -0.0552  0.1831 -0.4346
  705SOL    HW1 2573   5.733   2.188   1.387  2.0231  1.5203  0.0549
  705SOL    HW2 2574   5.861   2.130   1.444  0.9022 -3.4342 -1.9481
  706SOL     OW 2575   2.140   1.835   3.941  0.0717  0.1177 -0.4157
  706SOL    HW1 2576   2.160   1.922   3.975 -0.7943 -0.2612  1.1129
  706SOL    HW2 2577   2.079   1.852   3.868  0.7999  0.8363 -0.8822
  707SOL     OW 2578   3.094   4.261   3.446  0.9042 -0.5474 -0.3309
  707SOL    HW1 2579   3.156   4.334   3.441 -0.3623  0.5410 -0.8059
  707SOL    HW2 2580   3.013   4.301   3.476  0.4847 -1.9934  0.5509
  708SOL     OW 2581   3.317   2.642   4.412 -0.7560  0.2625 -0.1323
  708SOL    HW1 2582   3.267   2.719   4.438 -0.5404  0.4096 -0.1538
  708SOL    HW2 2583   3.404   2.675   4.390 -0.8327  0.0911 -0.7170
  709SOL     OW 2584   4.153   1.719   5.848  0.1874  0.0890 -0.0167
  709SOL    HW1 2585   4.111   1.731   5.932 -0.0052 -0.8773  0.0424
  709SOL    HW2 2586   4.082   1.726   5.784  0.4013  1.2600 -0.1502
  710SOL     OW 2587   1.304   5.966   0.918 -0.1540 -0.1812 -0.4695
  710SOL    HW1 2588   1.346   5.882   0.902 -0.9674 -0.3566 -1.7979
  710SOL    HW2 2589   1.375   6.030   0.907  0.2219 -0.6102 -0.5802
  711SOL     OW 2590   4.327   3.844   1.863 -0.0558  0.4803  0.2150
  711SOL    HW1 2591   4.253   3.789   1.888  0.6895 -0.5435  0.2190
  711SOL    HW2 2592   4.332   3.836   1.767 -0.2531  0.9509  0.1619
  712SOL     OW 2593   5.460   6.112   3.897 -0.6928  0.2581  0.0128
  712SOL    HW1 2594   5.440   6.151   3.812 -2.4202  2.5405  1.3686
  712SOL    HW2 2595   5.383   6.129   3.951  0.1165 -1.6017  1.9275
  713SOL     OW 2596   0.247   2.033   4.204 -0.1437 -0.3746  0.1156
  713SOL    HW1 2597   0.199   1.962   4.163  0.7232 -0.9809  0.1314
  713SOL    HW2 2598   0.233   2.108   4.147 -2.3786 -0.1161  0.9244
  714SOL     OW 2599   1.270   3.973   5.402  0.2339 -0.2783 -0.4622
  714SOL    HW1 2600   1.210   3.903   5.377 -0.0072 -0.2459  0.0251
  714SOL    HW2 2601   1.282   3.962   5.496  0.1614  0.3559 -0.3766
  715SOL     OW 2602   3.994   5.092   4.724  0.0190 -0.2576 -0.1751
  715SOL    HW1 2603   4.059   5.156   4.754  0.5386 -0.2070 -1.3478
  715SOL    HW2 2604   3.913   5.143   4.715  0.0149 -0.1396  0.5231
  716SOL     OW 2605   5.494   3.458   1.982  0.0059 -0.0298  0.1474
  716SOL    HW1 2606   5.451   3.532   1.941  0.8944  0.1649 -0.4615
  716SOL    HW2 2607   5.564   3.497   2.034 -0.0309 -0.3896  0.4690
  717SOL     OW 2608   2.266   2.246   2.865  0.5315  0.4473  0.2977
  717SOL    HW1 2609   2.349   2.200   2.854  0.1017 -0.4343  0.6520
  717SOL    HW2 2610   2.290   2.331   2.901  1.2612  0.0913  0.6768
  718SOL     OW 2611   5.748   1.969   2.910  0.0627  0.2278  0.1816
  718SOL    HW1 2612   5.834   1.958   2.870  0.5485  0.7022  1.0561
  718SOL    HW2 2613   5.767   2.001   2.998 -1.0308  0.8354  0.2128
  719SOL     OW 2614   0.384   3.312   2.076  0.3778 -0.5856 -0.3592
  719SOL    HW1 2615   0.406   3.236   2.023  0.8676 -1.5004  1.1083
  719SOL    HW2 2616   0.301   3.290   2.118  0.8434 -0.6002  0.5787
  720SOL     OW 2617   4.961   0.402   2.481  0.5059 -0.1018  0.4280
  720SOL    HW1 2618   4.980   0.496   2.483  2.5185 -0.4582  1.9373
  720SOL    HW2 2619   5.020   0.368   2.413  0.1495 -0.3365  0.2376
  721SOL     OW 2620   3.500   2.886   5.067 -0.4655  0.4108 -0.0670
  721SOL    HW1 2621   3.534   2.841   4.990 -0.2665  0.2015  0.1415
  721SOL    HW2 2622   3.561   2.863   5.138 -0.2490  1.1656  0.0025
  722SOL     OW 2623   0.482   3.252   5.964 -0.3144  0.4570  0.0612
  722SOL    HW1 2624   0.496   3.330   6.018 -0.0382  1.3866 -1.3183
  722SOL    HW2 2625   0.390   3.230   5.977  0.2825 -0.8214  2.8053
  723SOL     OW 2626   0.165   5.376   1.722 -0.3072  0.2413 -0.3057
  723SOL    HW1 2627   0.170   5.378   1.627 -0.6434 -1.1893 -0.3749
  723SOL    HW2 2628   0.229   5.309   1.748  0.0844  0.9070  0.5138
  724SOL     OW 2629   2.660   0.046   0.310  0.0208  0.1106  0.7150
  724SOL    HW1 2630   2.661  -0.050   0.309  0.2985  0.1123  0.6333
  724SOL    HW2 2631   2.582   0.069   0.360 -1.4751 -0.1495 -1.3415
  725SOL     OW 2632   5.365   3.206   0.067  0.1246  0.4280 -0.5406
  725SOL    HW1 2633   5.316   3.147   0.010 -0.4977 -0.8721  1.2641
  725SOL    HW2 2634   5.303   3.231   0.136  0.8621  1.9003 -0.3632
  726SOL     OW 2635   2.365   3.304   0.401  0.1416  0.3919 -0.5014
  726SOL    HW1 2636   2.432   3.319   0.467 -0.1939 -1.3625  0.3014
  726SOL    HW2 2637   2.290   3.354   0.431  0.0483 -0.2531  0.3889
  727SOL     OW 2638   5.069   0.806   0.151  0.3601  0.5157  0.1363
  727SOL    HW1 2639   5.024   0.871   0.206  0.9611  3.1638 -2.2490
  727SOL    HW2 2640   5.162   0.826   0.161  0.5993 -0.3808 -0.1949
  728SOL     OW 2641   2.795   1.009   0.308  0.0677 -0.7306 -0.2231
  728SOL    HW1 2642   2.820   1.099   0.287 -1.5168 -0.3901 -0.8029
  728SOL    HW2 2643   2.844   0.989   0.388 -1.3446  1.5641  1.3752
  729SOL     OW 2644   3.147   2.570   2.265 -0.5102  0.0463  0.5661
  729SOL    HW1 2645   3.057   2.597   2.279 -0.9800 -0.9639 -0.3873
  729SOL    HW2 2646   3.147   2.525   2.181  1.4332  2.3661 -0.8232
  730SOL     OW 2647   3.135   1.425   0.076  0.2736  0.5719 -0.5274
  730SOL    HW1 2648   3.087   1.366   0.017  0.8517  0.2374 -0.6761
  730SOL    HW2 2649   3.121   1.512   0.040  1.8030  0.2426 -2.0367
  731SOL     OW 2650   5.750   4.470   1.891 -0.8089 -0.2838 -0.2300
  731SOL    HW1 2651   5.753   4.428   1.804 -1.0254 -2.0644  0.5666
  731SOL    HW2 2652   5.657   4.470   1.914 -0.5516 -2.1774  1.0290
  732SOL     OW 2653   1.398   0.632   1.500 -0.4502  0.3044 -0.3336
  732SOL    HW1 2654   1.352   0.561   1.456 -2.8166  2.1948 -1.1637
  732SOL    HW2 2655   1.385   0.708   1.442  0.0290  1.9156  1.5705
  733SOL     OW 2656   2.711   3.566   2.721  0.1010  0.0431  0.2853
  733SOL    HW1 2657   2.645   3.635   2.731  0.7930  0.7759 -0.1223
  733SOL    HW2 2658   2.763   3.571   2.801 -0.1709 -0.3694  0.4936
  734SOL     OW 2659   5.689   3.947   0.109  0.2834 -0.1357 -0.7123
  734SOL    HW1 2660   5.673   3.968   0.017 -1.3723  1.7252 -0.0627
  734SOL    HW2 2661   5.605   3.958   0.152  1.4671  1.4037  1.4329
  735SOL     OW 2662   6.090   3.572   3.153 -0.3271  0.3074 -0.3765
  735SOL    HW1 2663   6.049   3.554   3.068 -1.0929  1.1988 -0.2059
  735SOL    HW2 2664   6.150   3.644   3.135  0.0938 -0.0247 -0.3171
  736SOL     OW 2665   2.709   1.137   1.198 -0.0393  0.4058 -0.5495
  736SOL    HW1 2666   2.711   1.227   1.228 -1.5417  0.5058 -0.6627
  736SOL    HW2 2667   2.738   1.086   1.274 -1.1287  0.8506  0.1918
  737SOL     OW 2668   2.879   3.435   3.765  0.0239 -0.3012 -0.2111
  737SOL    HW1 2669   2.887   3.456   3.858  0.1866 -0.6032 -0.1561
  737SOL    HW2 2670   2.858   3.342   3.763 -1.8465  0.0761 -0.4104
  738SOL     OW 2671   0.923   3.284   0.385 -0.3158 -0.0153  0.0755
  738SOL    HW1 2672   0.906   3.371   0.350  0.7353 -0.0468 -0.5563
  738SOL    HW2 2673   0.836   3.248   0.403 -0.7295  1.7055  1.7620
  739SOL     OW 2674   3.569   4.608   0.844 -0.3452 -0.0702 -0.1358
  739SOL    HW1 2675   3.503   4.674   0.821  0.7444  0.9703 -0.3734
  739SOL    HW2 2676   3.570   4.549   0.769  0.2424  0.9383 -0.9533
  740SOL     OW 2677   0.363   1.149   2.135  0.1708 -0.0847  0.0336
  740SOL    HW1 2678   0.385   1.169   2.044 -0.9449 -0.8387 -0.4214
  740SOL    HW2 2679   0.416   1.071   2.156  2.8089  1.8341  1.0880
  741SOL     OW 2680   0.914   0.019   3.108  0.1972  0.3404  0.7116
  741SOL    HW1 2681   0.950  -0.028   3.033  0.0377  1.3086 -0.0023
  741SOL    HW2 2682   0.929  -0.038   3.183  1.8670  0.0761  0.2040
  742SOL     OW 2683   2.378   1.518   2.582  0.0540 -0.1276 -0.9353
  742SOL    HW1 2684   2.364   1.544   2.673  0.8945 -1.0919 -0.5108
  742SOL    HW2 2685   2.412   1.597   2.539 -0.3826  0.3443 -0.4223
  743SOL     OW 2686   0.317   2.672   3.468  0.6593 -0.0858  0.1986
  743SOL    HW1 2687   0.321   2.738   3.538 -2.3848 -1.0653  1.4396
  743SOL    HW2 2688   0.372   2.708   3.398  0.5415  2.9093  1.5117
  744SOL     OW 2689   3.800   0.850   0.515 -0.5462 -0.3681  0.1334
  744SOL    HW1 2690   3.859   0.923   0.537 -2.3129  1.2579 -0.2377
  744SOL    HW2 2691   3.799   0.795   0.593 -0.9968  1.3049  1.3618
  745SOL     OW 2692   0.049   2.473   5.298 -0.1826 -0.6419 -0.5461
  745SOL    HW1 2693   0.090   2.550   5.338 -0.2436 -0.4768 -0.7933
  745SOL    HW2 2694  -0.044   2.495   5.296 -0.0671 -0.1911 -1.7416
  746SOL     OW 2695   4.370   1.061   5.709 -0.1506 -0.3452  0.3987
  746SOL    HW1 2696   4.464   1.074   5.698  0.0102  1.4962  3.0977
  746SOL    HW2 2697   4.360   1.029   5.799 -2.1352  0.3039  0.4699
  747SOL     OW 2698   0.248   1.525   1.321 -0.3245 -0.5719  0.0871
  747SOL    HW1 2699   0.173   1.583   1.310  0.0179  0.1093  1.2072
  747SOL    HW2 2700   0.324   1.582   1.316  0.0179 -0.9164  1.1162
  748SOL     OW 2701   4.694   5.161   4.176 -0.3761  0.3097 -0.6815
  748SOL    HW1 2702   4.634   5.135   4.246  1.6537  0.1374  1.1239
  748SOL    HW2 2703   4.781   5.150   4.215  0.9090 -0.9106 -3.6464
  749SOL     OW 2704   4.526   2.735   0.092  0.4556  0.1774  0.0085
  749SOL    HW1 2705   4.493   2.647   0.076 -1.2330  0.4756  1.5488
  749SOL    HW2 2706   4.611   2.737   0.047 -0.4649 -1.4584 -1.9686
  750SOL     OW 2707   1.247   0.358   0.969  0.1660 -0.1871 -0.2425
  750SOL    HW1 2708   1.302   0.291   1.011  2.1271  0.8611 -0.9930
  750SOL    HW2 2709   1.173   0.309   0.932  1.2358 -1.8691 -0.2604
  751SOL     OW 2710   1.326   0.854   1.347  0.0691  0.0956  0.9828
  751SOL    HW1 2711   1.365   0.912   1.281  2.4821 -0.1834  2.0339
  751SOL    HW2 2712   1.236   0.884   1.355 -0.8005 -0.7646 -3.3700
  752SOL     OW 2713   5.907   5.762   1.186  0.0845  0.5683 -0.1180
  752SOL    HW1 2714   5.897   5.847   1.142 -0.1711  0.2898 -0.6037
  752SOL    HW2 2715   5.889   5.697   1.118 -1.6379  0.1439  0.6892
  753SOL     OW 2716   5.506   5.218   2.092 -0.0379 -0.1197  0.2833
  753SOL    HW1 2717   5.412   5.232   2.085  0.3003  1.8076 -1.2923
  753SOL    HW2 2718   5.520   5.127   2.065 -1.2919  0.0775 -1.0902
  754SOL     OW 2719   6.340   2.210   3.842 -0.2035  0.7942 -0.1398
  754SOL    HW1 2720   6.340   2.201   3.747  0.2663 -1.2316  0.0014
  754SOL    HW2 2721   6.248   2.210   3.867 -0.3143 -0.2663 -0.4995
  755SOL     OW 2722   5.363   2.553   4.896  0.2659 -0.2702 -0.0088
  755SOL    HW1 2723   5.389   2.557   4.988  3.4351 -1.6764 -0.7213
  755SOL    HW2 2724   5.344   2.460   4.880  0.2863 -0.1346 -0.9077
  756SOL     OW 2725   5.860   3.605   0.678  0.0900  0.5413  0.0024
  756SOL    HW1 2726   5.782   3.658   0.696  0.7169  1.3045  0.5528
  756SOL    HW2 2727   5.864   3.542   0.750 -0.0233  0.4981 -0.0296
  757SOL     OW 2728   3.003   0.284   3.445 -0.3359 -0.3550  0.2931
  757SOL    HW1 2729   2.992   0.190   3.433 -2.2055 -0.3696  1.6446
  757SOL    HW2 2730   2.914   0.316   3.461  0.1369  1.7955 -1.0523
  758SOL     OW 2731   1.151   5.480   3.748 -0.1276  0.6460 -0.4511
  758SOL    HW1 2732   1.071   5.428   3.745  0.1624  0.2192 -0.9501
  758SOL    HW2 2733   1.220   5.419   3.722  0.5713  0.6114  1.2939
  759SOL     OW 2734   4.164   5.656   2.271  0.2711  0.0393 -0.3651
  759SOL    HW1 2735   4.242   5.702   2.300  1.5479 -2.1455 -0.0996
  759SOL    HW2 2736   4.096   5.723   2.268  2.2877  2.1772 -1.3176
  760SOL     OW 2737   4.205   3.303   0.069 -1.1441  0.1383  0.2012
  760SOL    HW1 2738   4.186   3.247  -0.006  0.1090 -1.4506  1.0110
  760SOL    HW2 2739   4.125   3.301   0.121 -0.9349 -1.4334  0.5150
  761SOL     OW 2740   1.994   1.386   6.302 -0.1170  0.1726 -0.4237
  761SOL    HW1 2741   1.955   1.306   6.337  0.3810 -0.6555 -1.7035
  761SOL    HW2 2742   1.955   1.397   6.216  0.8395  0.5401 -0.8299
  762SOL     OW 2743   5.277   1.010   1.908 -0.0159  0.1538 -0.1130
  762SOL    HW1 2744   5.286   0.947   1.837  1.3608 -1.0577  1.0666
  762SOL    HW2 2745   5.338   0.978   1.975 -1.7507  0.8600  1.8743
  763SOL     OW 2746   1.267   5.044   0.579 -1.0505  0.0216 -0.6798
  763SOL    HW1 2747   1.229   4.971   0.628  1.4472 -3.1633 -2.9920
  763SOL    HW2 2748   1.226   5.037   0.492 -1.2254  1.8583 -0.7775
  764SOL     OW 2749   3.132   5.725   0.758  0.7533 -0.0727 -0.5195
  764SOL    HW1 2750   3.039   5.711   0.775  0.1641  0.4415 -2.9350
  764SOL    HW2 2751   3.161   5.781   0.829  0.6483 -4.3727  3.4298
  765SOL     OW 2752   6.099   0.389   3.104  0.3072 -0.3935 -0.2262
  765SOL    HW1 2753   6.047   0.311   3.082 -0.1935 -0.6508  1.6240
  765SOL    HW2 2754   6.034   0.455   3.127  0.7603  0.1396 -0.4617
  766SOL     OW 2755   1.423   4.407   0.612  0.0194 -0.1006 -0.4027
  766SOL    HW1 2756   1.509   4.426   0.575  0.2313 -1.3935 -0.6089
  766SOL    HW2 2757   1.419   4.459   0.692  1.5369 -1.0054  0.3015
  767SOL     OW 2758   1.571   5.993   2.980  0.0201 -0.9922  0.0021
  767SOL    HW1 2759   1.537   6.049   3.050  2.7653  0.5623  0.2250
  767SOL    HW2 2760   1.553   5.904   3.011 -0.0736 -0.3274  2.0488
  768SOL     OW 2761   0.627   2.814   0.616  0.0652 -0.2992 -0.0579
  768SOL    HW1 2762   0.722   2.824   0.618 -0.0463  1.5352 -1.4463
  768SOL    HW2 2763   0.593   2.904   0.616 -1.7264 -0.9108  1.4161
  769SOL     OW 2764   4.641   3.166   2.377  0.1064  0.3372  0.3418
  769SOL    HW1 2765   4.581   3.130   2.313 -0.2009  2.3662 -0.6011
  769SOL    HW2 2766   4.585   3.203   2.445  0.3308  0.7477  0.3099
  770SOL     OW 2767   2.624   3.009   1.786  0.5891 -0.1595  0.0410
  770SOL    HW1 2768   2.595   2.944   1.722 -0.7930 -0.3232  0.8054
  770SOL    HW2 2769   2.712   2.981   1.810  1.5203  0.4110 -2.4194
  771SOL     OW 2770   4.324   1.379   1.498  0.0252  0.0691 -0.0569
  771SOL    HW1 2771   4.405   1.430   1.496  0.6372 -0.9120 -1.2077
  771SOL    HW2 2772   4.266   1.424   1.436 -0.1288  0.4583  0.3633
  772SOL     OW 2773   1.887   6.033   1.814  0.1417  0.0614  0.3962
  772SOL    HW1 2774   1.887   6.098   1.885  0.0336 -0.3416  0.7658
  772SOL    HW2 2775   1.862   5.951   1.856  0.6742 -0.3089  0.0063
  773SOL     OW 2776   3.059   4.804   0.475  0.2927 -0.6943 -0.0063
  773SOL    HW1 2777   3.046   4.798   0.380 -2.3708  0.6707  0.1806
  773SOL    HW2 2778   3.120   4.877   0.485  1.2247 -1.3505 -0.6563
  774SOL     OW 2779   3.394   3.520   0.022  0.3603 -0.1481 -0.2856
  774SOL    HW1 2780   3.464   3.525   0.087  0.7644 -0.0392 -0.7177
  774SOL    HW2 2781   3.321   3.480   0.068  1.1090 -1.4081 -0.1361
  775SOL     OW 2782   5.115   4.902   2.366 -0.2058  0.3130 -0.3915
  775SOL    HW1 2783   5.068   4.943   2.439 -0.9019  0.5625 -0.9669
  775SOL    HW2 2784   5.083   4.812   2.365 -1.4987  0.7508 -1.4292
  776SOL     OW 2785   3.914   4.419   4.038  0.3188  0.2320  0.0449
  776SOL    HW1 2786   3.957   4.498   4.006  0.6948  0.8772  1.9958
  776SOL    HW2 2787   3.984   4.366   4.075 -0.0437 -0.6542 -0.4980
  777SOL     OW 2788   0.802   3.182   4.303 -0.0676  0.3479  0.2676
  777SOL    HW1 2789   0.843   3.100   4.278  0.0179 -0.1097  1.8144
  777SOL    HW2 2790   0.713   3.159   4.328 -0.3307  0.8686 -0.1669
  778SOL     OW 2791   6.272   1.740   5.549  0.4957 -0.1213  0.0898
  778SOL    HW1 2792   6.181   1.736   5.518 -0.3003 -0.2130  2.2913
  778SOL    HW2 2793   6.271   1.695   5.633  1.6607  3.3380  2.1747
  779SOL     OW 2794   0.565   5.203   0.892 -0.2188  0.2991 -0.2127
  779SOL    HW1 2795   0.531   5.273   0.837  0.7163  0.9770  0.0508
  779SOL    HW2 2796   0.612   5.146   0.831 -0.8165 -0.0115 -0.3961
  780SOL     OW 2797   4.257   0.998   2.131 -0.0606  0.1237 -0.1291
  780SOL    HW1 2798   4.196   0.939   2.176  1.5257 -0.9453  0.7488
  780SOL    HW2 2799   4.338   0.947   2.123  0.8605  1.6229 -0.8635
  781SOL     OW 2800   4.573   3.570   0.267 -0.2260  0.0063  0.7163
  781SOL    HW1 2801   4.538   3.498   0.215  0.1045  1.0481 -1.0200
  781SOL    HW2 2802   4.513   3.642   0.252  0.2686  0.5338  1.2225
  782SOL     OW 2803   6.225   3.676   4.326 -0.4433 -0.0463  0.2400
  782SOL    HW1 2804   6.318   3.694   4.337 -0.5047  1.1722 -1.0024
  782SOL    HW2 2805   6.191   3.669   4.415  0.8226 -0.5045  0.7091
  783SOL     OW 2806   2.901   6.101   4.167  0.3074  0.0565 -0.5632
  783SOL    HW1 2807   2.875   6.011   4.144 -1.7281  0.4539 -0.0202
  783SOL    HW2 2808   2.821   6.152   4.157  1.6953  2.0842 -2.0066
  784SOL     OW 2809   4.925   3.544   0.827  0.3666  0.2520 -0.0030
  784SOL    HW1 2810   4.856   3.599   0.863 -0.3242 -0.0589 -0.7953
  784SOL    HW2 2811   4.879   3.466   0.796  0.6280  1.1148 -2.8805
  785SOL     OW 2812   1.175   4.242   4.269 -0.1215  0.4923  0.2060
  785SOL    HW1 2813   1.082   4.265   4.259 -0.3678 -0.9463 -1.1734
  785SOL    HW2 2814   1.174   4.149   4.292  0.9966  0.0477 -1.3811
  786SOL     OW 2815   4.929   5.262   2.407  0.2448 -0.1929 -0.0834
  786SOL    HW1 2816   4.901   5.265   2.315  1.8498  0.1127 -0.5992
  786SOL    HW2 2817   4.914   5.351   2.439  0.0185 -0.1999 -0.1728
  787SOL     OW 2818   0.861   3.577   4.721 -0.5067  0.1022  0.3567
  787SOL    HW1 2819   0.905   3.662   4.729  1.8220 -0.9199 -0.6916
  787SOL    HW2 2820   0.771   3.594   4.747 -0.3022  3.0588 -0.5395
  788SOL     OW 2821   4.700   3.695   1.554  0.3072 -0.2543  0.1792
  788SOL    HW1 2822   4.697   3.601   1.537 -0.0517 -0.6562  2.1800
  788SOL    HW2 2823   4.626   3.711   1.612  0.7542  1.1462  0.3955
  789SOL     OW 2824   3.260   2.045   4.935 -0.2303  0.6603 -0.6980
  789SOL    HW1 2825   3.276   2.140   4.939 -0.3799  0.6970 -0.9785
  789SOL    HW2 2826   3.249   2.026   4.842 -0.1517  0.3567 -0.6463
  790SOL     OW 2827   3.700   2.923   1.360  0.1121  0.3692 -0.4639
  790SOL    HW1 2828   3.763   2.855   1.382  1.7184  2.1404  0.7736
  790SOL    HW2 2829   3.682   2.910   1.267  1.0167 -1.2224 -0.4469
  791SOL     OW 2830   2.335   4.141   4.269 -0.3210  0.0119 -0.0638
  791SOL    HW1 2831   2.395   4.211   4.244  1.0755 -0.8299  0.8074
  791SOL    HW2 2832   2.362   4.066   4.217  0.4302 -0.8063  1.4307
  792SOL     OW 2833   1.499   3.419   5.867  0.2434 -0.1924  0.0451
  792SOL    HW1 2834   1.413   3.431   5.826  0.3523 -0.9634 -0.4385
  792SOL    HW2 2835   1.479   3.380   5.952  0.1719 -3.0905 -1.1633
  793SOL     OW 2836   5.319   5.174   6.038 -0.2832  0.1198  0.6910
  793SOL    HW1 2837   5.321   5.256   5.987 -0.6393  0.0831  0.6197
  793SOL    HW2 2838   5.405   5.171   6.080 -0.2561  0.5189  0.6732
  794SOL     OW 2839   0.428   4.479   0.346 -0.3141  0.5780 -0.6244
  794SOL    HW1 2840   0.463   4.390   0.346  3.1244  1.7758 -1.0201
  794SOL    HW2 2841   0.417   4.501   0.439  2.3359  0.8672 -0.3042
  795SOL     OW 2842   6.111   2.863   2.864  0.8251  0.8924 -0.0544
  795SOL    HW1 2843   6.201   2.849   2.893  0.4692 -1.2590  0.1460
  795SOL    HW2 2844   6.061   2.878   2.945  1.2425  4.0477 -0.2778
  796SOL     OW 2845   2.925   0.569   0.896 -0.4196 -0.0225 -0.3162
  796SOL    HW1 2846   2.965   0.578   0.810 -1.2297  3.4899 -0.4883
  796SOL    HW2 2847   2.832   0.562   0.878 -0.4477 -1.1660  0.2453
  797SOL     OW 2848   0.040   0.496   4.003  0.2295 -0.1439 -0.0056
  797SOL    HW1 2849   0.090   0.416   3.988  1.7036  0.3709  1.8777
  797SOL    HW2 2850   0.106   0.564   4.017 -0.9993  1.1439 -0.2045
  798SOL     OW 2851   3.666   2.329   2.084  0.9961 -0.6771  0.2708
  798SOL    HW1 2852   3.695   2.268   2.016  1.1063 -0.9748  0.5800
  798SOL    HW2 2853   3.618   2.275   2.147 -2.6543  0.1710 -1.5311
  799SOL     OW 2854   4.757   2.252   6.016  0.0740  1.0591 -0.2013
  799SOL    HW1 2855   4.796   2.194   5.951  0.2123  1.9343 -0.9034
  799SOL    HW2 2856   4.663   2.235   6.009  0.1964 -0.0231  0.5163
  800SOL     OW 2857   0.440   2.808   2.186 -0.5154 -0.2100  0.6262
  800SOL    HW1 2858   0.361   2.821   2.237  0.0294  1.3612  1.1300
  800SOL    HW2 2859   0.511   2.838   2.243  0.0194  2.7196 -1.3283
  801SOL     OW 2860   6.353   0.820   4.502 -0.1560  0.1107 -0.4729
  801SOL    HW1 2861   6.427   0.803   4.560 -1.1131 -1.2568  0.4144
  801SOL    HW2 2862   6.386   0.799   4.414 -0.0594 -2.7023  0.1388
  802SOL     OW 2863   0.027   2.225   5.957 -0.1345  0.3359 -0.1860
  802SOL    HW1 2864  -0.054   2.203   6.005  0.5858  0.6782  1.2554
  802SOL    HW2 2865   0.024   2.170   5.879  0.3654 -3.1361  2.0231
  803SOL     OW 2866   3.139   5.603   4.904  0.6660  0.2051 -0.0381
  803SOL    HW1 2867   3.205   5.560   4.850 -0.9886 -0.9355 -1.2344
  803SOL    HW2 2868   3.119   5.540   4.973 -0.6205 -0.3952 -0.8933
  804SOL     OW 2869   0.588   2.324   0.563 -0.4064  0.2163  0.4056
  804SOL    HW1 2870   0.545   2.409   0.564 -1.0719 -0.1157  0.6339
  804SOL    HW2 2871   0.681   2.344   0.551 -0.7167  0.9103 -1.1366
  805SOL     OW 2872   1.455   2.379   3.293  0.0680  0.2479 -0.0952
  805SOL    HW1 2873   1.463   2.440   3.220 -0.0534 -0.6925 -0.9038
  805SOL    HW2 2874   1.538   2.387   3.340  0.9061 -0.4962 -1.4109
  806SOL     OW 2875   3.631   5.658   0.468 -0.2237 -0.3307 -0.4584
  806SOL    HW1 2876   3.648   5.610   0.387 -0.1738  0.3758 -0.8797
  806SOL    HW2 2877   3.714   5.657   0.515 -0.1924 -0.5570 -0.5196
  807SOL     OW 2878   5.018   3.639   5.492 -0.5611 -0.0141  0.3243
  807SOL    HW1 2879   4.947   3.703   5.496 -0.1659  0.5682 -1.3214
  807SOL    HW2 2880   4.975   3.557   5.468 -0.6836  0.3449 -0.7102
  808SOL     OW 2881   3.216   2.042   0.202  0.1364 -0.3178 -1.0404
  808SOL    HW1 2882   3.265   2.054   0.121 -1.2194 -0.6672 -1.9247
  808SOL    HW2 2883   3.124   2.045   0.176 -0.3341  0.1459  0.5658
  809SOL     OW 2884   5.335   4.329   6.199  0.6016 -0.0107 -0.3436
  809SOL    HW1 2885   5.330   4.423   6.217  0.6635  0.0079 -0.4275
  809SOL    HW2 2886   5.427   4.307   6.208  0.7390  0.1305 -1.3054
  810SOL     OW 2887   0.624   3.574   5.664  0.2935  0.4076  0.0648
  810SOL    HW1 2888   0.672   3.492   5.655 -0.7058 -0.7266  3.3237
  810SOL    HW2 2889   0.661   3.615   5.742 -0.7249  1.9636 -0.2149
  811SOL     OW 2890   1.178   3.191   2.634 -0.5517 -0.1517 -0.1109
  811SOL    HW1 2891   1.203   3.121   2.574  0.2868 -1.6752  1.8658
  811SOL    HW2 2892   1.110   3.240   2.588  0.1362 -1.1316 -2.2997
  812SOL     OW 2893   5.843   0.859   0.735  0.1500 -0.1421  0.4104
  812SOL    HW1 2894   5.870   0.773   0.705  1.7242 -0.2815  2.0606
  812SOL    HW2 2895   5.768   0.843   0.792 -0.2623 -0.2842 -0.1642
  813SOL     OW 2896   3.824   1.325   5.503  0.1588  0.1714 -0.1672
  813SOL    HW1 2897   3.765   1.348   5.576 -1.8916 -1.7425 -1.0878
  813SOL    HW2 2898   3.784   1.366   5.427 -0.3545 -1.6080 -0.9015
  814SOL     OW 2899   2.175   4.045   1.674 -0.0449 -0.6137 -0.1022
  814SOL    HW1 2900   2.122   4.019   1.750  0.6970 -0.3816  0.5043
  814SOL    HW2 2901   2.133   4.126   1.643  0.5267  0.1322  0.9954
  815SOL     OW 2902   4.371   1.433   2.530 -0.9328 -0.0869 -0.3255
  815SOL    HW1 2903   4.291   1.486   2.525 -1.0552 -0.2883 -0.5397
  815SOL    HW2 2904   4.341   1.347   2.561 -0.3948  0.6974  2.6747
  816SOL     OW 2905   5.769   1.658   2.085 -0.1588  0.5035 -0.4044
  816SOL    HW1 2906   5.723   1.725   2.035  1.8445  2.2423 -0.1205
  816SOL    HW2 2907   5.733   1.665   2.174  0.7032  2.0027 -0.1299
  817SOL     OW 2908   1.622   4.896   1.529  0.1330 -0.3821 -0.0667
  817SOL    HW1 2909   1.594   4.818   1.577  2.1376 -0.8706  0.4001
  817SOL    HW2 2910   1.653   4.862   1.445 -0.9577  0.1905 -0.7312
  818SOL     OW 2911   1.405   2.093   3.014 -0.1656  0.4061  0.5650
  818SOL    HW1 2912   1.354   2.110   3.093 -1.5600 -1.2710  0.0969
  818SOL    HW2 2913   1.489   2.060   3.046 -0.5956  0.0598  1.3652
  819SOL     OW 2914   5.435   2.630   2.658 -0.0461  0.0748 -0.2718
  819SOL    HW1 2915   5.447   2.546   2.702  1.5927 -0.1549 -1.0719
  819SOL    HW2 2916   5.516   2.678   2.676  0.3328  0.2888 -2.3089
  820SOL     OW 2917   5.379   1.416   3.203 -0.1935 -0.2484  0.1229
  820SOL    HW1 2918   5.432   1.466   3.140  0.2067 -0.0607  0.5996
  820SOL    HW2 2919   5.437   1.346   3.233 -0.2188 -0.0521  0.6364
  821SOL     OW 2920   2.214   0.539   4.008 -0.2347  0.1450 -0.5392
  821SOL    HW1 2921   2.297   0.586   4.012 -0.2278  0.3360 -2.3336
  821SOL    HW2 2922   2.160   0.580   4.075  0.6562  0.9406 -0.2915
  822SOL     OW 2923   5.666   3.076   1.199 -0.0956  0.0963  0.3972
  822SOL    HW1 2924   5.714   3.014   1.254  0.1644  0.3582  0.4700
  822SOL    HW2 2925   5.574   3.055   1.213 -0.0155 -0.1248  0.5936
  823SOL     OW 2926   0.412   6.304   1.140 -0.1660 -1.0328 -0.3789
  823SOL    HW1 2927   0.406   6.399   1.143 -0.3911 -0.9801 -1.6325
  823SOL    HW2 2928   0.413   6.276   1.231 -0.8329  0.1228 -0.0015
  824SOL     OW 2929   0.926   4.660   1.144 -0.0636  0.0587  0.9351
  824SOL    HW1 2930   0.876   4.717   1.202  1.7091  1.5116  1.1175
  824SOL    HW2 2931   1.003   4.634   1.196  1.1958  0.7989 -0.4714
  825SOL     OW 2932   0.224   6.298   5.894 -0.3914  0.4230  0.7120
  825SOL    HW1 2933   0.213   6.273   5.802  0.1262  1.4546  0.3569
  825SOL    HW2 2934   0.164   6.240   5.942 -0.8543  0.0488 -0.2941
  826SOL     OW 2935   2.210   5.451   5.135 -0.0760 -0.7260 -0.0438
  826SOL    HW1 2936   2.300   5.475   5.158 -0.0765 -0.7378 -0.0296
  826SOL    HW2 2937   2.211   5.443   5.040  0.4379 -2.6489  0.0695
  827SOL     OW 2938   4.668   0.388   2.784  0.2669  0.3022 -0.2252
  827SOL    HW1 2939   4.749   0.434   2.764  0.0948  0.3117 -0.9162
  827SOL    HW2 2940   4.672   0.372   2.879  0.7717  0.8698 -0.1472
  828SOL     OW 2941   3.071   3.125   1.516 -0.2992 -0.1753 -0.0566
  828SOL    HW1 2942   2.981   3.157   1.515 -0.5505 -0.6710  1.8411
  828SOL    HW2 2943   3.112   3.170   1.591  0.5404 -1.1449  0.0910
  829SOL     OW 2944   2.095   6.251   5.581 -0.6884  0.3323 -0.4136
  829SOL    HW1 2945   2.099   6.262   5.676  1.6117 -0.8560 -0.3142
  829SOL    HW2 2946   2.062   6.162   5.568  1.5728 -0.5534 -0.5826
  830SOL     OW 2947   0.954   0.756   4.373 -0.5826  0.0488 -0.1687
  830SOL    HW1 2948   1.001   0.826   4.327  0.0564  0.7254  1.4483
  830SOL    HW2 2949   1.023   0.700   4.407 -1.0257 -0.1924  0.3358
  831SOL     OW 2950   5.208   0.167   0.026 -0.0130 -0.3467  0.1661
  831SOL    HW1 2951   5.232   0.221   0.101 -1.1633 -0.5567  0.7091
  831SOL    HW2 2952   5.258   0.087   0.037  1.4363  0.4273 -0.4552
  832SOL     OW 2953   1.272   0.042   0.727 -0.3365 -0.0519  0.5302
  832SOL    HW1 2954   1.272  -0.024   0.657 -1.7720 -1.9173  2.1723
  832SOL    HW2 2955   1.323   0.001   0.798  1.4527  1.9710  0.5205
  833SOL     OW 2956   4.566   3.056   3.860  0.0567 -0.4554 -0.8954
  833SOL    HW1 2957   4.610   3.018   3.936  1.3108 -1.2035 -1.9503
  833SOL    HW2 2958   4.536   2.980   3.809  0.5985 -0.0344 -1.8897
  834SOL     OW 2959   5.925   0.036   3.758 -0.0224 -0.0244  0.6566
  834SOL    HW1 2960   5.960   0.125   3.760 -1.9024  0.7622  1.9802
  834SOL    HW2 2961   5.851   0.041   3.698  1.5128 -1.4372 -1.4582
  835SOL     OW 2962   0.149   0.710   0.542 -0.2144  0.2011  0.6935
  835SOL    HW1 2963   0.056   0.696   0.559 -0.3679  1.8112  1.3394
  835SOL    HW2 2964   0.158   0.695   0.448 -1.4463  1.5084  0.3274
  836SOL     OW 2965   0.016   0.096   0.830 -0.2378  0.0881  0.6282
  836SOL    HW1 2966   0.088   0.034   0.822 -1.7787 -1.6881 -0.2167
  836SOL    HW2 2967  -0.007   0.117   0.739  1.3010  3.2953  0.8388
  837SOL     OW 2968   2.211   2.037   3.572 -0.0297 -0.1701  0.1913
  837SOL    HW1 2969   2.200   2.128   3.601  2.4778  0.4091 -0.4283
  837SOL    HW2 2970   2.124   2.010   3.545 -0.8003  2.1611  0.0890
  838SOL     OW 2971   5.325   0.160   0.433  0.1022 -0.5206 -0.4183
  838SOL    HW1 2972   5.328   0.127   0.343 -0.6847 -2.8187  0.3411
  838SOL    HW2 2973   5.237   0.195   0.443  0.1477 -0.3807 -0.5077
  839SOL     OW 2974   6.152   0.361   6.107 -0.4038 -0.4354  0.2713
  839SOL    HW1 2975   6.182   0.322   6.025 -0.9951  1.3698 -0.8615
  839SOL    HW2 2976   6.074   0.411   6.082 -1.0899 -0.5269  2.1064
  840SOL     OW 2977   4.643   3.592   3.745  0.5281  0.1388  0.3090
  840SOL    HW1 2978   4.602   3.510   3.770 -0.6902  0.8860  0.9008
  840SOL    HW2 2979   4.721   3.567   3.696 -0.0565 -1.3547  0.1035
  841SOL     OW 2980   5.975   0.920   3.485  0.0116  0.5083  0.1981
  841SOL    HW1 2981   5.893   0.911   3.436 -0.3529 -0.3063  0.9245
  841SOL    HW2 2982   5.962   0.998   3.539  0.3083  1.2452 -0.7722
  842SOL     OW 2983   0.326   1.695   2.164  0.0000 -0.0566  0.0938
  842SOL    HW1 2984   0.245   1.671   2.120  0.1705 -0.1847 -0.1544
  842SOL    HW2 2985   0.383   1.619   2.152  0.6199  0.5481 -0.8843
  843SOL     OW 2986   6.019   4.407   1.850  0.0524 -0.3165  0.2079
  843SOL    HW1 2987   5.928   4.407   1.878 -0.1690 -1.2294 -0.4595
  843SOL    HW2 2988   6.022   4.468   1.776 -0.2626 -1.0949 -0.4657
  844SOL     OW 2989   0.227   3.353   2.741  0.3051 -0.3404  0.4779
  844SOL    HW1 2990   0.139   3.370   2.707  0.4093  0.0596  0.4072
  844SOL    HW2 2991   0.284   3.414   2.695  0.0887  2.0967  3.1491
  845SOL     OW 2992   6.245   2.720   6.287 -0.3618 -0.5557  0.8097
  845SOL    HW1 2993   6.151   2.724   6.268  0.0716  0.1712 -1.5023
  845SOL    HW2 2994   6.273   2.638   6.247 -0.1355 -1.3047  2.4089
  846SOL     OW 2995   4.833   4.415   0.992  0.4417 -0.0987  0.1956
  846SOL    HW1 2996   4.765   4.348   1.001 -0.1872  0.5237  0.2082
  846SOL    HW2 2997   4.903   4.372   0.943  0.3804 -0.9967  0.8751
  847SOL     OW 2998   2.243   4.240   2.127  0.3894  0.2261  0.0281
  847SOL    HW1 2999   2.314   4.223   2.065  1.7275 -0.6330  1.7161
  847SOL    HW2 3000   2.260   4.328   2.160 -0.9128  1.1130 -1.4803
  848SOL     OW 3001   1.683   6.320   4.854  0.5393  0.4843 -0.6668
  848SOL    HW1 3002   1.625   6.365   4.916 -0.2472 -0.8009 -0.4283
  848SOL    HW2 3003   1.700   6.385   4.786  1.1750  1.8292  0.7128
  849SOL     OW 3004   0.796   1.380   4.359 -0.6188  0.1427  1.0139
  849SOL    HW1 3005   0.859   1.451   4.375  0.7436 -1.2181  1.9284
  849SOL    HW2 3006   0.714   1.412   4.397  0.0463  1.1055  1.6933
  850SOL     OW 3007   1.091   2.880   3.825 -0.1084  0.0920 -0.0552
  850SOL    HW1 3008   1.164   2.871   3.765  0.0360  1.0268 -0.0371
  850SOL    HW2 3009   1.101   2.807   3.886  0.1815 -0.4149 -0.7010
  851SOL     OW 3010   4.738   1.014   6.060 -0.0920 -0.5370 -0.3638
  851SOL    HW1 3011   4.788   1.029   6.140 -0.1416 -0.0337 -0.4269
  851SOL    HW2 3012   4.796   0.960   6.006  1.1639  1.4853 -1.1713
  852SOL     OW 3013   1.822   0.154   3.507  0.2998 -0.2539 -0.0483
  852SOL    HW1 3014   1.868   0.089   3.561  2.0902  1.1212  0.1778
  852SOL    HW2 3015   1.891   0.197   3.458 -0.9801  0.6945 -1.0782
  853SOL     OW 3016   6.290   3.411   3.806  0.0894  0.6811  0.2410
  853SOL    HW1 3017   6.219   3.402   3.869 -0.1374  3.8183  0.5915
  853SOL    HW2 3018   6.323   3.322   3.794 -1.6962 -0.4094  2.6035
  854SOL     OW 3019   3.097   0.707   1.286 -0.3015  0.1217  0.0634
  854SOL    HW1 3020   3.164   0.757   1.239 -0.3793 -1.1733 -1.5237
  854SOL    HW2 3021   3.144   0.634   1.325 -0.1585  1.4289  2.5192
  855SOL     OW 3022   4.954   4.691   1.993 -0.4037  0.2364 -0.4852
  855SOL    HW1 3023   4.955   4.615   2.052  2.3236 -1.1504 -2.0904
  855SOL    HW2 3024   4.861   4.707   1.976 -1.1542 -0.9802  2.0398
  856SOL     OW 3025   1.416   1.348   1.897  0.2478 -0.0674 -0.4411
  856SOL    HW1 3026   1.489   1.354   1.835 -0.3882 -0.1845 -1.2082
  856SOL    HW2 3027   1.425   1.262   1.937 -0.6737 -0.9571 -2.0691
  857SOL     OW 3028   4.955   1.151   4.996 -0.3142 -0.7621 -0.0775
  857SOL    HW1 3029   5.033   1.103   4.969 -0.1296 -0.7914  0.4898
  857SOL    HW2 3030   4.975   1.242   4.977 -0.4627 -0.8514 -0.6810
  858SOL     OW 3031   2.494   0.620   5.239  0.2218  0.1587 -0.1377
  858SOL    HW1 3032   2.409   0.631   5.196 -0.1497 -2.5653 -0.2862
  858SOL    HW2 3033   2.483   0.661   5.325 -1.9946 -1.8288  0.6396
  859SOL     OW 3034   3.459   5.211   2.104  0.2000  0.4669  0.5998
  859SOL    HW1 3035   3.508   5.228   2.184 -0.0683  1.3427  0.5828
  859SOL    HW2 3036   3.398   5.140   2.129  0.9683 -0.1284  0.8122
  860SOL     OW 3037   6.302   6.183   1.208  0.1250 -0.5617  0.1844
  860SOL    HW1 3038   6.335   6.102   1.245  0.7480 -1.6019 -2.4318
  860SOL    HW2 3039   6.380   6.236   1.192 -0.0258 -0.5705 -0.5963
  861SOL     OW 3040   1.701   5.908   2.501  0.2241  0.3166 -0.6043
  861SOL    HW1 3041   1.774   5.966   2.479 -0.3440  1.2343 -0.1712
  861SOL    HW2 3042   1.648   5.959   2.563 -1.6431  0.3406 -2.1287
  862SOL     OW 3043   2.414   0.464   1.261 -0.5671  0.3581  0.0766
  862SOL    HW1 3044   2.479   0.533   1.268  0.5912 -0.6912  0.0214
  862SOL    HW2 3045   2.332   0.509   1.238 -0.1068  1.8019  1.2008
  863SOL     OW 3046   4.097   6.375   2.041  0.8189  0.0523  0.2145
  863SOL    HW1 3047   4.053   6.433   1.979 -1.7905 -1.3433  0.6090
  863SOL    HW2 3048   4.159   6.325   1.988  2.9807  2.9026 -0.1693
  864SOL     OW 3049   5.667   3.991   6.229  0.0216  0.0264 -0.8826
  864SOL    HW1 3050   5.608   4.032   6.166  1.0625  1.7319 -0.7984
  864SOL    HW2 3051   5.742   3.963   6.177  0.1934  0.0197 -0.6325
  865SOL     OW 3052   5.971   5.048   1.662 -0.2631 -0.4338 -0.9888
  865SOL    HW1 3053   5.947   5.092   1.581  1.1657  0.3305 -1.0281
  865SOL    HW2 3054   6.055   5.006   1.643  1.5626  2.0650  0.8013
  866SOL     OW 3055   1.503   3.434   1.089 -0.6792 -0.7397 -0.4426
  866SOL    HW1 3056   1.410   3.419   1.071 -1.2450 -0.7348  2.1309
  866SOL    HW2 3057   1.546   3.354   1.057 -1.5255 -0.7167 -1.7255
  867SOL     OW 3058   4.098   5.390   2.273 -0.3549 -0.1393 -0.1432
  867SOL    HW1 3059   4.104   5.485   2.290  0.6610 -0.1244 -0.5022
  867SOL    HW2 3060   4.170   5.373   2.212  0.1409 -1.3221  0.7404
  868SOL     OW 3061   0.531   3.791   2.201 -0.3225  0.1713  0.8879
  868SOL    HW1 3062   0.490   3.783   2.115  1.3357  0.6505 -0.0002
  868SOL    HW2 3063   0.577   3.875   2.198  0.7528 -0.3595  1.7818
  869SOL     OW 3064   3.012   3.013   5.228  0.3033 -0.1198  0.4076
  869SOL    HW1 3065   2.959   2.956   5.284  1.3250 -0.5341  0.9796
  869SOL    HW2 3066   2.987   3.101   5.254 -0.6631 -0.3000  0.1264
  870SOL     OW 3067   1.237   4.843   1.832 -0.4202  0.4605 -0.3711
  870SOL    HW1 3068   1.201   4.911   1.889 -2.0351 -1.0473  0.5621
  870SOL    HW2 3069   1.196   4.858   1.747  0.4020  1.5109 -0.5957
  871SOL     OW 3070   4.858   3.762   0.146  0.5747 -0.0113 -0.0075
  871SOL    HW1 3071   4.862   3.757   0.242 -0.2056 -0.4153  0.0127
  871SOL    HW2 3072   4.914   3.837   0.124  1.3031 -0.3262  0.7111
  872SOL     OW 3073   3.811   4.629   0.996  0.0459 -0.4138  0.0066
  872SOL    HW1 3074   3.856   4.685   0.933  1.1560 -0.2696  0.8834
  872SOL    HW2 3075   3.719   4.633   0.970  0.1414  1.4924 -0.2333
  873SOL     OW 3076   4.436   3.312   6.234 -0.0512 -0.0661  0.3078
  873SOL    HW1 3077   4.434   3.335   6.327 -0.0557  2.1502 -0.1862
  873SOL    HW2 3078   4.352   3.270   6.218 -1.0025  1.5166  0.8865
  874SOL     OW 3079   6.011   5.982   1.464  0.2692 -0.3156  0.1267
  874SOL    HW1 3080   6.021   5.908   1.523  1.7020  0.5674  1.0643
  874SOL    HW2 3081   6.074   6.047   1.497 -1.8709  1.8669  0.2083
  875SOL     OW 3082   1.345   1.995   6.043  0.0159 -0.5665  0.3314
  875SOL    HW1 3083   1.393   1.929   5.994  2.1354  0.7331  0.5579
  875SOL    HW2 3084   1.378   1.988   6.133 -1.9066 -1.1422  1.0562
  876SOL     OW 3085   2.490   6.200   4.312  0.3407  0.0570  0.6788
  876SOL    HW1 3086   2.566   6.147   4.335  0.6311  0.4425  0.6285
  876SOL    HW2 3087   2.526   6.270   4.257 -0.6367 -2.2915 -3.3310
  877SOL     OW 3088   4.247   2.968   5.647 -0.0722 -0.1613 -0.0315
  877SOL    HW1 3089   4.207   2.944   5.564  0.0566  1.1664 -0.4936
  877SOL    HW2 3090   4.269   3.061   5.638 -1.3709  0.4111  2.0111
  878SOL     OW 3091   1.803   3.067   2.005  0.2305 -0.0164 -0.0439
  878SOL    HW1 3092   1.851   3.063   2.087 -0.4922  3.5947  0.7551
  878SOL    HW2 3093   1.845   3.137   1.956 -1.0414 -0.2533 -1.5657
  879SOL     OW 3094   3.492   6.278   2.407 -0.1883  0.2021  0.0966
  879SOL    HW1 3095   3.522   6.198   2.365 -0.4990 -0.3090  0.8440
  879SOL    HW2 3096   3.409   6.255   2.448 -0.5965  1.0688 -0.2081
  880SOL     OW 3097   2.515   1.048   2.311 -0.6444 -0.1003  0.1107
  880SOL    HW1 3098   2.582   1.095   2.263 -0.6443  0.9935  1.1344
  880SOL    HW2 3099   2.468   0.998   2.244  0.1505  0.3826 -0.8308
  881SOL     OW 3100   5.701   4.069   1.245  0.0141  0.3648 -0.1738
  881SOL    HW1 3101   5.691   3.974   1.251  2.3959  0.1167  1.2343
  881SOL    HW2 3102   5.616   4.104   1.269 -0.7429 -1.4089 -0.1137
  882SOL     OW 3103   3.636   2.106   5.340  0.3204 -0.0420 -0.7251
  882SOL    HW1 3104   3.706   2.167   5.319  0.7469 -0.7681 -1.4589
  882SOL    HW2 3105   3.624   2.114   5.435  2.0916 -0.6348 -0.4142
  883SOL     OW 3106   4.542   2.090   4.772  0.3991 -0.0318  0.0087
  883SOL    HW1 3107   4.614   2.131   4.820 -0.2858  1.1217  0.0856
  883SOL    HW2 3108   4.464   2.134   4.804 -0.3591 -1.2544 -0.0925
  884SOL     OW 3109   3.600   3.330   0.330 -0.2716 -0.2713  0.3852
  884SOL    HW1 3110   3.605   3.319   0.425  3.2055  0.1477  0.3820
  884SOL    HW2 3111   3.594   3.425   0.317  3.2793  0.0542  0.2827
  885SOL     OW 3112   4.967   2.853   4.949 -0.2217 -0.1209 -0.2124
  885SOL    HW1 3113   4.896   2.905   4.986 -0.2931 -0.8008  0.6302
  885SOL    HW2 3114   5.037   2.917   4.933  0.0239  0.1519  1.6353
  886SOL     OW 3115   5.320   1.209   0.035  0.6356  0.0769 -0.1653
  886SOL    HW1 3116   5.320   1.276  -0.034  2.8053  0.0871 -0.2366
  886SOL    HW2 3117   5.232   1.214   0.073  0.5560  2.6650 -0.4616
  887SOL     OW 3118   3.214   3.405   3.293  0.1462  0.6733  0.0153
  887SOL    HW1 3119   3.159   3.363   3.359 -0.9703  0.0014 -1.2935
  887SOL    HW2 3120   3.170   3.487   3.274  0.7650  1.1247  0.4683
  888SOL     OW 3121   4.304   1.318   5.880 -0.0471  0.1613  0.1185
  888SOL    HW1 3122   4.392   1.310   5.917  0.3259 -0.6468 -0.9169
  888SOL    HW2 3123   4.308   1.394   5.823 -0.3924  0.8978  1.0441
  889SOL     OW 3124   4.682   5.888   4.257 -0.5917  0.4638  0.1864
  889SOL    HW1 3125   4.749   5.918   4.196 -0.2517 -0.5279  0.0499
  889SOL    HW2 3126   4.715   5.804   4.290 -0.8095  0.9270  1.6615
  890SOL     OW 3127   1.656   3.689   3.650  0.8072 -0.1555  0.3765
  890SOL    HW1 3128   1.652   3.598   3.621  2.3778 -0.6438  1.5227
  890SOL    HW2 3129   1.636   3.686   3.743 -0.5454  0.8898  0.1501
  891SOL     OW 3130   5.845   3.679   3.700  0.2917  0.0897 -0.1729
  891SOL    HW1 3131   5.916   3.616   3.692  0.1773 -0.0433 -0.1373
  891SOL    HW2 3132   5.774   3.641   3.648  0.6410  0.7913 -1.2131
  892SOL     OW 3133   0.934   1.448   3.932 -0.4379  0.2043  0.2357
  892SOL    HW1 3134   0.937   1.504   3.855  0.9802 -1.2852 -0.8605
  892SOL    HW2 3135   0.961   1.505   4.004 -0.6421  1.3208 -0.5441
  893SOL     OW 3136   3.026   1.332   6.212  0.0407 -0.6670 -0.1103
  893SOL    HW1 3137   2.976   1.371   6.140  0.4493 -0.4496 -0.2798
  893SOL    HW2 3138   3.090   1.275   6.169  1.4931  0.8237 -0.0492
  894SOL     OW 3139   3.371   2.855   0.949  0.4436  0.4103  0.7528
  894SOL    HW1 3140   3.378   2.765   0.917 -0.8342  0.4052  0.4256
  894SOL    HW2 3141   3.461   2.881   0.967  0.8102 -1.0214  1.1125
  895SOL     OW 3142   4.438   3.826   0.841  0.2329 -0.3200  0.6327
  895SOL    HW1 3143   4.473   3.912   0.818 -0.1125 -0.1315  0.8135
  895SOL    HW2 3144   4.381   3.842   0.916 -1.8386 -0.2966 -0.8602
  896SOL     OW 3145   3.243   3.094   5.499 -0.6381 -0.0215  0.0865
  896SOL    HW1 3146   3.262   3.129   5.586 -0.1579 -0.6967  0.2628
  896SOL    HW2 3147   3.205   3.167   5.451  2.0332  1.3196 -0.1369
  897SOL     OW 3148   4.283   3.482   0.421  0.3432 -0.1126 -0.1728
  897SOL    HW1 3149   4.370   3.444   0.410 -0.1116 -1.2371 -0.0934
  897SOL    HW2 3150   4.296   3.555   0.482  1.2118 -0.3359 -0.0786
  898SOL     OW 3151   3.451   4.198   0.391 -0.0850 -0.0969 -0.1526
  898SOL    HW1 3152   3.397   4.167   0.464 -1.0320  2.0604  0.1245
  898SOL    HW2 3153   3.447   4.127   0.327 -2.3396 -0.4686  0.3320
  899SOL     OW 3154   3.967   0.596   0.094  0.0170  0.0700 -0.7789
  899SOL    HW1 3155   4.057   0.563   0.105  0.1291  0.2533 -1.1271
  899SOL    HW2 3156   3.974   0.659   0.022 -0.1789  0.9590 -0.0235
  900SOL     OW 3157   3.418   2.496   3.549  0.0579 -0.0425  0.7591
  900SOL    HW1 3158   3.466   2.450   3.618  1.4452 -0.2694 -0.3128
  900SOL    HW2 3159   3.360   2.556   3.596 -0.0716 -1.1913  2.1367
  901SOL     OW 3160   2.631   1.531   3.335 -0.1628  0.3851 -0.2311
  901SOL    HW1 3161   2.567   1.519   3.404  1.3428 -1.0700  0.9978
  901SOL    HW2 3162   2.704   1.576   3.377 -0.5927  2.7227 -1.7777
  902SOL     OW 3163   6.330   3.059   2.727  0.4564  0.3488 -0.2024
  902SOL    HW1 3164   6.277   3.053   2.647  0.3760  0.5572 -0.1651
  902SOL    HW2 3165   6.361   3.149   2.728 -1.1754  0.9359  1.0313
  903SOL     OW 3166   1.535   4.251   2.140  0.7315  0.0623  0.6606
  903SOL    HW1 3167   1.626   4.245   2.167  0.5642  0.0864  1.2345
  903SOL    HW2 3168   1.494   4.174   2.179  0.1769  0.8640  1.7150
  904SOL     OW 3169   3.646   2.434   2.481 -0.3563 -0.0062  0.1300
  904SOL    HW1 3170   3.649   2.371   2.553  1.2896  2.5184  2.5011
  904SOL    HW2 3171   3.609   2.513   2.520 -0.6214  1.1022 -2.1828
  905SOL     OW 3172   1.677   4.545   4.431 -0.3429 -0.1334  0.0227
  905SOL    HW1 3173   1.719   4.612   4.485 -0.2795 -0.3318  0.2226
  905SOL    HW2 3174   1.732   4.467   4.442  0.1981  0.0813 -1.0676
  906SOL     OW 3175   4.768   4.654   1.441  0.2961 -0.9273  0.0220
  906SOL    HW1 3176   4.741   4.571   1.481  0.4546 -0.8023  0.3992
  906SOL    HW2 3177   4.692   4.712   1.453  0.6354 -0.6461  0.8731
  907SOL     OW 3178   4.468   5.680   1.473  0.3874  0.0166 -0.3662
  907SOL    HW1 3179   4.497   5.771   1.466 -0.9846  0.4211 -1.3434
  907SOL    HW2 3180   4.541   5.628   1.440  1.8897  0.5975  1.8291
  908SOL     OW 3181   0.562   0.827   0.872  0.1713  0.2356 -0.0431
  908SOL    HW1 3182   0.635   0.769   0.895 -0.8568 -1.7331 -1.4799
  908SOL    HW2 3183   0.506   0.774   0.815 -0.3483  2.9350 -2.2757
  909SOL     OW 3184   2.431   4.614   3.286 -0.2957  0.3356  0.1633
  909SOL    HW1 3185   2.346   4.572   3.273 -0.9539  1.8234 -0.5965
  909SOL    HW2 3186   2.421   4.702   3.249  1.8233  0.2922 -0.6614
  910SOL     OW 3187   2.540   5.427   0.523  0.1219  0.4873  0.5548
  910SOL    HW1 3188   2.528   5.421   0.429 -0.1459 -0.8858  0.6657
  910SOL    HW2 3189   2.601   5.356   0.545 -1.3726 -0.5100  1.6647
  911SOL     OW 3190   1.088   0.064   4.540  0.2609  0.0357  0.8309
  911SOL    HW1 3191   1.029   0.136   4.518  0.2452  0.2494  1.5424
  911SOL    HW2 3192   1.169   0.108   4.569  0.6140 -0.2468  0.2885
  912SOL     OW 3193   2.738   2.437   2.829  0.0270  0.0463  0.2082
  912SOL    HW1 3194   2.754   2.350   2.793  2.2646  0.8753 -1.0039
  912SOL    HW2 3195   2.644   2.450   2.819 -0.3243 -2.1170  0.2137
  913SOL     OW 3196   4.749   3.717   2.205  0.0363 -0.4011  0.3432
  913SOL    HW1 3197   4.826   3.662   2.188 -0.9522 -1.9849  0.7997
  913SOL    HW2 3198   4.723   3.695   2.294  0.6862  2.2342  1.3043
  914SOL     OW 3199   0.738   2.022   3.564 -0.6572 -0.1983  0.3324
  914SOL    HW1 3200   0.767   2.110   3.541 -0.7150  0.4271  2.4047
  914SOL    HW2 3201   0.694   1.990   3.486 -1.2222  1.8842 -0.2682
  915SOL     OW 3202   4.684   1.431   2.882 -0.0870 -0.6887 -0.1241
  915SOL    HW1 3203   4.677   1.376   2.804 -2.2973 -0.6457 -0.0333
  915SOL    HW2 3204   4.604   1.412   2.931  0.5532  0.3915  1.4131
  916SOL     OW 3205   5.683   4.429   1.636 -0.3517  0.5016 -0.0182
  916SOL    HW1 3206   5.599   4.394   1.605 -0.3142  0.3894  0.0078
  916SOL    HW2 3207   5.748   4.395   1.574 -0.3381  0.6778 -0.1026
  917SOL     OW 3208   5.749   5.371   3.043 -0.6017 -0.2290 -0.1569
  917SOL    HW1 3209   5.833   5.345   3.005 -0.0446  0.6525  0.4379
  917SOL    HW2 3210   5.770   5.446   3.099 -1.6502 -0.5317  0.6698
  918SOL     OW 3211   5.739   4.411   3.566 -0.4401  0.4670 -0.0143
  918SOL    HW1 3212   5.674   4.402   3.496  0.1687 -0.6984 -0.4591
  918SOL    HW2 3213   5.817   4.367   3.532  0.1436  0.6537  1.0494
  919SOL     OW 3214   5.956   5.364   4.349  0.1483  0.7506  0.3092
  919SOL    HW1 3215   5.943   5.447   4.394  2.5806  1.2195  0.2744
  919SOL    HW2 3216   6.028   5.322   4.396 -1.0736 -1.4168  0.3879
  920SOL     OW 3217   6.025   0.031   6.207 -0.2053  0.0768  0.0126
  920SOL    HW1 3218   6.105   0.040   6.258 -1.6588 -0.1952  2.5329
  920SOL    HW2 3219   5.973   0.108   6.231  0.0732  1.4602 -3.2882
  921SOL     OW 3220   1.552   0.573   0.003 -0.0191 -0.6035  0.1427
  921SOL    HW1 3221   1.554   0.478   0.015  2.6324 -0.5329  0.7984
  921SOL    HW2 3222   1.498   0.586  -0.076 -2.4249 -2.4127  1.3611
  922SOL     OW 3223   4.830   4.944   2.307  0.3595 -0.0781  0.3784
  922SOL    HW1 3224   4.847   5.036   2.287 -0.5944 -0.1874 -1.0766
  922SOL    HW2 3225   4.847   4.898   2.225 -0.4508 -1.0346  0.7323
  923SOL     OW 3226   5.123   1.450   3.834 -0.2026  0.2028  0.2179
  923SOL    HW1 3227   5.084   1.438   3.748 -2.2246 -0.4643  1.1534
  923SOL    HW2 3228   5.115   1.365   3.876  0.3658  0.6198  1.2110
  924SOL     OW 3229   2.445   5.217   6.366 -0.8903 -0.0695 -0.1008
  924SOL    HW1 3230   2.492   5.205   6.449 -0.4156 -0.0220 -0.3578
  924SOL    HW2 3231   2.371   5.156   6.371 -0.7542 -0.2079  0.2763
  925SOL     OW 3232   5.774   2.141   1.714  0.2771  0.7891  0.9521
  925SOL    HW1 3233   5.793   2.234   1.699  0.8262  0.7662  1.4402
  925SOL    HW2 3234   5.751   2.107   1.627  2.0855  0.9346  0.3618
  926SOL     OW 3235   1.819   5.947   3.295 -0.2733  0.3507 -0.5049
  926SOL    HW1 3236   1.762   5.981   3.364  0.3624  3.1829 -1.2770
  926SOL    HW2 3237   1.888   6.012   3.286  0.8435 -0.9965 -2.3775
  927SOL     OW 3238   3.227   2.792   3.008  0.0370  0.0490  0.2779
  927SOL    HW1 3239   3.140   2.780   3.044 -2.1094 -2.4168 -4.7155
  927SOL    HW2 3240   3.266   2.705   3.010  0.9181  0.3913 -0.6675
  928SOL     OW 3241   5.539   5.516   3.039  0.5788 -0.1796 -0.4895
  928SOL    HW1 3242   5.600   5.453   3.001  0.9646  1.2286 -2.3614
  928SOL    HW2 3243   5.537   5.588   2.977 -2.3326  0.2521 -0.0492
  929SOL     OW 3244   3.981   4.329   3.018  0.5226 -0.2887  0.0865
  929SOL    HW1 3245   3.981   4.234   3.021  1.3959 -0.3162 -0.6063
  929SOL    HW2 3246   3.930   4.355   3.095 -0.8995 -1.3204 -0.4576
  930SOL     OW 3247   3.704   4.599   1.898  0.1988  0.2039  0.3901
  930SOL    HW1 3248   3.771   4.560   1.841 -0.2478  1.0627 -0.7683
  930SOL    HW2 3249   3.622   4.585   1.852  0.0950  3.3033 -0.6488
  931SOL     OW 3250   2.166   1.688   1.179 -0.0601  0.0323  0.3806
  931SOL    HW1 3251   2.235   1.743   1.141  2.1606 -3.1051 -0.4882
  931SOL    HW2 3252   2.087   1.710   1.128  0.7893  2.0683 -0.1586
  932SOL     OW 3253   6.052   5.829   1.687 -0.6393 -0.5191  0.3552
  932SOL    HW1 3254   6.024   5.904   1.740 -0.0892 -0.3919  0.4666
  932SOL    HW2 3255   6.073   5.761   1.751  0.0106 -0.3699  0.3112
  933SOL     OW 3256   4.917   2.115   1.430 -0.8048  0.0446  0.0322
  933SOL    HW1 3257   4.942   2.065   1.507 -0.7175 -1.2273 -0.7932
  933SOL    HW2 3258   4.825   2.137   1.445 -0.3530  1.2503  1.2294
  934SOL     OW 3259   4.951   2.454   3.399  0.2998  0.0667 -0.3503
  934SOL    HW1 3260   4.930   2.521   3.334  2.3853 -0.9538 -2.2104
  934SOL    HW2 3261   5.040   2.474   3.426 -0.2450 -0.0329  1.6287
  935SOL     OW 3262   1.323   3.609   1.917 -0.3468  0.0290  0.1861
  935SOL    HW1 3263   1.359   3.526   1.949 -0.4498 -0.2772 -0.4810
  935SOL    HW2 3264   1.372   3.627   1.837 -1.5142 -0.2845 -0.6173
  936SOL     OW 3265   1.494   3.008   2.694 -0.0110  0.3468  0.0066
  936SOL    HW1 3266   1.521   2.917   2.703 -0.8616  0.0948  0.1604
  936SOL    HW2 3267   1.402   3.009   2.723 -0.1359  1.1762 -0.3666
  937SOL     OW 3268   4.425   4.283   3.839 -0.5912  0.3081 -0.2076
  937SOL    HW1 3269   4.399   4.245   3.922  0.5736 -1.7499 -0.7185
  937SOL    HW2 3270   4.424   4.210   3.777  2.8933  0.7456 -0.9933
  938SOL     OW 3271   1.652   5.276   4.491  0.1522 -0.0509  0.2023
  938SOL    HW1 3272   1.613   5.351   4.447  0.9699 -0.2264 -0.8417
  938SOL    HW2 3273   1.729   5.311   4.536  0.3610 -0.2046 -0.0327
  939SOL     OW 3274   1.629   0.804   1.799 -0.1140 -0.0324 -0.3664
  939SOL    HW1 3275   1.705   0.759   1.836 -0.5885 -1.1006 -0.6464
  939SOL    HW2 3276   1.556   0.780   1.857 -0.6193 -0.6841 -1.2575
  940SOL     OW 3277   3.537   5.020   1.219 -0.2778  0.1344 -0.2985
  940SOL    HW1 3278   3.514   4.927   1.219 -1.3651  0.3974  0.0940
  940SOL    HW2 3279   3.491   5.057   1.295  1.8658  0.5859  0.8690
  941SOL     OW 3280   1.176   1.730   0.352 -0.8373  0.4291 -0.4856
  941SOL    HW1 3281   1.104   1.698   0.406 -1.8760  0.6948 -1.6673
  941SOL    HW2 3282   1.247   1.668   0.367 -1.1010  0.4887  1.1520
  942SOL     OW 3283   5.327   4.683   0.130 -0.1201 -0.4538 -0.1352
  942SOL    HW1 3284   5.383   4.698   0.206  0.4087  0.1830 -0.6276
  942SOL    HW2 3285   5.238   4.678   0.166  0.2748 -1.8479  0.6983
  943SOL     OW 3286   0.973   0.318   0.408  0.0321 -0.0800 -0.0382
  943SOL    HW1 3287   1.055   0.330   0.456  0.7076 -0.3188 -1.1106
  943SOL    HW2 3288   0.932   0.404   0.409  0.5832  0.1859 -0.0045
  944SOL     OW 3289   0.218   1.674   4.855 -0.0082 -0.0656 -0.3394
  944SOL    HW1 3290   0.190   1.594   4.900  1.2569 -0.2241  0.2031
  944SOL    HW2 3291   0.260   1.726   4.923 -0.4122  0.8779 -0.7914
  945SOL     OW 3292   3.746   6.048   6.059  0.3589 -0.6631  0.2205
  945SOL    HW1 3293   3.822   6.008   6.017 -0.0647 -0.6100 -0.6251
  945SOL    HW2 3294   3.778   6.132   6.092  0.5544 -0.4077 -0.5865
  946SOL     OW 3295   5.385   5.990   4.933  0.3734  0.2899 -0.2774
  946SOL    HW1 3296   5.407   6.048   5.006 -0.7961  1.3081 -0.6899
  946SOL    HW2 3297   5.431   5.909   4.952  1.4322  1.0855  0.7315
  947SOL     OW 3298   4.501   3.221   0.518  0.4836 -0.2826 -0.2099
  947SOL    HW1 3299   4.557   3.184   0.585  0.8490  1.8593  0.7489
  947SOL    HW2 3300   4.551   3.212   0.437  1.3114 -0.2812  0.2930
  948SOL     OW 3301   3.256   4.178   1.988  0.2777 -0.2830  0.1459
  948SOL    HW1 3302   3.333   4.172   2.045  0.8838 -1.0058 -0.7053
  948SOL    HW2 3303   3.242   4.088   1.959  0.7197  0.2186 -1.7705
  949SOL     OW 3304   3.695   2.400   5.991  0.5375 -0.1015 -0.4262
  949SOL    HW1 3305   3.624   2.464   5.998 -0.0365 -0.7207 -0.4432
  949SOL    HW2 3306   3.719   2.400   5.899  2.2310  1.8544 -0.0400
  950SOL     OW 3307   5.511   0.671   4.380  0.1228 -1.0996  0.5983
  950SOL    HW1 3308   5.425   0.713   4.383  0.1753 -0.9096 -0.3741
  950SOL    HW2 3309   5.573   0.744   4.374  0.2280 -1.2861 -0.8293
  951SOL     OW 3310   2.963   2.965   5.622 -0.1855  0.5920  0.0541
  951SOL    HW1 3311   2.912   2.971   5.703  1.3118 -1.1331  1.2020
  951SOL    HW2 3312   3.042   3.017   5.640  0.9516 -1.1679  0.4310
  952SOL     OW 3313   1.634   4.165   3.156 -0.2348  0.7014  0.1725
  952SOL    HW1 3314   1.635   4.184   3.250  0.6854  0.5105  0.2101
  952SOL    HW2 3315   1.676   4.079   3.149 -0.6943  0.5181 -0.3746
  953SOL     OW 3316   1.436   2.104   2.743 -0.5957 -0.4849  0.1834
  953SOL    HW1 3317   1.458   2.117   2.835 -0.4657  0.2602  0.0591
  953SOL    HW2 3318   1.349   2.066   2.744 -0.8908  0.1905  0.6057
  954SOL     OW 3319   3.438   4.438   2.193  0.0395  0.0978 -0.2872
  954SOL    HW1 3320   3.531   4.438   2.213  0.1354  0.3510 -0.6995
  954SOL    HW2 3321   3.417   4.346   2.175  0.5257  0.2130 -1.5465
  955SOL     OW 3322   0.657   5.907   3.238 -0.7400  0.0785 -0.5725
  955SOL    HW1 3323   0.649   5.814   3.254  1.8515 -0.3766 -1.4427
  955SOL    HW2 3324   0.644   5.948   3.324 -0.4886 -1.1899  0.0912
  956SOL     OW 3325   2.323   2.848   2.921  0.6600 -0.5737 -0.1334
  956SOL    HW1 3326   2.404   2.808   2.889  1.3879  0.8470 -0.1434
  956SOL    HW2 3327   2.338   2.942   2.913 -0.3795 -0.2435  1.3742
  957SOL     OW 3328   1.554   6.150   3.224 -0.3695 -0.2406 -0.1880
  957SOL    HW1 3329   1.511   6.072   3.258 -2.0955  0.8017  0.1164
  957SOL    HW2 3330   1.561   6.209   3.299  1.7313 -0.3873 -0.1981
  958SOL     OW 3331   3.908   2.412   1.283 -0.1160 -0.1383  0.7142
  958SOL    HW1 3332   3.967   2.393   1.210 -1.3724  1.4555 -0.7939
  958SOL    HW2 3333   3.856   2.332   1.293  0.5970 -0.6513  0.3734
  959SOL     OW 3334   2.667   1.569   2.768  0.2539  0.2701  0.2946
  959SOL    HW1 3335   2.671   1.658   2.733  2.7966  0.0125 -0.2624
  959SOL    HW2 3336   2.661   1.581   2.863  0.4224  1.0193  0.2156
  960SOL     OW 3337   1.605   5.680   6.171 -0.6638  0.0948  0.3299
  960SOL    HW1 3338   1.599   5.768   6.208  0.7966  1.1485 -1.6938
  960SOL    HW2 3339   1.582   5.622   6.243 -0.6265  2.0753  2.0508
  961SOL     OW 3340   6.155   1.807   0.738  0.0579 -0.2184  0.0924
  961SOL    HW1 3341   6.200   1.883   0.775 -0.8832 -0.3976  1.6693
  961SOL    HW2 3342   6.065   1.815   0.767 -0.2834 -1.4221 -0.5578
  962SOL     OW 3343   3.199   5.316   0.865  0.4197 -0.5491  0.4653
  962SOL    HW1 3344   3.211   5.346   0.775 -0.0964 -1.3235  0.1277
  962SOL    HW2 3345   3.106   5.294   0.871 -0.2430  2.1777  2.0378
  963SOL     OW 3346   0.219   0.132   4.189  0.1187  0.0997 -0.3338
  963SOL    HW1 3347   0.130   0.152   4.162  0.0252 -2.7916 -2.7201
  963SOL    HW2 3348   0.209   0.061   4.253  0.6834  1.3249  1.1735
  964SOL     OW 3349   2.121   0.920   2.894  0.5808 -0.2222 -0.0324
  964SOL    HW1 3350   2.135   0.992   2.833 -0.0816 -0.6698 -0.7256
  964SOL    HW2 3351   2.026   0.909   2.897  0.6614 -0.9176  0.2499
  965SOL     OW 3352   2.772   4.305   6.048  0.0651  0.1976  0.1365
  965SOL    HW1 3353   2.691   4.333   6.005 -1.2139 -0.9703  1.6311
  965SOL    HW2 3354   2.796   4.378   6.105 -1.4215 -0.3536  1.5714
  966SOL     OW 3355   4.456   0.660   0.286 -0.2943 -0.0659  0.0790
  966SOL    HW1 3356   4.371   0.621   0.268 -0.2358  0.2344 -0.9240
  966SOL    HW2 3357   4.442   0.716   0.363 -0.7542 -0.7867  0.5232
  967SOL     OW 3358   0.203   0.110   1.650  0.2070 -0.2869  0.1467
  967SOL    HW1 3359   0.150   0.181   1.613 -1.9268 -1.2453  1.1935
  967SOL    HW2 3360   0.288   0.150   1.669 -0.0396  1.2739 -1.7722
  968SOL     OW 3361   5.212   1.459   6.055 -0.4015 -0.0804  0.0411
  968SOL    HW1 3362   5.225   1.548   6.023 -1.2021 -0.1764 -0.5841
  968SOL    HW2 3363   5.230   1.464   6.149  2.0269  0.2115 -0.3640
  969SOL     OW 3364   3.153   6.352   3.635 -0.6718  0.1955 -0.0043
  969SOL    HW1 3365   3.083   6.339   3.571 -0.4578  1.3028 -0.4840
  969SOL    HW2 3366   3.174   6.445   3.629  0.2937  0.0396  0.7116
  970SOL     OW 3367   4.563   3.470   2.254  0.2177 -0.1046  0.1355
  970SOL    HW1 3368   4.514   3.412   2.196  0.2155  1.1800 -1.2313
  970SOL    HW2 3369   4.638   3.418   2.282 -0.0718 -0.9424 -0.5951
  971SOL     OW 3370   4.115   2.098   4.853 -0.0212 -0.2013 -0.9126
  971SOL    HW1 3371   4.169   2.177   4.862 -0.8898  0.7029 -3.0367
  971SOL    HW2 3372   4.078   2.085   4.940  0.9201  1.1539 -0.2615
  972SOL     OW 3373   2.661   4.254   3.056  1.1993  0.7927 -0.6363
  972SOL    HW1 3374   2.689   4.304   3.132  1.1996 -1.8256  1.2143
  972SOL    HW2 3375   2.596   4.310   3.013  2.8219  3.2850 -0.0509
  973SOL     OW 3376   2.875   6.167   3.702 -0.2297  0.2908  0.4986
  973SOL    HW1 3377   2.969   6.153   3.700 -0.4191 -1.0879 -0.6158
  973SOL    HW2 3378   2.862   6.237   3.766  1.3511 -0.9194  2.2513
  974SOL     OW 3379   3.690   2.529   3.257  0.1047  0.2434  0.2389
  974SOL    HW1 3380   3.725   2.618   3.252  0.5196  0.1091  0.6961
  974SOL    HW2 3381   3.715   2.488   3.174 -0.1702  0.5792 -0.0126
  975SOL     OW 3382   1.196   5.326   4.790 -0.0383 -0.2518 -0.3043
  975SOL    HW1 3383   1.267   5.312   4.727  0.1010  0.2709 -0.2640
  975SOL    HW2 3384   1.196   5.247   4.844  1.3224  0.2586  0.4895
  976SOL     OW 3385   2.474   5.557   0.791 -0.3578  0.2843 -0.1586
  976SOL    HW1 3386   2.468   5.509   0.708 -1.2592  0.6013 -0.2844
  976SOL    HW2 3387   2.409   5.626   0.783  0.2579  0.9422  0.4156
  977SOL     OW 3388   4.298   1.321   4.120  0.0783  0.6370  0.3463
  977SOL    HW1 3389   4.384   1.359   4.134  1.6927 -2.7881  0.8495
  977SOL    HW2 3390   4.311   1.258   4.049 -1.9936 -0.0839  0.5214
  978SOL     OW 3391   4.342   3.793   0.277 -0.4860 -0.3121  0.0101
  978SOL    HW1 3392   4.321   3.886   0.268  1.0395  0.2316  1.7124
  978SOL    HW2 3393   4.353   3.779   0.371  1.1335 -1.7884 -0.3524
  979SOL     OW 3394   4.770   4.640   3.480  0.7716 -0.0791  0.2973
  979SOL    HW1 3395   4.762   4.728   3.516  0.4134 -0.1698  0.4406
  979SOL    HW2 3396   4.818   4.591   3.546  0.9842  0.0138  0.2110
  980SOL     OW 3397   2.007   3.862   6.107 -0.0869  0.0251 -0.0652
  980SOL    HW1 3398   2.023   3.777   6.064  0.0169 -0.3641  0.7309
  980SOL    HW2 3399   2.083   3.874   6.165  0.8808  1.5616 -1.5432
  981SOL     OW 3400   3.417   0.043   0.461 -0.4116  0.4557 -0.4125
  981SOL    HW1 3401   3.467   0.090   0.528 -0.3132  0.1835 -0.2962
  981SOL    HW2 3402   3.479   0.031   0.389 -0.5072  0.7162 -0.5431
  982SOL     OW 3403   1.231   5.970   1.180 -0.5803  0.0493 -0.1362
  982SOL    HW1 3404   1.271   5.945   1.097 -0.6995 -1.2493  0.1758
  982SOL    HW2 3405   1.187   5.891   1.210 -1.3870  0.7856  0.6805
  983SOL     OW 3406   5.115   3.406   3.063 -0.2564 -0.1282 -0.4820
  983SOL    HW1 3407   5.051   3.475   3.046 -0.1781 -0.4270 -2.2369
  983SOL    HW2 3408   5.087   3.366   3.145 -1.1852  1.0024 -0.2302
  984SOL     OW 3409   2.536   3.073   4.570 -0.0247 -0.1197  0.4654
  984SOL    HW1 3410   2.560   3.002   4.630  0.0309 -0.9888 -0.5593
  984SOL    HW2 3411   2.463   3.117   4.613  0.2036 -0.5358  1.3016
  985SOL     OW 3412   5.045   4.481   1.370  0.1727 -0.9117  0.2044
  985SOL    HW1 3413   5.003   4.431   1.440 -0.1385 -1.6146 -0.4756
  985SOL    HW2 3414   4.973   4.516   1.319  0.3239  1.5637  1.5292
  986SOL     OW 3415   5.947   3.431   5.228 -0.8259  0.0906 -0.4974
  986SOL    HW1 3416   5.880   3.363   5.224 -0.8805  0.0079  1.1375
  986SOL    HW2 3417   5.983   3.424   5.316  0.9575  0.5040 -1.1345
  987SOL     OW 3418   5.517   4.655   6.115 -0.0708 -0.7617 -0.2431
  987SOL    HW1 3419   5.447   4.620   6.171  2.1619 -2.1625  1.8520
  987SOL    HW2 3420   5.589   4.593   6.126  1.8751  1.1671 -1.4915
  988SOL     OW 3421   2.183   2.485   1.619  0.1581  0.3907  0.2797
  988SOL    HW1 3422   2.094   2.507   1.646 -0.2564 -0.0730 -0.6708
  988SOL    HW2 3423   2.186   2.390   1.620  0.6163  0.3997  0.2229
  989SOL     OW 3424   1.971   3.611   5.468  0.3353 -0.2864  0.8607
  989SOL    HW1 3425   1.916   3.686   5.488 -2.1644 -1.8076  0.0724
  989SOL    HW2 3426   2.010   3.586   5.552  0.5595  1.3408  1.2701
  990SOL     OW 3427   6.252   2.484   3.442  0.0490 -0.0037  0.2221
  990SOL    HW1 3428   6.278   2.540   3.516 -0.6839 -1.9996  2.0942
  990SOL    HW2 3429   6.175   2.527   3.406  1.3984  1.9260 -0.5615
  991SOL     OW 3430   1.158   2.028   4.410  0.5172 -0.1752 -0.1625
  991SOL    HW1 3431   1.116   1.973   4.343 -0.4139 -0.8483  0.9407
  991SOL    HW2 3432   1.168   2.113   4.367  1.4570 -1.0183 -1.7092
  992SOL     OW 3433   4.001   4.857   4.864 -0.4636  0.1971  0.0851
  992SOL    HW1 3434   3.991   4.928   4.801  1.9621 -0.0405 -0.6678
  992SOL    HW2 3435   3.937   4.877   4.933  0.8577  3.7554  0.4733
  993SOL     OW 3436   1.111   2.183   6.037 -0.3840  0.0428 -0.8778
  993SOL    HW1 3437   1.136   2.108   6.091 -1.8989 -0.1938 -0.4764
  993SOL    HW2 3438   1.124   2.259   6.094  0.0441 -0.0122 -0.8994
  994SOL     OW 3439   3.350   2.670   1.626  0.1486 -0.1292 -0.4398
  994SOL    HW1 3440   3.400   2.735   1.674  2.8718 -1.5490 -1.1664
  994SOL    HW2 3441   3.308   2.617   1.694  0.8754  0.1617  0.2461
  995SOL     OW 3442   4.316   1.764   0.275  0.0670  0.3149  0.0025
  995SOL    HW1 3443   4.237   1.710   0.270  1.4534 -1.9118  0.6975
  995SOL    HW2 3444   4.360   1.752   0.191  1.2174 -1.1149  0.7496
  996SOL     OW 3445   0.134   4.661   5.496 -0.2226  0.1021 -0.5923
  996SOL    HW1 3446   0.135   4.609   5.577 -0.1323 -1.8150 -1.7617
  996SOL    HW2 3447   0.065   4.726   5.510 -2.8724 -2.5589 -0.3217
  997SOL     OW 3448   2.655   5.098   5.416 -0.1059 -0.5087  0.1957
  997SOL    HW1 3449   2.685   5.183   5.447 -0.5184  0.1774 -1.1980
  997SOL    HW2 3450   2.735   5.046   5.406  0.6659  1.0100 -2.6502
  998SOL     OW 3451   3.882   2.414   3.805 -0.1673  0.2047  0.1673
  998SOL    HW1 3452   3.859   2.328   3.841 -0.2753  0.2370  0.1774
  998SOL    HW2 3453   3.928   2.394   3.724 -0.2488  0.1377  0.1369
  999SOL     OW 3454   4.999   4.195   4.368 -0.0157 -0.3168 -0.5181
  999SOL    HW1 3455   5.062   4.145   4.420 -1.2077 -0.0202  1.3020
  999SOL    HW2 3456   4.914   4.176   4.408 -0.6037  2.5758 -0.1384
 1000SOL     OW 3457   3.179   5.467   0.635  0.1644 -0.3266  1.0496
 1000SOL    HW1 3458   3.170   5.550   0.680  0.2309  0.3790 -0.1820
 1000SOL    HW2 3459   3.105   5.464   0.574  1.0641 -0.3941 -0.0749
 1001SOL     OW 3460   0.749   0.762   1.896 -0.1870 -0.5855 -0.0010
 1001SOL    HW1 3461   0.663   0.721   1.883 -0.3135 -0.3680  0.1313
 1001SOL    HW2 3462   0.772   0.797   1.810  0.0085 -1.0998 -0.1576
 1002SOL     OW 3463   3.964   1.550   1.590 -0.3573  0.1349  0.3848
 1002SOL    HW1 3464   3.941   1.462   1.619 -1.0042  0.4563  0.8707
 1002SOL    HW2 3465   4.004   1.591   1.668 -1.3041  0.7126  0.5809
 1003SOL     OW 3466   3.606   0.212   1.469 -0.2106 -0.4836  0.3542
 1003SOL    HW1 3467   3.575   0.121   1.467 -0.4067 -0.5118 -3.5634
 1003SOL    HW2 3468   3.699   0.205   1.447 -0.4822  0.2488 -1.1532
 1004SOL     OW 3469   0.271   3.771   2.721 -0.0678 -0.1588  0.0913
 1004SOL    HW1 3470   0.287   3.691   2.671 -1.3684  0.6490 -1.7911
 1004SOL    HW2 3471   0.357   3.798   2.754  0.4846 -1.9300  0.1554
 1005SOL     OW 3472   2.210   3.766   0.317 -0.1141 -0.5761 -0.0670
 1005SOL    HW1 3473   2.224   3.811   0.400 -0.0094  0.5112 -0.6436
 1005SOL    HW2 3474   2.155   3.827   0.266  1.5852 -0.2061 -1.5745
 1006SOL     OW 3475   1.765   4.805   2.758 -0.4516  0.0357  0.1146
 1006SOL    HW1 3476   1.744   4.853   2.677 -0.5935 -1.9518 -1.0991
 1006SOL    HW2 3477   1.861   4.797   2.756 -0.5397 -1.1101 -0.5702
 1007SOL     OW 3478   2.611   4.510   4.780  0.4157  0.3889 -0.1708
 1007SOL    HW1 3479   2.649   4.515   4.692 -0.0682  1.8290 -0.3176
 1007SOL    HW2 3480   2.543   4.578   4.780 -0.3511 -0.3481  0.9540
 1008SOL     OW 3481   0.988   0.267   0.873  0.2032  0.1224  0.0261
 1008SOL    HW1 3482   0.944   0.273   0.958 -0.7765 -0.7697 -0.3982
 1008SOL    HW2 3483   0.917   0.263   0.809  0.9156 -0.2848 -0.7582
 1009SOL     OW 3484   3.213   2.994   1.906 -0.3895  0.2023 -0.5371
 1009SOL    HW1 3485   3.255   2.991   1.820  0.7874  1.0866 -0.0112
 1009SOL    HW2 3486   3.123   3.023   1.888  0.0730  1.1549 -1.3951
 1010SOL     OW 3487   5.712   6.008   4.006  0.8539  0.3661 -0.1014
 1010SOL    HW1 3488   5.617   6.021   4.008  0.9108  0.7503  0.2309
 1010SOL    HW2 3489   5.737   6.035   3.918  0.5719 -0.3723 -0.4204
 1011SOL     OW 3490   5.763   2.229   3.637 -0.3496 -0.4321 -0.0867
 1011SOL    HW1 3491   5.813   2.278   3.571  1.5123  2.0333  2.8327
 1011SOL    HW2 3492   5.682   2.279   3.646 -1.1247 -1.4406 -1.2345
 1012SOL     OW 3493   3.917   6.034   5.233  0.0151  0.5335 -0.2668
 1012SOL    HW1 3494   3.866   6.031   5.313  0.4759  2.9713  0.1948
 1012SOL    HW2 3495   4.008   6.041   5.263  0.1771  1.6563 -0.9755
 1013SOL     OW 3496   1.934   4.666   1.432 -0.1699 -0.1070 -0.4641
 1013SOL    HW1 3497   1.847   4.695   1.405  0.9199  3.8234 -0.4444
 1013SOL    HW2 3498   1.930   4.665   1.528  0.1803  1.9095 -0.3755
 1014SOL     OW 3499   1.214   2.823   1.081  0.0008 -0.6114  0.0454
 1014SOL    HW1 3500   1.157   2.870   1.020  0.0637 -2.2509 -1.3186
 1014SOL    HW2 3501   1.300   2.866   1.071  0.0468 -0.9430 -1.1378
 1015SOL     OW 3502   1.411   4.448   6.332 -0.3524  0.3242 -0.0590
 1015SOL    HW1 3503   1.360   4.431   6.411  0.6073  0.8058  0.6891
 1015SOL    HW2 3504   1.471   4.373   6.326 -0.6421  0.1257 -0.5185
 1016SOL     OW 3505   1.468   5.211   1.762  0.2688  0.3159 -0.3429
 1016SOL    HW1 3506   1.500   5.301   1.769 -1.5742  0.9092  1.4838
 1016SOL    HW2 3507   1.373   5.218   1.771 -0.1478 -1.6569 -2.1914
 1017SOL     OW 3508   3.872   0.571   3.632  0.2918  0.1433 -0.0873
 1017SOL    HW1 3509   3.840   0.606   3.549 -0.5596  1.4967  0.7759
 1017SOL    HW2 3510   3.963   0.548   3.614  0.2212  0.7183 -1.3178
 1018SOL     OW 3511   2.207   4.269   5.036 -0.3643  0.0599  0.0020
 1018SOL    HW1 3512   2.128   4.219   5.018 -1.1177  0.6386  1.5477
 1018SOL    HW2 3513   2.179   4.360   5.038  0.1504  0.2243  1.3366
 1019SOL     OW 3514   4.649   0.897   5.061  0.3479  0.5384 -0.7399
 1019SOL    HW1 3515   4.605   0.958   5.120 -1.0847 -0.2584 -0.9470
 1019SOL    HW2 3516   4.655   0.816   5.111  1.5732  0.6091 -0.7359
 1020SOL     OW 3517   1.655   3.828   0.388  0.4899  0.2824  0.3778
 1020SOL    HW1 3518   1.686   3.761   0.448  0.3862 -0.2299 -0.1248
 1020SOL    HW2 3519   1.678   3.911   0.429  1.5710 -0.0707  0.5093
 1021SOL     OW 3520   4.727   1.409   5.703  0.1306  0.0965  0.0458
 1021SOL    HW1 3521   4.723   1.383   5.611 -1.0718  0.0275  0.1002
 1021SOL    HW2 3522   4.709   1.328   5.751 -0.0365  0.2945  0.3176
 1022SOL     OW 3523   3.859   1.929   1.258 -0.3754 -0.6427 -0.3683
 1022SOL    HW1 3524   3.885   1.868   1.326 -0.0312  0.0947  0.1712
 1022SOL    HW2 3525   3.928   1.922   1.191 -0.1210 -0.5428 -0.1167
 1023SOL     OW 3526   4.311   0.646   3.469 -0.0710 -0.0260 -0.0330
 1023SOL    HW1 3527   4.279   0.733   3.447 -0.2187  0.4060  1.7310
 1023SOL    HW2 3528   4.323   0.602   3.385 -0.7183  1.4335 -0.9135
 1024SOL     OW 3529   5.194   5.822   2.315  0.1466  0.3364 -0.0250
 1024SOL    HW1 3530   5.242   5.886   2.263 -1.1232 -0.9070 -3.0041
 1024SOL    HW2 3531   5.114   5.868   2.341  0.2415  0.6372 -0.2551
 1025SOL     OW 3532   3.031   3.819   3.520  0.2537 -0.0755 -0.7766
 1025SOL    HW1 3533   3.055   3.897   3.569  1.1164 -0.3729 -0.6919
 1025SOL    HW2 3534   3.106   3.760   3.532 -0.1810 -0.7284 -1.2153
 1026SOL     OW 3535   6.340   3.815   1.916  0.5569  0.0210 -0.1306
 1026SOL    HW1 3536   6.417   3.776   1.874  1.9707  0.5312  1.8258
 1026SOL    HW2 3537   6.306   3.744   1.971  0.1788  0.0744 -0.2983
 1027SOL     OW 3538   1.714   2.648   5.710 -0.1576  0.6847  0.0068
 1027SOL    HW1 3539   1.734   2.628   5.802 -0.6245 -0.9825 -0.2316
 1027SOL    HW2 3540   1.736   2.568   5.663  1.5141  1.9822 -1.5922
 1028SOL     OW 3541   0.109   0.378   0.856  0.2323  0.3645 -0.6910
 1028SOL    HW1 3542   0.037   0.376   0.919 -0.6355  0.9256 -1.6397
 1028SOL    HW2 3543   0.151   0.292   0.865  0.3056  0.5334  0.8252
 1029SOL     OW 3544   3.454   1.101   3.297  0.7989 -0.6548 -0.6582
 1029SOL    HW1 3545   3.505   1.134   3.223  1.2405 -0.1442 -0.1281
 1029SOL    HW2 3546   3.519   1.078   3.363  0.4581 -1.7970 -0.6838
 1030SOL     OW 3547   1.382   6.318   2.691 -0.0823  0.1644  0.6546
 1030SOL    HW1 3548   1.354   6.230   2.666 -0.4667  0.6162 -0.6027
 1030SOL    HW2 3549   1.310   6.352   2.744 -0.4167  0.1008  0.2471
 1031SOL     OW 3550   1.677   4.998   4.524  0.1022  0.1246  0.3596
 1031SOL    HW1 3551   1.703   5.090   4.518  0.3048  0.1435  1.4139
 1031SOL    HW2 3552   1.701   4.961   4.439  0.0436  1.0339 -0.0648
 1032SOL     OW 3553   2.018   5.581   1.217 -0.1962 -0.6753  0.2443
 1032SOL    HW1 3554   2.025   5.485   1.215 -1.6904 -0.8383  1.2766
 1032SOL    HW2 3555   2.045   5.609   1.130 -2.2838 -2.2429 -0.9916
 1033SOL     OW 3556   5.303   4.101   5.071 -0.0898 -0.2664 -0.0014
 1033SOL    HW1 3557   5.389   4.110   5.112  0.5414  1.3232 -1.5090
 1033SOL    HW2 3558   5.312   4.148   4.988 -1.8764 -1.6500 -1.0475
 1034SOL     OW 3559   2.887   1.704   3.310  0.0741  0.1831 -0.4687
 1034SOL    HW1 3560   2.884   1.670   3.399  0.5159  1.1991 -0.0446
 1034SOL    HW2 3561   2.867   1.629   3.254  0.3109 -0.5811  0.4556
 1035SOL     OW 3562   5.216   2.583   2.144 -0.0028  0.0435 -0.2342
 1035SOL    HW1 3563   5.303   2.544   2.147 -0.2526 -0.5770 -0.8253
 1035SOL    HW2 3564   5.224   2.655   2.081  0.4678  1.0047  0.8879
 1036SOL     OW 3565   2.191   0.004   0.108  0.5294 -0.0376  0.0046
 1036SOL    HW1 3566   2.260   0.066   0.133  0.0443  1.6056 -2.3550
 1036SOL    HW2 3567   2.133   0.001   0.184  1.0780  1.7450  0.5400
 1037SOL     OW 3568   0.729   1.844   4.596 -0.1924  0.2321  0.6818
 1037SOL    HW1 3569   0.653   1.876   4.643  0.0031  2.1866 -0.2461
 1037SOL    HW2 3570   0.704   1.850   4.503 -0.1236 -2.3518  0.4152
 1038SOL     OW 3571   2.182   2.216   4.936 -0.0720 -0.0566 -0.5826
 1038SOL    HW1 3572   2.141   2.202   4.851 -0.3736 -2.9079 -0.0646
 1038SOL    HW2 3573   2.118   2.268   4.985 -0.9529 -0.3954 -1.3360
 1039SOL     OW 3574   1.767   1.100   1.419  0.7784  0.1985 -0.1114
 1039SOL    HW1 3575   1.744   1.014   1.453  0.0320 -0.0772 -1.2629
 1039SOL    HW2 3576   1.861   1.096   1.406  0.8173 -0.2799  0.2804
 1040SOL     OW 3577   3.092   5.963   5.711 -0.1405  0.3162  0.0141
 1040SOL    HW1 3578   3.119   6.014   5.635 -0.6305  1.1362  0.3817
 1040SOL    HW2 3579   3.113   5.872   5.688 -0.4703  0.5332 -1.1753
 1041SOL     OW 3580   4.111   3.910   1.182  0.2721  0.0371 -0.1057
 1041SOL    HW1 3581   4.037   3.933   1.126 -0.7464 -0.0394  1.1615
 1041SOL    HW2 3582   4.079   3.926   1.271  2.4703  2.0941  0.4286
 1042SOL     OW 3583   1.147   0.969   1.854 -0.0233 -0.0229  0.0703
 1042SOL    HW1 3584   1.069   0.913   1.861  0.6428 -0.8346  1.5307
 1042SOL    HW2 3585   1.215   0.911   1.818  0.4154  0.1100  0.6708
 1043SOL     OW 3586   0.826   4.201   0.162  0.3528  0.5638  0.1631
 1043SOL    HW1 3587   0.733   4.178   0.161  0.3154  0.6777 -1.1623
 1043SOL    HW2 3588   0.828   4.295   0.177  0.2759  0.4890  0.6464
 1044SOL     OW 3589   6.272   6.318   2.075  0.2107 -0.4728 -0.0654
 1044SOL    HW1 3590   6.186   6.279   2.057  1.2114 -2.2321 -1.3018
 1044SOL    HW2 3591   6.315   6.324   1.990  1.9625 -1.2620  0.7066
 1045SOL     OW 3592   3.603   4.391   3.385 -0.3288  0.2844  0.2640
 1045SOL    HW1 3593   3.576   4.374   3.476 -1.7208  0.1800 -0.1411
 1045SOL    HW2 3594   3.572   4.479   3.367 -1.1853 -0.1554 -0.4902
 1046SOL     OW 3595   1.559   1.268   4.023 -0.2335  0.0443 -0.0102
 1046SOL    HW1 3596   1.628   1.297   3.963  0.4870 -0.0471  0.7689
 1046SOL    HW2 3597   1.478   1.279   3.972 -0.1159  3.8350  0.3259
 1047SOL     OW 3598   2.661   2.576   0.807  0.5177  0.5410  0.0087
 1047SOL    HW1 3599   2.594   2.588   0.874 -0.1530  0.1385 -0.5758
 1047SOL    HW2 3600   2.739   2.551   0.856 -0.3678 -1.3877  0.5561
 1048SOL     OW 3601   1.936   6.267   4.929  0.5980  0.1704  0.4178
 1048SOL    HW1 3602   1.992   6.299   4.859  0.3221  0.7673  0.4612
 1048SOL    HW2 3603   1.848   6.268   4.892  0.7003 -1.7898 -0.0187
 1049SOL     OW 3604   3.260   1.504   1.809  0.2434  0.1917 -0.2398
 1049SOL    HW1 3605   3.354   1.492   1.793  0.5935  0.4535  1.4385
 1049SOL    HW2 3606   3.251   1.596   1.832 -0.0841 -0.2904  1.6609
 1050SOL     OW 3607   5.694   6.031   2.018 -0.3786 -0.7968  0.1638
 1050SOL    HW1 3608   5.644   6.008   2.096 -0.9281 -1.8144 -0.4723
 1050SOL    HW2 3609   5.628   6.045   1.950  0.0786  0.2867 -0.0823
 1051SOL     OW 3610   1.488   5.997   6.210 -0.1718 -0.0317 -0.0668
 1051SOL    HW1 3611   1.507   5.990   6.304 -3.4792 -0.5804  0.6746
 1051SOL    HW2 3612   1.440   6.079   6.201 -1.5615 -0.8956 -0.9109
 1052SOL     OW 3613   1.082   0.295   3.767 -0.1544  0.2058  0.1049
 1052SOL    HW1 3614   1.007   0.323   3.715 -0.3348  1.7993  1.1286
 1052SOL    HW2 3615   1.133   0.375   3.780  0.8914 -0.5424  0.7410
 1053SOL     OW 3616   2.152   5.477   4.761 -0.3048 -0.6215 -0.2438
 1053SOL    HW1 3617   2.085   5.416   4.790  0.8814 -0.8655  2.2896
 1053SOL    HW2 3618   2.223   5.421   4.729 -0.7701 -0.3918 -1.7843
 1054SOL     OW 3619   5.527   4.053   2.679  0.1489  0.2131 -0.1101
 1054SOL    HW1 3620   5.575   3.980   2.640  0.5222  0.2950  0.1795
 1054SOL    HW2 3621   5.445   4.015   2.709 -0.0610  0.1144 -0.8099
 1055SOL     OW 3622   5.566   6.299   5.169  0.0491  0.1498  0.1722
 1055SOL    HW1 3623   5.535   6.269   5.254 -1.2993  1.1467  0.0669
 1055SOL    HW2 3624   5.518   6.380   5.153  2.4359  1.5911 -0.2285
 1056SOL     OW 3625   1.668   5.499   4.309  0.2515 -0.1164 -0.1012
 1056SOL    HW1 3626   1.754   5.460   4.320  0.6946  1.0110  0.6088
 1056SOL    HW2 3627   1.680   5.591   4.332 -1.3854 -0.1676  1.1498
 1057SOL     OW 3628   5.687   1.431   4.593  0.1239  0.0501  0.2629
 1057SOL    HW1 3629   5.775   1.392   4.589 -0.6606 -1.7472 -0.6078
 1057SOL    HW2 3630   5.633   1.364   4.635 -0.6506  1.5775  1.8171
 1058SOL     OW 3631   2.001   3.997   5.641 -0.1973  0.2695  0.2341
 1058SOL    HW1 3632   1.986   4.086   5.611 -2.1163 -0.2233 -0.4067
 1058SOL    HW2 3633   1.942   3.987   5.716 -0.0268 -0.4622  0.2799
 1059SOL     OW 3634   4.016   6.222   5.048 -0.2116 -0.1870 -0.2455
 1059SOL    HW1 3635   3.962   6.297   5.021  0.6041  1.2124  1.7681
 1059SOL    HW2 3636   3.957   6.168   5.101 -0.3817 -0.1729 -0.4166
 1060SOL     OW 3637   5.757   1.353   1.043 -0.3256 -0.2663  0.3746
 1060SOL    HW1 3638   5.813   1.347   1.121  0.1549 -1.6521 -0.0636
 1060SOL    HW2 3639   5.816   1.344   0.969 -0.9955 -0.6422 -0.1277
 1061SOL     OW 3640   0.680   1.105   2.762  0.5336 -0.2461 -0.0910
 1061SOL    HW1 3641   0.662   1.031   2.704 -0.0344  0.5769 -1.0056
 1061SOL    HW2 3642   0.691   1.179   2.702 -0.6345  0.7346  0.8619
 1062SOL     OW 3643   5.947   1.515   1.437 -0.0662  0.7367  0.1091
 1062SOL    HW1 3644   5.887   1.582   1.404 -0.8094  1.1805  2.1923
 1062SOL    HW2 3645   5.919   1.501   1.528  1.6061 -0.6606  0.4548
 1063SOL     OW 3646   3.498   0.380   4.449 -0.4340 -0.1547 -0.4029
 1063SOL    HW1 3647   3.445   0.313   4.407 -2.0291  0.0878  1.1052
 1063SOL    HW2 3648   3.551   0.333   4.512 -2.7312  0.0188  1.8388
 1064SOL     OW 3649   0.792   1.057   3.621 -0.1854  0.2758  0.3775
 1064SOL    HW1 3650   0.831   1.028   3.703  1.0364 -0.2670 -0.3610
 1064SOL    HW2 3651   0.867   1.082   3.567 -0.9501  0.4132 -0.6440
 1065SOL     OW 3652   5.958   1.315   4.574  0.1523 -0.1793  0.1077
 1065SOL    HW1 3653   6.027   1.250   4.589 -0.5426 -0.4512  2.6054
 1065SOL    HW2 3654   5.979   1.387   4.632 -0.0963  1.0743 -1.2913
 1066SOL     OW 3655   3.786   2.178   1.368 -0.6068 -0.3221 -0.1061
 1066SOL    HW1 3656   3.808   2.090   1.338 -2.1825 -0.9457  0.4904
 1066SOL    HW2 3657   3.820   2.181   1.457  0.9255  0.2862 -0.6839
 1067SOL     OW 3658   5.961   2.199   4.600  0.3229 -0.5853  0.0921
 1067SOL    HW1 3659   5.904   2.173   4.672  0.3807  0.6646  0.6256
 1067SOL    HW2 3660   5.922   2.280   4.566  1.1830 -0.2856 -0.2212
 1068SOL     OW 3661   5.361   2.609   6.157 -0.0323  0.3783  0.0102
 1068SOL    HW1 3662   5.410   2.689   6.143  0.0464  0.4395  0.6108
 1068SOL    HW2 3663   5.348   2.573   6.069 -1.2185  1.7196 -0.4030
 1069SOL     OW 3664   1.118   6.240   2.560  0.4200  0.9585  0.6412
 1069SOL    HW1 3665   1.083   6.329   2.565 -1.4869  0.2488  1.0161
 1069SOL    HW2 3666   1.169   6.238   2.480  0.0208  2.2334  0.3334
 1070SOL     OW 3667   0.850   5.764   2.663 -0.4487  0.3239 -0.3925
 1070SOL    HW1 3668   0.890   5.850   2.646 -4.2018  2.8449  1.8347
 1070SOL    HW2 3669   0.889   5.737   2.746  0.5869 -0.0598 -0.9885
 1071SOL     OW 3670   0.593   0.604   4.925 -0.2248 -0.3485 -0.0083
 1071SOL    HW1 3671   0.540   0.684   4.925 -1.3268 -1.0521  0.1171
 1071SOL    HW2 3672   0.660   0.619   4.991 -0.2608  0.5719 -0.1731
 1072SOL     OW 3673   5.956   1.863   3.731  0.2021 -0.1925 -0.1899
 1072SOL    HW1 3674   6.049   1.879   3.743 -0.0700  1.9672 -0.5205
 1072SOL    HW2 3675   5.913   1.928   3.787 -1.1168 -1.3552  0.1970
 1073SOL     OW 3676   2.469   0.773   1.818  0.1743  0.2564 -0.7996
 1073SOL    HW1 3677   2.534   0.704   1.812  0.0567  0.0147  0.3862
 1073SOL    HW2 3678   2.393   0.739   1.772  0.9347  0.6303 -2.3813
 1074SOL     OW 3679   3.987   2.386   2.055 -0.3454  0.4027  0.2803
 1074SOL    HW1 3680   3.897   2.365   2.079 -0.3582 -0.3918 -0.4242
 1074SOL    HW2 3681   3.982   2.413   1.964 -0.2629  3.1716  1.0052
 1075SOL     OW 3682   3.285   2.501   3.044  0.5732  0.7063 -0.1383
 1075SOL    HW1 3683   3.193   2.498   3.022  0.7935 -1.0312 -0.9779
 1075SOL    HW2 3684   3.290   2.460   3.130  0.4193  2.1999  0.6235
 1076SOL     OW 3685   0.269   3.602   1.320 -0.0146 -0.0944 -0.3230
 1076SOL    HW1 3686   0.340   3.667   1.310 -0.6616  0.7818  0.5585
 1076SOL    HW2 3687   0.212   3.618   1.245  0.5954 -0.6596 -0.9201
 1077SOL     OW 3688   1.294   6.078   4.912 -0.3663 -0.9389 -0.0239
 1077SOL    HW1 3689   1.222   6.114   4.964 -0.9370 -1.4944 -0.4236
 1077SOL    HW2 3690   1.368   6.075   4.973 -1.0289 -1.6072  0.7798
 1078SOL     OW 3691   4.154   2.697   5.659  0.3281 -0.1388  0.9031
 1078SOL    HW1 3692   4.161   2.763   5.590 -1.1431 -0.8162  0.0822
 1078SOL    HW2 3693   4.236   2.706   5.708  0.7024  1.4365  0.0518
 1079SOL     OW 3694   2.601   2.633   4.117  0.5408 -0.2339 -0.2053
 1079SOL    HW1 3695   2.564   2.699   4.058  1.0810  1.0989  0.8732
 1079SOL    HW2 3696   2.680   2.602   4.073  0.5250  0.1805 -0.5333
 1080SOL     OW 3697   2.269   5.285   2.106 -0.3943  0.7471  0.1827
 1080SOL    HW1 3698   2.207   5.267   2.177 -3.7050  1.7483 -2.1708
 1080SOL    HW2 3699   2.327   5.352   2.141 -1.5586  0.8081  2.1214
 1081SOL     OW 3700   3.289   1.951   5.827 -0.0354  0.0667 -0.2261
 1081SOL    HW1 3701   3.309   1.879   5.887 -1.9887  0.5249  1.0806
 1081SOL    HW2 3702   3.343   2.024   5.858  2.0220 -0.7948 -1.6139
 1082SOL     OW 3703   1.960   1.930   3.484  0.1423 -0.4284  0.0787
 1082SOL    HW1 3704   1.963   1.849   3.433  0.6300 -1.3158  1.4551
 1082SOL    HW2 3705   1.881   1.974   3.454  1.0677 -0.2421 -2.3712
 1083SOL     OW 3706   2.840   1.844   4.699 -0.1722  0.5014 -0.8779
 1083SOL    HW1 3707   2.873   1.932   4.717  0.9196 -0.2699  1.2692
 1083SOL    HW2 3708   2.893   1.813   4.625  1.5997  0.5750  0.3008
 1084SOL     OW 3709   0.101   1.398   6.279 -0.2106  0.8138 -0.2504
 1084SOL    HW1 3710   0.157   1.321   6.294 -1.3735  0.3444  2.0778
 1084SOL    HW2 3711   0.012   1.363   6.276 -0.6011  1.8424 -1.4239
 1085SOL     OW 3712   5.170   6.339   2.422 -0.0782 -0.0760  0.0651
 1085SOL    HW1 3713   5.243   6.283   2.398  1.1642  0.2763  2.6042
 1085SOL    HW2 3714   5.133   6.368   2.339 -0.0893 -3.6704 -1.3809
 1086SOL     OW 3715   2.971   1.635   2.571  0.2238  0.1617  0.1434
 1086SOL    HW1 3716   2.903   1.700   2.583  1.0167  1.1079 -0.2769
 1086SOL    HW2 3717   2.998   1.645   2.479 -1.4541 -2.5983 -0.7786
 1087SOL     OW 3718   4.773   3.874   1.360 -0.4305 -0.0753 -0.0255
 1087SOL    HW1 3719   4.735   3.800   1.408 -1.0368  1.6628  2.3528
 1087SOL    HW2 3720   4.858   3.842   1.330 -0.7903 -1.8138  0.7032
 1088SOL     OW 3721   2.202   3.447   0.114 -0.0111  0.2355  0.0658
 1088SOL    HW1 3722   2.116   3.419   0.081 -0.3679  0.5576  0.6861
 1088SOL    HW2 3723   2.218   3.531   0.070  0.2508 -0.1010 -0.4809
 1089SOL     OW 3724   2.131   3.456   6.041 -0.0559 -0.5239  0.0972
 1089SOL    HW1 3725   2.038   3.472   6.022  0.1772 -0.3109 -0.9053
 1089SOL    HW2 3726   2.169   3.433   5.956  0.9681  0.1450  0.3636
 1090SOL     OW 3727   3.165   1.923   1.652  0.3913 -0.5311 -0.1243
 1090SOL    HW1 3728   3.144   1.956   1.564  1.1723 -2.5526 -1.1568
 1090SOL    HW2 3729   3.213   1.841   1.635  2.5524  0.1544  2.1619
 1091SOL     OW 3730   5.648   2.442   2.404  0.5507  0.5212 -0.8545
 1091SOL    HW1 3731   5.653   2.507   2.474  0.2105  0.0205 -0.3560
 1091SOL    HW2 3732   5.660   2.358   2.447 -1.0039  0.0937 -1.1652
 1092SOL     OW 3733   3.442   4.073   2.939 -0.2934  0.1011 -0.0685
 1092SOL    HW1 3734   3.359   4.050   2.981 -0.3259  1.3383  0.5945
 1092SOL    HW2 3735   3.420   4.138   2.873  0.1072  0.1652 -0.1458
 1093SOL     OW 3736   4.141   6.124   4.669 -0.5998  0.2312  0.8582
 1093SOL    HW1 3737   4.182   6.162   4.591 -1.8644 -1.2226 -0.5862
 1093SOL    HW2 3738   4.060   6.173   4.681 -1.5480 -1.0292 -0.1739
 1094SOL     OW 3739   3.202   1.976   0.873 -0.3384 -0.2914  0.2198
 1094SOL    HW1 3740   3.285   2.001   0.831 -0.0099  1.8007  1.8818
 1094SOL    HW2 3741   3.157   2.060   0.887 -1.5801 -1.1477  1.6317
 1095SOL     OW 3742   1.450   2.674   5.436 -0.5156  0.4181 -0.4434
 1095SOL    HW1 3743   1.362   2.710   5.431 -0.1258  1.4068 -0.5434
 1095SOL    HW2 3744   1.507   2.747   5.410  0.3891  0.0896  0.5456
 1096SOL     OW 3745   2.597   2.534   6.301  0.4682  0.1288 -0.7038
 1096SOL    HW1 3746   2.626   2.504   6.387  0.7331  2.1691 -0.0325
 1096SOL    HW2 3747   2.505   2.559   6.315  0.4992  0.4174 -1.0195
 1097SOL     OW 3748   0.519   2.089   1.574  0.3175  0.8077  0.3228
 1097SOL    HW1 3749   0.555   2.088   1.662  0.6894  0.2114  0.1680
 1097SOL    HW2 3750   0.504   1.997   1.552 -1.7339  1.0428  0.5461
 1098SOL     OW 3751   4.277   4.228   2.082  0.4088 -0.6197 -0.6097
 1098SOL    HW1 3752   4.328   4.307   2.098 -0.1212 -0.5286  0.7705
 1098SOL    HW2 3753   4.333   4.156   2.111 -0.1854 -0.5189  0.9150
 1099SOL     OW 3754   1.769   1.914   6.057  0.1220  0.0912  0.3269
 1099SOL    HW1 3755   1.735   1.836   6.101  2.7564 -1.4666 -0.1600
 1099SOL    HW2 3756   1.708   1.930   5.986  0.0959 -2.3002 -0.2820
 1100SOL     OW 3757   5.305   4.653   4.843  0.6878  0.3393 -0.1539
 1100SOL    HW1 3758   5.335   4.742   4.861  0.1101  0.6082 -0.4985
 1100SOL    HW2 3759   5.346   4.631   4.759  0.9910  0.2005  0.0276
 1101SOL     OW 3760   0.827   6.359   5.892 -0.2794 -0.1410 -0.7327
 1101SOL    HW1 3761   0.821   6.287   5.829 -0.1181 -0.3465 -0.5153
 1101SOL    HW2 3762   0.875   6.322   5.966  1.2479  0.6618 -1.2856
 1102SOL     OW 3763   0.356   0.817   2.832  0.4497 -0.2203 -0.4878
 1102SOL    HW1 3764   0.315   0.871   2.764  0.4632  0.3523 -0.0459
 1102SOL    HW2 3765   0.300   0.740   2.838 -0.1829  0.2441 -0.3648
 1103SOL     OW 3766   0.803   1.479   5.853  0.1023  0.6114  0.4760
 1103SOL    HW1 3767   0.865   1.454   5.785 -1.1473 -3.7253  0.6688
 1103SOL    HW2 3768   0.721   1.437   5.827 -1.8418  3.0468  2.1479
 1104SOL     OW 3769   3.002   0.284   1.805 -0.1224  0.1890  0.2407
 1104SOL    HW1 3770   3.018   0.374   1.835 -0.9322 -0.2322  2.0769
 1104SOL    HW2 3771   3.083   0.259   1.760 -0.4453  2.3471 -1.7321
 1105SOL     OW 3772   5.823   2.498   4.113  0.1324  0.2655 -0.5879
 1105SOL    HW1 3773   5.755   2.489   4.180 -1.2811 -0.1979 -2.0379
 1105SOL    HW2 3774   5.885   2.427   4.132 -0.9761 -0.7247 -0.5677
 1106SOL     OW 3775   2.226   0.121   5.631  0.4870 -0.1250 -0.4258
 1106SOL    HW1 3776   2.262   0.090   5.548 -0.4928 -0.1178 -0.8623
 1106SOL    HW2 3777   2.136   0.145   5.611  0.0889 -0.5616  0.7387
 1107SOL     OW 3778   4.086   3.015   1.717 -0.0744 -0.4706  0.3187
 1107SOL    HW1 3779   3.997   2.982   1.702  0.3870 -0.8895 -1.7351
 1107SOL    HW2 3780   4.139   2.936   1.729  0.5681 -0.4229 -1.8863
 1108SOL     OW 3781   1.779   0.858   5.151 -0.4020 -0.1082 -0.2584
 1108SOL    HW1 3782   1.835   0.794   5.194  2.1088  1.6349 -0.7059
 1108SOL    HW2 3783   1.714   0.806   5.104  0.9800 -2.2855  0.1124
 1109SOL     OW 3784   2.985   2.209   2.284  0.1189 -0.3379  0.3966
 1109SOL    HW1 3785   2.946   2.125   2.309 -0.7433 -0.4177 -1.0761
 1109SOL    HW2 3786   3.079   2.198   2.299  0.2223 -2.1389 -1.2141
 1110SOL     OW 3787   2.852   4.958   1.143 -0.1567  0.8239 -0.1161
 1110SOL    HW1 3788   2.939   4.942   1.178  0.1659 -0.5608 -1.4299
 1110SOL    HW2 3789   2.793   4.938   1.215  0.5857  2.6735  1.0893
 1111SOL     OW 3790   3.887   0.589   6.107  0.4048 -0.0033  0.0304
 1111SOL    HW1 3791   3.916   0.506   6.146  2.1633  1.0384  1.1014
 1111SOL    HW2 3792   3.848   0.564   6.023 -0.1974 -1.9999  0.8452
 1112SOL     OW 3793   4.204   4.225   4.539  0.1714  0.0703  0.8575
 1112SOL    HW1 3794   4.280   4.262   4.584  1.0825 -1.5889  0.7800
 1112SOL    HW2 3795   4.241   4.166   4.474 -1.1781  0.6816 -0.5275
 1113SOL     OW 3796   1.732   0.173   6.009  0.2520  0.7057  0.7391
 1113SOL    HW1 3797   1.816   0.171   5.964  0.9608  0.5338  2.0349
 1113SOL    HW2 3798   1.722   0.085   6.046 -0.2429  0.8845  1.0408
 1114SOL     OW 3799   5.575   4.606   4.726  0.0699  0.2548 -0.0115
 1114SOL    HW1 3800   5.652   4.633   4.777  1.9207  1.5409 -3.1918
 1114SOL    HW2 3801   5.604   4.527   4.679 -0.9788  0.0586 -0.3506
 1115SOL     OW 3802   2.559   0.385   3.803 -0.2953  0.2814 -0.2365
 1115SOL    HW1 3803   2.474   0.409   3.766 -0.7000 -0.4314  0.2036
 1115SOL    HW2 3804   2.568   0.440   3.880 -1.4579 -1.2558  1.0726
 1116SOL     OW 3805   5.824   2.442   1.719 -0.2752  0.4875 -0.2230
 1116SOL    HW1 3806   5.904   2.477   1.679 -1.6165  1.6850 -2.0412
 1116SOL    HW2 3807   5.759   2.511   1.707 -1.3240  0.0524  2.3385
 1117SOL     OW 3808   2.025   4.833   4.553  0.3027 -0.0915 -0.5266
 1117SOL    HW1 3809   1.962   4.905   4.549 -1.3522 -1.5332 -1.9115
 1117SOL    HW2 3810   2.105   4.868   4.513 -0.6479  0.8148 -1.7029
 1118SOL     OW 3811   0.108   0.171   5.638  0.2669 -0.2783  0.2393
 1118SOL    HW1 3812   0.024   0.127   5.628  0.8440 -1.2970 -0.2243
 1118SOL    HW2 3813   0.111   0.234   5.566  0.4396 -1.1297 -0.5153
 1119SOL     OW 3814   1.602   4.022   3.934  0.0423  0.0846 -0.0573
 1119SOL    HW1 3815   1.573   3.994   4.020  0.2142  2.9816  1.0737
 1119SOL    HW2 3816   1.695   4.043   3.946 -0.2672  1.8637 -0.5101
 1120SOL     OW 3817   3.729   2.439   4.297 -0.1349 -0.0090  0.8245
 1120SOL    HW1 3818   3.765   2.473   4.214  0.8816 -0.2258  1.1657
 1120SOL    HW2 3819   3.784   2.364   4.318  1.8671  1.9766  3.4035
 1121SOL     OW 3820   2.966   1.766   4.452 -0.1129 -0.0626  0.2357
 1121SOL    HW1 3821   2.983   1.768   4.357 -1.0553  0.3091  0.0684
 1121SOL    HW2 3822   3.032   1.706   4.486 -0.1644 -0.6950 -0.7436
 1122SOL     OW 3823   5.266   4.209   1.054  0.0963  0.0567 -0.3578
 1122SOL    HW1 3824   5.205   4.258   0.999  0.3963  2.6135  1.4044
 1122SOL    HW2 3825   5.348   4.212   1.006 -0.2844 -0.1600 -1.0391
 1123SOL     OW 3826   5.847   0.735   2.317  0.4203 -0.5839 -0.3172
 1123SOL    HW1 3827   5.809   0.736   2.229 -0.2494  0.4559 -0.0352
 1123SOL    HW2 3828   5.772   0.732   2.375  0.8011  0.1994  0.2354
 1124SOL     OW 3829   0.910   0.391   4.008  0.0267  0.1008  0.2209
 1124SOL    HW1 3830   0.964   0.329   3.960  0.0706 -0.9932  1.6215
 1124SOL    HW2 3831   0.926   0.475   3.965  0.8357 -0.6438 -1.0014
 1125SOL     OW 3832   5.880   3.830   4.887 -0.0522 -0.0031 -0.1752
 1125SOL    HW1 3833   5.814   3.761   4.894 -0.0988  0.1913  2.2644
 1125SOL    HW2 3834   5.964   3.784   4.895  0.0549 -0.0464 -1.3835
 1126SOL     OW 3835   6.048   0.530   2.288  0.1524 -0.3090 -0.4389
 1126SOL    HW1 3836   6.033   0.503   2.379  0.8930  2.2830  0.5349
 1126SOL    HW2 3837   5.987   0.602   2.274  1.6466  0.8640 -1.1844
 1127SOL     OW 3838   2.217   6.078   0.671 -0.2251 -0.4309 -0.5581
 1127SOL    HW1 3839   2.140   6.124   0.637 -0.1838 -0.8588 -1.2395
 1127SOL    HW2 3840   2.290   6.108   0.616  0.0357 -0.3033 -0.1484
 1128SOL     OW 3841   6.219   3.007   3.592  0.9541 -0.0286 -0.8218
 1128SOL    HW1 3842   6.298   2.971   3.553 -0.5351 -1.7206 -2.4387
 1128SOL    HW2 3843   6.241   3.020   3.684  3.4770  0.8004 -1.4644
 1129SOL     OW 3844   5.004   1.274   0.481  0.1551 -0.5519  0.0113
 1129SOL    HW1 3845   4.920   1.229   0.479  0.2814 -0.8725  1.1791
 1129SOL    HW2 3846   5.033   1.274   0.390 -0.6520 -1.3095 -0.2654
 1130SOL     OW 3847   5.030   4.339   2.323  0.3106  0.0384 -0.0387
 1130SOL    HW1 3848   5.089   4.267   2.302  1.8624  1.3480 -0.3665
 1130SOL    HW2 3849   4.982   4.309   2.400  1.6910 -0.9132  0.4853
 1131SOL     OW 3850   1.122   0.992   1.498 -0.2541  0.4882  0.3053
 1131SOL    HW1 3851   1.206   1.001   1.544  0.2275  0.7606 -0.6057
 1131SOL    HW2 3852   1.056   1.009   1.565  0.4262  0.6450  0.9508
 1132SOL     OW 3853   6.192   1.568   6.372 -0.6793 -0.0800 -0.0508
 1132SOL    HW1 3854   6.100   1.564   6.346 -1.0266  2.3602  0.5490
 1132SOL    HW2 3855   6.224   1.649   6.333  1.3624 -1.0550 -0.5457
 1133SOL     OW 3856   1.342   3.392   5.508 -0.0362 -0.5197 -0.1054
 1133SOL    HW1 3857   1.282   3.451   5.553  0.8475  0.8062 -0.6243
 1133SOL    HW2 3858   1.297   3.307   5.508 -1.4177  0.1938  0.4696
 1134SOL     OW 3859   2.055   2.705   6.381 -0.1621  0.4886 -0.1360
 1134SOL    HW1 3860   1.975   2.685   6.429  1.0430 -1.2699  1.2646
 1134SOL    HW2 3861   2.113   2.745   6.446  0.9267 -0.4121 -0.5226
 1135SOL     OW 3862   4.055   4.062   2.688  0.2447 -0.1363 -0.3343
 1135SOL    HW1 3863   4.077   3.971   2.668  2.1413  0.1412  0.3126
 1135SOL    HW2 3864   3.964   4.059   2.719  0.5164 -1.8958  0.3655
 1136SOL     OW 3865   6.328   0.875   0.221 -0.6447  0.3275  0.0818
 1136SOL    HW1 3866   6.388   0.841   0.288  0.4577  2.2871  0.1507
 1136SOL    HW2 3867   6.248   0.896   0.269 -0.7212 -0.5058  0.3351
 1137SOL     OW 3868   1.966   4.684   2.610  0.5843  0.2577  0.2537
 1137SOL    HW1 3869   2.057   4.683   2.580 -0.0836 -0.8389 -1.9675
 1137SOL    HW2 3870   1.919   4.731   2.542 -0.7531 -0.7276  0.4520
 1138SOL     OW 3871   3.795   0.718   5.097  0.1075 -1.0700 -0.0784
 1138SOL    HW1 3872   3.887   0.741   5.113  0.3476 -1.7066 -0.4939
 1138SOL    HW2 3873   3.796   0.623   5.087 -0.5443 -1.0387 -0.4580
 1139SOL     OW 3874   4.233   4.000   5.769  0.1786 -0.0849  0.1062
 1139SOL    HW1 3875   4.305   3.984   5.708 -0.6207  0.7570 -1.1176
 1139SOL    HW2 3876   4.254   4.084   5.810  0.5241 -0.4664  0.7290
 1140SOL     OW 3877   1.788   0.606   4.009 -0.0875  0.0968 -0.8154
 1140SOL    HW1 3878   1.706   0.585   3.964 -0.1083 -0.5917 -0.4662
 1140SOL    HW2 3879   1.839   0.654   3.944 -0.8805  0.8071 -0.9398
 1141SOL     OW 3880   2.664   3.108   3.377  0.2862 -0.1460 -0.4684
 1141SOL    HW1 3881   2.650   3.194   3.416  1.4845  0.0074 -0.3286
 1141SOL    HW2 3882   2.587   3.094   3.322 -1.7186 -0.6034  2.2717
 1142SOL     OW 3883   5.667   3.097   2.124 -0.8699  0.0147  0.7127
 1142SOL    HW1 3884   5.721   3.146   2.185 -1.5528  0.8593  0.6546
 1142SOL    HW2 3885   5.669   3.148   2.043 -0.3592 -0.8434  0.1591
 1143SOL     OW 3886   1.347   1.417   5.422  0.7714 -0.2963  0.3115
 1143SOL    HW1 3887   1.392   1.449   5.500  1.2116  0.4224 -0.2267
 1143SOL    HW2 3888   1.416   1.403   5.357  0.2561  0.6347 -0.4631
 1144SOL     OW 3889   5.873   4.815   5.074  0.6455  0.0914  0.7079
 1144SOL    HW1 3890   5.925   4.872   5.130 -0.6238  1.0218  0.9706
 1144SOL    HW2 3891   5.788   4.859   5.065 -0.1599 -1.4322  0.3890
 1145SOL     OW 3892   4.172   2.198   3.858 -0.3212  0.4433 -0.1411
 1145SOL    HW1 3893   4.262   2.227   3.844 -0.5754  1.2126 -0.2667
 1145SOL    HW2 3894   4.144   2.244   3.937 -0.1984 -0.7890  0.6458
 1146SOL     OW 3895   1.109   6.335   1.829  0.2454 -0.1486  0.2547
 1146SOL    HW1 3896   1.044   6.267   1.812  0.5216 -0.2890 -0.2378
 1146SOL    HW2 3897   1.181   6.317   1.769  0.2780  0.6325  0.0391
 1147SOL     OW 3898   6.111   0.569   1.968 -0.0525 -0.5005  0.1993
 1147SOL    HW1 3899   6.116   0.635   2.038 -0.8402 -0.8938  0.6356
 1147SOL    HW2 3900   6.179   0.596   1.906  0.3116  0.1569  0.8551
 1148SOL     OW 3901   4.242   0.138   0.779 -0.6039 -0.0717  0.3350
 1148SOL    HW1 3902   4.260   0.049   0.807  1.7028  0.5810  1.0752
 1148SOL    HW2 3903   4.212   0.183   0.858  1.2785  0.5550  0.7421
 1149SOL     OW 3904   1.119   0.556   1.740  0.1390 -0.3539  0.0047
 1149SOL    HW1 3905   1.143   0.500   1.665 -0.1172  1.1219 -1.2143
 1149SOL    HW2 3906   1.203   0.580   1.779  0.4552  0.9327 -1.3813
 1150SOL     OW 3907   1.196   4.989   3.400 -0.0769  0.0223  0.1713
 1150SOL    HW1 3908   1.107   4.994   3.365  0.0304 -0.4712 -0.1883
 1150SOL    HW2 3909   1.253   4.990   3.322  0.2885  1.3366  0.4347
 1151SOL     OW 3910   4.202   4.665   0.727 -0.0669 -0.1067  0.0045
 1151SOL    HW1 3911   4.229   4.580   0.692 -0.1659  0.2724 -0.9981
 1151SOL    HW2 3912   4.274   4.692   0.784  0.0399 -0.7735  0.1976
 1152SOL     OW 3913   1.426   3.300   2.280 -0.4501 -0.0905 -0.3530
 1152SOL    HW1 3914   1.384   3.360   2.340 -2.9247 -1.1614 -0.8750
 1152SOL    HW2 3915   1.467   3.234   2.336  1.7017  1.6248  0.1977
 1153SOL     OW 3916   4.875   3.946   6.201 -0.7020 -0.0076 -0.4178
 1153SOL    HW1 3917   4.930   3.933   6.278 -0.9006  0.7949 -0.1310
 1153SOL    HW2 3918   4.827   4.027   6.219 -2.3915 -0.9586 -0.4004
 1154SOL     OW 3919   2.375   4.516   2.658  0.0170  0.1111  0.3370
 1154SOL    HW1 3920   2.460   4.472   2.662 -0.4828 -1.0444 -1.1444
 1154SOL    HW2 3921   2.366   4.558   2.744  2.9872  2.0166 -0.1647
 1155SOL     OW 3922   5.538   4.161   1.959  0.2372 -0.3893  0.3859
 1155SOL    HW1 3923   5.510   4.100   1.891  0.0775  1.0649 -0.9032
 1155SOL    HW2 3924   5.630   4.140   1.974  0.8887  0.6370 -1.8495
 1156SOL     OW 3925   3.338   2.334   1.527  0.0741 -0.7854 -0.0558
 1156SOL    HW1 3926   3.377   2.340   1.615  0.1431  2.6325 -0.1900
 1156SOL    HW2 3927   3.255   2.289   1.541  0.3059 -0.7422  1.6813
 1157SOL     OW 3928   4.367   2.256   4.508 -0.3886  0.4480 -0.5287
 1157SOL    HW1 3929   4.312   2.272   4.431 -0.7084 -0.6946 -0.5470
 1157SOL    HW2 3930   4.376   2.161   4.513  0.0642  0.5268  0.5518
 1158SOL     OW 3931   5.154   6.037   0.132 -0.5376 -0.0228 -0.6283
 1158SOL    HW1 3932   5.137   6.089   0.053  1.2506 -1.0072 -1.7192
 1158SOL    HW2 3933   5.156   6.102   0.202 -1.4494  0.9724 -1.4731
 1159SOL     OW 3934   0.099   3.158   6.246 -0.0540  0.0644 -0.4524
 1159SOL    HW1 3935   0.087   3.227   6.311 -0.6335  0.2790 -0.7774
 1159SOL    HW2 3936   0.011   3.145   6.209  0.2899  0.0220 -1.2615
 1160SOL     OW 3937   5.718   2.532   4.910 -0.1029 -0.2062 -0.1877
 1160SOL    HW1 3938   5.806   2.569   4.910  0.2279 -0.9727  0.3395
 1160SOL    HW2 3939   5.662   2.604   4.940  0.3843  0.1935 -0.2242
 1161SOL     OW 3940   4.920   2.385   4.929 -0.0872 -0.4338 -0.1010
 1161SOL    HW1 3941   4.887   2.470   4.899  1.0242  0.3357  0.7906
 1161SOL    HW2 3942   4.910   2.387   5.024  0.2815 -1.1610 -0.0386
 1162SOL     OW 3943   2.851   1.504   3.111  0.2795 -0.3661  0.0022
 1162SOL    HW1 3944   2.790   1.438   3.079  0.8074 -1.2847  0.8302
 1162SOL    HW2 3945   2.935   1.482   3.070  0.6379 -0.7024  0.9000
 1163SOL     OW 3946   0.230   4.935   1.189 -0.0415 -0.4985  0.5268
 1163SOL    HW1 3947   0.268   5.021   1.175 -1.9747  0.0376 -2.1757
 1163SOL    HW2 3948   0.296   4.874   1.156 -0.0120  0.1835 -0.7265
 1164SOL     OW 3949   2.299   1.691   2.315 -0.0167  0.0507  0.4565
 1164SOL    HW1 3950   2.301   1.735   2.399 -0.6643  1.9840 -0.4945
 1164SOL    HW2 3951   2.212   1.652   2.310 -0.2015  0.4632  0.4328
 1165SOL     OW 3952   5.134   1.261   5.675 -0.4901 -0.0710 -0.0813
 1165SOL    HW1 3953   5.122   1.258   5.580  0.6379 -0.8447 -0.2289
 1165SOL    HW2 3954   5.082   1.336   5.704  1.7188  2.2681 -1.7267
 1166SOL     OW 3955   5.618   4.653   1.464  0.4116  0.2771 -0.2291
 1166SOL    HW1 3956   5.580   4.590   1.403  1.7687 -0.2624 -0.5338
 1166SOL    HW2 3957   5.614   4.609   1.549  0.5982  0.1194 -0.3025
 1167SOL     OW 3958   5.772   3.235   4.574 -0.3529 -0.4484 -0.0834
 1167SOL    HW1 3959   5.754   3.162   4.515  0.1464 -1.3655  0.8505
 1167SOL    HW2 3960   5.704   3.299   4.554  0.2663 -0.3786 -2.1683
 1168SOL     OW 3961   0.848   3.197   2.956 -0.3432 -0.2727  0.1663
 1168SOL    HW1 3962   0.929   3.225   2.914 -0.8891  0.7560 -0.2342
 1168SOL    HW2 3963   0.876   3.135   3.023  0.6703 -0.8262 -0.7367
 1169SOL     OW 3964   2.593   3.349   0.195  0.1258 -0.4431 -0.1772
 1169SOL    HW1 3965   2.667   3.380   0.247 -0.0886 -1.3208  0.6881
 1169SOL    HW2 3966   2.624   3.353   0.104  0.6913  0.6113  0.0481
 1170SOL     OW 3967   5.566   0.751   0.261  0.6276 -0.3197  0.0413
 1170SOL    HW1 3968   5.645   0.702   0.240  0.1492 -1.4648  0.8421
 1170SOL    HW2 3969   5.593   0.817   0.324  1.3776  0.8457 -1.4238
 1171SOL     OW 3970   3.630   1.881   5.506  0.1520  0.1772 -0.3247
 1171SOL    HW1 3971   3.704   1.820   5.507  1.1990  1.3870  1.2130
 1171SOL    HW2 3972   3.647   1.940   5.433 -0.7364 -1.1506 -1.6611
 1172SOL     OW 3973   4.062   1.896   1.112 -0.4402 -0.2599  0.0043
 1172SOL    HW1 3974   4.123   1.832   1.148 -0.5449 -0.2612  0.1781
 1172SOL    HW2 3975   4.077   1.893   1.018  0.1564  0.0721  0.0864
 1173SOL     OW 3976   2.637   4.104   5.643 -0.1687 -0.3578  0.1181
 1173SOL    HW1 3977   2.692   4.142   5.712  0.6337 -2.2983  0.5961
 1173SOL    HW2 3978   2.554   4.151   5.650  0.8792  1.5503  0.4102
 1174SOL     OW 3979   0.286   1.392   1.052 -0.1383  0.3076  0.5104
 1174SOL    HW1 3980   0.279   1.434   1.137  1.3781 -1.0152  1.3461
 1174SOL    HW2 3981   0.357   1.438   1.007 -0.2630  0.3541  0.3596
 1175SOL     OW 3982   2.745   2.049   3.348 -0.5395  0.0479  0.0270
 1175SOL    HW1 3983   2.706   1.985   3.408  0.3585  1.1828  1.8968
 1175SOL    HW2 3984   2.840   2.035   3.358 -0.3731 -0.1128 -1.5787
 1176SOL     OW 3985   4.765   6.131   2.617 -0.9079 -0.1262 -1.0517
 1176SOL    HW1 3986   4.857   6.119   2.592  0.3677  3.0904  1.4065
 1176SOL    HW2 3987   4.722   6.157   2.536  0.7174 -0.0285 -1.9429
 1177SOL     OW 3988   5.032   5.952   4.231  0.2200 -0.0097  0.0229
 1177SOL    HW1 3989   5.087   6.030   4.231 -0.0623  0.2441 -2.1706
 1177SOL    HW2 3990   4.997   5.947   4.320 -0.2233  2.6868  0.0763
 1178SOL     OW 3991   2.676   1.382   3.887 -0.0054 -0.2061 -0.5385
 1178SOL    HW1 3992   2.763   1.407   3.919 -0.3010 -0.4864  0.5244
 1178SOL    HW2 3993   2.667   1.429   3.803  0.4293  1.3052  0.2210
 1179SOL     OW 3994   5.953   2.666   2.454  0.2154 -0.2559  0.1393
 1179SOL    HW1 3995   5.943   2.756   2.422 -0.2333 -0.3658 -0.0405
 1179SOL    HW2 3996   6.032   2.668   2.507 -0.3969  0.4976  1.0486
 1180SOL     OW 3997   2.744   0.683   1.983  0.1959 -0.2351  0.1617
 1180SOL    HW1 3998   2.730   0.591   1.961 -1.1284  0.0055 -0.0697
 1180SOL    HW2 3999   2.746   0.685   2.079 -0.6687 -0.3931  0.1872
 1181SOL     OW 4000   1.005   5.513   4.713 -0.3924 -0.1337  0.0653
 1181SOL    HW1 4001   1.068   5.450   4.747 -0.1073 -1.5590 -2.8191
 1181SOL    HW2 4002   1.052   5.597   4.715  0.3228 -0.5366  1.1421
 1182SOL     OW 4003   0.548   6.121   0.626  0.0113  0.3774 -0.3140
 1182SOL    HW1 4004   0.586   6.110   0.714 -1.6805  2.1134  0.6947
 1182SOL    HW2 4005   0.464   6.076   0.631 -0.2646  0.8231 -0.9459
 1183SOL     OW 4006   5.341   5.790   3.730 -0.9214 -0.2177 -0.2827
 1183SOL    HW1 4007   5.290   5.864   3.695 -1.0995  0.3932  1.2151
 1183SOL    HW2 4008   5.332   5.797   3.825  1.2969 -0.5980 -0.0066
 1184SOL     OW 4009   6.061   2.299   4.204 -0.1062 -0.0488 -0.5810
 1184SOL    HW1 4010   6.084   2.357   4.130 -0.3883  1.0917  0.2022
 1184SOL    HW2 4011   6.145   2.279   4.245 -0.0876  0.5935 -0.2920
 1185SOL     OW 4012   6.227   2.894   5.991 -0.2298  0.0777 -0.0773
 1185SOL    HW1 4013   6.210   2.983   6.020 -1.6298  0.3793 -1.6080
 1185SOL    HW2 4014   6.317   2.876   6.016 -0.1616  1.6492  0.9021
 1186SOL     OW 4015   4.068   2.272   0.833 -0.7120  0.2538 -0.0607
 1186SOL    HW1 4016   4.069   2.319   0.916 -1.7417  1.8074 -0.8687
 1186SOL    HW2 4017   4.011   2.197   0.849 -0.7850  0.4557  0.6881
 1187SOL     OW 4018   1.713   0.991   3.846  0.2968 -0.7899 -0.2138
 1187SOL    HW1 4019   1.808   1.007   3.850  0.0154  0.7330  1.3278
 1187SOL    HW2 4020   1.692   0.952   3.931 -0.3814 -1.7284 -0.7991
 1188SOL     OW 4021   1.993   0.503   4.938  0.3357  0.3628 -0.3860
 1188SOL    HW1 4022   2.045   0.493   4.858  0.4627  1.1856 -0.4240
 1188SOL    HW2 4023   1.916   0.554   4.911  0.0397  0.0590 -0.1220
 1189SOL     OW 4024   1.133   2.777   5.666  0.4337  0.6203  0.4219
 1189SOL    HW1 4025   1.158   2.773   5.573  0.3024 -1.1927  0.4232
 1189SOL    HW2 4026   1.207   2.819   5.709  1.6183 -0.7733 -0.1804
 1190SOL     OW 4027   1.977   3.545   2.581 -0.3130  0.4271  0.0176
 1190SOL    HW1 4028   2.046   3.524   2.518  1.2146 -0.6240  1.9376
 1190SOL    HW2 4029   1.945   3.460   2.610 -0.2709  0.8560  1.3851
 1191SOL     OW 4030   2.069   3.750   3.465  0.0843 -0.3296 -0.1582
 1191SOL    HW1 4031   1.997   3.744   3.528  0.0452 -0.8066 -0.2436
 1191SOL    HW2 4032   2.145   3.775   3.517  0.1952 -1.3565  0.1886
 1192SOL     OW 4033   2.424   3.244   6.355  0.0917  0.4494 -0.2921
 1192SOL    HW1 4034   2.349   3.214   6.303 -1.0072  1.3511  0.7247
 1192SOL    HW2 4035   2.461   3.315   6.303 -1.2541  1.6265  0.2991
 1193SOL     OW 4036   5.183   5.993   0.507 -0.0853  0.1084 -0.6040
 1193SOL    HW1 4037   5.238   5.915   0.510  0.9464  0.7395 -1.8763
 1193SOL    HW2 4038   5.102   5.968   0.551 -0.2955 -2.0994 -2.1119
 1194SOL     OW 4039   3.106   2.876   2.162 -0.0182 -0.8890 -0.0305
 1194SOL    HW1 4040   3.184   2.905   2.115 -0.2085 -0.9935 -0.4129
 1194SOL    HW2 4041   3.061   2.817   2.101 -0.0539 -1.3517  0.4350
 1195SOL     OW 4042   0.238   3.393   0.233  0.1999  0.1613  0.3363
 1195SOL    HW1 4043   0.257   3.487   0.229  3.6129 -0.4622 -1.6862
 1195SOL    HW2 4044   0.209   3.371   0.145  0.0790 -0.7864  0.6049
 1196SOL     OW 4045   2.039   5.777   0.548  0.4883  0.1335  0.4742
 1196SOL    HW1 4046   2.022   5.696   0.500  0.5941  0.1629  0.3868
 1196SOL    HW2 4047   2.046   5.750   0.640  2.5091 -0.2584  0.2490
 1197SOL     OW 4048   0.859   3.805   2.293 -0.9189  0.1708  0.6407
 1197SOL    HW1 4049   0.782   3.783   2.345 -0.3669 -2.1918  0.5577
 1197SOL    HW2 4050   0.827   3.870   2.230 -2.4972  0.2364  1.4435
 1198SOL     OW 4051   2.572   1.506   0.647  0.4990  0.2564  0.3608
 1198SOL    HW1 4052   2.591   1.473   0.734  0.4329 -1.9831 -0.3943
 1198SOL    HW2 4053   2.485   1.546   0.655 -0.4168 -1.6948  0.9721
 1199SOL     OW 4054   0.160   2.242   1.191 -0.6299  0.0117 -0.2120
 1199SOL    HW1 4055   0.133   2.177   1.256  1.8569  0.6867  1.6488
 1199SOL    HW2 4056   0.240   2.207   1.153 -1.7023 -0.0735 -2.6007
 1200SOL     OW 4057   3.518   5.682   5.471 -0.0319  0.1082  0.0243
 1200SOL    HW1 4058   3.428   5.671   5.441  0.1274  0.7757 -0.7448
 1200SOL    HW2 4059   3.571   5.673   5.392  0.4249  1.6640  0.1151
 1201SOL     OW 4060   3.848   1.782   0.925 -0.0024  0.5194 -0.0046
 1201SOL    HW1 4061   3.817   1.716   0.987 -0.7085  1.8691  1.1157
 1201SOL    HW2 4062   3.839   1.739   0.839 -1.2951 -0.5190  0.6109
 1202SOL     OW 4063   2.120   4.414   2.979 -0.3460 -0.1581 -0.7466
 1202SOL    HW1 4064   2.143   4.327   2.945 -0.9627 -0.2988 -0.8246
 1202SOL    HW2 4065   2.036   4.434   2.937 -0.0411  0.6317 -0.9990
 1203SOL     OW 4066   5.891   1.688   5.944 -0.1201 -0.4166  0.1595
 1203SOL    HW1 4067   5.805   1.726   5.928  0.9524  2.4840  0.6462
 1203SOL    HW2 4068   5.932   1.682   5.858 -0.3952 -0.7559  0.0504
 1204SOL     OW 4069   5.419   5.586   2.147  0.0767  0.3572 -0.4068
 1204SOL    HW1 4070   5.326   5.565   2.156 -0.0758  0.9678 -0.5143
 1204SOL    HW2 4071   5.438   5.642   2.222  0.4387 -0.0509 -0.1988
 1205SOL     OW 4072   0.691   0.179   5.076  0.2949  0.0232  0.5914
 1205SOL    HW1 4073   0.724   0.240   5.009  0.7295 -0.3690  0.4414
 1205SOL    HW2 4074   0.607   0.216   5.103  0.1996  0.2765 -0.0448
 1206SOL     OW 4075   4.689   0.574   0.372 -0.2482 -0.3437  0.0247
 1206SOL    HW1 4076   4.665   0.505   0.434  0.1384 -0.4595  0.0515
 1206SOL    HW2 4077   4.606   0.611   0.343 -0.4425 -0.5325  0.3400
 1207SOL     OW 4078   0.959   2.512   5.555 -0.5479 -0.3344 -0.2398
 1207SOL    HW1 4079   1.032   2.574   5.547 -2.0345  1.4089 -1.0869
 1207SOL    HW2 4080   0.994   2.442   5.610  1.6533  0.5775 -0.3425
 1208SOL     OW 4081   3.965   4.094   5.638 -0.4972  0.4344 -0.3226
 1208SOL    HW1 4082   3.992   4.149   5.712 -1.3822  0.6577 -0.1604
 1208SOL    HW2 4083   3.900   4.034   5.675 -0.9344  0.5390 -0.9168
 1209SOL     OW 4084   0.607   1.881   3.336  0.6473 -0.3225 -0.0446
 1209SOL    HW1 4085   0.657   1.800   3.323  0.9619 -0.3062  1.0077
 1209SOL    HW2 4086   0.534   1.874   3.274  1.7534 -0.4957 -1.3659
 1210SOL     OW 4087   5.670   5.734   3.989  0.7625 -0.0036 -0.5117
 1210SOL    HW1 4088   5.684   5.824   4.017  0.2815  0.3791 -1.4893
 1210SOL    HW2 4089   5.663   5.738   3.894  2.0762 -1.2517 -0.7101
 1211SOL     OW 4090   5.066   5.807   6.374  0.0033 -0.3750 -0.2538
 1211SOL    HW1 4091   5.097   5.879   6.429 -1.2840 -1.0279  1.4163
 1211SOL    HW2 4092   4.976   5.831   6.351 -0.8029 -1.8642  1.1697
 1212SOL     OW 4093   2.673   1.451   2.517  0.0815 -0.1111 -0.3098
 1212SOL    HW1 4094   2.695   1.361   2.542  1.3193  0.0162 -0.8556
 1212SOL    HW2 4095   2.659   1.496   2.601  0.4548 -0.5830  0.0107
 1213SOL     OW 4096   2.624   0.506   4.277  0.0964 -0.4878  0.2906
 1213SOL    HW1 4097   2.709   0.549   4.290  0.0929 -0.7190  1.0866
 1213SOL    HW2 4098   2.566   0.576   4.246  0.5404 -0.3040 -0.1457
 1214SOL     OW 4099   0.225   6.273   4.571  0.1136 -0.1703  0.5507
 1214SOL    HW1 4100   0.246   6.186   4.538 -0.4559  0.6254 -2.2344
 1214SOL    HW2 4101   0.303   6.325   4.552 -0.6693  0.5819 -0.7513
 1215SOL     OW 4102   5.078   6.325   5.479  0.4533  0.1820  0.1576
 1215SOL    HW1 4103   5.149   6.265   5.501  1.4479  1.7246  1.4210
 1215SOL    HW2 4104   5.071   6.321   5.384  0.2935 -2.0944  0.2197
 1216SOL     OW 4105   4.322   4.779   1.586 -0.2716  0.0273  0.0336
 1216SOL    HW1 4106   4.282   4.854   1.630  0.5076  0.5294 -0.0968
 1216SOL    HW2 4107   4.264   4.759   1.513  0.8732  2.2543 -1.6151
 1217SOL     OW 4108   5.320   4.216   5.378 -0.1604  0.0208  0.0778
 1217SOL    HW1 4109   5.382   4.198   5.308 -1.1648 -2.6041 -0.2402
 1217SOL    HW2 4110   5.235   4.223   5.335 -0.6897 -0.8778  0.9282
 1218SOL     OW 4111   5.720   1.041   3.819 -0.6294  0.0795 -0.0751
 1218SOL    HW1 4112   5.798   1.066   3.869 -0.1058 -0.0462 -0.8203
 1218SOL    HW2 4113   5.727   0.946   3.810  0.2519  0.2985 -1.9755
 1219SOL     OW 4114   4.460   3.962   6.329  0.5529  0.0078  0.9118
 1219SOL    HW1 4115   4.537   3.987   6.278  0.4265 -1.6700 -0.1869
 1219SOL    HW2 4116   4.492   3.957   6.419  2.0696 -1.7389  0.3387
 1220SOL     OW 4117   1.784   3.251   0.301  0.2432 -0.4026 -0.0829
 1220SOL    HW1 4118   1.768   3.282   0.212  1.1686  1.3634  0.3182
 1220SOL    HW2 4119   1.730   3.172   0.309 -0.7560  0.0504 -1.8083
 1221SOL     OW 4120   4.616   4.431   4.928 -0.0513 -0.8236 -0.1663
 1221SOL    HW1 4121   4.527   4.430   4.963  0.1970  2.0866  0.8654
 1221SOL    HW2 4122   4.623   4.515   4.881  1.2358 -2.3453 -2.9752
 1222SOL     OW 4123   0.181   4.543   1.385  0.0163 -0.8358 -0.3982
 1222SOL    HW1 4124   0.248   4.474   1.380 -0.4887 -1.3395 -0.3220
 1222SOL    HW2 4125   0.127   4.518   1.459  0.3690  0.1496  0.2053
 1223SOL     OW 4126   2.597   4.124   0.696  0.5426  0.8103 -0.3258
 1223SOL    HW1 4127   2.523   4.182   0.674  1.1821  1.5500 -0.5518
 1223SOL    HW2 4128   2.674   4.172   0.668  1.1107 -0.0270 -0.2237
 1224SOL     OW 4129   0.382   0.427   2.822  0.0971  0.5941 -0.3533
 1224SOL    HW1 4130   0.343   0.339   2.825 -0.3935  0.8434  0.8253
 1224SOL    HW2 4131   0.469   0.415   2.862 -1.1061  1.1782  2.7154
 1225SOL     OW 4132   6.084   3.273   0.230  0.5537 -0.1106 -0.4129
 1225SOL    HW1 4133   6.159   3.214   0.235  0.5084 -0.7092 -3.9800
 1225SOL    HW2 4134   6.123   3.360   0.220  0.7966 -0.3027 -1.2391
 1226SOL     OW 4135   5.619   1.620   2.582  0.0827 -0.5497 -0.4036
 1226SOL    HW1 4136   5.697   1.660   2.621 -0.9408 -0.5138  1.7899
 1226SOL    HW2 4137   5.550   1.684   2.595 -0.5164 -0.9719 -1.4453
 1227SOL     OW 4138   1.206   0.550   3.877 -0.0247 -0.1345 -0.1002
 1227SOL    HW1 4139   1.183   0.616   3.943 -2.1637 -1.5381  0.6559
 1227SOL    HW2 4140   1.182   0.589   3.794 -2.1844 -0.2677  0.4203
 1228SOL     OW 4141   1.417   5.042   3.267  0.1167 -0.2929 -0.2832
 1228SOL    HW1 4142   1.512   5.056   3.262  0.0440  0.0050 -0.8121
 1228SOL    HW2 4143   1.390   5.027   3.177 -0.2256 -1.1708 -0.0510
 1229SOL     OW 4144   1.726   0.059   0.538  0.7816  0.4819 -0.2311
 1229SOL    HW1 4145   1.657   0.045   0.604  0.4312 -1.1439 -0.8992
 1229SOL    HW2 4146   1.763   0.145   0.561 -0.1310  0.5067  1.3431
 1230SOL     OW 4147   5.001   2.977   2.682 -0.2254 -1.2224  0.0579
 1230SOL    HW1 4148   4.943   3.053   2.677  0.2823 -0.7541  0.9089
 1230SOL    HW2 4149   4.992   2.934   2.597  0.2630  0.3739 -0.8484
 1231SOL     OW 4150   5.832   3.898   3.477 -0.1185  0.4966 -0.0339
 1231SOL    HW1 4151   5.889   3.865   3.408  1.2575 -0.0790  1.3251
 1231SOL    HW2 4152   5.834   3.831   3.545  0.7373  2.1813  1.7192
 1232SOL     OW 4153   5.238   5.763   4.288  0.3786 -0.4719  0.4188
 1232SOL    HW1 4154   5.171   5.824   4.258  1.0665  0.1543  0.1076
 1232SOL    HW2 4155   5.195   5.712   4.356 -0.8019 -0.9746 -0.6539
 1233SOL     OW 4156   1.518   1.527   3.762  0.1946  0.2962 -0.5904
 1233SOL    HW1 4157   1.486   1.544   3.850  1.7287 -0.4422  0.1494
 1233SOL    HW2 4158   1.574   1.602   3.742  0.1011  0.3074 -0.8143
 1234SOL     OW 4159   2.048   3.103   4.822 -0.1216  0.0740  0.6377
 1234SOL    HW1 4160   2.138   3.134   4.824  0.5592 -1.7201  0.2073
 1234SOL    HW2 4161   2.056   3.008   4.809 -2.0548 -0.2238  1.2868
 1235SOL     OW 4162   0.001   1.981   5.589  0.5623  0.1597  0.1751
 1235SOL    HW1 4163   0.031   1.993   5.679  0.3052  1.0841  0.1565
 1235SOL    HW2 4164  -0.036   1.893   5.587 -0.8129  0.6651  1.3943
 1236SOL     OW 4165   5.370   1.028   1.179  0.0440  0.2132 -0.6132
 1236SOL    HW1 4166   5.335   1.042   1.091 -0.5377 -1.8841 -0.7870
 1236SOL    HW2 4167   5.417   0.945   1.172  1.1622  0.7012  0.7526
 1237SOL     OW 4168   2.067   1.901   2.645  0.0828 -0.3526  0.2313
 1237SOL    HW1 4169   2.143   1.924   2.592 -0.3481 -0.6651 -0.5453
 1237SOL    HW2 4170   2.063   1.968   2.713  0.4393  0.2539 -0.3442
 1238SOL     OW 4171   5.641   5.565   5.184  0.3896 -0.6300  0.1030
 1238SOL    HW1 4172   5.735   5.587   5.189  0.0345  0.8486  0.8751
 1238SOL    HW2 4173   5.610   5.570   5.274 -0.0915 -2.9564  0.1321
 1239SOL     OW 4174   1.342   5.658   4.593  0.0756  0.1190 -0.5247
 1239SOL    HW1 4175   1.341   5.647   4.498  0.7997  0.9445 -0.6402
 1239SOL    HW2 4176   1.254   5.692   4.613  0.2715  0.9559 -1.0369
 1240SOL     OW 4177   0.689   5.095   2.686  0.0057 -0.9902  0.1674
 1240SOL    HW1 4178   0.726   5.042   2.616  0.7403 -0.7765  0.3780
 1240SOL    HW2 4179   0.625   5.039   2.729  0.3337 -1.4905  0.0037
 1241SOL     OW 4180   5.217   2.503   3.381  0.5258  0.0758  0.1751
 1241SOL    HW1 4181   5.228   2.446   3.305 -1.9591 -1.1986  0.6616
 1241SOL    HW2 4182   5.249   2.589   3.352 -0.4367 -0.3301 -2.3244
 1242SOL     OW 4183   6.142   0.529   5.746 -0.2804 -0.1150 -0.0543
 1242SOL    HW1 4184   6.098   0.459   5.795  1.0853 -1.8525 -1.1657
 1242SOL    HW2 4185   6.071   0.573   5.699 -1.1027 -1.4102 -0.0978
 1243SOL     OW 4186   5.682   2.188   4.060 -0.0806 -0.2550 -0.1453
 1243SOL    HW1 4187   5.681   2.267   4.113  3.2700  0.4018 -0.8064
 1243SOL    HW2 4188   5.682   2.116   4.124  0.6269  0.4204  0.6379
 1244SOL     OW 4189   2.017   4.748   2.986  0.0855 -1.0573  0.7384
 1244SOL    HW1 4190   2.006   4.735   3.080 -0.1914  0.6657  0.9796
 1244SOL    HW2 4191   2.046   4.839   2.977 -3.1480 -0.0280 -0.9938
 1245SOL     OW 4192   3.845   5.910   1.900  0.1635  0.0684  0.1235
 1245SOL    HW1 4193   3.865   6.002   1.920 -0.3898 -0.2005  2.0911
 1245SOL    HW2 4194   3.758   5.896   1.936 -0.5038 -0.8009 -1.7067
 1246SOL     OW 4195   4.821   3.609   5.202 -0.3294  0.2860  0.0381
 1246SOL    HW1 4196   4.776   3.685   5.166 -0.7980  0.2320  0.5011
 1246SOL    HW2 4197   4.809   3.615   5.296 -2.2448 -1.4848 -0.0136
 1247SOL     OW 4198   1.591   4.204   2.479  0.0840  0.0047 -0.1884
 1247SOL    HW1 4199   1.656   4.140   2.451 -0.0691 -0.8777  1.3203
 1247SOL    HW2 4200   1.639   4.286   2.488  0.7910 -0.4234 -0.0016
 1248SOL     OW 4201   4.744   1.107   2.515  0.4563 -0.2919 -0.6688
 1248SOL    HW1 4202   4.704   1.022   2.493  0.3338  0.0496 -1.8432
 1248SOL    HW2 4203   4.682   1.148   2.575  0.8124 -1.2819  0.4185
 1249SOL     OW 4204   4.681   4.515   4.196 -0.5253  0.8436  0.2779
 1249SOL    HW1 4205   4.617   4.586   4.198 -2.8754 -0.7592 -4.1488
 1249SOL    HW2 4206   4.633   4.439   4.230 -0.6734 -0.0846 -1.8361
 1250SOL     OW 4207   0.166   1.498   3.082  0.4458 -0.3464  0.8472
 1250SOL    HW1 4208   0.084   1.499   3.131  0.3432 -1.7022  0.7381
 1250SOL    HW2 4209   0.174   1.408   3.050  1.8460 -0.1658  0.6326
 1251SOL     OW 4210   4.581   0.859   4.690  0.1905  0.1515 -0.0578
 1251SOL    HW1 4211   4.594   0.940   4.640  0.3728  0.2796  0.1953
 1251SOL    HW2 4212   4.668   0.833   4.718  0.3623 -1.1183 -1.6410
 1252SOL     OW 4213   5.783   1.853   0.310  0.0724 -0.0865  0.3533
 1252SOL    HW1 4214   5.724   1.802   0.366  0.6615  1.1356  2.1858
 1252SOL    HW2 4215   5.870   1.816   0.329  0.4474  1.2179  1.3615
 1253SOL     OW 4216   4.893   1.526   0.561 -0.0440 -0.4754 -0.1421
 1253SOL    HW1 4217   4.844   1.529   0.644 -0.6416 -0.5722 -0.4836
 1253SOL    HW2 4218   4.907   1.432   0.546  0.3873 -0.4401  0.0340
 1254SOL     OW 4219   4.325   5.722   3.016 -0.2325 -1.0617  0.1132
 1254SOL    HW1 4220   4.393   5.657   3.036 -0.8631 -1.6421  0.4488
 1254SOL    HW2 4221   4.284   5.740   3.101  0.0669 -0.0584  0.0550
 1255SOL     OW 4222   1.191   5.172   0.271 -0.6305 -0.1443  0.1308
 1255SOL    HW1 4223   1.137   5.171   0.350  0.6550  1.1420  1.0781
 1255SOL    HW2 4224   1.240   5.090   0.273 -0.4396 -0.0199  0.8103
 1256SOL     OW 4225   4.219   1.559   0.743 -0.5061 -0.4704  1.0488
 1256SOL    HW1 4226   4.191   1.569   0.834  0.8539 -1.6881  1.6379
 1256SOL    HW2 4227   4.138   1.568   0.692 -1.2376  0.5916  2.3355
 1257SOL     OW 4228   1.905   3.529   1.794  0.2047  0.3411  0.3036
 1257SOL    HW1 4229   1.900   3.574   1.878 -0.1905 -0.0123  0.4739
 1257SOL    HW2 4230   1.882   3.596   1.730 -0.6193  0.3317  0.5732
 1258SOL     OW 4231   0.459   2.568   6.318  0.0807  0.1845 -0.1379
 1258SOL    HW1 4232   0.420   2.519   6.391 -0.2634  0.6894  0.0189
 1258SOL    HW2 4233   0.396   2.560   6.247  0.5965 -0.6426 -0.5248
 1259SOL     OW 4234   2.503   0.907   2.953 -0.0849 -0.1244 -0.1267
 1259SOL    HW1 4235   2.426   0.858   2.984 -0.0071 -1.1921 -1.5392
 1259SOL    HW2 4236   2.543   0.942   3.033 -2.0908  0.5811  0.6469
 1260SOL     OW 4237   4.318   4.634   5.831  0.1551  0.4067 -0.2128
 1260SOL    HW1 4238   4.386   4.678   5.781 -1.1041  1.4118 -1.1225
 1260SOL    HW2 4239   4.289   4.563   5.775 -1.4439  1.6966 -1.1118
 1261SOL     OW 4240   3.750   4.970   1.618  0.2341  0.1158 -0.4095
 1261SOL    HW1 4241   3.796   4.953   1.700  0.2892 -0.1391 -0.4939
 1261SOL    HW2 4242   3.671   5.017   1.645 -0.1103 -0.6019 -0.1381
 1262SOL     OW 4243   5.602   1.534   3.880  0.2625 -0.6890  0.0568
 1262SOL    HW1 4244   5.520   1.493   3.907  0.1281 -0.5264 -0.1061
 1262SOL    HW2 4245   5.576   1.603   3.819  0.4749 -0.2438  0.4629
 1263SOL     OW 4246   0.268   0.921   3.390 -0.8113 -0.7393 -0.5333
 1263SOL    HW1 4247   0.177   0.893   3.392 -1.4757  1.2501 -0.5414
 1263SOL    HW2 4248   0.290   0.937   3.482 -1.6990  2.2472 -0.7391
 1264SOL     OW 4249   0.422   3.897   4.284  0.7550  0.0170  0.3822
 1264SOL    HW1 4250   0.386   3.815   4.249 -1.0799  1.0521 -0.2459
 1264SOL    HW2 4251   0.380   3.907   4.370  1.2286  0.1465  0.6031
 1265SOL     OW 4252   3.045   2.558   1.182 -0.1323 -0.2519 -0.2170
 1265SOL    HW1 4253   3.059   2.591   1.270 -1.8640 -2.2716  0.9062
 1265SOL    HW2 4254   3.133   2.539   1.149  0.4901 -0.4287  1.4687
 1266SOL     OW 4255   4.109   2.413   1.078  0.2935  0.3326 -0.3401
 1266SOL    HW1 4256   4.050   2.465   1.023 -0.3646 -1.7260 -1.6710
 1266SOL    HW2 4257   4.191   2.462   1.078  0.0852  0.7824 -2.5801
 1267SOL     OW 4258   0.242   2.157   5.777  0.3220 -0.2225  0.3626
 1267SOL    HW1 4259   0.243   2.211   5.856 -1.4933  1.3524 -0.5987
 1267SOL    HW2 4260   0.197   2.211   5.712  0.8401 -1.8751 -1.4631
 1268SOL     OW 4261   6.164   2.813   3.323 -0.3981 -0.0041  0.1539
 1268SOL    HW1 4262   6.128   2.837   3.409  1.4466 -2.2625  1.6866
 1268SOL    HW2 4263   6.249   2.857   3.320  0.0174 -0.7952 -0.0097
 1269SOL     OW 4264   4.282   0.938   6.326  0.3917 -0.7133  0.1764
 1269SOL    HW1 4265   4.299   1.014   6.270 -1.7863 -0.7843 -0.6923
 1269SOL    HW2 4266   4.320   0.864   6.278  0.3448 -0.4923 -0.2075
 1270SOL     OW 4267   3.226   3.536   4.593 -0.1895 -0.2368 -0.5748
 1270SOL    HW1 4268   3.164   3.530   4.520 -0.1419 -0.5282 -0.5900
 1270SOL    HW2 4269   3.187   3.483   4.662 -0.3983  0.3061 -0.2674
 1271SOL     OW 4270   4.536   3.915   4.966  0.0445 -0.3531 -0.1683
 1271SOL    HW1 4271   4.603   3.910   4.898  0.5036 -1.1017  0.3202
 1271SOL    HW2 4272   4.574   3.868   5.040 -0.8280 -0.3677  0.2787
 1272SOL     OW 4273   2.066   1.212   2.044 -0.4792 -0.4197  0.0546
 1272SOL    HW1 4274   2.138   1.269   2.074 -0.4197 -0.9575  0.9794
 1272SOL    HW2 4275   2.036   1.253   1.963 -1.6728  2.0098  1.6013
 1273SOL     OW 4276   0.513   5.412   4.112 -0.3199  0.0164  0.3072
 1273SOL    HW1 4277   0.589   5.467   4.094  0.6345 -0.6371  2.1657
 1273SOL    HW2 4278   0.545   5.323   4.103 -0.8733 -0.2637  1.0399
 1274SOL     OW 4279   4.633   4.830   0.086  0.0080  0.7909  0.1613
 1274SOL    HW1 4280   4.633   4.844  -0.009 -0.6166 -0.3488 -0.0294
 1274SOL    HW2 4281   4.547   4.791   0.104 -0.1745  1.6748  1.3170
 1275SOL     OW 4282   0.016   3.692   3.847 -0.1417 -0.0695  0.7251
 1275SOL    HW1 4283   0.007   3.683   3.941 -1.5662 -1.3702  0.5125
 1275SOL    HW2 4284  -0.035   3.620   3.811 -1.3282  1.5534 -1.0668
 1276SOL     OW 4285   0.763   5.108   6.216  0.0924 -0.2205  0.0217
 1276SOL    HW1 4286   0.819   5.140   6.287 -0.5983 -0.6587  0.7910
 1276SOL    HW2 4287   0.742   5.018   6.241  1.3380 -1.0451 -1.6820
 1277SOL     OW 4288   1.384   2.698   3.264  0.1874 -0.0783  0.0123
 1277SOL    HW1 4289   1.305   2.747   3.241 -0.0717 -0.5415 -0.0938
 1277SOL    HW2 4290   1.456   2.753   3.234 -0.1245 -0.5890 -1.8190
 1278SOL     OW 4291   2.600   4.031   3.493  0.2582 -0.3153  0.1477
 1278SOL    HW1 4292   2.535   4.092   3.529 -0.3883 -1.5877  1.2184
 1278SOL    HW2 4293   2.642   3.993   3.570  1.8437 -0.0075 -0.5259
 1279SOL     OW 4294   4.830   2.453   2.405 -0.1081  0.1214 -0.2969
 1279SOL    HW1 4295   4.819   2.448   2.499 -0.0289 -0.6197 -0.3216
 1279SOL    HW2 4296   4.901   2.516   2.392  0.5908 -0.5399  0.1914
 1280SOL     OW 4297   0.014   6.149   6.034  0.2807 -0.9813  0.4322
 1280SOL    HW1 4298  -0.025   6.117   5.953  0.7004 -0.2975 -0.0487
 1280SOL    HW2 4299  -0.051   6.209   6.070  0.3919 -0.7382  0.2309
 1281SOL     OW 4300   1.017   1.430   5.146 -0.5650  0.1721  0.0518
 1281SOL    HW1 4301   0.945   1.445   5.085  0.9900 -0.5633 -2.0627
 1281SOL    HW2 4302   1.076   1.504   5.132 -0.6837  0.5873  1.5183
 1282SOL     OW 4303   1.882   2.870   1.495 -0.5540  0.1923  0.0442
 1282SOL    HW1 4304   1.892   2.788   1.446 -0.7350 -0.9596  1.8461
 1282SOL    HW2 4305   1.809   2.854   1.554 -0.1787  1.4359  0.8897
 1283SOL     OW 4306   0.767   2.816   3.991  0.0534 -0.2198  0.5806
 1283SOL    HW1 4307   0.822   2.740   3.975 -1.3494 -1.2729  0.6229
 1283SOL    HW2 4308   0.784   2.875   3.917  2.5159  0.2903  1.4768
 1284SOL     OW 4309   5.773   5.971   4.935  0.5589 -0.3306  0.1410
 1284SOL    HW1 4310   5.708   5.906   4.959 -1.2387  1.7018  1.0843
 1284SOL    HW2 4311   5.799   6.011   5.018  1.2714  0.4619 -0.4489
 1285SOL     OW 4312   3.506   0.461   0.341  0.6619 -0.1124  0.3979
 1285SOL    HW1 4313   3.489   0.530   0.277  4.4483  1.3330  0.6515
 1285SOL    HW2 4314   3.551   0.393   0.292  0.4040 -0.6143  0.8567
 1286SOL     OW 4315   4.221   1.141   5.040  0.5043  0.7357 -0.1209
 1286SOL    HW1 4316   4.285   1.212   5.038  0.7839  0.4704 -1.8607
 1286SOL    HW2 4317   4.235   1.098   5.125  1.3995  1.7733  0.2739
 1287SOL     OW 4318   5.011   3.923   2.273  0.0487 -0.0670 -0.1546
 1287SOL    HW1 4319   4.954   3.883   2.339 -1.4701 -0.4531 -1.6361
 1287SOL    HW2 4320   5.060   3.990   2.321 -2.5772  1.2048  0.9698
 1288SOL     OW 4321   5.195   0.536   0.562 -0.5435  0.5547 -0.2238
 1288SOL    HW1 4322   5.134   0.470   0.529 -1.1716  1.5250 -1.1057
 1288SOL    HW2 4323   5.145   0.618   0.558  0.1242  1.0509  1.0870
 1289SOL     OW 4324   0.275   5.489   4.749 -0.2899  0.0592 -0.3968
 1289SOL    HW1 4325   0.316   5.404   4.739  0.3667  0.1766  1.0656
 1289SOL    HW2 4326   0.343   5.544   4.788 -1.5028  0.5060  1.2018
 1290SOL     OW 4327   5.850   1.906   5.063  0.0529  0.1322  0.1092
 1290SOL    HW1 4328   5.935   1.936   5.095  0.2577  0.0581 -0.3491
 1290SOL    HW2 4329   5.866   1.882   4.972 -0.2166 -0.9219  0.3240
 1291SOL     OW 4330   4.198   1.908   5.644  0.4062 -0.0097  0.3728
 1291SOL    HW1 4331   4.186   1.868   5.730  0.2745 -1.3831 -0.2474
 1291SOL    HW2 4332   4.150   1.990   5.648  0.7211  0.1291  1.7266
 1292SOL     OW 4333   3.287   4.548   2.378 -0.2138  0.4838 -0.6912
 1292SOL    HW1 4334   3.204   4.551   2.330  0.1904 -1.6210 -1.6501
 1292SOL    HW2 4335   3.348   4.505   2.317  1.5333  1.7784  0.0824
 1293SOL     OW 4336   2.771   1.113   0.882 -0.4880  0.6191 -0.0509
 1293SOL    HW1 4337   2.817   1.033   0.856 -2.3336  0.1171 -1.9929
 1293SOL    HW2 4338   2.717   1.086   0.957 -0.6451  0.1980 -0.3141
 1294SOL     OW 4339   0.250   5.300   2.000 -0.2097  0.2571 -0.1943
 1294SOL    HW1 4340   0.167   5.348   2.005 -0.7910 -0.7633  0.3806
 1294SOL    HW2 4341   0.317   5.365   2.021 -0.9747  0.8186  0.6076
 1295SOL     OW 4342   2.506   1.842   1.321 -0.1878 -0.1679  0.4267
 1295SOL    HW1 4343   2.574   1.781   1.350  0.0971 -0.6090 -1.0522
 1295SOL    HW2 4344   2.487   1.815   1.231 -3.2028 -0.8509  1.1481
 1296SOL     OW 4345   6.336   3.466   0.417  0.0548  0.3509 -0.7892
 1296SOL    HW1 4346   6.330   3.392   0.477  0.2310  1.8057  1.1125
 1296SOL    HW2 4347   6.406   3.442   0.356  1.4290 -0.2553  0.9700
 1297SOL     OW 4348   5.825   5.319   0.853 -0.0857 -0.0659 -0.5153
 1297SOL    HW1 4349   5.765   5.252   0.887 -0.0828  0.0946 -0.1904
 1297SOL    HW2 4350   5.903   5.270   0.827  0.0189 -0.1604 -0.0329
 1298SOL     OW 4351   1.907   5.573   0.362  0.0026  0.1943 -0.1416
 1298SOL    HW1 4352   1.845   5.530   0.303  0.1258 -0.9651  0.5616
 1298SOL    HW2 4353   1.991   5.569   0.315 -0.4453  1.9819 -1.2038
 1299SOL     OW 4354   0.498   6.360   0.012  1.0185  0.2826 -0.0315
 1299SOL    HW1 4355   0.563   6.289   0.012  1.6321  0.8109 -1.5220
 1299SOL    HW2 4356   0.549   6.439  -0.002  0.4518  1.2020  2.5533
 1300SOL     OW 4357   5.812   5.547   0.969 -0.7837  0.4677  0.0284
 1300SOL    HW1 4358   5.730   5.589   0.941 -1.2644 -0.4014  0.1034
 1300SOL    HW2 4359   5.811   5.462   0.925 -0.0102  0.3782  0.1834
 1301SOL     OW 4360   0.469   6.044   4.238 -0.0122  0.3106  0.4529
 1301SOL    HW1 4361   0.484   6.092   4.156 -0.1009 -0.2648  0.0933
 1301SOL    HW2 4362   0.386   5.998   4.224 -1.9690  2.9958  2.2103
 1302SOL     OW 4363   1.312   3.044   2.035  0.7045  0.1312 -0.5979
 1302SOL    HW1 4364   1.286   3.070   1.947  1.8124 -0.5535 -1.1309
 1302SOL    HW2 4365   1.265   3.106   2.092  0.4612  0.9680 -1.6753
 1303SOL     OW 4366   3.192   2.572   1.834 -0.1163 -0.2126  0.2333
 1303SOL    HW1 4367   3.129   2.643   1.848 -0.3006 -0.1762 -0.6965
 1303SOL    HW2 4368   3.189   2.521   1.915 -0.4488  0.4822  0.6674
 1304SOL     OW 4369   4.540   6.354   3.784  0.5268  0.2710  0.2291
 1304SOL    HW1 4370   4.566   6.374   3.694  0.2658 -0.0751  0.0790
 1304SOL    HW2 4371   4.457   6.400   3.795 -0.7498 -1.7555 -0.5403
 1305SOL     OW 4372   5.634   3.844   2.869  0.1228 -0.3050  0.5110
 1305SOL    HW1 4373   5.663   3.824   2.780  1.6768  1.6803  0.4831
 1305SOL    HW2 4374   5.559   3.903   2.857  0.8461  0.6359  0.4601
 1306SOL     OW 4375   4.797   2.392   0.972  0.1775  0.1166 -0.7437
 1306SOL    HW1 4376   4.732   2.446   1.019 -0.5445  0.4870 -2.1199
 1306SOL    HW2 4377   4.749   2.312   0.949  1.3661 -1.4342  1.7056
 1307SOL     OW 4378   1.926   2.162   5.415 -0.4436 -0.0155  0.3897
 1307SOL    HW1 4379   1.843   2.115   5.408 -1.1533  1.1713  0.5589
 1307SOL    HW2 4380   1.932   2.187   5.507  0.5164 -0.8015  0.5524
 1308SOL     OW 4381   3.337   4.785   3.401 -0.2512  0.3160 -0.0791
 1308SOL    HW1 4382   3.253   4.790   3.447 -1.0766  0.6461 -1.5597
 1308SOL    HW2 4383   3.322   4.831   3.319  1.1768 -0.2591 -0.6944
 1309SOL     OW 4384   1.951   5.264   0.510  0.0129 -0.1923  0.2226
 1309SOL    HW1 4385   1.978   5.348   0.548 -0.6062  0.2104 -0.2118
 1309SOL    HW2 4386   1.984   5.267   0.420  0.7275 -0.7810  0.4574
 1310SOL     OW 4387   0.206   3.359   1.448  0.4001  0.0806  0.1565
 1310SOL    HW1 4388   0.292   3.318   1.460  1.3799  2.3651  1.7922
 1310SOL    HW2 4389   0.225   3.439   1.398 -1.1699 -0.5071 -1.4804
 1311SOL     OW 4390   4.100   2.142   1.850 -0.1575 -0.4564 -0.4547
 1311SOL    HW1 4391   4.099   2.209   1.918 -1.0799 -0.7939 -0.1146
 1311SOL    HW2 4392   4.171   2.083   1.875  0.6600  0.3688 -0.7559
 1312SOL     OW 4393   0.670   2.894   2.840 -0.1206 -0.1240  0.4028
 1312SOL    HW1 4394   0.582   2.893   2.803 -0.6567 -1.8586  1.5928
 1312SOL    HW2 4395   0.729   2.899   2.764 -1.1841  3.2957 -0.3571
 1313SOL     OW 4396   3.753   2.617   0.804  0.3838 -0.6767  0.1533
 1313SOL    HW1 4397   3.784   2.549   0.744  1.2469  0.4918 -0.7907
 1313SOL    HW2 4398   3.755   2.698   0.752  0.4195  0.2556  1.5334
 1314SOL     OW 4399   4.110   0.019   4.211 -0.0820 -0.0253  0.2647
 1314SOL    HW1 4400   4.118   0.112   4.189 -1.4397  0.2234  0.7661
 1314SOL    HW2 4401   4.162  -0.025   4.144  0.8541  1.1038  0.2141
 1315SOL     OW 4402   1.977   1.934   5.088  0.6144 -0.0396 -0.6657
 1315SOL    HW1 4403   2.066   1.956   5.060  1.4071 -0.1581  1.5078
 1315SOL    HW2 4404   1.988   1.904   5.178 -1.5048 -1.2626 -0.7667
 1316SOL     OW 4405   2.562   5.361   5.061 -0.3086  0.3099 -0.1410
 1316SOL    HW1 4406   2.637   5.302   5.072 -0.5928  0.1176  0.9032
 1316SOL    HW2 4407   2.501   5.311   5.007 -0.8515 -0.6818  1.3279
 1317SOL     OW 4408   0.653   1.173   4.804 -0.3182  0.0264  0.5343
 1317SOL    HW1 4409   0.663   1.085   4.839  1.1936 -0.3817 -0.8081
 1317SOL    HW2 4410   0.564   1.175   4.769 -0.1888 -1.1804  0.0711
 1318SOL     OW 4411   3.274   0.738   0.309  0.0507  0.0188 -0.8116
 1318SOL    HW1 4412   3.346   0.711   0.252  1.2804  0.8565  0.2768
 1318SOL    HW2 4413   3.316   0.789   0.378 -1.6098  0.5589 -0.1485
 1319SOL     OW 4414   3.484   5.908   0.788  0.5329  0.2771 -0.4802
 1319SOL    HW1 4415   3.414   5.849   0.817 -0.8676  1.8359 -0.5621
 1319SOL    HW2 4416   3.518   5.946   0.869  2.2437 -1.4113 -0.3179
 1320SOL     OW 4417   2.812   2.351   2.055 -0.2297  0.2188 -0.3992
 1320SOL    HW1 4418   2.867   2.297   2.113 -2.0320 -1.4501 -0.1587
 1320SOL    HW2 4419   2.846   2.334   1.967  0.4647  0.2424 -0.1440
 1321SOL     OW 4420   5.396   0.466   2.036  0.3960 -0.0292  0.2496
 1321SOL    HW1 4421   5.318   0.513   2.007  0.0232 -0.4912  0.4918
 1321SOL    HW2 4422   5.413   0.402   1.966  1.7563  1.4033 -0.7913
 1322SOL     OW 4423   0.485   3.004   0.380 -0.2377  0.2560 -0.0263
 1322SOL    HW1 4424   0.446   3.042   0.302 -0.0723 -2.2760 -1.4591
 1322SOL    HW2 4425   0.425   2.934   0.405  0.4988  0.0233  1.1798
 1323SOL     OW 4426   5.507   1.612   3.057 -1.0402  0.6240  0.1617
 1323SOL    HW1 4427   5.575   1.651   3.002 -0.8672 -0.6270 -0.5488
 1323SOL    HW2 4428   5.537   1.629   3.147 -0.9987  2.1202 -0.1073
 1324SOL     OW 4429   0.891   2.763   1.267  0.0873  0.5796 -0.2991
 1324SOL    HW1 4430   0.957   2.829   1.289 -1.3884  1.6214  1.2247
 1324SOL    HW2 4431   0.846   2.797   1.190  0.1103  0.7643 -0.2307
 1325SOL     OW 4432   1.856   1.908   4.858 -0.5221 -0.3165  0.3092
 1325SOL    HW1 4433   1.896   1.910   4.945  1.9830  0.8903 -0.7640
 1325SOL    HW2 4434   1.906   1.843   4.809 -0.9891 -0.0181 -0.5998
 1326SOL     OW 4435   4.542   3.332   3.811  0.2097  0.4281 -0.1190
 1326SOL    HW1 4436   4.560   3.343   3.905  1.8499 -1.5664 -0.1332
 1326SOL    HW2 4437   4.521   3.239   3.801  0.9769  0.4068 -1.8621
 1327SOL     OW 4438   3.635   2.224   3.487 -0.6041 -0.0201  0.3051
 1327SOL    HW1 4439   3.580   2.202   3.562  0.1514  1.1642  1.2321
 1327SOL    HW2 4440   3.666   2.313   3.504  3.4515 -1.3509  1.0303
 1328SOL     OW 4441   4.719   2.831   2.491 -0.1812  0.0102  0.5289
 1328SOL    HW1 4442   4.726   2.774   2.415 -1.9464  1.6168 -0.9241
 1328SOL    HW2 4443   4.790   2.895   2.480 -2.2677  2.1469 -1.5783
 1329SOL     OW 4444   3.849   4.707   4.220  0.5428  0.2810 -0.5485
 1329SOL    HW1 4445   3.838   4.612   4.208 -0.9776  0.4723 -0.9138
 1329SOL    HW2 4446   3.778   4.745   4.168 -0.7344  1.5132  1.9212
 1330SOL     OW 4447   0.456   4.148   4.492  0.2836  0.2668 -0.0875
 1330SOL    HW1 4448   0.429   4.067   4.536 -0.0395  0.9438  1.0161
 1330SOL    HW2 4449   0.518   4.188   4.554 -0.1994  1.2651 -0.2326
 1331SOL     OW 4450   4.657   2.456   6.297 -0.6048  0.0367  0.0610
 1331SOL    HW1 4451   4.626   2.494   6.215 -2.0547 -2.5148 -0.6878
 1331SOL    HW2 4452   4.578   2.447   6.350 -0.4324 -2.1306  0.0452
 1332SOL     OW 4453   0.307   0.960   3.057 -0.0367 -0.5498  0.2251
 1332SOL    HW1 4454   0.349   0.903   2.992 -0.1222 -0.0311 -0.2912
 1332SOL    HW2 4455   0.377   1.017   3.088  0.1892 -1.3227  1.1930
 1333SOL     OW 4456   0.681   5.441   5.055 -0.0431  0.1928  0.0886
 1333SOL    HW1 4457   0.671   5.528   5.094  0.0517 -0.0675  0.7119
 1333SOL    HW2 4458   0.705   5.458   4.964 -0.9026  0.8160 -0.0270
 1334SOL     OW 4459   5.718   1.711   5.185  0.2280  0.3190 -0.0488
 1334SOL    HW1 4460   5.777   1.636   5.192 -0.7306 -0.4125  0.3198
 1334SOL    HW2 4461   5.765   1.773   5.129  1.5269 -0.0654  0.5746
 1335SOL     OW 4462   2.735   5.086   3.044 -0.4501 -0.1794 -0.0197
 1335SOL    HW1 4463   2.711   5.017   2.982 -2.3494  1.0966 -0.8013
 1335SOL    HW2 4464   2.656   5.099   3.098  0.3193  0.4645  0.9968
 1336SOL     OW 4465   3.630   1.101   3.084  0.3395  0.0177  0.5229
 1336SOL    HW1 4466   3.716   1.075   3.051  0.3686 -1.9595  1.9127
 1336SOL    HW2 4467   3.576   1.110   3.006  1.9730  2.2354 -0.4536
 1337SOL     OW 4468   6.114   2.736   3.872  0.2312  0.4610  0.0129
 1337SOL    HW1 4469   6.115   2.686   3.953  0.8933  0.1656 -0.1694
 1337SOL    HW2 4470   6.169   2.812   3.890  1.3962 -0.2223 -0.5248
 1338SOL     OW 4471   4.719   0.459   6.376  0.6442  0.7457  0.2504
 1338SOL    HW1 4472   4.809   0.481   6.351  0.6190  0.3559 -0.1952
 1338SOL    HW2 4473   4.680   0.422   6.296  1.2715 -2.7467  1.3896
 1339SOL     OW 4474   3.450   6.031   5.296  0.0249  0.2672  0.0475
 1339SOL    HW1 4475   3.448   5.936   5.305  1.0906 -0.1750 -3.1656
 1339SOL    HW2 4476   3.529   6.049   5.246 -0.4798  2.8042  0.0173
 1340SOL     OW 4477   0.111   6.356   1.160 -0.0018  0.4021 -0.1249
 1340SOL    HW1 4478   0.066   6.439   1.145  0.3166  0.6321  0.1831
 1340SOL    HW2 4479   0.199   6.371   1.127  0.2410  0.3952  0.5106
 1341SOL     OW 4480   1.513   5.174   0.130  0.1361  0.0014 -0.3947
 1341SOL    HW1 4481   1.442   5.126   0.172 -0.6692  0.6911 -0.9232
 1341SOL    HW2 4482   1.501   5.264   0.158  1.0941  0.0524 -0.1219
 1342SOL     OW 4483   3.748   4.975   4.970 -0.1417 -0.2630  0.4181
 1342SOL    HW1 4484   3.671   5.027   4.992  2.0131  2.2688  2.6686
 1342SOL    HW2 4485   3.766   4.923   5.048  1.3071  0.4414  0.5915
 1343SOL     OW 4486   5.242   5.219   2.024 -0.2864  0.1363  0.0248
 1343SOL    HW1 4487   5.233   5.133   1.983  0.4647 -0.1799  0.4974
 1343SOL    HW2 4488   5.188   5.277   1.971 -0.4345 -0.5378 -0.5758
 1344SOL     OW 4489   2.561   2.868   4.764  0.2535  0.6154 -0.2658
 1344SOL    HW1 4490   2.574   2.857   4.858  3.7818 -1.3331 -0.8055
 1344SOL    HW2 4491   2.479   2.821   4.745  0.6599 -0.9378  1.5486
 1345SOL     OW 4492   2.507   3.050   2.026  0.2134  0.3181  0.0945
 1345SOL    HW1 4493   2.541   3.034   1.938 -0.6594 -2.3887  0.1427
 1345SOL    HW2 4494   2.420   3.010   2.025  1.0041 -1.7178  2.7549
 1346SOL     OW 4495   3.022   2.464   2.995  0.2886  0.2974  0.1164
 1346SOL    HW1 4496   2.960   2.534   3.013  0.6155  0.1331  2.1138
 1346SOL    HW2 4497   2.968   2.387   2.980 -0.0319  0.4141  0.6381
 1347SOL     OW 4498   6.033   2.053   0.245 -0.4082 -0.9069  0.0210
 1347SOL    HW1 4499   6.028   2.128   0.305  0.4012 -1.1343  0.3878
 1347SOL    HW2 4500   5.971   2.074   0.175 -1.3629 -0.6366  0.9292
 1348SOL     OW 4501   5.916   0.381   5.158  0.4432  0.1648 -0.8892
 1348SOL    HW1 4502   5.936   0.434   5.081  1.5901  0.4238 -0.4316
 1348SOL    HW2 4503   5.848   0.430   5.204 -1.1679 -0.5883 -2.3330
 1349SOL     OW 4504   3.240   5.015   4.126 -0.6238 -0.6213  0.3752
 1349SOL    HW1 4505   3.151   5.015   4.164 -0.8477 -0.6496 -0.1428
 1349SOL    HW2 4506   3.236   4.950   4.056  0.6011 -2.7091  2.1269
 1350SOL     OW 4507   1.816   6.146   0.780  0.1121 -0.1639 -0.1090
 1350SOL    HW1 4508   1.831   6.073   0.719 -1.2419  0.0272 -0.7178
 1350SOL    HW2 4509   1.862   6.220   0.741  0.2767 -0.3467 -0.2635
 1351SOL     OW 4510   3.338   5.751   5.221 -0.0912 -0.6173 -0.0077
 1351SOL    HW1 4511   3.315   5.676   5.276 -0.2016 -0.2141  0.5031
 1351SOL    HW2 4512   3.428   5.733   5.193 -0.2172 -1.0801 -0.1274
 1352SOL     OW 4513   3.708   5.853   0.262  0.1079  0.1843 -0.1576
 1352SOL    HW1 4514   3.656   5.802   0.323 -1.2078  0.8289 -0.6905
 1352SOL    HW2 4515   3.646   5.881   0.195  0.9471  1.7421 -0.3447
 1353SOL     OW 4516   3.294   5.011   6.077 -0.0901  0.1271 -0.3369
 1353SOL    HW1 4517   3.238   4.964   6.140 -0.0983  0.8219  0.1916
 1353SOL    HW2 4518   3.303   4.951   6.003  0.8204 -1.1898  0.7803
 1354SOL     OW 4519   5.948   2.358   3.039  0.1980 -0.1291 -0.4726
 1354SOL    HW1 4520   5.985   2.396   2.959 -1.0176 -1.0775 -1.5377
 1354SOL    HW2 4521   5.877   2.417   3.063  0.4153  0.0321 -0.2309
 1355SOL     OW 4522   0.145   2.499   5.897 -0.4603 -0.3278  0.6271
 1355SOL    HW1 4523   0.148   2.403   5.888 -0.5369 -0.2682 -0.1239
 1355SOL    HW2 4524   0.162   2.515   5.990  3.1474 -0.9203  0.2365
 1356SOL     OW 4525   4.515   2.469   1.861  0.9865 -0.0206 -0.2949
 1356SOL    HW1 4526   4.422   2.467   1.885  0.9232 -0.4693 -0.5683
 1356SOL    HW2 4527   4.518   2.526   1.784  0.4768 -2.3589 -2.1512
 1357SOL     OW 4528   3.910   1.085   6.036 -0.2445 -0.1106 -0.2743
 1357SOL    HW1 4529   3.830   1.075   5.984 -0.6897 -0.1890  0.4177
 1357SOL    HW2 4530   3.923   1.179   6.042 -1.8674  0.0549  1.9473
 1358SOL     OW 4531   5.767   3.664   5.446 -0.3914 -0.4681 -0.1962
 1358SOL    HW1 4532   5.744   3.756   5.435  0.1113 -0.3127  0.0620
 1358SOL    HW2 4533   5.853   3.655   5.405 -0.2551 -0.7342  0.1412
 1359SOL     OW 4534   4.143   5.032   5.605  0.4457  0.4693  0.6605
 1359SOL    HW1 4535   4.211   5.099   5.613  0.0374  0.7438  2.2169
 1359SOL    HW2 4536   4.066   5.071   5.647 -0.6838  0.1377 -1.0078
 1360SOL     OW 4537   5.161   5.744   2.599  0.3462 -0.3177  0.1715
 1360SOL    HW1 4538   5.196   5.753   2.511  0.5489  1.8497  0.4219
 1360SOL    HW2 4539   5.210   5.672   2.637  0.2290 -1.3135 -1.4809
 1361SOL     OW 4540   4.874   2.548   0.049 -0.1779  0.0183 -0.7462
 1361SOL    HW1 4541   4.880   2.490   0.125  2.0462 -3.0061 -3.0079
 1361SOL    HW2 4542   4.799   2.516  -0.001 -1.1652  1.5117 -0.2960
 1362SOL     OW 4543   1.758   3.285   5.868 -0.3554 -0.4355  0.0660
 1362SOL    HW1 4544   1.789   3.314   5.954 -0.6082 -1.4435  0.5201
 1362SOL    HW2 4545   1.712   3.203   5.886 -0.0139 -0.9074 -1.1001
 1363SOL     OW 4546   2.154   5.557   2.164 -0.4362  0.4469 -0.0617
 1363SOL    HW1 4547   2.071   5.557   2.116  0.0617 -1.4711 -1.0131
 1363SOL    HW2 4548   2.186   5.647   2.156 -1.9649  0.9848 -0.4728
 1364SOL     OW 4549   6.116   4.055   3.250 -0.6176  0.0042  0.0295
 1364SOL    HW1 4550   6.176   3.986   3.221  0.7596  0.9800  0.4200
 1364SOL    HW2 4551   6.079   4.091   3.170 -0.8036 -0.7252 -0.2118
 1365SOL     OW 4552   3.088   0.598   1.791  0.0448 -0.3961 -0.6783
 1365SOL    HW1 4553   3.124   0.568   1.708  0.5113  0.1417 -0.6778
 1365SOL    HW2 4554   3.030   0.671   1.768  0.9170  0.3866 -0.4606
 1366SOL     OW 4555   1.146   3.707   3.114 -0.5074 -0.0262  0.2984
 1366SOL    HW1 4556   1.236   3.710   3.146 -0.6184  0.9632  0.5506
 1366SOL    HW2 4557   1.154   3.680   3.022  0.0311 -0.1337  0.3750
 1367SOL     OW 4558   4.027   2.358   3.366  0.2716  0.3198 -0.0200
 1367SOL    HW1 4559   4.096   2.314   3.316  0.3368 -0.6420  0.8829
 1367SOL    HW2 4560   4.043   2.451   3.352  0.8446  0.0838 -1.0306
 1368SOL     OW 4561   3.693   0.608   1.873  0.7832  0.3722 -0.1695
 1368SOL    HW1 4562   3.758   0.545   1.903  1.4161  0.5113 -1.2010
 1368SOL    HW2 4563   3.735   0.653   1.800  0.6606  2.5292  1.0028
 1369SOL     OW 4564   2.328   4.830   3.079 -0.2796  0.1847  0.3482
 1369SOL    HW1 4565   2.249   4.866   3.039 -0.7156 -2.5114 -1.5476
 1369SOL    HW2 4566   2.339   4.880   3.160 -3.0409  1.6786 -0.0640
 1370SOL     OW 4567   3.176   5.409   4.158 -0.0669 -0.3424  0.7437
 1370SOL    HW1 4568   3.151   5.491   4.116  1.3159  0.4886  1.4902
 1370SOL    HW2 4569   3.167   5.343   4.089  0.2827  0.6840 -0.3043
 1371SOL     OW 4570   5.536   5.141   2.824  0.1492 -0.1129  0.0898
 1371SOL    HW1 4571   5.580   5.226   2.814  1.5588 -0.5506  1.8551
 1371SOL    HW2 4572   5.536   5.126   2.919 -0.1027 -2.0556 -0.1753
 1372SOL     OW 4573   2.010   5.944   4.683 -0.3947  0.1260  0.3557
 1372SOL    HW1 4574   2.058   5.861   4.682 -0.6035  0.0066  0.2341
 1372SOL    HW2 4575   2.036   5.985   4.766  1.2748  0.8686 -0.4857
 1373SOL     OW 4576   0.908   0.651   5.733 -0.4345 -0.0478  0.4406
 1373SOL    HW1 4577   0.898   0.721   5.797 -2.9357  1.9502 -1.8950
 1373SOL    HW2 4578   0.958   0.690   5.662 -1.9707 -0.4697 -0.9521
 1374SOL     OW 4579   2.439   2.756   2.411  0.2866 -0.0936 -0.5490
 1374SOL    HW1 4580   2.377   2.755   2.338  0.1569 -1.2637 -0.4501
 1374SOL    HW2 4581   2.502   2.824   2.388 -1.4462  1.6741 -0.2773
 1375SOL     OW 4582   2.455   5.776   3.030 -0.3658  0.4396  0.3646
 1375SOL    HW1 4583   2.544   5.801   3.055 -0.5158  1.8976 -0.4360
 1375SOL    HW2 4584   2.463   5.747   2.939 -0.9510  2.2528 -0.2984
 1376SOL     OW 4585   3.788   3.808   3.499  0.6851 -0.1734 -0.0838
 1376SOL    HW1 4586   3.730   3.882   3.482  0.2299 -0.1374  1.4597
 1376SOL    HW2 4587   3.870   3.847   3.528  0.1613 -0.2327  1.5975
 1377SOL     OW 4588   0.050   5.907   1.219 -0.0606 -0.7110  0.0126
 1377SOL    HW1 4589   0.110   5.857   1.275 -0.6209 -0.4759  0.8520
 1377SOL    HW2 4590  -0.031   5.856   1.220  0.2578 -1.2951 -1.5285
 1378SOL     OW 4591   2.895   2.294   0.303 -0.0507 -0.2939  0.6339
 1378SOL    HW1 4592   2.971   2.342   0.337  0.5843 -1.4613  0.9257
 1378SOL    HW2 4593   2.868   2.238   0.375 -1.6142  0.5484  0.7498
 1379SOL     OW 4594   5.482   6.267   3.648  0.7738 -0.2769 -0.6053
 1379SOL    HW1 4595   5.395   6.300   3.628  0.2535  0.0531  1.8458
 1379SOL    HW2 4596   5.541   6.338   3.621 -0.0185  0.9590  0.7820
 1380SOL     OW 4597   5.088   4.934   6.374 -0.5655  0.0540  0.1635
 1380SOL    HW1 4598   5.055   4.995   6.440  0.7005  0.3201  0.5863
 1380SOL    HW2 4599   5.181   4.925   6.394 -0.1762  0.0086 -1.4817
 1381SOL     OW 4600   3.914   3.030   2.227 -0.0428 -0.6390  0.0820
 1381SOL    HW1 4601   3.871   3.040   2.312 -0.9405 -1.5678 -0.2474
 1381SOL    HW2 4602   3.876   3.099   2.173 -0.2359 -0.7019  0.1378
 1382SOL     OW 4603   6.048   4.061   2.891 -0.0858 -1.0517  0.1713
 1382SOL    HW1 4604   6.106   4.006   2.839  1.9013  0.6872  0.3868
 1382SOL    HW2 4605   6.055   4.148   2.851 -2.3329 -0.6958  0.4230
 1383SOL     OW 4606   3.427   4.573   3.677  0.0899 -0.0085 -0.5683
 1383SOL    HW1 4607   3.392   4.633   3.611 -2.8455  2.1207  2.5555
 1383SOL    HW2 4608   3.355   4.511   3.693  0.5959 -0.2671  0.8136
 1384SOL     OW 4609   1.247   6.189   2.330 -0.1604 -0.6416 -0.3401
 1384SOL    HW1 4610   1.342   6.194   2.323 -0.0502 -2.5197 -0.7801
 1384SOL    HW2 4611   1.215   6.225   2.247  0.1177  0.4287 -0.0023
 1385SOL     OW 4612   0.520   4.120   4.900  0.4191 -0.1596  0.7817
 1385SOL    HW1 4613   0.462   4.065   4.954 -1.8376 -0.3089 -1.5837
 1385SOL    HW2 4614   0.540   4.066   4.824  1.0361  1.0906  0.0237
 1386SOL     OW 4615   1.187   0.260   0.591  0.3892 -0.3081  0.1376
 1386SOL    HW1 4616   1.251   0.201   0.552 -2.8732 -3.1112 -1.5788
 1386SOL    HW2 4617   1.165   0.220   0.675  0.0512 -0.0263  0.1868
 1387SOL     OW 4618   2.810   0.763   3.867  0.3678  0.8571  0.5102
 1387SOL    HW1 4619   2.771   0.678   3.886  0.0452  0.6341 -1.0251
 1387SOL    HW2 4620   2.883   0.770   3.928  1.1523 -1.0447 -0.1442
 1388SOL     OW 4621   3.511   1.796   2.880 -0.5013 -0.5383 -0.3200
 1388SOL    HW1 4622   3.602   1.768   2.892 -0.5655 -0.7285 -0.2839
 1388SOL    HW2 4623   3.502   1.872   2.938 -0.3551 -0.4987 -0.3487
 1389SOL     OW 4624   0.449   3.375   0.831 -0.3199  0.2182  0.3270
 1389SOL    HW1 4625   0.501   3.410   0.903  0.8850 -2.7236  1.0516
 1389SOL    HW2 4626   0.475   3.427   0.755  0.9573  1.1785  1.3749
 1390SOL     OW 4627   0.530   4.454   3.097 -0.6801 -0.3479 -0.3705
 1390SOL    HW1 4628   0.452   4.442   3.151 -0.5022 -1.3658 -0.3127
 1390SOL    HW2 4629   0.550   4.366   3.065 -0.7681  0.2278 -2.0839
 1391SOL     OW 4630   0.470   1.077   5.128 -0.2575 -0.6227 -0.0628
 1391SOL    HW1 4631   0.393   1.023   5.145 -0.9689 -0.0913 -1.4256
 1391SOL    HW2 4632   0.543   1.015   5.131 -0.5766 -0.9706  2.1822
 1392SOL     OW 4633   2.853   4.475   5.630 -0.0072 -0.4810  0.0567
 1392SOL    HW1 4634   2.914   4.417   5.585  0.7570  1.4574 -1.5822
 1392SOL    HW2 4635   2.770   4.463   5.583 -0.0231 -0.7093  0.1411
 1393SOL     OW 4636   4.164   2.719   1.521 -0.3201  0.2512  0.1292
 1393SOL    HW1 4637   4.161   2.725   1.616  0.8040 -0.5565  0.2358
 1393SOL    HW2 4638   4.250   2.754   1.497 -0.9149  1.2268 -0.6761
 1394SOL     OW 4639   5.170   5.929   3.325  0.3870  0.3353 -0.2788
 1394SOL    HW1 4640   5.097   5.931   3.263 -0.0214  0.0179  0.1848
 1394SOL    HW2 4641   5.179   5.836   3.349  0.1414  0.5321  0.6011
 1395SOL     OW 4642   0.147   2.155   0.608 -0.0709 -0.0648  1.0175
 1395SOL    HW1 4643   0.222   2.215   0.600  1.3699 -1.7345  1.5660
 1395SOL    HW2 4644   0.164   2.105   0.687 -1.7906 -0.4889  1.1509
 1396SOL     OW 4645   5.775   1.364   3.492  0.4325  0.1261 -0.3451
 1396SOL    HW1 4646   5.792   1.436   3.431  0.6919  0.3209 -0.0427
 1396SOL    HW2 4647   5.772   1.286   3.437 -0.0068  0.3842 -0.6973
 1397SOL     OW 4648   0.799   1.984   4.155  0.2655  0.2151 -0.0710
 1397SOL    HW1 4649   0.836   2.001   4.068 -1.0909  0.9078 -0.5522
 1397SOL    HW2 4650   0.763   2.068   4.182  0.5267 -0.0382  1.1111
 1398SOL     OW 4651   3.985   4.731   1.523 -0.4056 -0.1074  0.1811
 1398SOL    HW1 4652   3.893   4.704   1.532 -0.8034  1.8436  3.8218
 1398SOL    HW2 4653   4.029   4.688   1.596  1.5030 -0.4863 -1.1338
 1399SOL     OW 4654   5.785   1.712   1.320  0.4700 -0.5275 -0.2645
 1399SOL    HW1 4655   5.711   1.769   1.340 -0.6601 -2.2075  0.6257
 1399SOL    HW2 4656   5.753   1.655   1.249  0.6723 -1.6431  0.5118
 1400SOL     OW 4657   6.146   3.169   4.586  0.1147 -0.1802  0.0019
 1400SOL    HW1 4658   6.103   3.084   4.584 -0.1701 -0.0255 -1.2589
 1400SOL    HW2 4659   6.228   3.154   4.633 -0.0764 -1.0784  0.0573
 1401SOL     OW 4660   3.272   4.877   3.877 -0.1326 -0.1035  0.0896
 1401SOL    HW1 4661   3.225   4.796   3.895 -0.5220 -0.0124 -0.4896
 1401SOL    HW2 4662   3.209   4.932   3.831  0.1062  0.5620  0.5406
 1402SOL     OW 4663   4.216   4.299   6.093  0.4363  0.3291  0.2529
 1402SOL    HW1 4664   4.138   4.338   6.134  0.2254  0.8345 -0.6025
 1402SOL    HW2 4665   4.190   4.210   6.072 -0.2840  0.8039 -0.9762
 1403SOL     OW 4666   0.514   1.417   0.268 -0.3633  0.1141  0.3710
 1403SOL    HW1 4667   0.461   1.348   0.228 -0.1989 -0.5352  1.2504
 1403SOL    HW2 4668   0.460   1.496   0.260 -1.9444 -0.6989  2.0699
 1404SOL     OW 4669   2.314   4.791   1.146  0.0085 -0.4142 -0.5371
 1404SOL    HW1 4670   2.361   4.727   1.093 -2.0753 -1.9706 -0.6086
 1404SOL    HW2 4671   2.268   4.846   1.083 -0.2957 -0.5279 -0.4160
 1405SOL     OW 4672   4.572   2.092   0.675 -0.0465 -0.4388 -0.1196
 1405SOL    HW1 4673   4.534   2.087   0.587  0.4721  1.0552 -0.4524
 1405SOL    HW2 4674   4.502   2.129   0.729 -0.6354 -2.0713  0.3022
 1406SOL     OW 4675   1.288   1.037   5.273  0.3487 -0.3967  0.5556
 1406SOL    HW1 4676   1.370   1.051   5.226  0.7472 -1.5520  0.8671
 1406SOL    HW2 4677   1.223   1.088   5.224  1.2106  0.3994  0.2129
 1407SOL     OW 4678   3.236   1.275   1.980 -0.0629 -0.7459  0.0658
 1407SOL    HW1 4679   3.144   1.246   1.983  0.0225 -0.9822  0.5865
 1407SOL    HW2 4680   3.235   1.351   1.923 -0.6393 -0.5695  0.3016
 1408SOL     OW 4681   1.090   4.535   0.608  0.0016 -0.2154  0.7072
 1408SOL    HW1 4682   1.141   4.454   0.611 -0.8932 -0.7800  2.0295
 1408SOL    HW2 4683   1.042   4.535   0.692 -3.1229 -0.3950 -0.9330
 1409SOL     OW 4684   1.721   3.082   4.099 -0.2588 -0.0317  0.3698
 1409SOL    HW1 4685   1.805   3.121   4.121 -0.1550  0.3757 -0.6759
 1409SOL    HW2 4686   1.743   2.994   4.067 -0.1055  0.4197 -0.8378
 1410SOL     OW 4687   6.133   5.849   2.424  0.6048  0.1532  0.6211
 1410SOL    HW1 4688   6.150   5.770   2.374  0.8107  0.4351  0.2407
 1410SOL    HW2 4689   6.050   5.832   2.469 -0.9655  0.8875 -1.8465
 1411SOL     OW 4690   4.833   1.425   1.466  0.0759 -0.4858  0.1913
 1411SOL    HW1 4691   4.842   1.451   1.558  0.1894 -0.1651  0.0907
 1411SOL    HW2 4692   4.836   1.329   1.468  1.1596 -0.4621  0.4186
 1412SOL     OW 4693   6.035   5.577   0.840 -0.3718  0.4971 -0.0467
 1412SOL    HW1 4694   6.088   5.498   0.850 -1.4934 -0.6460 -2.5074
 1412SOL    HW2 4695   5.954   5.558   0.888  0.2050  1.0610  1.1917
 1413SOL     OW 4696   6.108   0.285   4.895  0.2951  0.3957 -0.0383
 1413SOL    HW1 4697   6.125   0.330   4.813  0.9816  0.3990  0.0996
 1413SOL    HW2 4698   6.191   0.290   4.943  0.0402 -0.0109  0.4556
 1414SOL     OW 4699   6.283   2.026   0.863  0.1010 -0.6763  0.0710
 1414SOL    HW1 4700   6.374   2.001   0.877  0.5693  0.9103  0.0455
 1414SOL    HW2 4701   6.284   2.122   0.861 -1.4848 -0.6355 -0.4982
 1415SOL     OW 4702   1.536   2.839   5.177  0.0663 -0.4777 -0.6143
 1415SOL    HW1 4703   1.589   2.894   5.234  2.2539 -0.5015 -2.4631
 1415SOL    HW2 4704   1.585   2.756   5.172 -0.8566 -0.9910 -1.3209
 1416SOL     OW 4705   3.715   4.189   2.307 -0.5828 -0.5139  0.4976
 1416SOL    HW1 4706   3.755   4.258   2.255 -0.1982 -1.4209 -0.4348
 1416SOL    HW2 4707   3.690   4.232   2.389  2.7478 -0.0024  1.3572
 1417SOL     OW 4708   2.144   6.073   2.603  0.5070 -0.0521  0.1243
 1417SOL    HW1 4709   2.116   6.164   2.612  0.4598 -0.1016  0.4802
 1417SOL    HW2 4710   2.092   6.025   2.666  2.9918  0.1774  2.5461
 1418SOL     OW 4711   5.620   5.620   1.443 -0.5878  0.5915 -0.0179
 1418SOL    HW1 4712   5.702   5.590   1.482 -3.0235 -0.9933  4.6419
 1418SOL    HW2 4713   5.642   5.704   1.403  3.4143 -0.1623  0.1961
 1419SOL     OW 4714   1.137   5.209   2.188  1.4446 -0.5862 -0.0582
 1419SOL    HW1 4715   1.050   5.216   2.228  2.8000 -0.6587  3.2094
 1419SOL    HW2 4716   1.159   5.299   2.163 -0.7311 -0.9379 -4.0513
 1420SOL     OW 4717   2.336   3.859   4.358 -0.2556  0.3831  0.4698
 1420SOL    HW1 4718   2.336   3.770   4.322 -1.2498  0.3467  0.5139
 1420SOL    HW2 4719   2.408   3.903   4.313  1.1060 -0.8076  1.4025
 1421SOL     OW 4720   4.305   1.134   6.130  0.1388  0.1190  0.3405
 1421SOL    HW1 4721   4.317   1.067   6.063 -0.6183  0.2182  0.1085
 1421SOL    HW2 4722   4.391   1.176   6.137  0.2290  0.0896 -0.5423
 1422SOL     OW 4723   3.586   1.962   1.275  0.0349  0.4159  0.0406
 1422SOL    HW1 4724   3.680   1.980   1.270 -0.0611  1.1641  0.6805
 1422SOL    HW2 4725   3.560   1.994   1.362 -0.2210 -2.6157  1.1956
 1423SOL     OW 4726   0.082   1.099   0.157  0.2931 -0.4299 -0.0615
 1423SOL    HW1 4727   0.005   1.044   0.174  0.3543 -1.7437 -3.3751
 1423SOL    HW2 4728   0.080   1.116   0.063  1.8933  2.9623  0.3334
 1424SOL     OW 4729   4.135   2.695   3.988 -0.8894  0.7132  0.0162
 1424SOL    HW1 4730   4.172   2.692   4.077  0.4874  2.8915 -0.4147
 1424SOL    HW2 4731   4.049   2.735   4.000 -1.7408 -1.1443  0.5850
 1425SOL     OW 4732   2.981   3.345   1.085 -0.1748 -0.0384 -0.8680
 1425SOL    HW1 4733   2.915   3.372   1.021 -0.8308 -0.2056 -0.2724
 1425SOL    HW2 4734   3.064   3.352   1.038 -0.7115 -0.9257 -1.9880
 1426SOL     OW 4735   1.732   2.192   3.907 -0.3632 -0.1281 -0.7427
 1426SOL    HW1 4736   1.672   2.118   3.900  0.0309 -0.4704 -0.5332
 1426SOL    HW2 4737   1.791   2.169   3.979 -0.5555  0.6233 -0.3370
 1427SOL     OW 4738   3.533   3.288   4.945 -0.7888 -0.6401  0.0066
 1427SOL    HW1 4739   3.485   3.205   4.946  1.1153 -1.8016  1.2101
 1427SOL    HW2 4740   3.608   3.274   5.003  1.1497  0.9944 -1.9000
 1428SOL     OW 4741   3.577   0.507   3.485 -0.3490 -0.0944 -0.3206
 1428SOL    HW1 4742   3.654   0.491   3.430 -0.2746  1.1857 -0.6258
 1428SOL    HW2 4743   3.575   0.434   3.547  2.0902  0.7033  0.7974
 1429SOL     OW 4744   6.078   0.531   4.534  0.3896  0.1367 -0.4775
 1429SOL    HW1 4745   6.073   0.525   4.439  2.9569 -0.3250 -0.6472
 1429SOL    HW2 4746   6.119   0.449   4.561  0.7709  0.7629  0.9229
 1430SOL     OW 4747   6.126   4.362   6.142  0.0544  0.2471  0.0217
 1430SOL    HW1 4748   6.145   4.344   6.050  1.5374  0.5930  0.2347
 1430SOL    HW2 4749   6.192   4.427   6.168 -1.4438  1.4960  0.8565
 1431SOL     OW 4750   3.520   3.778   4.616 -0.8237  0.1738  1.0128
 1431SOL    HW1 4751   3.436   3.757   4.656 -0.6093  0.8770  1.8551
 1431SOL    HW2 4752   3.582   3.779   4.688 -0.1235 -0.1339  0.4303
 1432SOL     OW 4753   1.524   0.950   5.460 -0.1318  0.5516  0.0793
 1432SOL    HW1 4754   1.581   0.885   5.501  1.2062  1.2381 -0.6349
 1432SOL    HW2 4755   1.438   0.907   5.456  0.6691 -1.1011 -0.2015
 1433SOL     OW 4756   5.699   4.939   3.155  0.4032 -0.0905  0.5183
 1433SOL    HW1 4757   5.651   5.016   3.123  2.7306 -0.0590 -3.6150
 1433SOL    HW2 4758   5.766   4.975   3.213 -1.5926  0.3109  2.7184
 1434SOL     OW 4759   0.287   6.155   3.503 -0.1020  0.2791 -0.3243
 1434SOL    HW1 4760   0.281   6.234   3.559  1.6414  0.5348 -0.4569
 1434SOL    HW2 4761   0.240   6.088   3.553 -0.2691  1.0003  0.5319
 1435SOL     OW 4762   3.508   1.461   3.304 -0.2077  0.5794  0.7380
 1435SOL    HW1 4763   3.540   1.521   3.372 -0.3336  0.3371  1.0131
 1435SOL    HW2 4764   3.586   1.421   3.268 -0.2330 -1.0607  2.3633
 1436SOL     OW 4765   5.650   3.908   1.810  0.2709  0.0255 -0.3217
 1436SOL    HW1 4766   5.687   3.821   1.814  1.6589  0.6466  1.7842
 1436SOL    HW2 4767   5.702   3.954   1.744 -1.1833 -0.9785 -2.2636
 1437SOL     OW 4768   0.902   2.790   0.583  0.2035  0.4854 -0.1976
 1437SOL    HW1 4769   0.970   2.847   0.547  0.2252 -0.6641 -2.0806
 1437SOL    HW2 4770   0.948   2.735   0.647  0.7524  0.6980 -0.4065
 1438SOL     OW 4771   4.037   5.717   5.391 -0.7610  0.0554  0.1226
 1438SOL    HW1 4772   3.972   5.788   5.391 -1.2806 -0.3958  1.1257
 1438SOL    HW2 4773   4.014   5.663   5.316 -0.9618  0.4147 -0.0786
 1439SOL     OW 4774   2.854   0.705   4.177  1.0204  0.1464 -0.2892
 1439SOL    HW1 4775   2.948   0.696   4.190  1.6010  4.5098 -0.2686
 1439SOL    HW2 4776   2.822   0.743   4.259 -0.7828 -0.9448 -0.4210
 1440SOL     OW 4777   3.923   5.283   6.348 -0.6328 -0.7396  0.2244
 1440SOL    HW1 4778   4.004   5.313   6.307 -0.9068 -0.4834 -0.1384
 1440SOL    HW2 4779   3.884   5.223   6.285 -0.6543 -0.9716  0.4581
 1441SOL     OW 4780   2.717   1.983   1.028  0.9034 -0.0057  0.2235
 1441SOL    HW1 4781   2.658   1.911   1.006  0.7021  0.4165 -0.6971
 1441SOL    HW2 4782   2.769   1.951   1.102  0.9571 -1.1628 -0.3006
 1442SOL     OW 4783   4.509   1.570   5.445 -0.4636  0.1850  0.2687
 1442SOL    HW1 4784   4.556   1.595   5.525  0.7880  0.4555 -0.5238
 1442SOL    HW2 4785   4.560   1.497   5.410 -0.3192  0.8332 -0.9032
 1443SOL     OW 4786   5.274   2.683   0.994 -0.2268 -0.4960 -0.6321
 1443SOL    HW1 4787   5.350   2.640   1.032  0.7880 -0.2410 -2.3099
 1443SOL    HW2 4788   5.201   2.624   1.014  0.7287 -1.7413 -0.6985
 1444SOL     OW 4789   1.450   1.033   2.806 -0.2965 -0.0395 -0.2828
 1444SOL    HW1 4790   1.519   1.094   2.832 -0.8279  0.7229 -0.6112
 1444SOL    HW2 4791   1.371   1.066   2.848 -0.5059 -0.7926 -0.0644
 1445SOL     OW 4792   2.886   2.831   0.757  0.2698 -0.1160 -0.0582
 1445SOL    HW1 4793   2.926   2.794   0.678  0.6930  0.6888 -0.2312
 1445SOL    HW2 4794   2.959   2.837   0.820  0.0853 -0.0907  0.1549
 1446SOL     OW 4795   5.630   4.926   5.042 -0.7032 -0.0152  0.0349
 1446SOL    HW1 4796   5.608   4.899   5.131 -1.0709  0.2789  0.0359
 1446SOL    HW2 4797   5.547   4.953   5.003 -0.0439  4.5301  1.1761
 1447SOL     OW 4798   2.560   4.520   3.497  0.1510  0.1385  0.2317
 1447SOL    HW1 4799   2.494   4.521   3.567 -0.4762 -0.2204 -0.3422
 1447SOL    HW2 4800   2.516   4.559   3.422  0.8233  0.5219  0.0278
 1448SOL     OW 4801   2.721   0.500   1.437 -0.1834 -0.0197 -0.3945
 1448SOL    HW1 4802   2.809   0.467   1.454  0.2347  0.7330 -1.0443
 1448SOL    HW2 4803   2.718   0.513   1.342 -0.2904  1.8791 -0.1709
 1449SOL     OW 4804   1.523   1.429   4.477 -0.1590  0.3946 -0.4028
 1449SOL    HW1 4805   1.576   1.423   4.398  0.8933 -1.0042  0.3723
 1449SOL    HW2 4806   1.585   1.449   4.546 -0.9531  0.8030  0.2060
 1450SOL     OW 4807   1.913   3.310   2.410 -0.0100 -0.2927 -0.2690
 1450SOL    HW1 4808   1.970   3.321   2.333  0.5082  1.0884  0.2719
 1450SOL    HW2 4809   1.834   3.358   2.389  0.0253 -0.1363 -0.0536
 1451SOL     OW 4810   0.928   5.347   5.676 -0.2649 -0.2499  0.7696
 1451SOL    HW1 4811   0.994   5.301   5.728  0.4737 -1.7956 -1.3989
 1451SOL    HW2 4812   0.971   5.366   5.593 -1.9804  0.3742 -0.0224
 1452SOL     OW 4813   0.814   2.902   5.671 -0.2072  0.1286 -0.4856
 1452SOL    HW1 4814   0.838   2.875   5.583  2.3626 -0.0361  0.1906
 1452SOL    HW2 4815   0.828   2.823   5.725 -0.8692  0.4763  0.2225
 1453SOL     OW 4816   4.143   1.545   3.483  0.5730  0.0264  0.2594
 1453SOL    HW1 4817   4.222   1.597   3.500  1.7109 -1.7700  0.6839
 1453SOL    HW2 4818   4.148   1.472   3.544 -2.3698  0.7739  1.5631
 1454SOL     OW 4819   0.393   5.122   3.558  0.3279 -0.7313  0.7026
 1454SOL    HW1 4820   0.317   5.143   3.612 -0.6848 -0.7834 -0.6506
 1454SOL    HW2 4821   0.358   5.068   3.487  1.3533  0.4493 -0.7754
 1455SOL     OW 4822   1.235   4.000   2.628  0.0841  0.7443 -0.4232
 1455SOL    HW1 4823   1.301   4.069   2.624  2.2828 -1.1650  0.3789
 1455SOL    HW2 4824   1.235   3.962   2.540  1.3744 -0.3333  0.0080
 1456SOL     OW 4825   4.377   5.623   4.789  0.3060 -0.0509 -0.3611
 1456SOL    HW1 4826   4.385   5.552   4.725 -1.1733 -1.5695  1.0314
 1456SOL    HW2 4827   4.310   5.681   4.752  0.3501 -0.2509 -0.7604
 1457SOL     OW 4828   1.352   1.913   0.156  0.2459 -0.1527 -0.3410
 1457SOL    HW1 4829   1.283   1.935   0.218  2.1038  1.6734  1.2708
 1457SOL    HW2 4830   1.358   1.990   0.099 -0.7504 -1.3932 -2.2175
 1458SOL     OW 4831   4.810   5.598   0.938  0.0846  0.3745 -0.1078
 1458SOL    HW1 4832   4.827   5.513   0.899 -1.6258 -1.3373  2.5381
 1458SOL    HW2 4833   4.732   5.630   0.893  0.5757  0.4266 -0.9307
 1459SOL     OW 4834   6.189   4.647   2.037  0.2000  0.0563  0.0723
 1459SOL    HW1 4835   6.215   4.731   1.999 -0.0016  0.1806  0.2064
 1459SOL    HW2 4836   6.210   4.582   1.970 -0.2400  0.2818 -0.2890
 1460SOL     OW 4837   5.201   4.853   2.809 -0.9248 -0.5429  0.6332
 1460SOL    HW1 4838   5.159   4.892   2.886 -2.7198 -1.0495 -0.0299
 1460SOL    HW2 4839   5.128   4.820   2.757  0.1580  0.7614 -1.8466
 1461SOL     OW 4840   1.820   3.225   4.914 -0.2639 -0.4179  0.1176
 1461SOL    HW1 4841   1.887   3.164   4.882 -0.6110 -1.7852  1.8342
 1461SOL    HW2 4842   1.870   3.300   4.948  0.2084 -0.0890 -1.2308
 1462SOL     OW 4843   5.170   1.209   4.415  0.0480  0.1095 -0.2808
 1462SOL    HW1 4844   5.240   1.167   4.466 -0.3202 -0.4082 -0.2012
 1462SOL    HW2 4845   5.211   1.289   4.381  0.3172  0.4326  0.7756
 1463SOL     OW 4846   5.455   0.314   0.991  0.0463 -0.0128  0.5801
 1463SOL    HW1 4847   5.459   0.265   1.073  1.5360 -0.5801  0.1881
 1463SOL    HW2 4848   5.528   0.375   0.995 -0.3583  0.5246  0.0069
 1464SOL     OW 4849   0.959   6.346   5.582 -0.0481  0.6452  0.0553
 1464SOL    HW1 4850   0.939   6.434   5.612 -0.9863 -0.2301  2.2789
 1464SOL    HW2 4851   0.885   6.293   5.612  1.0428 -1.0952 -0.1368
 1465SOL     OW 4852   5.681   2.120   0.813 -0.2133 -0.5882 -0.5496
 1465SOL    HW1 4853   5.760   2.081   0.852 -1.7356 -0.3665  3.1627
 1465SOL    HW2 4854   5.624   2.045   0.795 -0.2242 -0.5635 -0.6154
 1466SOL     OW 4855   3.077   4.285   4.321 -0.3927  0.6663  0.2559
 1466SOL    HW1 4856   3.080   4.213   4.384 -0.4232  0.8212  0.4361
 1466SOL    HW2 4857   3.132   4.256   4.248 -1.3253 -0.0211 -0.1887
 1467SOL     OW 4858   3.108   4.036   3.658  0.1035 -0.2211 -0.0226
 1467SOL    HW1 4859   3.056   4.047   3.738 -3.5604 -1.3161 -2.0347
 1467SOL    HW2 4860   3.108   4.123   3.618  1.2862  0.1517  0.7503
 1468SOL     OW 4861   6.373   0.210   0.234  0.6377 -0.6128  0.1034
 1468SOL    HW1 4862   6.407   0.195   0.322 -0.5569 -1.7395  0.4030
 1468SOL    HW2 4863   6.410   0.140   0.181 -2.0692 -2.6807  0.7144
 1469SOL     OW 4864   2.323   3.434   3.698  0.0450 -0.0597 -0.1456
 1469SOL    HW1 4865   2.312   3.518   3.744 -0.3837 -0.5358  0.6395
 1469SOL    HW2 4866   2.402   3.396   3.735  1.0376  0.5995 -1.4852
 1470SOL     OW 4867   4.525   1.694   2.594  0.0828 -0.6566  0.0732
 1470SOL    HW1 4868   4.476   1.620   2.557 -0.6157 -0.3237  0.3100
 1470SOL    HW2 4869   4.486   1.708   2.680  0.6519 -0.4307  0.2948
 1471SOL     OW 4870   1.631   3.998   6.279  0.5440  0.2790  0.4313
 1471SOL    HW1 4871   1.653   4.082   6.321 -2.3564  0.8235  1.0788
 1471SOL    HW2 4872   1.618   4.021   6.187  2.6572 -0.0984 -0.0145
 1472SOL     OW 4873   5.796   3.245   1.908 -0.0428  0.2066 -0.2033
 1472SOL    HW1 4874   5.825   3.334   1.890 -0.0654  0.3609  0.5271
 1472SOL    HW2 4875   5.789   3.204   1.821  0.5020  0.7446 -0.5037
 1473SOL     OW 4876   3.320   5.344   4.374 -0.0571 -0.6030  0.4276
 1473SOL    HW1 4877   3.342   5.423   4.423  0.7423 -1.7379  1.9961
 1473SOL    HW2 4878   3.272   5.375   4.298  1.2603  1.4728  0.3826
 1474SOL     OW 4879   5.830   0.756   2.016  0.0745 -0.8383  0.2244
 1474SOL    HW1 4880   5.919   0.785   2.034  0.1138 -0.0964 -1.0796
 1474SOL    HW2 4881   5.840   0.674   1.968  0.0773 -0.4276 -0.4849
 1475SOL     OW 4882   0.839   0.171   2.535  0.0158 -0.4130  0.2640
 1475SOL    HW1 4883   0.868   0.132   2.453 -0.1434  1.2977 -0.6420
 1475SOL    HW2 4884   0.745   0.184   2.524 -0.0710 -0.4767  0.8636
 1476SOL     OW 4885   0.382   4.070   6.066 -0.1723 -0.1918 -0.0288
 1476SOL    HW1 4886   0.288   4.059   6.077 -0.2140 -1.3470 -1.2120
 1476SOL    HW2 4887   0.408   3.997   6.009  1.2081  0.8843 -0.8365
 1477SOL     OW 4888   1.566   0.739   1.089  0.2861 -0.1050 -0.5077
 1477SOL    HW1 4889   1.484   0.691   1.078  1.4466 -2.1419 -0.8177
 1477SOL    HW2 4890   1.613   0.690   1.156  1.1515  1.1889 -0.1441
 1478SOL     OW 4891   3.023   1.189   0.979  0.1404  0.0918  0.1549
 1478SOL    HW1 4892   2.935   1.177   0.943 -0.2011  2.9066 -0.1601
 1478SOL    HW2 4893   3.030   1.283   0.995  2.7062 -0.1983  1.2592
 1479SOL     OW 4894   1.774   2.177   2.581 -0.3059  0.2326 -0.1639
 1479SOL    HW1 4895   1.685   2.212   2.572 -0.5573 -0.1976  0.5517
 1479SOL    HW2 4896   1.765   2.084   2.562  0.3336  0.5009 -1.9010
 1480SOL     OW 4897   5.591   6.055   3.482  0.0959 -0.6578 -0.0691
 1480SOL    HW1 4898   5.545   6.025   3.561  0.6514 -0.7826  0.2184
 1480SOL    HW2 4899   5.560   6.144   3.468 -2.0819 -1.5283 -1.3083
 1481SOL     OW 4900   4.574   4.823   1.492 -0.0260  0.0162 -0.4458
 1481SOL    HW1 4901   4.486   4.814   1.529  0.0121 -0.4530 -0.4631
 1481SOL    HW2 4902   4.572   4.907   1.446 -0.0387  0.6829  0.7192
 1482SOL     OW 4903   2.191   5.860   3.011  0.7246  0.5081  0.1027
 1482SOL    HW1 4904   2.136   5.818   2.945 -0.4117 -1.6759  2.2699
 1482SOL    HW2 4905   2.281   5.843   2.981  0.3262 -3.0769  0.4689
 1483SOL     OW 4906   2.802   4.644   3.583  0.1891 -0.0848 -0.1118
 1483SOL    HW1 4907   2.713   4.623   3.554 -0.6277  1.0623  1.4312
 1483SOL    HW2 4908   2.820   4.578   3.650  1.6998 -2.1374 -2.3804
 1484SOL     OW 4909   2.255   4.926   4.770  0.0145  0.4570 -0.2098
 1484SOL    HW1 4910   2.188   4.979   4.813 -0.1424  1.2525 -1.3990
 1484SOL    HW2 4911   2.222   4.912   4.681 -0.4941 -2.6089  0.3584
 1485SOL     OW 4912   4.561   1.196   6.139  0.6037  0.3384 -0.4319
 1485SOL    HW1 4913   4.644   1.149   6.132  0.3432 -0.1969  0.0866
 1485SOL    HW2 4914   4.577   1.278   6.092  2.3538  1.5245  1.9878
 1486SOL     OW 4915   2.234   3.119   1.412 -0.2254 -0.6746 -0.2605
 1486SOL    HW1 4916   2.174   3.060   1.457 -0.7201  0.0754  0.0742
 1486SOL    HW2 4917   2.308   3.128   1.472 -0.1008 -1.0343 -0.3586
 1487SOL     OW 4918   0.582   6.371   0.536 -0.5023 -0.2312 -0.2258
 1487SOL    HW1 4919   0.664   6.398   0.578  1.0267 -0.8468 -2.5960
 1487SOL    HW2 4920   0.576   6.277   0.554 -1.8083  0.1604  1.6237
 1488SOL     OW 4921   1.695   5.510   1.509 -0.0335 -0.0886 -0.2755
 1488SOL    HW1 4922   1.770   5.450   1.505 -0.0822 -0.0959 -1.1461
 1488SOL    HW2 4923   1.645   5.480   1.585  0.2801 -0.7522 -0.3268
 1489SOL     OW 4924   4.402   0.561   4.274 -0.1569 -0.1101 -0.5441
 1489SOL    HW1 4925   4.378   0.650   4.301  0.4419 -0.1987  0.2853
 1489SOL    HW2 4926   4.456   0.527   4.345  0.7367 -0.6567 -1.4622
 1490SOL     OW 4927   4.163   5.258   3.333  0.1375  0.5686  0.0483
 1490SOL    HW1 4928   4.105   5.186   3.358  0.3135  1.1035  2.2204
 1490SOL    HW2 4929   4.131   5.285   3.247 -1.2127 -0.7855  0.0634
 1491SOL     OW 4930   1.748   0.781   0.350 -0.1204  0.2729  0.4536
 1491SOL    HW1 4931   1.731   0.757   0.441 -0.9414 -1.6035 -0.1483
 1491SOL    HW2 4932   1.799   0.708   0.315 -0.4255  0.6360 -0.7883
 1492SOL     OW 4933   1.204   4.628   5.087 -0.2405 -0.0603 -0.2057
 1492SOL    HW1 4934   1.137   4.689   5.118  0.5879 -0.3607  2.3959
 1492SOL    HW2 4935   1.287   4.665   5.117  0.3595 -1.9627  0.6483
 1493SOL     OW 4936   5.155   2.814   2.849 -0.0721 -0.1795  0.3228
 1493SOL    HW1 4937   5.240   2.782   2.819 -0.6118 -1.4398  0.0747
 1493SOL    HW2 4938   5.126   2.874   2.779  0.8486  0.7232  0.6845
 1494SOL     OW 4939   5.501   0.917   4.038 -0.2034 -0.0629 -0.5012
 1494SOL    HW1 4940   5.555   0.974   4.092 -0.4647  0.0105 -0.3172
 1494SOL    HW2 4941   5.415   0.959   4.037 -0.6265 -0.8705  0.3164
 1495SOL     OW 4942   5.648   1.941   3.315 -0.4452 -0.0886 -0.2237
 1495SOL    HW1 4943   5.666   1.847   3.317  1.4724  0.2601  0.3825
 1495SOL    HW2 4944   5.597   1.957   3.394  0.0630 -0.4702  0.1892
 1496SOL     OW 4945   5.682   0.073   3.659 -0.8136  0.0260 -0.4402
 1496SOL    HW1 4946   5.682   0.133   3.734  4.0573  0.6829 -0.5974
 1496SOL    HW2 4947   5.649   0.125   3.586  0.9948  1.8339 -0.0581
 1497SOL     OW 4948   5.365   5.072   0.295  0.0189 -0.3166  0.0331
 1497SOL    HW1 4949   5.448   5.029   0.316 -0.9377 -1.4148  1.8178
 1497SOL    HW2 4950   5.304   5.040   0.362 -1.5134  1.4931 -0.4255
 1498SOL     OW 4951   4.507   2.429   4.681  0.2940 -0.3012  0.7555
 1498SOL    HW1 4952   4.477   2.514   4.648 -0.2812 -0.5964  0.5059
 1498SOL    HW2 4953   4.477   2.366   4.616  1.6123 -0.6021  0.4055
 1499SOL     OW 4954   1.551   5.094   1.024 -0.3628  0.2018 -0.0307
 1499SOL    HW1 4955   1.577   5.126   1.110  0.4404  0.0759 -0.2201
 1499SOL    HW2 4956   1.591   5.155   0.962 -0.7633  0.1747 -0.3218
 1500SOL     OW 4957   2.277   4.656   4.815  0.3963  0.2229 -0.2002
 1500SOL    HW1 4958   2.274   4.751   4.828  0.4662  0.3517 -1.0538
 1500SOL    HW2 4959   2.341   4.625   4.880  0.3237  0.7495  0.1257
 1501SOL     OW 4960   3.426   6.357   3.694 -0.7998  0.3499 -0.3528
 1501SOL    HW1 4961   3.447   6.340   3.602  0.0200 -0.5447 -0.0162
 1501SOL    HW2 4962   3.331   6.358   3.697 -0.8496  1.4659 -1.3936
 1502SOL     OW 4963   3.791   5.198   0.380  0.0408  0.2710  0.4562
 1502SOL    HW1 4964   3.786   5.231   0.470 -1.9934 -2.1006  1.3364
 1502SOL    HW2 4965   3.819   5.107   0.390  0.9814  0.3072 -1.4592
 1503SOL     OW 4966   4.116   5.980   1.860 -0.3576 -0.3730  0.4377
 1503SOL    HW1 4967   4.108   6.037   1.784 -1.5593 -1.7301 -0.5109
 1503SOL    HW2 4968   4.210   5.978   1.879  0.1273 -0.9491 -1.7872
 1504SOL     OW 4969   1.344   3.451   2.529 -0.1374 -0.1570 -0.0799
 1504SOL    HW1 4970   1.275   3.407   2.577  1.0366  0.6358  2.5002
 1504SOL    HW2 4971   1.306   3.534   2.502 -0.5778 -0.2939  0.1140
 1505SOL     OW 4972   2.988   4.977   4.519  0.5078 -0.4392  0.1800
 1505SOL    HW1 4973   3.048   5.049   4.534  0.6705 -0.5162 -0.0923
 1505SOL    HW2 4974   3.024   4.904   4.570  0.0333 -0.1732  0.9137
 1506SOL     OW 4975   2.570   3.938   5.033 -0.0009  0.3899  0.3344
 1506SOL    HW1 4976   2.602   3.917   5.121 -0.6724 -1.1218  0.2656
 1506SOL    HW2 4977   2.474   3.938   5.043 -0.1199 -0.7735 -0.5640
 1507SOL     OW 4978   0.868   0.269   1.395  0.0030  0.0303 -0.2193
 1507SOL    HW1 4979   0.784   0.278   1.349 -0.1443 -1.7809 -0.3813
 1507SOL    HW2 4980   0.844   0.258   1.487  0.0169 -0.8120 -0.3056
 1508SOL     OW 4981   5.110   4.838   4.001  0.0980 -0.3715 -0.1243
 1508SOL    HW1 4982   5.052   4.772   3.963  0.5734  0.0474 -1.6528
 1508SOL    HW2 4983   5.194   4.825   3.957 -0.5845  3.2605 -3.0586
 1509SOL     OW 4984   4.172   1.022   5.285 -0.9283 -0.2006  0.0684
 1509SOL    HW1 4985   4.165   0.951   5.350  1.6853 -1.5319 -0.9612
 1509SOL    HW2 4986   4.216   1.092   5.332  0.1405 -0.8174  0.0101
 1510SOL     OW 4987   0.862   1.132   1.469  0.2072 -0.2118  0.1583
 1510SOL    HW1 4988   0.904   1.212   1.435  0.7301 -0.5119  0.0851
 1510SOL    HW2 4989   0.798   1.108   1.402  0.7596 -0.4201 -0.3036
 1511SOL     OW 4990   6.032   6.217   2.757 -0.5418 -0.0615 -0.1148
 1511SOL    HW1 4991   6.104   6.168   2.716 -0.5617  0.0553 -0.2889
 1511SOL    HW2 4992   5.969   6.230   2.686 -0.6546 -0.0096 -0.0039
 1512SOL     OW 4993   4.179   0.372   3.843  0.0256 -0.0700 -0.2374
 1512SOL    HW1 4994   4.127   0.438   3.797  0.3252 -1.4649 -2.7622
 1512SOL    HW2 4995   4.120   0.338   3.910 -0.8807  1.2281 -0.3300
 1513SOL     OW 4996   1.655   2.292   0.794 -0.0743  0.0028  0.1601
 1513SOL    HW1 4997   1.601   2.316   0.719 -0.1514 -1.2057 -0.2007
 1513SOL    HW2 4998   1.594   2.256   0.858  0.3015 -1.8290 -0.4445
 1514SOL     OW 4999   6.328   0.660   5.996  0.7530 -0.4259  0.4083
 1514SOL    HW1 5000   6.260   0.593   5.997  1.2966 -0.9963  0.2010
 1514SOL    HW2 5001   6.301   0.721   5.927  0.4243 -0.6172  0.3675
 1515SOL     OW 5002   0.321   4.699   2.349  0.3524  0.2218  0.0708
 1515SOL    HW1 5003   0.303   4.735   2.262  0.4263  1.0994  0.4150
 1515SOL    HW2 5004   0.327   4.604   2.334  0.3393  0.3558 -0.8754
 1516SOL     OW 5005   2.883   3.723   6.317  0.1606  0.0086  0.1563
 1516SOL    HW1 5006   2.907   3.688   6.231 -1.1088 -0.6281  0.0504
 1516SOL    HW2 5007   2.965   3.761   6.350  0.9620 -0.7992 -0.8120
 1517SOL     OW 5008   6.178   2.251   3.522 -0.1994 -0.1059 -0.1243
 1517SOL    HW1 5009   6.254   2.194   3.537 -0.0532 -0.1632 -1.0505
 1517SOL    HW2 5010   6.216   2.338   3.507 -0.3765  0.0670  0.4009
 1518SOL     OW 5011   0.984   1.684   2.943 -0.6629  0.1858 -0.5585
 1518SOL    HW1 5012   0.950   1.748   3.006  0.0659 -0.0182  0.0627
 1518SOL    HW2 5013   0.996   1.733   2.862  0.0953  0.8941 -0.0284
 1519SOL     OW 5014   2.393   0.539   2.656  0.2128  0.3767 -0.1015
 1519SOL    HW1 5015   2.332   0.486   2.604 -0.0464 -0.2207  0.8008
 1519SOL    HW2 5016   2.339   0.578   2.724  0.4922  1.4483 -0.4746
 1520SOL     OW 5017   1.329   4.709   1.451 -0.5267  0.1916 -0.0385
 1520SOL    HW1 5018   1.335   4.635   1.511  0.2092  0.4083  0.1655
 1520SOL    HW2 5019   1.279   4.775   1.499  0.3929  0.5120  0.5062
 1521SOL     OW 5020   5.702   1.723   2.891 -0.0905 -0.3884 -0.1979
 1521SOL    HW1 5021   5.750   1.702   2.811  0.5295 -3.4746  0.8719
 1521SOL    HW2 5022   5.727   1.813   2.911  1.0272 -0.1094 -2.5506
 1522SOL     OW 5023   0.539   5.049   2.315  0.4944 -0.0771 -0.0301
 1522SOL    HW1 5024   0.601   5.022   2.248  2.8577 -0.7833  2.2602
 1522SOL    HW2 5025   0.548   4.983   2.384 -0.3708  1.5909  1.7967
 1523SOL     OW 5026   4.165   0.625   6.069 -0.1773  0.6757 -0.1519
 1523SOL    HW1 5027   4.111   0.700   6.043  0.2126  0.5928 -1.2380
 1523SOL    HW2 5028   4.202   0.651   6.154 -1.1537  1.1227  0.1500
 1524SOL     OW 5029   1.172   4.263   0.590 -0.3837  0.2193  0.4221
 1524SOL    HW1 5030   1.179   4.169   0.606 -2.5392  0.1074  1.0211
 1524SOL    HW2 5031   1.253   4.299   0.625 -0.6723 -1.1221  2.7017
 1525SOL     OW 5032   1.019   2.584   0.996 -0.4188  0.4685 -0.2867
 1525SOL    HW1 5033   1.066   2.508   1.030 -0.8139  0.1548 -0.4276
 1525SOL    HW2 5034   1.010   2.643   1.071 -0.3033  0.2783 -0.1229
 1526SOL     OW 5035   4.077   2.167   5.719 -0.3742  0.2876  0.3059
 1526SOL    HW1 5036   4.101   2.257   5.741 -0.1957  0.1134  0.8545
 1526SOL    HW2 5037   4.049   2.129   5.802 -1.2586  0.0802 -0.0755
 1527SOL     OW 5038   3.895   3.250   2.032 -0.1263 -0.1457  0.6440
 1527SOL    HW1 5039   3.833   3.245   1.960  0.6577  0.9622 -0.1406
 1527SOL    HW2 5040   3.965   3.307   2.000 -0.2967  1.3098  2.6778
 1528SOL     OW 5041   4.453   2.201   3.890 -0.2251 -0.2999 -0.8159
 1528SOL    HW1 5042   4.479   2.111   3.908 -0.9535 -0.1285  1.3419
 1528SOL    HW2 5043   4.449   2.243   3.976 -1.1936  1.4385 -1.6496
 1529SOL     OW 5044   0.736   4.741   3.181  0.1093  0.1683 -0.3808
 1529SOL    HW1 5045   0.741   4.652   3.145 -1.2889  0.1480 -0.5959
 1529SOL    HW2 5046   0.808   4.745   3.244  0.1131 -1.1788 -0.2585
 1530SOL     OW 5047   3.022   1.698   4.173 -0.2464 -0.1911  0.5603
 1530SOL    HW1 5048   3.004   1.623   4.117  0.3506 -0.1369  0.2924
 1530SOL    HW2 5049   2.973   1.770   4.133  0.3532 -0.1005 -0.0281
 1531SOL     OW 5050   5.237   4.229   2.531 -0.0950  0.4441 -0.2626
 1531SOL    HW1 5051   5.240   4.221   2.436 -1.1555  3.0154 -0.6148
 1531SOL    HW2 5052   5.157   4.182   2.557 -0.8814  1.3849 -0.9204
 1532SOL     OW 5053   3.849   4.167   4.305 -0.5705  0.5020 -0.7215
 1532SOL    HW1 5054   3.936   4.207   4.300 -0.1793 -0.2717 -0.3028
 1532SOL    HW2 5055   3.842   4.135   4.395 -1.2423  0.4495 -0.7861
 1533SOL     OW 5056   6.333   0.298   4.185 -0.4263  0.0878 -0.6063
 1533SOL    HW1 5057   6.239   0.316   4.192 -0.4449 -0.0459 -0.5016
 1533SOL    HW2 5058   6.366   0.366   4.127 -0.6671 -0.1342 -1.0073
 1534SOL     OW 5059   5.781   6.069   5.256 -0.1847  0.0903  0.2394
 1534SOL    HW1 5060   5.688   6.082   5.273 -0.2098  0.4275 -0.1293
 1534SOL    HW2 5061   5.805   5.992   5.308 -0.5631  0.2731  0.6912
 1535SOL     OW 5062   0.284   1.198   4.054  0.1033  0.1594 -0.1053
 1535SOL    HW1 5063   0.325   1.284   4.044  0.4921 -0.0590 -0.4090
 1535SOL    HW2 5064   0.303   1.153   3.972  0.5034 -0.4705  0.3230
 1536SOL     OW 5065   6.071   2.544   1.618  0.4840 -0.2817 -0.3308
 1536SOL    HW1 5066   6.114   2.497   1.546 -1.4210 -1.9985 -0.4459
 1536SOL    HW2 5067   6.072   2.636   1.591  2.6750 -0.4404 -0.9936
 1537SOL     OW 5068   2.703   3.533   4.258  0.1423 -0.1442 -0.4638
 1537SOL    HW1 5069   2.756   3.486   4.323 -1.7387 -1.2518  0.3558
 1537SOL    HW2 5070   2.682   3.466   4.193  1.1477  0.7115 -1.7209
 1538SOL     OW 5071   2.242   1.756   6.235  0.0271  0.4863 -0.7537
 1538SOL    HW1 5072   2.156   1.764   6.276 -0.7594 -1.5622 -1.9136
 1538SOL    HW2 5073   2.227   1.706   6.155  2.4840 -1.1740 -0.2864
 1539SOL     OW 5074   3.895   4.456   2.450  0.4250 -0.2764 -0.0712
 1539SOL    HW1 5075   3.976   4.439   2.499  0.3833 -1.1960 -0.3026
 1539SOL    HW2 5076   3.924   4.500   2.370  0.5663  0.5499  0.4253
 1540SOL     OW 5077   4.958   2.687   0.664 -0.2473 -0.2222 -0.2269
 1540SOL    HW1 5078   4.968   2.596   0.694 -0.0233 -0.3199 -0.5831
 1540SOL    HW2 5079   4.973   2.682   0.569  0.3827  0.2838 -0.1594
 1541SOL     OW 5080   2.238   4.815   1.780  0.2448 -0.6003  0.2648
 1541SOL    HW1 5081   2.269   4.838   1.693  1.4787 -1.0581  0.5645
 1541SOL    HW2 5082   2.143   4.831   1.777  0.2254 -0.8684 -1.2356
 1542SOL     OW 5083   2.924   4.626   1.238 -0.5049 -0.6205 -0.2510
 1542SOL    HW1 5084   2.971   4.653   1.317 -1.9453 -1.7766  1.0743
 1542SOL    HW2 5085   2.992   4.593   1.179  0.5683  0.0403  0.5868
 1543SOL     OW 5086   1.683   3.798   1.995  0.6851  0.2956 -0.1229
 1543SOL    HW1 5087   1.612   3.823   1.936  0.0538 -0.2825  0.3738
 1543SOL    HW2 5088   1.737   3.877   2.002 -0.2298  0.9352 -0.0602
 1544SOL     OW 5089   3.473   5.411   3.992  0.4254  0.4483 -0.5968
 1544SOL    HW1 5090   3.413   5.337   3.987  0.2754  0.2650  2.1210
 1544SOL    HW2 5091   3.477   5.446   3.903 -1.2208 -1.4593 -1.4870
 1545SOL     OW 5092   3.212   0.971   0.164 -0.0453 -0.0169  0.1386
 1545SOL    HW1 5093   3.216   0.882   0.199 -0.3942 -0.0370  0.1256
 1545SOL    HW2 5094   3.269   1.022   0.221 -0.6322 -0.0397  0.7535
 1546SOL     OW 5095   5.948   2.779   5.380 -0.6724 -0.8372  0.7345
 1546SOL    HW1 5096   5.948   2.866   5.420  0.0086 -0.8744  0.8356
 1546SOL    HW2 5097   5.869   2.777   5.326 -0.8856 -0.2917  1.0196
 1547SOL     OW 5098   0.731   1.736   1.565 -0.2736  0.6211 -0.1710
 1547SOL    HW1 5099   0.741   1.688   1.647 -0.2092  1.9097  0.6073
 1547SOL    HW2 5100   0.638   1.760   1.562 -0.4814 -0.2586 -0.9685
 1548SOL     OW 5101   3.070   1.487   1.609  0.1468 -0.2511 -0.2290
 1548SOL    HW1 5102   3.097   1.395   1.609 -0.1113 -0.3312  0.3732
 1548SOL    HW2 5103   3.118   1.526   1.682  0.1450  0.0610 -0.3942
 1549SOL     OW 5104   6.006   4.461   3.490 -0.2263 -0.3951 -0.0963
 1549SOL    HW1 5105   5.970   4.549   3.480  0.8943  0.2490  1.1175
 1549SOL    HW2 5106   6.048   4.442   3.406  0.4168  0.6765 -0.0351
 1550SOL     OW 5107   3.826   4.988   0.186  0.0519  0.3044 -0.5962
 1550SOL    HW1 5108   3.785   4.942   0.113  0.7494  2.5781 -2.5490
 1550SOL    HW2 5109   3.818   5.080   0.164  1.0593  1.0526  1.8216
 1551SOL     OW 5110   2.801   4.171   1.464 -0.1386 -0.0034 -0.0368
 1551SOL    HW1 5111   2.876   4.231   1.464 -0.8697  0.9343  0.4319
 1551SOL    HW2 5112   2.764   4.179   1.552 -0.1529 -1.2789  0.0861
 1552SOL     OW 5113   5.366   5.778   1.882  0.5571  0.0544  0.2967
 1552SOL    HW1 5114   5.383   5.722   1.807 -0.9943 -0.3501  0.2043
 1552SOL    HW2 5115   5.413   5.737   1.955 -2.7338 -3.1756  0.9345
 1553SOL     OW 5116   5.391   0.077   1.648  0.9389 -0.3913 -0.1447
 1553SOL    HW1 5117   5.338   0.034   1.581  0.9312  0.4467 -0.6783
 1553SOL    HW2 5118   5.481   0.059   1.623  0.9313 -0.3731 -0.1845
 1554SOL     OW 5119   1.294   2.728   6.346 -0.0635  0.4022 -0.0583
 1554SOL    HW1 5120   1.285   2.643   6.302 -1.7616  0.4992  0.0496
 1554SOL    HW2 5121   1.383   2.727   6.381  0.5754 -0.5727 -1.6223
 1555SOL     OW 5122   5.394   5.879   0.078  0.0291  0.1567  0.7144
 1555SOL    HW1 5123   5.304   5.909   0.094 -1.3213 -1.5858 -2.6451
 1555SOL    HW2 5124   5.411   5.816   0.149 -2.0438 -0.6223  0.5923
 1556SOL     OW 5125   4.631   4.787   2.412 -0.6827  0.1239 -0.1739
 1556SOL    HW1 5126   4.545   4.818   2.387 -0.6600 -1.4910 -2.5275
 1556SOL    HW2 5127   4.692   4.844   2.365 -0.5871 -1.2077 -1.7361
 1557SOL     OW 5128   4.246   3.116   0.525 -0.5863  0.0684  0.0849
 1557SOL    HW1 5129   4.325   3.164   0.551 -1.3109  0.9163  0.8292
 1557SOL    HW2 5130   4.275   3.056   0.457  0.5099  1.0509 -0.3487
 1558SOL     OW 5131   1.855   3.329   0.771 -0.1102 -0.4827  0.6210
 1558SOL    HW1 5132   1.931   3.354   0.719 -0.2544 -0.4700  0.4139
 1558SOL    HW2 5133   1.784   3.385   0.739 -0.0777 -0.1124  1.1933
 1559SOL     OW 5134   6.355   4.710   1.733  0.5210  0.1583 -0.4746
 1559SOL    HW1 5135   6.448   4.730   1.721  0.6210 -0.3894 -0.6688
 1559SOL    HW2 5136   6.329   4.760   1.810  1.4891 -1.2047  0.7905
 1560SOL     OW 5137   3.977   3.548   2.850 -0.1539  0.4702  0.2979
 1560SOL    HW1 5138   3.935   3.581   2.771 -1.1970  1.3980  1.2075
 1560SOL    HW2 5139   4.041   3.484   2.818 -0.2178  1.1535 -1.3156
 1561SOL     OW 5140   1.175   3.816   2.826  0.0269  0.0231 -0.0822
 1561SOL    HW1 5141   1.175   3.873   2.749  0.3876 -2.0074 -1.6672
 1561SOL    HW2 5142   1.099   3.758   2.813  1.8282 -2.3882 -0.5831
 1562SOL     OW 5143   1.977   5.438   2.737  0.1418 -0.7495  0.0793
 1562SOL    HW1 5144   1.968   5.469   2.827  0.1257  1.5369 -0.6285
 1562SOL    HW2 5145   1.931   5.355   2.734  1.4634 -1.6629  2.5307
 1563SOL     OW 5146   2.006   5.677   1.786 -0.2844  0.1997 -0.2616
 1563SOL    HW1 5147   2.035   5.743   1.722 -0.2752 -0.1688 -0.6469
 1563SOL    HW2 5148   2.086   5.627   1.806 -0.5099 -0.4418 -0.8770
 1564SOL     OW 5149   1.876   0.569   0.241  0.3122 -0.1239 -0.4023
 1564SOL    HW1 5150   1.814   0.498   0.255 -0.2447  0.3570 -0.3793
 1564SOL    HW2 5151   1.873   0.585   0.146  2.1148 -1.6120 -0.7921
 1565SOL     OW 5152   2.706   4.431   0.779  0.1967 -0.0663  0.3614
 1565SOL    HW1 5153   2.747   4.516   0.765 -1.3763  0.7243  0.2528
 1565SOL    HW2 5154   2.612   4.447   0.766 -0.0612 -2.0343 -0.6660
 1566SOL     OW 5155   2.811   2.638   0.301  0.1463 -0.4384 -0.0210
 1566SOL    HW1 5156   2.824   2.725   0.262 -0.5070 -0.7049 -0.8533
 1566SOL    HW2 5157   2.900   2.605   0.316  0.4624 -0.7723 -2.3083
 1567SOL     OW 5158   0.021   2.552   3.018 -0.3630  0.5110 -0.0055
 1567SOL    HW1 5159   0.097   2.609   3.032 -0.2924  0.3470  0.2782
 1567SOL    HW2 5160   0.026   2.529   2.925  0.8350 -0.7806  0.3521
 1568SOL     OW 5161   5.076   5.653   5.362  0.3019 -0.5898  0.1080
 1568SOL    HW1 5162   5.031   5.702   5.293  1.3306  0.2875  0.0165
 1568SOL    HW2 5163   5.024   5.574   5.374 -2.1105  1.0334  1.1037
 1569SOL     OW 5164   6.188   2.736   5.279 -0.1397  0.3990  0.1441
 1569SOL    HW1 5165   6.243   2.718   5.355  0.6376  1.4002 -0.1559
 1569SOL    HW2 5166   6.100   2.750   5.316 -0.0272 -0.3463  0.7178
 1570SOL     OW 5167   2.215   5.131   4.352 -0.6379  0.1549  0.4168
 1570SOL    HW1 5168   2.125   5.116   4.325 -0.3665  0.0612 -0.4567
 1570SOL    HW2 5169   2.212   5.214   4.401 -1.0531  0.6403 -0.4014
 1571SOL     OW 5170   4.496   2.664   1.579 -0.1263 -0.0516  0.0174
 1571SOL    HW1 5171   4.591   2.655   1.572  0.0013 -3.6787  3.0895
 1571SOL    HW2 5172   4.461   2.599   1.518 -0.2860 -2.4434  2.4629
 1572SOL     OW 5173   3.488   2.822   4.277 -0.1010 -0.3409  0.2460
 1572SOL    HW1 5174   3.433   2.900   4.266 -0.7760 -0.5212  1.9721
 1572SOL    HW2 5175   3.470   2.769   4.200 -1.2980  0.2527  0.0839
 1573SOL     OW 5176   0.711   3.084   0.060 -0.8269 -0.2493  0.0121
 1573SOL    HW1 5177   0.700   3.024   0.134  0.7773  0.2833  0.7329
 1573SOL    HW2 5178   0.622   3.106   0.033 -1.4392 -1.7280  0.7354
 1574SOL     OW 5179   5.755   3.612   5.070 -0.5808  0.6265 -0.2120
 1574SOL    HW1 5180   5.691   3.678   5.097 -1.6966 -0.6977  0.5378
 1574SOL    HW2 5181   5.786   3.575   5.152 -2.0887 -1.6847 -0.5845
 1575SOL     OW 5182   2.963   3.625   1.651 -0.4403  0.3510 -1.0246
 1575SOL    HW1 5183   2.891   3.688   1.662 -0.6534  0.2030 -1.5592
 1575SOL    HW2 5184   2.977   3.590   1.739 -0.2649  1.1993 -0.7022
 1576SOL     OW 5185   4.155   3.351   2.756  0.0959  0.1968  0.1625
 1576SOL    HW1 5186   4.223   3.407   2.793 -0.8194  2.3250 -1.1763
 1576SOL    HW2 5187   4.174   3.348   2.663 -1.6448  0.9669 -0.2699
 1577SOL     OW 5188   3.790   2.967   5.249  0.0960 -0.4517 -0.2282
 1577SOL    HW1 5189   3.765   2.875   5.237  1.7396 -0.9488 -0.0914
 1577SOL    HW2 5190   3.734   2.998   5.320 -0.3499 -1.4086 -0.1407
 1578SOL     OW 5191   2.509   2.095   2.469  0.5524 -0.2078 -0.4037
 1578SOL    HW1 5192   2.594   2.114   2.508  0.2863  1.1666 -0.4449
 1578SOL    HW2 5193   2.483   2.011   2.508  2.2819 -1.0855 -1.0529
 1579SOL     OW 5194   1.022   3.935   0.008  0.2019 -0.4816  0.3664
 1579SOL    HW1 5195   1.019   3.867  -0.060 -1.2835 -0.0812  0.0076
 1579SOL    HW2 5196   1.088   3.903   0.070 -0.4005 -2.2304  0.1717
 1580SOL     OW 5197   2.347   0.811   4.329 -0.2096  0.2280  0.4909
 1580SOL    HW1 5198   2.409   0.828   4.400 -1.3424 -0.2137  1.6250
 1580SOL    HW2 5199   2.270   0.774   4.373 -0.5229 -1.1205 -1.0808
 1581SOL     OW 5200   2.593   4.932   0.374  0.5523  0.6510  0.6830
 1581SOL    HW1 5201   2.665   4.909   0.432  0.2776 -1.9830  0.1099
 1581SOL    HW2 5202   2.634   4.977   0.300  2.1118 -2.9377 -0.8549
 1582SOL     OW 5203   5.597   1.167   4.727  0.2142  0.2443 -0.4075
 1582SOL    HW1 5204   5.644   1.107   4.669  0.7082  0.7019 -0.4894
 1582SOL    HW2 5205   5.619   1.137   4.815  0.4472  0.2901 -0.4489
 1583SOL     OW 5206   6.001   1.199   2.861 -0.0821  0.1049  0.3578
 1583SOL    HW1 5207   6.060   1.248   2.803  0.4071  0.7766  1.3870
 1583SOL    HW2 5208   6.060   1.150   2.919 -0.5256  0.3520  1.0361
 1584SOL     OW 5209   0.520   6.353   4.726  0.1242  0.1720  0.5532
 1584SOL    HW1 5210   0.615   6.359   4.725  0.2719 -1.6578  0.7042
 1584SOL    HW2 5211   0.494   6.352   4.634  0.2833  0.1851  0.5087
 1585SOL     OW 5212   2.704   1.274   5.824 -0.1358  0.7523  0.8196
 1585SOL    HW1 5213   2.681   1.221   5.748  1.2322 -0.8306  1.4443
 1585SOL    HW2 5214   2.661   1.358   5.809 -1.0770 -0.0023 -0.9819
 1586SOL     OW 5215   1.228   1.051   3.980 -0.2507 -0.2372  0.4040
 1586SOL    HW1 5216   1.245   1.115   4.049  0.5462  0.0913 -0.0885
 1586SOL    HW2 5217   1.211   1.104   3.902 -0.9512 -0.6083  0.2884
 1587SOL     OW 5218   3.266   1.351   3.295 -0.2496 -0.3713 -0.3129
 1587SOL    HW1 5219   3.332   1.417   3.275 -0.7245  1.1278  2.5903
 1587SOL    HW2 5220   3.317   1.272   3.317  0.4021 -0.2890 -1.4600
 1588SOL     OW 5221   5.906   0.623   0.618  0.1834  0.0632  0.5099
 1588SOL    HW1 5222   5.991   0.659   0.595 -0.3029  1.6238  1.0095
 1588SOL    HW2 5223   5.923   0.532   0.641  1.4427 -0.1182 -0.9784
 1589SOL     OW 5224   2.369   4.125   6.104  0.0074  0.3418  0.0370
 1589SOL    HW1 5225   2.286   4.095   6.067  0.6613 -0.1291 -1.0754
 1589SOL    HW2 5226   2.372   4.218   6.083  0.3751  0.0798 -1.1330
 1590SOL     OW 5227   3.638   1.836   5.936 -0.2504 -0.1494 -1.2025
 1590SOL    HW1 5228   3.730   1.849   5.914 -0.3708  1.1296 -0.9845
 1590SOL    HW2 5229   3.633   1.848   6.031 -0.7649  0.6364 -1.3140
 1591SOL     OW 5230   5.145   2.176   2.078  0.0429  0.4687 -0.3805
 1591SOL    HW1 5231   5.216   2.149   2.137 -0.9261  0.1193  0.6558
 1591SOL    HW2 5232   5.076   2.207   2.136 -1.6499 -1.5153 -1.2029
 1592SOL     OW 5233   5.707   5.604   3.486 -0.3338  0.0028  0.1853
 1592SOL    HW1 5234   5.643   5.598   3.415  0.5246 -2.1906 -0.5135
 1592SOL    HW2 5235   5.784   5.644   3.445 -0.7932  1.4589  0.6914
 1593SOL     OW 5236   0.004   1.644   1.219  0.0895 -0.0533 -0.2745
 1593SOL    HW1 5237  -0.005   1.729   1.264  1.0366  0.0361 -0.2403
 1593SOL    HW2 5238  -0.061   1.588   1.262 -0.9021  0.7822 -0.6307
 1594SOL     OW 5239   0.680   2.677   4.562 -0.4675 -0.3465 -0.5504
 1594SOL    HW1 5240   0.713   2.735   4.494  0.1197  0.0882  0.0930
 1594SOL    HW2 5241   0.750   2.674   4.628 -0.3741 -1.9675 -0.6720
 1595SOL     OW 5242   5.793   2.262   5.308 -0.0762  0.0332 -0.2399
 1595SOL    HW1 5243   5.754   2.175   5.294 -2.1876  0.6422  1.2320
 1595SOL    HW2 5244   5.855   2.249   5.379  0.0049 -0.3747 -0.3822
 1596SOL     OW 5245   5.037   3.039   0.456  0.3661 -0.6123  0.3872
 1596SOL    HW1 5246   4.986   3.104   0.407 -0.7641  0.0259  2.3018
 1596SOL    HW2 5247   5.105   3.012   0.395 -0.6053  0.5552 -1.3222
 1597SOL     OW 5248   3.821   2.547   4.075 -0.4445  0.5429  0.5884
 1597SOL    HW1 5249   3.791   2.532   3.985  0.0846 -0.0428  0.4992
 1597SOL    HW2 5250   3.857   2.636   4.074 -0.3959  0.5208  0.2029
 1598SOL     OW 5251   6.104   5.887   2.034  0.0891 -0.2039  0.8990
 1598SOL    HW1 5252   6.104   5.980   2.057  0.3901 -0.0907  0.4599
 1598SOL    HW2 5253   6.028   5.851   2.080 -0.2416  0.3325  0.7885
 1599SOL     OW 5254   5.095   6.203   6.327 -0.0002  0.7010  0.0195
 1599SOL    HW1 5255   5.111   6.274   6.265 -0.1738  1.1211  0.4475
 1599SOL    HW2 5256   5.037   6.142   6.279  0.3566  0.7156 -0.4362
 1600SOL     OW 5257   4.003   1.287   2.089  0.0410 -0.1946 -0.0810
 1600SOL    HW1 5258   4.030   1.367   2.135 -1.8689  0.1319  0.5872
 1600SOL    HW2 5259   4.036   1.216   2.143  0.4134  0.1535  0.1596
 1601SOL     OW 5260   3.311   3.112   0.454 -0.0304  0.5298 -0.5355
 1601SOL    HW1 5261   3.395   3.158   0.449  0.5760 -0.5855 -1.3562
 1601SOL    HW2 5262   3.282   3.124   0.544  1.5990 -0.0260  0.1087
 1602SOL     OW 5263   4.072   1.936   2.204  0.1892 -0.6935  0.1988
 1602SOL    HW1 5264   4.021   1.861   2.172  0.9455 -1.2277  0.2176
 1602SOL    HW2 5265   4.130   1.898   2.270  1.0369 -0.2183 -0.2507
 1603SOL     OW 5266   1.960   6.267   0.524 -0.0786 -0.7136  0.1211
 1603SOL    HW1 5267   2.038   6.322   0.528  0.7906 -1.5700 -2.6103
 1603SOL    HW2 5268   1.889   6.327   0.502  0.5780 -0.4376 -1.3247
 1604SOL     OW 5269   2.559   1.929   2.243  0.1168  0.6440 -0.9569
 1604SOL    HW1 5270   2.582   2.019   2.217 -0.0731  1.3354  1.1283
 1604SOL    HW2 5271   2.554   1.932   2.338 -0.3567 -1.4961 -0.8739
 1605SOL     OW 5272   5.260   5.006   5.771  0.6720  0.2525  0.0726
 1605SOL    HW1 5273   5.340   4.955   5.760  0.2064 -0.5651  0.4444
 1605SOL    HW2 5274   5.256   5.025   5.865  1.2037  1.5898 -0.1481
 1606SOL     OW 5275   2.271   0.391   1.504 -0.0497  0.5256  0.5742
 1606SOL    HW1 5276   2.328   0.416   1.431  1.2145 -1.0321  0.9601
 1606SOL    HW2 5277   2.293   0.299   1.521 -2.3144  0.0407  1.1240
 1607SOL     OW 5278   1.345   3.800   2.096 -0.0528  0.1859  0.0764
 1607SOL    HW1 5279   1.304   3.878   2.059  2.5104  1.2542 -0.7311
 1607SOL    HW2 5280   1.316   3.729   2.039 -0.3882  0.9626 -0.7505
 1608SOL     OW 5281   5.031   3.806   6.035  0.2774 -0.4122  0.3593
 1608SOL    HW1 5282   5.118   3.821   6.070  0.1958  0.1692  0.3148
 1608SOL    HW2 5283   4.972   3.842   6.101  0.1048  0.1565 -0.1011
 1609SOL     OW 5284   2.106   1.553   0.892 -0.2563  0.0218  0.2319
 1609SOL    HW1 5285   2.179   1.500   0.860  0.5202  0.1472  1.7064
 1609SOL    HW2 5286   2.088   1.615   0.821  1.7753  0.6835  0.2350
 1610SOL     OW 5287   2.932   4.023   1.874  0.2309  0.2966  0.6758
 1610SOL    HW1 5288   2.998   3.996   1.938  0.7071 -0.2647 -0.0428
 1610SOL    HW2 5289   2.914   3.945   1.823 -0.9846  0.4518  0.8394
 1611SOL     OW 5290   2.261   3.391   2.795  0.1721  0.0510 -0.1758
 1611SOL    HW1 5291   2.169   3.391   2.820  0.8531  0.0013  2.6158
 1611SOL    HW2 5292   2.289   3.482   2.807  0.7445 -0.1615  0.1626
 1612SOL     OW 5293   6.201   1.017   3.170 -0.0385  0.5351  0.2936
 1612SOL    HW1 5294   6.277   0.989   3.119 -0.9105  1.6265 -1.7365
 1612SOL    HW2 5295   6.128   0.965   3.136 -0.4114  0.2766  1.4486
 1613SOL     OW 5296   6.246   2.137   0.594 -0.7812 -0.2242  0.4008
 1613SOL    HW1 5297   6.166   2.128   0.646 -0.0862  0.2065  1.5622
 1613SOL    HW2 5298   6.300   2.199   0.643  0.4135 -0.7815 -0.1865
 1614SOL     OW 5299   3.681   4.744   3.136  0.4062 -0.3297  0.7904
 1614SOL    HW1 5300   3.609   4.698   3.092 -0.2634  0.6362  0.8357
 1614SOL    HW2 5301   3.735   4.779   3.065  0.7417 -0.9039  0.7560
 1615SOL     OW 5302   0.140   5.317   2.944 -0.1613  0.3605  0.3544
 1615SOL    HW1 5303   0.065   5.356   2.898 -0.6768  0.0352  0.9061
 1615SOL    HW2 5304   0.216   5.345   2.893 -0.6097  1.1523  0.0967
 1616SOL     OW 5305   4.663   2.370   0.541 -0.3560  0.3683 -0.6299
 1616SOL    HW1 5306   4.609   2.398   0.615 -0.3655  1.2472 -0.9605
 1616SOL    HW2 5307   4.614   2.297   0.503 -0.3705 -0.0675  0.2042
 1617SOL     OW 5308   0.891   2.217   0.980 -0.2265  0.6630 -0.7309
 1617SOL    HW1 5309   0.907   2.269   1.059 -0.8175  1.8569 -1.3877
 1617SOL    HW2 5310   0.819   2.159   1.004  2.0375 -1.7622  0.8511
 1618SOL     OW 5311   2.080   1.933   5.659  0.0834  0.5024  0.1455
 1618SOL    HW1 5312   2.118   1.851   5.689 -1.2104 -0.1969 -0.0918
 1618SOL    HW2 5313   2.155   1.993   5.652  1.4277 -1.2998 -1.9112
 1619SOL     OW 5314   4.199   0.418   5.897  0.7005  0.2387 -0.1994
 1619SOL    HW1 5315   4.189   0.341   5.953 -1.7156  1.0659  0.6433
 1619SOL    HW2 5316   4.186   0.492   5.957  0.9803  1.2371 -1.3379
 1620SOL     OW 5317   1.677   5.506   2.207  0.6403  0.2868  0.7372
 1620SOL    HW1 5318   1.616   5.444   2.166 -0.5711  1.3734  0.8357
 1620SOL    HW2 5319   1.752   5.508   2.148 -0.1345  0.1698 -0.2711
 1621SOL     OW 5320   4.773   3.960   3.118 -1.0987  0.2728 -0.0794
 1621SOL    HW1 5321   4.830   4.013   3.062 -0.2427 -1.1653 -0.6057
 1621SOL    HW2 5322   4.730   4.024   3.175  0.4156  1.4822 -0.2362
 1622SOL     OW 5323   2.534   5.451   2.193 -0.1615 -0.0961  0.1418
 1622SOL    HW1 5324   2.599   5.390   2.158 -0.2957 -0.7249  0.9456
 1622SOL    HW2 5325   2.506   5.502   2.117  0.8304 -0.2212 -0.3209
 1623SOL     OW 5326   2.098   2.152   4.655 -0.0582  0.5819  0.0233
 1623SOL    HW1 5327   2.013   2.126   4.621  0.8580 -0.9241 -1.2695
 1623SOL    HW2 5328   2.111   2.241   4.622 -0.2660  0.0602 -1.5793
 1624SOL     OW 5329   1.379   0.845   0.152  0.3378 -0.2144  0.2624
 1624SOL    HW1 5330   1.409   0.769   0.202  0.0425  0.0066  0.7835
 1624SOL    HW2 5331   1.351   0.809   0.068  2.6717 -0.3489 -0.5256
 1625SOL     OW 5332   6.272   3.301   2.957 -0.3106 -0.1186 -0.0182
 1625SOL    HW1 5333   6.213   3.376   2.964  2.4378  2.1135  1.2465
 1625SOL    HW2 5334   6.357   3.340   2.937  1.7276 -2.6345  2.8656
 1626SOL     OW 5335   4.339   2.631   1.067 -0.2943 -0.8696 -0.3999
 1626SOL    HW1 5336   4.415   2.687   1.051  0.7865 -2.5866 -1.5444
 1626SOL    HW2 5337   4.266   2.693   1.076  1.1959  0.8261  0.8295
 1627SOL     OW 5338   2.805   3.201   3.084  0.5301 -0.0194 -0.4418
 1627SOL    HW1 5339   2.847   3.237   3.162 -0.6100 -3.4266  1.9737
 1627SOL    HW2 5340   2.729   3.257   3.070  1.8898  1.9218 -0.5137
 1628SOL     OW 5341   2.541   6.371   6.083 -0.1617 -0.0955 -0.1606
 1628SOL    HW1 5342   2.582   6.450   6.049  0.9568 -1.1133 -1.2866
 1628SOL    HW2 5343   2.613   6.320   6.119 -0.8790 -0.5693  0.6459
 1629SOL     OW 5344   1.261   3.365   6.239  0.2877 -0.0638  0.4467
 1629SOL    HW1 5345   1.189   3.309   6.210 -0.6269  0.8686  0.8490
 1629SOL    HW2 5346   1.336   3.336   6.189 -0.4253 -0.9126 -0.1542
 1630SOL     OW 5347   0.451   1.648   1.821  0.2095 -0.6592 -0.4287
 1630SOL    HW1 5348   0.372   1.691   1.855  1.4009  0.1366  1.5252
 1630SOL    HW2 5349   0.485   1.599   1.896  2.0880 -0.1784 -0.9112
 1631SOL     OW 5350   4.529   5.570   5.620  0.4484  0.0537 -0.0332
 1631SOL    HW1 5351   4.537   5.511   5.545  1.9861 -0.3386  0.4020
 1631SOL    HW2 5352   4.461   5.532   5.674  1.6673 -1.5714  0.4298
 1632SOL     OW 5353   6.379   5.629   2.627  0.0470 -0.7644  0.2956
 1632SOL    HW1 5354   6.338   5.598   2.547 -1.0536 -1.6914  1.1875
 1632SOL    HW2 5355   6.344   5.573   2.696 -0.7822  1.4147  1.7700
 1633SOL     OW 5356   3.770   5.756   1.420 -0.7863  0.2466 -0.2243
 1633SOL    HW1 5357   3.744   5.748   1.328 -1.6830  0.3055  0.0162
 1633SOL    HW2 5358   3.865   5.755   1.418 -0.7930 -0.9669 -1.0498
 1634SOL     OW 5359   0.307   4.202   3.341 -0.4354 -0.4119  0.4401
 1634SOL    HW1 5360   0.345   4.114   3.337  1.3112  0.2665  1.1243
 1634SOL    HW2 5361   0.309   4.233   3.250  3.2317  0.5592  0.6678
 1635SOL     OW 5362   3.401   0.272   2.592 -0.1637 -0.3238  0.3480
 1635SOL    HW1 5363   3.467   0.336   2.618 -0.8896  0.4485  0.3310
 1635SOL    HW2 5364   3.335   0.275   2.662 -0.3137 -0.8914  0.2391
 1636SOL     OW 5365   0.266   2.545   0.331  0.8667 -0.2194  0.1708
 1636SOL    HW1 5366   0.268   2.509   0.242  1.7423 -0.4290  0.2695
 1636SOL    HW2 5367   0.296   2.473   0.386  0.8174  0.0759  0.5823
 1637SOL     OW 5368   2.145   3.501   0.385  0.2852  0.3076 -0.4545
 1637SOL    HW1 5369   2.180   3.589   0.372  1.0972 -0.1879 -1.9193
 1637SOL    HW2 5370   2.146   3.462   0.298 -0.2249 -1.0963  0.1398
 1638SOL     OW 5371   0.427   5.712   4.822 -0.3470  0.3809 -0.0836
 1638SOL    HW1 5372   0.417   5.736   4.914 -0.0419  0.1073  0.0210
 1638SOL    HW2 5373   0.365   5.769   4.776 -0.4517  0.5667  0.2818
 1639SOL     OW 5374   2.917   5.004   5.464  0.0416  0.0801  0.5731
 1639SOL    HW1 5375   2.946   5.008   5.373  0.0993 -1.1806  0.5119
 1639SOL    HW2 5376   2.987   5.046   5.514 -0.0556  0.9001  0.0291
 1640SOL     OW 5377   2.650   3.332   4.081  0.0941  0.0131 -0.2654
 1640SOL    HW1 5378   2.558   3.310   4.066  0.2263 -0.5270 -0.3003
 1640SOL    HW2 5379   2.697   3.250   4.067  0.7875  0.6634 -2.0189
 1641SOL     OW 5380   3.664   5.588   2.151 -0.1144  0.1122  0.4459
 1641SOL    HW1 5381   3.750   5.547   2.155  1.5207  2.6119 -3.1791
 1641SOL    HW2 5382   3.616   5.537   2.087  0.5227  1.3744 -1.1247
 1642SOL     OW 5383   5.741   3.008   2.538 -0.2122  0.0219 -0.5751
 1642SOL    HW1 5384   5.811   2.988   2.600  0.9767 -1.3081 -2.2267
 1642SOL    HW2 5385   5.672   2.945   2.559 -0.6157  0.8339  0.5804
 1643SOL     OW 5386   2.291   2.495   0.242 -0.0773  0.4436  0.4441
 1643SOL    HW1 5387   2.295   2.583   0.281  1.2737  1.0634 -1.0073
 1643SOL    HW2 5388   2.352   2.443   0.294  0.0026  0.6698  0.5810
 1644SOL     OW 5389   1.647   0.899   2.442 -0.1085 -0.4876 -0.4346
 1644SOL    HW1 5390   1.711   0.968   2.423  0.9556 -1.4082 -0.2720
 1644SOL    HW2 5391   1.597   0.933   2.516 -0.3054  0.5435 -1.0051
 1645SOL     OW 5392   4.873   0.448   0.681 -0.0008 -0.2646 -0.0357
 1645SOL    HW1 5393   4.780   0.428   0.692  0.1291 -1.5738 -1.0896
 1645SOL    HW2 5394   4.901   0.392   0.608  1.9816 -1.0138  1.2399
 1646SOL     OW 5395   1.272   4.935   6.369  0.8222 -0.7404 -0.2363
 1646SOL    HW1 5396   1.303   4.900   6.453  0.0668 -2.2658 -0.5554
 1646SOL    HW2 5397   1.177   4.919   6.371  0.4428  1.2593 -0.4565
 1647SOL     OW 5398   0.589   0.913   0.601 -0.3383 -0.3282 -0.5176
 1647SOL    HW1 5399   0.628   0.846   0.546  1.3695 -0.1249  0.3982
 1647SOL    HW2 5400   0.584   0.874   0.688 -0.9890  0.1220 -0.3412
 1648SOL     OW 5401   0.839   6.334   2.718 -0.3667  0.4091  0.7346
 1648SOL    HW1 5402   0.801   6.416   2.751  1.0500  1.1275  0.6166
 1648SOL    HW2 5403   0.900   6.361   2.650  1.8759 -0.5262  2.2714
 1649SOL     OW 5404   1.775   2.743   3.103 -0.4796  0.3109  0.4350
 1649SOL    HW1 5405   1.824   2.718   3.024 -2.7996 -0.8003 -0.7403
 1649SOL    HW2 5406   1.809   2.684   3.171  1.8071  1.5237  0.4515
 1650SOL     OW 5407   4.982   3.802   4.398 -0.5678 -0.1328  0.5513
 1650SOL    HW1 5408   5.064   3.756   4.415 -0.4928  0.0236  0.6138
 1650SOL    HW2 5409   4.994   3.887   4.439 -1.6007 -0.8688  2.5050
 1651SOL     OW 5410   0.631   1.967   0.237  0.0733 -0.3420  0.7321
 1651SOL    HW1 5411   0.673   2.050   0.258  0.3468 -0.5345  0.9570
 1651SOL    HW2 5412   0.597   1.978   0.149 -0.6833  0.3284  1.0935
 1652SOL     OW 5413   0.060   1.603   4.658 -0.2053 -0.3155 -0.3223
 1652SOL    HW1 5414   0.128   1.548   4.621 -1.4635 -2.0473 -0.1935
 1652SOL    HW2 5415   0.096   1.634   4.741 -0.2767 -2.9550  0.8085
 1653SOL     OW 5416   5.071   3.769   2.076 -0.1663 -0.0753 -0.5596
 1653SOL    HW1 5417   5.065   3.841   2.139  0.8687 -0.5808  0.1420
 1653SOL    HW2 5418   5.134   3.800   2.011 -0.3900  0.0079 -0.7346
 1654SOL     OW 5419   0.459   1.034   1.473 -0.1070  0.4288 -0.4111
 1654SOL    HW1 5420   0.396   1.085   1.422 -0.0177 -1.3961 -2.4973
 1654SOL    HW2 5421   0.443   0.943   1.448  1.5640 -0.3582  1.0796
 1655SOL     OW 5422   6.380   6.359   3.976  0.1876 -0.1140 -0.0569
 1655SOL    HW1 5423   6.303   6.383   4.027  0.1892 -2.0242  0.9154
 1655SOL    HW2 5424   6.399   6.269   4.001  2.3937  0.1038 -0.7252
 1656SOL     OW 5425   4.422   3.906   3.263  0.1068  0.1348  0.4969
 1656SOL    HW1 5426   4.390   3.911   3.353  0.4486  0.3197  0.6112
 1656SOL    HW2 5427   4.359   3.850   3.218  0.1429 -0.2730  0.9465
 1657SOL     OW 5428   3.706   4.849   0.659  0.1176 -0.1190 -0.3833
 1657SOL    HW1 5429   3.710   4.759   0.691 -0.1327 -0.6648 -1.8109
 1657SOL    HW2 5430   3.663   4.898   0.730  1.1507 -0.9070  0.8219
 1658SOL     OW 5431   2.909   3.354   3.264 -0.3614  0.0064  0.1383
 1658SOL    HW1 5432   2.862   3.435   3.283  2.1765  1.9731 -1.2205
 1658SOL    HW2 5433   2.946   3.327   3.348 -0.5171  0.7883  0.4622
 1659SOL     OW 5434   3.049   4.012   4.009  0.6817  0.3375 -0.2332
 1659SOL    HW1 5435   3.000   3.930   4.001 -1.6351  1.7319 -1.3663
 1659SOL    HW2 5436   3.113   3.995   4.078 -0.1184 -2.2251 -0.0308
 1660SOL     OW 5437   5.537   6.374   6.338 -0.3415 -0.3185  0.0101
 1660SOL    HW1 5438   5.500   6.295   6.298 -0.6326  0.5363 -1.4936
 1660SOL    HW2 5439   5.566   6.427   6.264 -1.9979  1.8814  0.8171
 1661SOL     OW 5440   1.159   4.327   3.311  0.3595  0.1136 -0.5782
 1661SOL    HW1 5441   1.219   4.315   3.385  0.8571  0.7631 -0.8657
 1661SOL    HW2 5442   1.208   4.295   3.236  0.0852  0.0227 -0.7187
 1662SOL     OW 5443   1.924   6.089   2.442 -0.1633 -0.1624  0.2113
 1662SOL    HW1 5444   2.013   6.058   2.463 -0.6265 -0.9299  1.1200
 1662SOL    HW2 5445   1.897   6.138   2.519 -0.6114 -0.1050  0.0215
 1663SOL     OW 5446   6.283   0.651   3.198  0.0845 -0.5293 -0.3527
 1663SOL    HW1 5447   6.331   0.732   3.180 -0.4662  0.5452  2.4590
 1663SOL    HW2 5448   6.235   0.633   3.118  0.4610  1.7884 -1.1670
 1664SOL     OW 5449   3.146   3.353   2.108  0.2490 -0.5106 -0.1956
 1664SOL    HW1 5450   3.217   3.382   2.050  0.4295  0.5559  0.5367
 1664SOL    HW2 5451   3.189   3.294   2.170  1.0753  1.9020  1.7179
 1665SOL     OW 5452   6.060   0.922   2.362 -0.0858 -0.2145  0.0227
 1665SOL    HW1 5453   5.992   0.855   2.368 -1.3506  0.8543 -1.4403
 1665SOL    HW2 5454   6.023   0.998   2.407  1.0012 -0.2245  0.9755
 1666SOL     OW 5455   1.544   2.477   4.199 -0.1528 -0.6402 -0.3788
 1666SOL    HW1 5456   1.484   2.430   4.257 -1.2591  2.3787  1.1185
 1666SOL    HW2 5457   1.551   2.564   4.238  3.2046 -0.0548 -1.9722
 1667SOL     OW 5458   5.276   0.406   3.145 -0.8778  0.0699 -0.2163
 1667SOL    HW1 5459   5.248   0.354   3.070 -0.9330 -0.5507  0.2188
 1667SOL    HW2 5460   5.370   0.389   3.152 -1.3242 -2.3332  1.6278
 1668SOL     OW 5461   3.113   2.703   5.446  0.0660 -0.4310  0.4765
 1668SOL    HW1 5462   3.024   2.737   5.456 -0.3552 -0.7643 -1.6499
 1668SOL    HW2 5463   3.158   2.771   5.395  0.2448 -1.4352 -0.7395
 1669SOL     OW 5464   0.921   5.590   3.521  0.1325 -0.0146 -0.2486
 1669SOL    HW1 5465   0.992   5.579   3.458  0.4865  0.8835 -0.0200
 1669SOL    HW2 5466   0.921   5.508   3.571  0.3130 -0.4452 -0.9306
 1670SOL     OW 5467   0.119   4.626   0.435 -0.4685 -0.4002 -0.0724
 1670SOL    HW1 5468   0.055   4.675   0.487 -0.8047 -0.8880 -0.0225
 1670SOL    HW2 5469   0.198   4.625   0.489 -0.9551 -1.3015  0.6483
 1671SOL     OW 5470   3.350   4.248   1.473 -0.0814 -0.0927 -0.4959
 1671SOL    HW1 5471   3.287   4.318   1.458  1.0745  0.7065 -1.9569
 1671SOL    HW2 5472   3.301   4.182   1.523 -1.4475  1.3523  0.1742
 1672SOL     OW 5473   2.723   1.645   1.337 -0.0379  0.0452 -0.3725
 1672SOL    HW1 5474   2.740   1.603   1.253  1.0193  0.2482 -0.2737
 1672SOL    HW2 5475   2.806   1.636   1.385 -0.7560 -0.4560  0.8089
 1673SOL     OW 5476   1.530   0.174   6.200 -0.2846  0.4033  0.9293
 1673SOL    HW1 5477   1.601   0.197   6.140 -1.1490  1.2143  0.1818
 1673SOL    HW2 5478   1.451   0.185   6.148 -0.9870 -0.0682  1.8781
 1674SOL     OW 5479   0.910   3.860   1.076  0.0550  0.4187 -0.7179
 1674SOL    HW1 5480   0.826   3.870   1.030  0.2339  1.0606 -0.9211
 1674SOL    HW2 5481   0.968   3.820   1.012  0.0948  0.6148 -0.8047
 1675SOL     OW 5482   5.067   3.132   3.740  0.2171  0.0282  0.0514
 1675SOL    HW1 5483   5.078   3.206   3.681  2.0904 -0.8521 -0.7855
 1675SOL    HW2 5484   4.972   3.123   3.749 -0.0799  1.3158 -1.3813
 1676SOL     OW 5485   4.634   3.222   5.088 -0.3149 -0.0253  0.2402
 1676SOL    HW1 5486   4.720   3.219   5.129 -0.6607  0.8400  1.0495
 1676SOL    HW2 5487   4.631   3.307   5.046  0.2753 -1.1132 -2.1918
 1677SOL     OW 5488   0.116   1.403   4.914  0.3238 -0.3182  0.2084
 1677SOL    HW1 5489   0.176   1.328   4.921 -1.3305 -1.8827 -1.3491
 1677SOL    HW2 5490   0.117   1.442   5.001  3.1627 -0.5719  0.4077
 1678SOL     OW 5491   0.938   1.236   2.528  0.2155 -0.7463  0.5626
 1678SOL    HW1 5492   0.956   1.190   2.610 -1.1190  0.7425  1.7630
 1678SOL    HW2 5493   0.907   1.168   2.469  0.8017 -1.7895  1.4108
 1679SOL     OW 5494   5.799   2.769   4.377 -0.0667 -0.3888 -0.4909
 1679SOL    HW1 5495   5.879   2.740   4.331  0.1266 -0.7367  0.0530
 1679SOL    HW2 5496   5.728   2.739   4.320  0.1717 -0.7253 -0.6204
 1680SOL     OW 5497   0.948   5.155   3.980  0.7649  0.3705  0.2571
 1680SOL    HW1 5498   0.976   5.130   4.068 -3.8281 -2.0729  1.3297
 1680SOL    HW2 5499   0.995   5.095   3.922  0.5630 -1.1057  1.5421
 1681SOL     OW 5500   2.737   5.721   4.726  0.3753  0.7387 -0.0837
 1681SOL    HW1 5501   2.796   5.774   4.780 -0.3050  1.0314  0.3879
 1681SOL    HW2 5502   2.729   5.638   4.773 -0.0587  0.9211  0.1755
 1682SOL     OW 5503   4.863   6.049   1.694  0.5060  0.1277  0.3695
 1682SOL    HW1 5504   4.819   6.042   1.779  3.4589  0.8219  2.0946
 1682SOL    HW2 5505   4.929   6.116   1.707  2.6144 -1.3739 -1.7580
 1683SOL     OW 5506   2.523   1.483   5.744  0.4561  0.4521  0.4443
 1683SOL    HW1 5507   2.527   1.564   5.795 -2.3190  0.7801  0.3049
 1683SOL    HW2 5508   2.514   1.512   5.653  0.3556 -0.0050  0.3047
 1684SOL     OW 5509   1.020   2.585   4.240  0.5310 -0.0294 -0.6666
 1684SOL    HW1 5510   1.091   2.610   4.299 -2.5529  0.2717  3.3863
 1684SOL    HW2 5511   1.013   2.491   4.250 -0.3164  0.0837 -0.0992
 1685SOL     OW 5512   2.855   5.552   4.247  0.0783  0.3318 -0.2904
 1685SOL    HW1 5513   2.814   5.535   4.162 -0.6014  1.3874 -0.1942
 1685SOL    HW2 5514   2.850   5.468   4.293  1.3785 -0.5245 -1.6476
 1686SOL     OW 5515   2.713   4.937   4.586  0.6573 -0.0708  0.0590
 1686SOL    HW1 5516   2.669   4.939   4.500  0.4115 -1.5795  0.1240
 1686SOL    HW2 5517   2.802   4.968   4.567  0.4594  0.1074 -0.6394
 1687SOL     OW 5518   3.871   1.189   0.016  0.6938  0.8382 -0.0538
 1687SOL    HW1 5519   3.864   1.094   0.016  1.5667  0.7571  1.0528
 1687SOL    HW2 5520   3.947   1.208  -0.039  0.1238  0.9485 -0.8221
 1688SOL     OW 5521   4.348   2.092   5.489  0.0730 -0.3761  0.1819
 1688SOL    HW1 5522   4.304   2.024   5.540 -0.9584  0.6767  0.7245
 1688SOL    HW2 5523   4.314   2.081   5.400 -0.8307  0.0163  0.4636
 1689SOL     OW 5524   4.326   2.301   2.419  0.8333 -0.1512 -0.5746
 1689SOL    HW1 5525   4.329   2.321   2.513  0.1843 -1.1762 -0.3162
 1689SOL    HW2 5526   4.407   2.254   2.402  1.9506  1.8081 -1.0020
 1690SOL     OW 5527   4.648   1.158   5.806 -0.3575  0.0381  0.1599
 1690SOL    HW1 5528   4.595   1.140   5.884  1.2105  0.1051  1.2850
 1690SOL    HW2 5529   4.731   1.114   5.823  0.1433  0.3675 -1.3266
 1691SOL     OW 5530   1.361   1.294   4.234 -0.1094 -0.6188  0.1637
 1691SOL    HW1 5531   1.430   1.287   4.167  0.0761 -0.7598  0.3686
 1691SOL    HW2 5532   1.395   1.358   4.297 -2.2352  3.2700 -2.2321
 1692SOL     OW 5533   4.445   6.083   0.176 -0.1583  0.5089  0.0656
 1692SOL    HW1 5534   4.417   6.149   0.112  0.3157  1.6257  0.9622
 1692SOL    HW2 5535   4.539   6.072   0.160  0.1872  1.5642  1.1922
 1693SOL     OW 5536   1.407   4.761   1.202 -0.1360  0.0823 -0.0024
 1693SOL    HW1 5537   1.482   4.704   1.185 -0.1524  0.2009 -0.4958
 1693SOL    HW2 5538   1.376   4.735   1.289 -0.5361 -1.0930 -0.4805
 1694SOL     OW 5539   1.577   1.488   2.361  0.3447  0.4538 -0.4159
 1694SOL    HW1 5540   1.482   1.490   2.372  0.2839 -1.3997 -0.2706
 1694SOL    HW2 5541   1.610   1.551   2.425 -0.6976 -0.4372  1.0717
 1695SOL     OW 5542   1.633   4.679   4.200  0.1424 -0.2529  0.2096
 1695SOL    HW1 5543   1.660   4.645   4.286  1.4014  1.6355  0.6144
 1695SOL    HW2 5544   1.578   4.754   4.220 -0.2547 -0.3002 -0.6508
 1696SOL     OW 5545   6.232   4.629   0.180  0.6330 -0.0958 -0.1769
 1696SOL    HW1 5546   6.211   4.685   0.105 -0.3467 -0.9989 -0.5887
 1696SOL    HW2 5547   6.197   4.676   0.255 -0.1754 -0.1448 -0.5192
 1697SOL     OW 5548   2.367   5.757   1.696 -1.1530 -0.1452  0.1217
 1697SOL    HW1 5549   2.410   5.818   1.757 -1.1550  0.1493 -0.1699
 1697SOL    HW2 5550   2.278   5.791   1.689 -1.4497 -0.7681  0.7431
 1698SOL     OW 5551   4.767   4.865   5.647  0.0001 -0.8260  0.4610
 1698SOL    HW1 5552   4.848   4.890   5.692 -0.1994 -1.0773  0.9748
 1698SOL    HW2 5553   4.730   4.948   5.616  0.8085 -0.7729 -0.4089
 1699SOL     OW 5554   6.258   0.239   1.984 -0.3476  0.3801  0.2526
 1699SOL    HW1 5555   6.167   0.251   2.013 -1.2026  0.9980 -2.4195
 1699SOL    HW2 5556   6.258   0.153   1.942  0.2743  0.4442  0.1177
 1700SOL     OW 5557   5.860   0.205   6.318  0.1030 -0.2344 -0.6554
 1700SOL    HW1 5558   5.846   0.208   6.413  0.9171  1.4872 -0.5407
 1700SOL    HW2 5559   5.772   0.204   6.281 -0.3684  2.5448  0.1267
 1701SOL     OW 5560   1.459   0.361   3.727  0.3516 -0.1762 -0.0164
 1701SOL    HW1 5561   1.405   0.282   3.729 -1.1838  0.8306  1.3447
 1701SOL    HW2 5562   1.421   0.415   3.658  0.3687  0.0560  0.1554
 1702SOL     OW 5563   2.239   1.274   5.116  0.2528  0.0461 -0.6672
 1702SOL    HW1 5564   2.201   1.358   5.141  0.6424  0.0099  0.0585
 1702SOL    HW2 5565   2.311   1.298   5.057  0.9863  0.3003  0.2940
 1703SOL     OW 5566   2.977   4.358   1.310  0.1449  0.6730  0.4295
 1703SOL    HW1 5567   2.947   4.300   1.240  0.8762 -0.6737  1.1833
 1703SOL    HW2 5568   2.919   4.434   1.306  0.3308  0.7594 -1.7807
 1704SOL     OW 5569   6.379   4.968   2.520  0.1631 -0.0799  0.0187
 1704SOL    HW1 5570   6.429   4.890   2.541  0.3600 -0.0535 -0.3439
 1704SOL    HW2 5571   6.359   4.960   2.427 -0.3347  0.0099  0.1112
 1705SOL     OW 5572   3.866   1.361   6.080  0.2479 -0.6610 -0.1005
 1705SOL    HW1 5573   3.771   1.370   6.068  0.6024 -0.0631 -3.5260
 1705SOL    HW2 5574   3.892   1.441   6.126 -0.8535 -0.7851  0.7909
 1706SOL     OW 5575   5.400   2.752   0.739  0.4929 -0.2603 -0.6588
 1706SOL    HW1 5576   5.472   2.799   0.781 -0.7987 -0.1853  1.6229
 1706SOL    HW2 5577   5.327   2.760   0.801 -1.3673 -0.6866 -2.6960
 1707SOL     OW 5578   3.744   3.674   2.760  0.5986  0.2037  0.7434
 1707SOL    HW1 5579   3.674   3.620   2.725  1.2260  0.0709 -0.3399
 1707SOL    HW2 5580   3.733   3.669   2.855 -0.1717 -0.7245  0.6159
 1708SOL     OW 5581   2.059   1.275   0.570  0.3914 -0.3196  0.1953
 1708SOL    HW1 5582   2.143   1.290   0.527  0.4010  4.2527  1.2764
 1708SOL    HW2 5583   2.076   1.286   0.663 -1.0669 -1.4926  0.6442
 1709SOL     OW 5584   0.473   2.667   2.465 -0.1327 -0.2639  0.4814
 1709SOL    HW1 5585   0.430   2.718   2.533  1.2514  0.5201  0.8117
 1709SOL    HW2 5586   0.560   2.649   2.501  0.7094  0.3714 -1.1587
 1710SOL     OW 5587   3.894   3.174   5.579 -0.6722 -0.3060  0.4299
 1710SOL    HW1 5588   3.814   3.126   5.556  0.4526 -2.1559  0.2345
 1710SOL    HW2 5589   3.914   3.226   5.501 -0.1450 -2.0057 -0.5976
 1711SOL     OW 5590   1.678   5.221   0.800  0.1625 -0.3797  0.1459
 1711SOL    HW1 5591   1.594   5.210   0.756  0.3888 -1.8592  0.0255
 1711SOL    HW2 5592   1.739   5.166   0.750  0.9007 -0.3730  1.0053
 1712SOL     OW 5593   3.922   1.045   3.472 -0.5552  0.2996 -0.2665
 1712SOL    HW1 5594   3.967   1.000   3.543 -1.6250 -1.0091 -0.3855
 1712SOL    HW2 5595   3.829   1.025   3.484 -0.6282 -1.7048 -3.1417
 1713SOL     OW 5596   0.958   1.332   3.621 -0.5749  0.1773 -0.5094
 1713SOL    HW1 5597   0.915   1.306   3.702 -0.2192  0.5130 -0.2108
 1713SOL    HW2 5598   0.988   1.250   3.582 -1.3719 -0.0505 -0.6633
 1714SOL     OW 5599   4.102   1.250   6.276  0.0281  0.1849  0.1616
 1714SOL    HW1 5600   4.165   1.204   6.220 -1.8353 -1.0802 -1.0046
 1714SOL    HW2 5601   4.086   1.333   6.230 -0.2463 -0.1323 -0.3276
 1715SOL     OW 5602   2.825   0.349   2.270  0.4600 -0.3836  0.0899
 1715SOL    HW1 5603   2.804   0.403   2.194 -0.3803 -0.7530  0.0405
 1715SOL    HW2 5604   2.739   0.321   2.303  0.8851 -2.5764 -0.5325
 1716SOL     OW 5605   6.097   1.646   1.059 -0.3212  0.0726 -0.3293
 1716SOL    HW1 5606   6.084   1.684   1.146 -1.9575 -1.4395  0.1231
 1716SOL    HW2 5607   6.148   1.566   1.075 -0.1973  0.0452 -0.8309
 1717SOL     OW 5608   4.565   4.427   1.084  0.2634 -0.2525  0.9387
 1717SOL    HW1 5609   4.504   4.438   1.011  0.2081  1.6240  1.2201
 1717SOL    HW2 5610   4.512   4.443   1.162  0.5938 -1.0590  1.3455
 1718SOL     OW 5611   0.338   4.558   4.857 -0.2925  0.5175 -0.1952
 1718SOL    HW1 5612   0.355   4.515   4.773 -1.9520 -0.1927 -0.2131
 1718SOL    HW2 5613   0.341   4.487   4.921  0.2103  0.9378  0.2556
 1719SOL     OW 5614   5.452   2.092   5.437  0.5127  0.3939  0.0292
 1719SOL    HW1 5615   5.518   2.065   5.373  0.6668 -0.4947  0.5513
 1719SOL    HW2 5616   5.480   2.052   5.519 -1.8613 -1.9210 -0.1769
 1720SOL     OW 5617   1.316   2.897   1.700  0.1134  0.2281 -0.1119
 1720SOL    HW1 5618   1.353   2.948   1.772 -1.9443 -0.1931  1.3138
 1720SOL    HW2 5619   1.298   2.961   1.631 -0.7916  1.1795  0.9751
 1721SOL     OW 5620   1.638   1.890   1.897 -0.3003  0.8904  0.2687
 1721SOL    HW1 5621   1.636   1.795   1.898  0.5478  0.8640  0.7811
 1721SOL    HW2 5622   1.623   1.916   1.988  0.8615  1.1794  0.4058
 1722SOL     OW 5623   0.080   4.310   6.087  0.0464 -0.6035 -0.0089
 1722SOL    HW1 5624   0.115   4.397   6.106  1.1327 -1.2153  0.9233
 1722SOL    HW2 5625   0.049   4.278   6.172 -0.9073 -0.8957 -0.4589
 1723SOL     OW 5626   5.813   3.182   5.819  0.3875  0.4899  0.7380
 1723SOL    HW1 5627   5.723   3.151   5.829  1.5998 -3.6039  0.5193
 1723SOL    HW2 5628   5.811   3.233   5.738 -1.1497 -2.6266 -1.3982
 1724SOL     OW 5629   3.136   2.002   5.629  0.1361  0.1186  0.1762
 1724SOL    HW1 5630   3.189   1.997   5.708  1.4887  0.6520 -0.6648
 1724SOL    HW2 5631   3.197   1.982   5.558 -0.8576  0.4504 -0.7992
 1725SOL     OW 5632   1.128   5.291   3.033  0.3086 -0.8393  0.4863
 1725SOL    HW1 5633   1.087   5.205   3.037  0.4118 -0.8614  1.2974
 1725SOL    HW2 5634   1.178   5.297   3.114 -0.5997  0.4325  0.9875
 1726SOL     OW 5635   1.299   4.174   5.996 -0.9085 -0.1677 -0.3635
 1726SOL    HW1 5636   1.206   4.155   5.991 -1.1835  0.3408  1.7761
 1726SOL    HW2 5637   1.308   4.261   5.956 -1.0660 -0.8583 -1.9712
 1727SOL     OW 5638   1.231   2.915   2.798  0.2281 -0.8305 -0.1599
 1727SOL    HW1 5639   1.281   2.877   2.870  1.3569 -0.8631 -0.9303
 1727SOL    HW2 5640   1.256   2.863   2.721 -1.5777 -1.3368 -0.4463
 1728SOL     OW 5641   1.597   5.737   0.283  0.2183  0.3198  0.2463
 1728SOL    HW1 5642   1.610   5.711   0.374  0.1413 -1.1911 -0.1438
 1728SOL    HW2 5643   1.502   5.737   0.271  0.2584 -1.0308 -0.2275
 1729SOL     OW 5644   2.278   4.886   4.449 -0.3066 -0.6366  0.1731
 1729SOL    HW1 5645   2.290   4.978   4.424 -0.2994  0.0512  2.4742
 1729SOL    HW2 5646   2.309   4.837   4.373  0.4338  1.2551 -0.8272
 1730SOL     OW 5647   5.455   4.320   4.892  0.2292 -0.1533 -0.0759
 1730SOL    HW1 5648   5.372   4.365   4.909  0.6151  0.1976  0.9596
 1730SOL    HW2 5649   5.522   4.383   4.919  0.7736 -1.3673  1.5317
 1731SOL     OW 5650   3.508   1.857   4.862  0.2446  0.4202  0.3097
 1731SOL    HW1 5651   3.437   1.884   4.920 -0.0582  0.5656 -0.1288
 1731SOL    HW2 5652   3.526   1.767   4.888 -2.2034 -0.7369 -1.6055
 1732SOL     OW 5653   3.999   3.378   5.432 -0.2115 -0.0162  0.1343
 1732SOL    HW1 5654   4.051   3.355   5.355  1.1150  0.3702  0.8718
 1732SOL    HW2 5655   4.014   3.471   5.444 -0.8533  0.0415  0.5416
 1733SOL     OW 5656   5.502   1.500   4.881  0.2596 -0.2112  0.3460
 1733SOL    HW1 5657   5.476   1.409   4.863  0.4291 -0.8544  2.9270
 1733SOL    HW2 5658   5.595   1.494   4.902  0.6063  0.8021 -0.8342
 1734SOL     OW 5659   1.579   5.795   4.606 -0.7924  0.0212 -0.2489
 1734SOL    HW1 5660   1.556   5.886   4.625  0.1767  0.0799  0.7589
 1734SOL    HW2 5661   1.499   5.745   4.624 -0.6921  0.4145  1.4977
 1735SOL     OW 5662   0.204   2.134   3.034  0.1854  0.0009 -0.2461
 1735SOL    HW1 5663   0.172   2.069   3.097 -1.0606 -0.3621 -1.2190
 1735SOL    HW2 5664   0.127   2.159   2.984  0.4528  2.8418  0.5909
 1736SOL     OW 5665   6.114   0.170   3.507  0.4738  0.3685 -0.2024
 1736SOL    HW1 5666   6.101   0.254   3.549  2.0462  1.7742 -2.2839
 1736SOL    HW2 5667   6.185   0.129   3.557  0.0730  0.5062  0.4902
 1737SOL     OW 5668   5.849   3.932   1.033 -0.0056 -0.0403  0.3758
 1737SOL    HW1 5669   5.797   3.992   1.086 -0.1107 -0.9014  1.2613
 1737SOL    HW2 5670   5.785   3.871   0.997  0.3620 -1.0547  1.4007
 1738SOL     OW 5671   0.160   3.284   0.684 -0.2334  0.1446 -0.1078
 1738SOL    HW1 5672   0.206   3.320   0.608 -1.5360  0.1052 -0.9485
 1738SOL    HW2 5673   0.221   3.222   0.723 -0.2755 -1.3953 -2.3518
 1739SOL     OW 5674   5.599   1.245   3.995 -0.0345  0.8435 -0.2308
 1739SOL    HW1 5675   5.608   1.338   3.976 -1.5471  0.7936 -1.3585
 1739SOL    HW2 5676   5.630   1.200   3.916 -0.8763  0.4593 -0.3614
 1740SOL     OW 5677   0.406   4.982   0.392 -0.3227 -0.1936  0.2805
 1740SOL    HW1 5678   0.408   5.077   0.397 -0.0606 -0.1874  0.0419
 1740SOL    HW2 5679   0.329   4.962   0.338  0.8492 -0.0459 -1.5157
 1741SOL     OW 5680   2.366   3.086   3.739 -0.1441  0.1461 -0.1644
 1741SOL    HW1 5681   2.281   3.084   3.783  0.2359  0.0893  0.5780
 1741SOL    HW2 5682   2.391   2.994   3.731  0.6179  0.2150  1.1585
 1742SOL     OW 5683   2.246   6.228   3.047  0.4109 -0.0849  0.3641
 1742SOL    HW1 5684   2.306   6.205   3.118  0.5531  3.7126  1.7163
 1742SOL    HW2 5685   2.162   6.190   3.073  0.9593 -0.6422  1.3845
 1743SOL     OW 5686   1.323   1.637   6.119  0.2075 -0.1579 -0.1700
 1743SOL    HW1 5687   1.397   1.693   6.094  0.3816 -1.2084 -2.1999
 1743SOL    HW2 5688   1.326   1.634   6.215  3.1429 -0.6117 -0.2043
 1744SOL     OW 5689   6.051   6.144   3.207 -0.2481 -0.0671 -0.0565
 1744SOL    HW1 5690   6.053   6.239   3.218 -1.8131  0.1166 -1.0268
 1744SOL    HW2 5691   5.994   6.113   3.277  1.2555 -0.4746  1.0490
 1745SOL     OW 5692   2.205   4.811   6.018 -0.5743 -0.5716  0.1149
 1745SOL    HW1 5693   2.276   4.840   5.961 -0.7354 -0.1486  0.1281
 1745SOL    HW2 5694   2.159   4.891   6.042 -1.9004 -0.9451 -1.0097
 1746SOL     OW 5695   5.178   4.088   3.263 -0.3499 -1.2136  0.4166
 1746SOL    HW1 5696   5.144   3.999   3.261  0.0187 -1.3580 -0.8533
 1746SOL    HW2 5697   5.105   4.142   3.235 -0.8931 -0.9745  2.2206
 1747SOL     OW 5698   3.017   4.239   2.926  0.1433  0.1777  0.1913
 1747SOL    HW1 5699   2.977   4.183   2.993 -0.1347  0.0027 -0.1168
 1747SOL    HW2 5700   3.073   4.180   2.876  0.0132  0.2157 -0.0014
 1748SOL     OW 5701   5.930   6.382   3.441  0.2542 -0.3253  0.1876
 1748SOL    HW1 5702   6.002   6.435   3.477  0.9066 -1.3067  0.3790
 1748SOL    HW2 5703   5.860   6.445   3.424  0.4845  0.4063  1.7552
 1749SOL     OW 5704   2.351   0.125   3.209  0.0160 -0.3693  0.4018
 1749SOL    HW1 5705   2.315   0.144   3.296  0.6322  0.2093  0.5371
 1749SOL    HW2 5706   2.355   0.029   3.206 -0.4664 -0.4093  0.8194
 1750SOL     OW 5707   4.071   0.813   2.240 -0.1913  0.3271 -0.3815
 1750SOL    HW1 5708   4.082   0.735   2.185  2.2814  1.0542 -1.0288
 1750SOL    HW2 5709   3.976   0.823   2.248 -0.5941 -2.1582 -1.1022
 1751SOL     OW 5710   0.010   4.090   5.402 -0.1523 -0.0031  0.1773
 1751SOL    HW1 5711  -0.081   4.066   5.418 -0.3120 -0.2509 -1.0249
 1751SOL    HW2 5712   0.031   4.050   5.318  1.1427 -0.1347  0.5391
 1752SOL     OW 5713   3.621   2.916   2.573 -0.7778 -0.2188  0.5099
 1752SOL    HW1 5714   3.598   2.825   2.591 -0.9818  0.0495  1.6592
 1752SOL    HW2 5715   3.615   2.960   2.657 -0.5520  0.8412 -0.0059
 1753SOL     OW 5716   3.420   5.738   1.999  0.2278  0.0711 -0.4589
 1753SOL    HW1 5717   3.462   5.689   1.929  2.3783 -0.9389  1.4169
 1753SOL    HW2 5718   3.326   5.723   1.986  0.6881 -2.4022 -1.4816
 1754SOL     OW 5719   1.690   0.235   2.041 -0.0748  0.0023  0.0104
 1754SOL    HW1 5720   1.685   0.325   2.010 -2.9337 -0.7922 -2.2074
 1754SOL    HW2 5721   1.651   0.236   2.128  1.2220  1.0759  0.6087
 1755SOL     OW 5722   2.654   3.290   1.701  0.4448 -0.4008  0.4802
 1755SOL    HW1 5723   2.731   3.347   1.699  0.4362 -0.3734  0.9169
 1755SOL    HW2 5724   2.678   3.219   1.760  0.7897 -1.3331 -0.7385
 1756SOL     OW 5725   0.037   1.566   0.963 -0.3279 -0.3118  0.4397
 1756SOL    HW1 5726   0.036   1.471   0.974  1.2599 -0.4556 -0.3479
 1756SOL    HW2 5727   0.027   1.601   1.052 -0.8425 -1.2138  0.7409
 1757SOL     OW 5728   5.971   0.570   4.928  0.9950 -0.3798 -0.3798
 1757SOL    HW1 5729   5.937   0.522   4.852  1.3458  0.3991 -1.0468
 1757SOL    HW2 5730   5.935   0.658   4.918  1.8182 -0.0103 -0.1584
 1758SOL     OW 5731   4.985   4.981   5.765  0.0231  0.3462 -0.0695
 1758SOL    HW1 5732   5.080   4.990   5.774  0.1783 -0.4241 -0.8018
 1758SOL    HW2 5733   4.953   5.071   5.761  0.8518  0.6146 -1.0440
 1759SOL     OW 5734   0.308   1.688   3.939 -0.3943 -0.5671  0.5030
 1759SOL    HW1 5735   0.231   1.723   3.893 -0.8445 -0.6425  1.1812
 1759SOL    HW2 5736   0.305   1.594   3.923 -0.1932 -0.5187  0.1683
 1760SOL     OW 5737   5.215   4.389   3.174  0.0454  0.2017  0.0530
 1760SOL    HW1 5738   5.168   4.471   3.164 -0.8291 -0.3458 -0.5234
 1760SOL    HW2 5739   5.240   4.386   3.266 -0.3383  0.8778  0.1817
 1761SOL     OW 5740   0.003   0.995   0.467 -0.5746  0.4296  0.2239
 1761SOL    HW1 5741   0.039   1.081   0.445  2.9813 -1.4681 -2.5471
 1761SOL    HW2 5742   0.064   0.958   0.530 -0.8299 -0.8424 -0.2387
 1762SOL     OW 5743   4.123   3.596   0.203 -0.1404 -0.2629 -0.1170
 1762SOL    HW1 5744   4.189   3.659   0.176  0.2226  0.1228  1.5576
 1762SOL    HW2 5745   4.163   3.548   0.276 -0.8911 -1.5553 -0.5141
 1763SOL     OW 5746   5.937   3.419   1.786 -0.1429 -0.5856 -0.2909
 1763SOL    HW1 5747   6.031   3.407   1.796  0.2086  1.9307  0.0430
 1763SOL    HW2 5748   5.924   3.430   1.692  0.2112  0.9258 -0.1894
 1764SOL     OW 5749   6.361   1.944   1.680  0.1260  0.3772  0.2918
 1764SOL    HW1 5750   6.294   2.010   1.661 -0.8364 -0.4167  0.8133
 1764SOL    HW2 5751   6.392   1.967   1.768 -0.1891  0.1693  0.4621
 1765SOL     OW 5752   2.747   3.213   5.016  0.2453  0.1317  0.1387
 1765SOL    HW1 5753   2.709   3.172   5.093  2.1290 -1.3054  0.3750
 1765SOL    HW2 5754   2.672   3.242   4.964 -1.0837 -0.6424  1.5714
 1766SOL     OW 5755   3.573   0.794   5.225  0.1190 -0.9442 -0.0052
 1766SOL    HW1 5756   3.633   0.754   5.162 -1.0326 -1.8513 -0.5572
 1766SOL    HW2 5757   3.577   0.737   5.301 -0.8996 -1.6773 -0.4820
 1767SOL     OW 5758   1.200   2.290   5.403 -0.1681  0.1476  0.8076
 1767SOL    HW1 5759   1.199   2.290   5.308 -0.0568 -0.4524  0.8018
 1767SOL    HW2 5760   1.279   2.338   5.427 -0.1363  0.2004  0.5955
 1768SOL     OW 5761   2.267   1.366   5.532 -0.4314  0.6702 -0.1385
 1768SOL    HW1 5762   2.312   1.450   5.522 -1.8653  1.2548 -2.3212
 1768SOL    HW2 5763   2.310   1.308   5.469 -0.8008  0.3747 -0.1188
 1769SOL     OW 5764   6.206   1.303   5.745  0.0573  0.1603 -0.2521
 1769SOL    HW1 5765   6.237   1.235   5.804  0.1006 -1.9820 -2.5555
 1769SOL    HW2 5766   6.112   1.309   5.762 -0.2495 -1.6664 -1.0249
 1770SOL     OW 5767   0.585   4.055   0.638 -0.3228  0.2832  0.1279
 1770SOL    HW1 5768   0.606   4.121   0.704 -0.0580 -1.8430  2.3318
 1770SOL    HW2 5769   0.666   4.042   0.590  0.0949  0.4066  0.7874
 1771SOL     OW 5770   4.370   2.935   5.011 -0.0932  0.4046 -0.0640
 1771SOL    HW1 5771   4.445   2.925   4.952  0.0985 -1.4948  0.4459
 1771SOL    HW2 5772   4.403   2.907   5.096 -0.9816  0.9923  0.4808
 1772SOL     OW 5773   4.895   1.337   5.248 -0.0326 -0.5549  0.5874
 1772SOL    HW1 5774   4.911   1.290   5.167 -2.2839 -1.5083  0.6353
 1772SOL    HW2 5775   4.886   1.429   5.222 -1.9626 -0.9990 -0.4778
 1773SOL     OW 5776   3.575   0.829   5.608  0.4667  0.2211 -0.1350
 1773SOL    HW1 5777   3.614   0.759   5.556  1.2908  0.2958  0.3815
 1773SOL    HW2 5778   3.616   0.909   5.576 -1.1335  0.6124 -1.3700
 1774SOL     OW 5779   3.469   0.849   2.675  0.1574  0.5226 -0.2694
 1774SOL    HW1 5780   3.522   0.791   2.619 -0.4427 -0.6485  0.3341
 1774SOL    HW2 5781   3.521   0.860   2.754  0.9535  2.0850 -0.9568
 1775SOL     OW 5782   3.301   0.690   1.602 -0.3837  1.0574 -0.4405
 1775SOL    HW1 5783   3.235   0.628   1.572  0.0302  0.7149 -0.6691
 1775SOL    HW2 5784   3.295   0.688   1.697 -0.8160  1.1566 -0.4676
 1776SOL     OW 5785   4.969   2.131   3.835  1.0176 -0.6870 -0.0383
 1776SOL    HW1 5786   4.915   2.190   3.783  1.1325 -0.2477  0.3302
 1776SOL    HW2 5787   5.055   2.172   3.837  0.9933 -0.6510  0.5649
 1777SOL     OW 5788   4.615   1.244   1.022  0.5474  0.2507  0.6530
 1777SOL    HW1 5789   4.592   1.294   1.101  1.0668  0.9498  0.3650
 1777SOL    HW2 5790   4.700   1.205   1.043 -0.7731 -2.3013  1.7016
 1778SOL     OW 5791   3.730   3.059   0.494 -0.5179 -0.5199  0.3029
 1778SOL    HW1 5792   3.753   3.151   0.502 -0.0723 -0.5109 -0.9207
 1778SOL    HW2 5793   3.671   3.055   0.419  0.5582 -1.3872 -0.5331
 1779SOL     OW 5794   2.934   0.004   4.621 -0.1023 -0.1655  0.1236
 1779SOL    HW1 5795   2.985  -0.077   4.618  2.1915  1.1271  1.5719
 1779SOL    HW2 5796   2.866  -0.012   4.686  0.2242 -0.9742  0.2708
 1780SOL     OW 5797   0.837   4.626   1.545  0.6377 -0.4327 -0.0644
 1780SOL    HW1 5798   0.821   4.690   1.476 -0.4097 -0.8211 -0.1969
 1780SOL    HW2 5799   0.837   4.542   1.500  0.7144 -0.6269  0.2953
 1781SOL     OW 5800   2.954   2.373   0.032 -0.2328  0.2007  0.5144
 1781SOL    HW1 5801   2.958   2.330   0.117  3.0349 -0.4438  0.1612
 1781SOL    HW2 5802   2.971   2.302  -0.031 -0.9750  0.9450 -0.5562
 1782SOL     OW 5803   0.287   0.417   1.532 -0.3218  0.6132 -0.4217
 1782SOL    HW1 5804   0.304   0.456   1.618  0.1689 -0.0516 -0.2116
 1782SOL    HW2 5805   0.360   0.357   1.518 -0.4299  0.6702 -1.2830
 1783SOL     OW 5806   2.789   5.848   4.106  0.1571  0.1315 -0.1348
 1783SOL    HW1 5807   2.783   5.860   4.012 -0.1938 -1.5314 -0.3467
 1783SOL    HW2 5808   2.738   5.769   4.124  1.0405 -0.1498  1.3086
 1784SOL     OW 5809   2.926   5.386   3.228 -0.2167 -0.0922  0.2634
 1784SOL    HW1 5810   2.928   5.353   3.138 -0.8420  0.5501  0.0049
 1784SOL    HW2 5811   2.965   5.316   3.280  1.3842  0.0418 -0.6703
 1785SOL     OW 5812   3.190   4.086   2.534 -0.4618 -0.2663 -0.2956
 1785SOL    HW1 5813   3.281   4.109   2.514 -0.6979  0.3731 -0.6650
 1785SOL    HW2 5814   3.171   4.014   2.474 -0.3617 -0.0493 -0.5904
 1786SOL     OW 5815   5.802   1.187   5.996 -1.0151  0.1857 -0.0557
 1786SOL    HW1 5816   5.854   1.267   6.006 -1.7861  0.5677  1.1019
 1786SOL    HW2 5817   5.737   1.192   6.066 -1.4643 -1.1653 -0.3510
 1787SOL     OW 5818   2.070   2.884   2.439 -0.1282  0.1858  0.0439
 1787SOL    HW1 5819   2.111   2.857   2.357 -1.7037  0.8255 -1.0175
 1787SOL    HW2 5820   2.140   2.926   2.489  0.4314  1.7003 -1.8836
 1788SOL     OW 5821   2.542   4.053   4.487  0.0089  0.3003  0.4342
 1788SOL    HW1 5822   2.540   4.137   4.532  1.1592  0.9364 -0.6416
 1788SOL    HW2 5823   2.460   4.048   4.439  0.4952  1.4308 -0.5515
 1789SOL     OW 5824   0.795   6.154   5.709 -0.2212 -0.5061  0.0995
 1789SOL    HW1 5825   0.705   6.152   5.675 -0.6877 -0.0190  1.2678
 1789SOL    HW2 5826   0.806   6.068   5.750 -0.2257 -0.4822  0.1504
 1790SOL     OW 5827   2.875   0.722   5.926 -0.2404 -0.2222  0.2924
 1790SOL    HW1 5828   2.816   0.753   5.994 -0.7156  0.8682 -0.5925
 1790SOL    HW2 5829   2.921   0.800   5.896 -1.6948 -0.2327 -2.2184
 1791SOL     OW 5830   3.785   0.387   4.754 -0.0871 -0.4079  0.0058
 1791SOL    HW1 5831   3.724   0.314   4.756  0.6679 -1.0420  1.5907
 1791SOL    HW2 5832   3.857   0.357   4.700 -0.9836  0.2316 -1.6216
 1792SOL     OW 5833   5.155   3.338   2.212  0.1411  0.0587  0.5110
 1792SOL    HW1 5834   5.132   3.276   2.282  0.3674  0.2683  0.7773
 1792SOL    HW2 5835   5.240   3.307   2.181  0.5044  0.5334  1.0043
 1793SOL     OW 5836   1.763   1.714   6.270  0.5289 -0.0451 -0.1044
 1793SOL    HW1 5837   1.820   1.788   6.292  0.3830 -0.4025  1.6587
 1793SOL    HW2 5838   1.699   1.712   6.341  1.0966 -2.4366  0.4245
 1794SOL     OW 5839   4.629   4.760   2.788  0.1405 -0.1925 -0.3590
 1794SOL    HW1 5840   4.675   4.815   2.724 -0.1504  0.3772 -0.0869
 1794SOL    HW2 5841   4.542   4.799   2.795  0.3847  0.1765  0.8768
 1795SOL     OW 5842   5.928   1.750   5.692  0.3608 -0.0968 -0.1826
 1795SOL    HW1 5843   5.835   1.768   5.700  0.0297 -1.7711 -0.0236
 1795SOL    HW2 5844   5.944   1.747   5.598 -0.2736 -2.2142 -0.2609
 1796SOL     OW 5845   5.393   3.377   4.954  0.1836 -0.3174 -0.4877
 1796SOL    HW1 5846   5.485   3.355   4.972 -0.3189 -0.1618  2.8298
 1796SOL    HW2 5847   5.380   3.462   4.995 -1.6496 -0.7068 -0.1781
 1797SOL     OW 5848   5.666   0.774   3.811  0.0196  0.1570  0.1504
 1797SOL    HW1 5849   5.595   0.794   3.872  0.7594  1.3409  0.6615
 1797SOL    HW2 5850   5.631   0.705   3.755 -0.7416 -0.8295  1.7719
 1798SOL     OW 5851   0.066   4.953   6.058  0.1323  0.0928  0.2004
 1798SOL    HW1 5852   0.145   5.007   6.049 -1.1056  1.8479 -0.7167
 1798SOL    HW2 5853   0.060   4.935   6.151  1.6121 -0.0882  0.2893
 1799SOL     OW 5854   4.651   5.216   0.536 -0.2056 -0.0461 -0.4498
 1799SOL    HW1 5855   4.666   5.283   0.603 -1.3181  0.9846 -1.2015
 1799SOL    HW2 5856   4.578   5.250   0.484 -0.4165 -1.5868 -1.1987
 1800SOL     OW 5857   6.308   5.394   4.362  0.5946 -0.2964 -0.2006
 1800SOL    HW1 5858   6.389   5.349   4.384 -0.2305 -1.0146  1.5816
 1800SOL    HW2 5859   6.308   5.471   4.419  0.2081 -0.0909 -0.4771
 1801SOL     OW 5860   1.953   1.415   4.215  0.4704 -0.0135  0.1365
 1801SOL    HW1 5861   1.942   1.320   4.215 -1.6301  0.1095 -2.2534
 1801SOL    HW2 5862   2.044   1.429   4.189  0.3939 -1.4174 -0.9800
 1802SOL     OW 5863   5.891   6.374   2.932 -0.2978 -0.2628 -0.4223
 1802SOL    HW1 5864   5.956   6.343   2.868  0.4819  2.6925 -1.1934
 1802SOL    HW2 5865   5.825   6.305   2.933  1.7277 -2.3604 -1.2639
 1803SOL     OW 5866   5.128   1.712   3.955  0.1048 -0.4800 -0.0031
 1803SOL    HW1 5867   5.160   1.633   3.912 -1.0135  0.3550 -2.5788
 1803SOL    HW2 5868   5.082   1.760   3.886 -0.1264  1.9509  1.7101
 1804SOL     OW 5869   4.989   5.812   2.930  0.2982  0.0674 -0.1545
 1804SOL    HW1 5870   5.010   5.892   2.882 -1.0165 -1.5501 -3.7648
 1804SOL    HW2 5871   5.066   5.756   2.918  1.1575  0.5805  2.2471
 1805SOL     OW 5872   5.170   1.502   4.328 -0.6042  0.0455  0.2120
 1805SOL    HW1 5873   5.123   1.502   4.411 -1.6188 -2.4551 -0.2500
 1805SOL    HW2 5874   5.107   1.536   4.265  0.0477  1.6095  0.3556
 1806SOL     OW 5875   5.892   2.370   5.908 -0.1256  0.4934  0.4009
 1806SOL    HW1 5876   5.858   2.350   5.995 -1.5226  0.1559 -0.1963
 1806SOL    HW2 5877   5.867   2.295   5.855  0.2664  0.9299 -0.4133
 1807SOL     OW 5878   6.332   4.885   5.541 -0.3394 -0.6096 -0.1721
 1807SOL    HW1 5879   6.281   4.885   5.622 -0.3181 -0.9776 -0.1562
 1807SOL    HW2 5880   6.279   4.935   5.479 -0.0434  0.2637  0.2571
 1808SOL     OW 5881   1.096   4.294   0.013 -0.4767 -0.2488 -0.3434
 1808SOL    HW1 5882   1.097   4.266   0.104 -1.7876  0.5776 -0.0354
 1808SOL    HW2 5883   1.168   4.247  -0.028  1.4410  0.8629  1.5492
 1809SOL     OW 5884   1.011   1.277   3.161  0.2254 -0.0997 -0.1769
 1809SOL    HW1 5885   1.052   1.364   3.161  0.6088 -0.2800 -0.0029
 1809SOL    HW2 5886   0.947   1.282   3.232  1.6638 -0.6121  1.2162
 1810SOL     OW 5887   5.837   2.847   5.846 -0.4446 -0.2253  0.2397
 1810SOL    HW1 5888   5.891   2.889   5.780 -0.8118 -2.4778 -1.6154
 1810SOL    HW2 5889   5.757   2.899   5.849  0.4591  1.1898  0.5784
 1811SOL     OW 5890   5.946   4.340   1.539 -0.1341 -0.5363 -0.2837
 1811SOL    HW1 5891   5.910   4.302   1.459 -1.0428 -0.2555 -0.0116
 1811SOL    HW2 5892   5.950   4.267   1.601 -1.4848 -0.3012  0.1043
 1812SOL     OW 5893   0.851   4.513   0.180  0.2931 -0.0215  0.1538
 1812SOL    HW1 5894   0.922   4.465   0.223 -0.2477 -1.2601 -0.2837
 1812SOL    HW2 5895   0.796   4.543   0.253 -0.6432 -2.1464  0.4114
 1813SOL     OW 5896   5.492   4.401   3.715 -0.1209 -0.3881 -0.7634
 1813SOL    HW1 5897   5.574   4.377   3.670 -0.2473 -2.3449 -0.0577
 1813SOL    HW2 5898   5.510   4.384   3.807 -1.0307  0.1056 -0.4857
 1814SOL     OW 5899   5.373   0.691   4.003  0.2226 -0.4522 -0.6805
 1814SOL    HW1 5900   5.414   0.772   4.034 -0.3946 -0.7934  1.1791
 1814SOL    HW2 5901   5.370   0.701   3.908  1.2697  1.1622 -0.5972
 1815SOL     OW 5902   3.339   1.953   3.242 -0.1710 -0.6814 -0.0768
 1815SOL    HW1 5903   3.313   1.862   3.255  0.0119 -0.6442  0.5516
 1815SOL    HW2 5904   3.276   1.987   3.179 -0.3875 -1.1730 -0.1277
 1816SOL     OW 5905   3.869   1.699   3.726  0.6366 -0.4125  0.1567
 1816SOL    HW1 5906   3.836   1.644   3.654 -1.0991 -0.6636  1.0795
 1816SOL    HW2 5907   3.910   1.773   3.683 -0.3993 -0.5376 -1.1163
 1817SOL     OW 5908   3.025   4.728   5.980 -0.0949 -0.1348  0.1526
 1817SOL    HW1 5909   3.083   4.729   5.903  0.8012 -1.0624  0.7808
 1817SOL    HW2 5910   2.945   4.685   5.949 -0.0718  0.2585 -0.4692
 1818SOL     OW 5911   3.141   0.327   0.814  0.2760  0.0418 -0.5864
 1818SOL    HW1 5912   3.135   0.358   0.724 -0.7754  1.0637 -0.1910
 1818SOL    HW2 5913   3.190   0.395   0.860  0.8049 -0.4720 -0.3726
 1819SOL     OW 5914   2.504   0.044   2.881 -0.0450 -0.2745 -0.6224
 1819SOL    HW1 5915   2.505   0.123   2.936  0.5482  0.4713 -1.6818
 1819SOL    HW2 5916   2.425   0.052   2.828  0.9950  0.6031 -2.1046
 1820SOL     OW 5917   5.726   4.664   2.213  0.6604 -0.5164 -0.2160
 1820SOL    HW1 5918   5.735   4.702   2.300  0.1172 -1.2664  0.1785
 1820SOL    HW2 5919   5.650   4.709   2.175  1.2817  0.2683 -0.5619
 1821SOL     OW 5920   2.959   4.407   2.599 -0.1134  0.6438  0.1993
 1821SOL    HW1 5921   3.006   4.376   2.521 -1.5526 -0.0422 -0.4269
 1821SOL    HW2 5922   2.913   4.331   2.632  0.8687  0.7947  2.0810
 1822SOL     OW 5923   3.854   1.344   1.360 -0.5592 -0.6590  0.2404
 1822SOL    HW1 5924   3.802   1.351   1.280  0.3711  0.4392 -0.2883
 1822SOL    HW2 5925   3.789   1.342   1.430 -1.3414  0.1344 -0.4319
 1823SOL     OW 5926   5.846   0.258   0.969  0.1417 -0.0012  0.3311
 1823SOL    HW1 5927   5.790   0.191   1.006 -0.8242  0.5319 -0.1299
 1823SOL    HW2 5928   5.798   0.340   0.981  0.4296  0.3649 -0.7996
 1824SOL     OW 5929   6.193   1.534   1.340 -0.1824  0.1748 -0.0435
 1824SOL    HW1 5930   6.102   1.522   1.365  0.0356 -0.6012  0.3942
 1824SOL    HW2 5931   6.243   1.485   1.405  0.7180  2.6730  1.2695
 1825SOL     OW 5932   2.022   0.245   0.223  0.0954  0.8602 -0.3454
 1825SOL    HW1 5933   1.928   0.247   0.209  0.3073 -1.1304 -2.7336
 1825SOL    HW2 5934   2.060   0.258   0.136  2.0037  0.6635  0.4050
 1826SOL     OW 5935   4.231   3.164   3.845 -0.0857  0.2589  0.0079
 1826SOL    HW1 5936   4.316   3.149   3.885  0.8833 -0.7117 -2.2051
 1826SOL    HW2 5937   4.170   3.108   3.895  1.1573 -1.3539 -0.1949
 1827SOL     OW 5938   0.638   0.071   5.447  0.0386  0.5921 -0.0605
 1827SOL    HW1 5939   0.697   0.040   5.378  0.9527  0.8831  0.5783
 1827SOL    HW2 5940   0.694   0.119   5.507 -0.5785 -0.4756  1.4267
 1828SOL     OW 5941   2.698   0.713   1.587 -0.2581  0.2852  0.5941
 1828SOL    HW1 5942   2.720   0.646   1.522 -1.7335 -0.5851  0.9625
 1828SOL    HW2 5943   2.619   0.754   1.553  2.1267  3.9912 -1.1721
 1829SOL     OW 5944   3.038   5.067   5.216 -0.3394  0.2167  1.1904
 1829SOL    HW1 5945   3.117   5.113   5.245  0.0654 -0.0620  0.5379
 1829SOL    HW2 5946   2.976   5.136   5.195 -0.9244  0.4431  3.4208
 1830SOL     OW 5947   0.088   5.322   0.446 -0.1688  0.0515 -0.2169
 1830SOL    HW1 5948   0.139   5.273   0.511 -1.0702  0.2003  0.6408
 1830SOL    HW2 5949   0.108   5.413   0.464 -0.4882  0.0969 -0.0852
 1831SOL     OW 5950   2.345   0.938   2.530 -0.2793  0.4231 -0.5385
 1831SOL    HW1 5951   2.422   0.941   2.472 -0.8183  0.6481 -1.2569
 1831SOL    HW2 5952   2.352   1.018   2.582  0.6843 -0.2099  0.3533
 1832SOL     OW 5953   2.266   0.192   3.458  0.1965 -0.1867 -0.1863
 1832SOL    HW1 5954   2.242   0.205   3.550 -0.8785  1.5634 -0.6855
 1832SOL    HW2 5955   2.339   0.252   3.443 -0.3970  0.3935 -0.7784
 1833SOL     OW 5956   1.068   4.376   3.009  0.1647  0.1407 -0.6243
 1833SOL    HW1 5957   1.048   4.303   2.951  0.1793  0.2422 -0.7587
 1833SOL    HW2 5958   1.149   4.351   3.054  1.0433  0.7517 -1.8249
 1834SOL     OW 5959   3.316   2.244   2.165  0.6460  0.0315 -0.2177
 1834SOL    HW1 5960   3.363   2.321   2.197  0.0366  0.1365  0.4511
 1834SOL    HW2 5961   3.314   2.184   2.241  1.8879 -1.0352 -0.9766
 1835SOL     OW 5962   3.790   4.029   2.738 -0.2686  0.5597 -0.2542
 1835SOL    HW1 5963   3.756   4.110   2.774  0.8957  1.0832 -0.2750
 1835SOL    HW2 5964   3.733   3.961   2.773 -0.6635  1.2921  0.5644
 1836SOL     OW 5965   0.325   4.481   2.018  0.4449  0.0134  0.6899
 1836SOL    HW1 5966   0.357   4.537   2.088 -0.6547 -0.4898  1.6345
 1836SOL    HW2 5967   0.369   4.397   2.033  0.2036 -0.0966  0.7851
 1837SOL     OW 5968   1.569   2.711   0.739 -0.8575 -0.4162 -0.2079
 1837SOL    HW1 5969   1.482   2.723   0.702 -1.5147 -2.2077  0.6704
 1837SOL    HW2 5970   1.565   2.628   0.785  0.3902  0.9051  2.5466
 1838SOL     OW 5971   4.112   4.252   3.662 -0.5887  0.5474  0.0649
 1838SOL    HW1 5972   4.117   4.166   3.619 -0.4300  1.1310 -1.1215
 1838SOL    HW2 5973   4.020   4.260   3.688 -0.3661 -0.4724  1.2713
 1839SOL     OW 5974   2.961   5.566   0.465  0.4397  0.2596  0.3582
 1839SOL    HW1 5975   2.921   5.537   0.383 -1.3667  1.4383  0.7700
 1839SOL    HW2 5976   2.897   5.627   0.502  1.5891  0.3701  2.2458
 1840SOL     OW 5977   1.111   5.391   5.426 -0.0266  0.0133 -0.4961
 1840SOL    HW1 5978   1.077   5.460   5.369  2.4832  0.6280 -1.3763
 1840SOL    HW2 5979   1.137   5.321   5.367  1.0659 -0.0392  0.0204
 1841SOL     OW 5980   4.621   0.695   4.093  0.1636  0.1078 -0.4397
 1841SOL    HW1 5981   4.698   0.726   4.140 -0.0613  1.3026 -0.8271
 1841SOL    HW2 5982   4.547   0.726   4.145 -0.0653 -0.9963 -0.0912
 1842SOL     OW 5983   5.994   3.691   4.563  0.0254  0.5545 -0.1006
 1842SOL    HW1 5984   6.072   3.640   4.585  1.3593  0.8266 -3.6641
 1842SOL    HW2 5985   5.942   3.633   4.508 -0.2270  1.7713 -1.1834
 1843SOL     OW 5986   3.406   4.072   1.267  0.0066  0.4916  0.2200
 1843SOL    HW1 5987   3.358   4.104   1.191 -2.2157  0.0592  1.3544
 1843SOL    HW2 5988   3.369   4.120   1.341  1.7358  0.5189  1.1181
 1844SOL     OW 5989   2.746   3.405   6.237  0.3630  0.5795  0.2169
 1844SOL    HW1 5990   2.688   3.337   6.201  1.0499 -0.5459  1.1425
 1844SOL    HW2 5991   2.686   3.471   6.272 -0.3805 -0.3862  0.8405
 1845SOL     OW 5992   3.782   3.787   2.503  0.6796 -0.2260  0.5801
 1845SOL    HW1 5993   3.692   3.819   2.495  0.4854 -0.3537  1.9379
 1845SOL    HW2 5994   3.798   3.784   2.598  2.2218  0.0859  0.3613
 1846SOL     OW 5995   6.071   0.403   5.436  0.6480  0.0089  0.0757
 1846SOL    HW1 5996   6.046   0.391   5.345  1.0959 -2.0895  0.1695
 1846SOL    HW2 5997   6.010   0.348   5.485  1.7177 -0.5759  0.8152
 1847SOL     OW 5998   3.007   1.877   0.396 -0.0102  0.0952  0.3670
 1847SOL    HW1 5999   2.955   1.797   0.388 -1.1290  0.8242  0.0458
 1847SOL    HW2 6000   2.980   1.932   0.322 -0.7025  1.5315  1.6078
 1848SOL     OW 6001   3.201   2.452   0.067  0.2278 -0.2278 -0.2533
 1848SOL    HW1 6002   3.178   2.540   0.096 -1.3656 -0.5816 -0.3065
 1848SOL    HW2 6003   3.117   2.413   0.041  0.8365 -1.8990  0.1538
 1849SOL     OW 6004   4.195   0.402   5.414 -0.0748 -0.4036  0.4760
 1849SOL    HW1 6005   4.258   0.383   5.344  1.9534  0.1996  2.0532
 1849SOL    HW2 6006   4.159   0.488   5.391  1.9863  0.6772  1.0837
 1850SOL     OW 6007   4.977   5.700   5.614  0.2133 -0.6002 -0.7408
 1850SOL    HW1 6008   4.883   5.689   5.602  0.1683 -1.0385  0.0069
 1850SOL    HW2 6009   5.011   5.706   5.524 -0.6123  0.4134 -1.0129
 1851SOL     OW 6010   5.945   2.203   5.523 -0.1294  0.6438 -0.1437
 1851SOL    HW1 6011   5.886   2.208   5.598 -1.9761  0.5503 -1.5144
 1851SOL    HW2 6012   5.962   2.110   5.511 -0.3154  0.6187 -0.2056
 1852SOL     OW 6013   4.571   2.692   3.947  0.6302  0.3893 -0.7207
 1852SOL    HW1 6014   4.641   2.634   3.918  0.9774 -0.1379  1.0872
 1852SOL    HW2 6015   4.614   2.774   3.968  0.5454  0.3962 -0.5740
 1853SOL     OW 6016   3.050   5.577   2.348  0.5772  0.0146 -0.2160
 1853SOL    HW1 6017   2.975   5.616   2.304  1.4410 -0.0306 -1.8184
 1853SOL    HW2 6018   3.034   5.482   2.345  0.2590  0.0437  0.3232
 1854SOL     OW 6019   1.238   1.691   4.680 -0.2899  0.4623 -0.4471
 1854SOL    HW1 6020   1.174   1.752   4.643  0.6691  1.8725  0.1416
 1854SOL    HW2 6021   1.319   1.742   4.686  0.5932 -0.9444 -0.1195
 1855SOL     OW 6022   4.499   1.994   5.071 -0.2336 -0.3524  0.1237
 1855SOL    HW1 6023   4.527   1.933   5.002  1.2976  0.0345  0.3869
 1855SOL    HW2 6024   4.580   2.025   5.111 -1.1031 -1.2825  2.7706
 1856SOL     OW 6025   4.065   3.544   5.822  0.3028  0.3476  0.1552
 1856SOL    HW1 6026   4.016   3.621   5.793  0.5914  1.4445  2.3909
 1856SOL    HW2 6027   4.122   3.577   5.891  0.9010 -1.7838  0.7404
 1857SOL     OW 6028   1.726   0.294   3.724  0.2972 -0.0350  0.0781
 1857SOL    HW1 6029   1.637   0.320   3.702  0.9810  2.1818 -0.3147
 1857SOL    HW2 6030   1.752   0.235   3.653 -0.4065  0.3753 -0.5410
 1858SOL     OW 6031   6.380   5.180   4.843  0.1798 -0.5985  0.0920
 1858SOL    HW1 6032   6.463   5.186   4.891  0.1082  0.5653  0.1040
 1858SOL    HW2 6033   6.324   5.127   4.899  0.5825 -0.5090  0.5918
 1859SOL     OW 6034   6.082   0.688   0.381 -0.0456  0.1442  0.3717
 1859SOL    HW1 6035   6.136   0.703   0.459  0.5551  0.4520 -0.0982
 1859SOL    HW2 6036   6.137   0.635   0.324  0.5511  2.0653 -0.9388
 1860SOL     OW 6037   3.588   1.167   3.750 -0.1914  0.6987 -0.5241
 1860SOL    HW1 6038   3.495   1.172   3.772 -0.6467  3.0378 -2.5505
 1860SOL    HW2 6039   3.632   1.160   3.835 -2.1255  1.6666  0.6221
 1861SOL     OW 6040   1.450   0.632   0.350 -0.0961 -0.3400  0.1607
 1861SOL    HW1 6041   1.510   0.693   0.393  0.4126 -0.8452  0.1795
 1861SOL    HW2 6042   1.402   0.592   0.423 -0.8473  0.4466  0.1180
 1862SOL     OW 6043   3.536   5.060   5.816 -0.7845  0.2839  0.3069
 1862SOL    HW1 6044   3.480   4.984   5.800 -2.0361  0.8583  1.7724
 1862SOL    HW2 6045   3.499   5.130   5.762 -0.7714  0.3631  0.4010
 1863SOL     OW 6046   3.658   6.330   3.854  0.1682 -0.1687 -0.5381
 1863SOL    HW1 6047   3.586   6.347   3.794  1.5167  1.2784 -1.8163
 1863SOL    HW2 6048   3.717   6.405   3.844  1.7129 -1.1405  0.6838
 1864SOL     OW 6049   2.566   0.178   6.342  0.1189 -0.4236  0.1449
 1864SOL    HW1 6050   2.618   0.126   6.281 -0.0828  2.0625 -2.3356
 1864SOL    HW2 6051   2.623   0.251   6.366 -0.7116 -0.0015  0.8956
 1865SOL     OW 6052   2.800   3.851   1.695 -0.0319 -0.1834  0.4310
 1865SOL    HW1 6053   2.710   3.828   1.675  0.7865 -4.2290  0.4025
 1865SOL    HW2 6054   2.823   3.920   1.634 -2.7602  0.1620 -0.2928
 1866SOL     OW 6055   5.674   0.351   1.984 -0.4241  0.3752  0.2421
 1866SOL    HW1 6056   5.719   0.356   2.068 -0.9188  0.9509  0.4795
 1866SOL    HW2 6057   5.628   0.267   1.986  0.2274  0.0066  0.1964
 1867SOL     OW 6058   1.285   2.488   2.766 -0.5669 -0.2882 -0.0003
 1867SOL    HW1 6059   1.273   2.407   2.716 -1.6290 -0.9054  1.1864
 1867SOL    HW2 6060   1.203   2.498   2.815 -0.7601  1.9023 -0.6462
 1868SOL     OW 6061   2.336   4.157   1.174 -0.2445  0.3108 -0.4181
 1868SOL    HW1 6062   2.325   4.251   1.162  1.6147  0.6554  0.2163
 1868SOL    HW2 6063   2.429   4.146   1.192 -0.7908 -1.3797  1.8850
 1869SOL     OW 6064   0.089   3.676   5.690 -0.3477  0.4251  0.1921
 1869SOL    HW1 6065   0.064   3.599   5.742 -1.8670  1.1579  0.5965
 1869SOL    HW2 6066   0.062   3.654   5.601 -1.0588  0.6017  0.3600
 1870SOL     OW 6067   2.254   1.031   4.857  0.4180  0.3476  0.0961
 1870SOL    HW1 6068   2.210   1.028   4.941  0.6437 -0.8455  0.1947
 1870SOL    HW2 6069   2.288   1.121   4.850  1.8291  0.0380  2.0302
 1871SOL     OW 6070   2.541   2.832   5.076  0.5133  0.4789  0.6322
 1871SOL    HW1 6071   2.454   2.812   5.110  1.3722 -1.3887  1.8822
 1871SOL    HW2 6072   2.573   2.749   5.042  1.5486  1.2969 -0.4597
 1872SOL     OW 6073   4.677   6.266   6.323 -0.3513  0.2478  0.6099
 1872SOL    HW1 6074   4.620   6.290   6.396 -0.3090  2.2821  0.0121
 1872SOL    HW2 6075   4.763   6.256   6.363 -0.0793  2.5411  0.7188
 1873SOL     OW 6076   1.456   1.856   3.566 -0.2711 -0.1521 -0.5017
 1873SOL    HW1 6077   1.410   1.791   3.513  0.8894  0.1483 -1.9371
 1873SOL    HW2 6078   1.510   1.905   3.504  0.1609  1.0876  0.7789
 1874SOL     OW 6079   4.375   0.549   3.990 -0.0151 -0.1673 -0.0591
 1874SOL    HW1 6080   4.394   0.527   4.081 -0.8139 -1.5555 -0.2014
 1874SOL    HW2 6081   4.350   0.465   3.950  1.5446  0.1789 -1.8753
 1875SOL     OW 6082   1.891   4.718   0.633 -0.2128 -0.4349 -0.2281
 1875SOL    HW1 6083   1.922   4.651   0.572  0.2893 -0.7909  0.4052
 1875SOL    HW2 6084   1.855   4.786   0.577  1.1952 -0.2653 -0.9704
 1876SOL     OW 6085   3.728   6.098   0.380  0.3270  0.1765 -0.0348
 1876SOL    HW1 6086   3.704   6.020   0.330 -1.2551  0.3167  0.4436
 1876SOL    HW2 6087   3.747   6.066   0.468 -0.9778  0.3529  0.3446
 1877SOL     OW 6088   4.878   5.548   1.232 -0.2319 -0.4052  0.1435
 1877SOL    HW1 6089   4.800   5.563   1.287  0.1476 -2.1149  1.2403
 1877SOL    HW2 6090   4.845   5.552   1.142 -1.1045  1.2853  0.4930
 1878SOL     OW 6091   1.718   0.645   1.347 -0.7247 -0.0508 -0.1546
 1878SOL    HW1 6092   1.705   0.690   1.431 -0.0447  0.3240 -0.2464
 1878SOL    HW2 6093   1.813   0.638   1.338 -0.8078 -0.8541 -0.4951
 1879SOL     OW 6094   2.096   0.470   2.992 -0.2442 -0.4435 -0.3636
 1879SOL    HW1 6095   2.167   0.431   3.044 -1.5161 -0.2946  1.5856
 1879SOL    HW2 6096   2.139   0.536   2.939  1.1826 -0.8710  0.2130
 1880SOL     OW 6097   5.795   2.409   4.533 -0.2663 -0.4635 -0.3448
 1880SOL    HW1 6098   5.813   2.501   4.551 -1.7867  0.3808 -2.7651
 1880SOL    HW2 6099   5.722   2.387   4.591 -0.9704  0.3570 -0.8924
 1881SOL     OW 6100   0.239   4.382   3.119  0.1786  0.0376  0.3187
 1881SOL    HW1 6101   0.209   4.322   3.051  1.0359 -0.9636  0.7851
 1881SOL    HW2 6102   0.185   4.460   3.109  0.2743 -0.0946 -1.4855
 1882SOL     OW 6103   2.444   3.100   1.032  0.4334  0.0764 -0.3141
 1882SOL    HW1 6104   2.473   3.095   0.941 -0.7204  0.9070 -0.7517
 1882SOL    HW2 6105   2.353   3.130   1.027 -0.2151 -1.4663  1.0230
 1883SOL     OW 6106   6.144   3.623   2.621  0.1744 -0.4419  0.1798
 1883SOL    HW1 6107   6.101   3.657   2.543 -1.5095 -0.1733  1.1864
 1883SOL    HW2 6108   6.198   3.551   2.590  0.1630  0.1788 -1.3359
 1884SOL     OW 6109   4.887   6.267   2.072  0.7478 -0.2611 -0.2518
 1884SOL    HW1 6110   4.804   6.253   2.027  1.0649  1.6548 -1.5463
 1884SOL    HW2 6111   4.945   6.200   2.036 -0.0889 -1.3363  0.3454
 1885SOL     OW 6112   5.238   1.859   0.806 -0.0778 -0.3102 -0.1933
 1885SOL    HW1 6113   5.204   1.807   0.734 -1.4683  0.7906 -0.3835
 1885SOL    HW2 6114   5.208   1.948   0.787  0.1974  0.1378  1.3368
 1886SOL     OW 6115   4.813   2.940   5.661 -0.1098  0.4777 -0.0666
 1886SOL    HW1 6116   4.814   2.845   5.654 -1.7162  0.3841  0.5547
 1886SOL    HW2 6117   4.734   2.967   5.614  0.1543  1.4747  0.0320
 1887SOL     OW 6118   1.035   0.531   2.233 -0.1904 -0.3218 -0.8759
 1887SOL    HW1 6119   0.992   0.475   2.168 -1.2660 -2.6789  1.6572
 1887SOL    HW2 6120   0.986   0.515   2.314  1.8080  1.5434  0.8067
 1888SOL     OW 6121   2.327   5.144   0.350  0.7404 -0.3045 -0.1308
 1888SOL    HW1 6122   2.419   5.150   0.322  0.5739  1.4994 -0.3882
 1888SOL    HW2 6123   2.328   5.167   0.443  0.6863 -1.6226  0.2219
 1889SOL     OW 6124   3.356   0.213   0.033  0.0638 -0.6211  0.2982
 1889SOL    HW1 6125   3.441   0.258   0.036 -0.3298  0.1474  0.2798
 1889SOL    HW2 6126   3.302   0.261   0.096 -0.4295 -0.9575  0.1362
 1890SOL     OW 6127   6.206   1.747   2.829  0.4472  0.0388  0.2238
 1890SOL    HW1 6128   6.133   1.689   2.853  1.3850 -1.6347 -0.8033
 1890SOL    HW2 6129   6.283   1.691   2.832  1.4619  1.3524 -0.3913
 1891SOL     OW 6130   5.905   1.553   1.718 -0.5865  0.4179  0.8481
 1891SOL    HW1 6131   5.881   1.488   1.784 -0.0621 -1.0992 -0.3821
 1891SOL    HW2 6132   5.985   1.594   1.751 -0.1011 -0.6107  0.9818
 1892SOL     OW 6133   1.345   2.350   4.327  0.0953  0.1814 -0.3693
 1892SOL    HW1 6134   1.266   2.353   4.273 -0.9402  0.9217  1.0920
 1892SOL    HW2 6135   1.335   2.424   4.387  1.1880 -0.5722  0.7949
 1893SOL     OW 6136   1.627   3.412   3.530 -0.1790 -0.6316 -0.5058
 1893SOL    HW1 6137   1.710   3.376   3.560 -0.5078  0.4749  1.9246
 1893SOL    HW2 6138   1.562   3.348   3.557 -0.4393  0.1849  0.8682
 1894SOL     OW 6139   2.714   2.275   4.207 -0.4210  0.6875  0.1291
 1894SOL    HW1 6140   2.772   2.271   4.131 -1.0437  0.9442 -0.3708
 1894SOL    HW2 6141   2.760   2.227   4.275  1.0335  2.0678  0.1800
 1895SOL     OW 6142   1.760   2.398   1.879 -0.2509  0.4954 -0.2811
 1895SOL    HW1 6143   1.793   2.309   1.893 -1.9174 -0.1241 -0.0125
 1895SOL    HW2 6144   1.823   2.454   1.923  0.3838 -0.6185  0.2916
 1896SOL     OW 6145   2.655   0.721   0.224 -0.2420 -0.4384 -0.4595
 1896SOL    HW1 6146   2.623   0.770   0.300  0.4833 -1.6916  0.7045
 1896SOL    HW2 6147   2.745   0.752   0.212  0.5547 -2.0613  0.8769
 1897SOL     OW 6148   3.141   0.518   5.192 -0.7233  0.0831 -0.1417
 1897SOL    HW1 6149   3.159   0.430   5.160 -1.6592  0.1336 -0.8502
 1897SOL    HW2 6150   3.192   0.525   5.273 -0.2473 -0.9247 -0.3386
 1898SOL     OW 6151   3.554   3.877   3.791  0.5884  0.7915  0.1300
 1898SOL    HW1 6152   3.472   3.884   3.742  0.4515  0.9437  0.3818
 1898SOL    HW2 6153   3.539   3.806   3.853  0.5043  1.1021  0.4612
 1899SOL     OW 6154   1.509   0.311   0.054 -0.2043  1.0513 -0.3388
 1899SOL    HW1 6155   1.506   0.260  -0.027  0.4451 -0.1616  0.3693
 1899SOL    HW2 6156   1.417   0.324   0.077 -0.3997 -0.1816 -0.3304
 1900SOL     OW 6157   6.020   5.210   0.207 -0.7841  0.3370  0.9780
 1900SOL    HW1 6158   6.089   5.272   0.231 -0.8883  0.1876  1.6700
 1900SOL    HW2 6159   6.068   5.131   0.182 -0.6963  0.3089  1.2330
 1901SOL     OW 6160   2.003   3.186   1.238  0.1928 -0.2545  0.1547
 1901SOL    HW1 6161   2.081   3.165   1.289  0.3566 -2.4754 -0.9110
 1901SOL    HW2 6162   2.035   3.240   1.165  0.3470  0.7051  0.9034
 1902SOL     OW 6163   1.642   3.484   4.282  0.3587 -0.1259  0.0695
 1902SOL    HW1 6164   1.557   3.506   4.245  0.3718  0.0854  0.1614
 1902SOL    HW2 6165   1.697   3.560   4.262  0.4333 -0.1170  0.3045
 1903SOL     OW 6166   1.887   0.883   0.049 -0.4697 -0.1951  0.2832
 1903SOL    HW1 6167   1.791   0.885   0.042 -0.6654 -0.7832  2.2224
 1903SOL    HW2 6168   1.909   0.790   0.044  0.0299 -0.0403 -0.4235
 1904SOL     OW 6169   2.307   0.090   6.235 -0.0325  0.2120  0.3205
 1904SOL    HW1 6170   2.392   0.114   6.271  0.3370 -0.9725  0.2941
 1904SOL    HW2 6171   2.268   0.172   6.206  1.4679  0.6812 -0.4518
 1905SOL     OW 6172   6.090   1.027   5.909 -0.3418 -0.1501  0.2063
 1905SOL    HW1 6173   6.096   1.067   5.995 -3.0565  0.3498  0.2571
 1905SOL    HW2 6174   6.010   0.976   5.912 -0.7361  0.2164 -2.1408
 1906SOL     OW 6175   1.796   2.194   1.289 -0.4585  0.3911 -0.2307
 1906SOL    HW1 6176   1.849   2.132   1.339 -0.1848  0.8795  0.0968
 1906SOL    HW2 6177   1.792   2.272   1.344 -2.5522 -0.0394  0.3137
 1907SOL     OW 6178   5.356   3.887   1.559  1.1885 -0.0849 -0.3219
 1907SOL    HW1 6179   5.266   3.872   1.587  1.6359  0.3102  1.4189
 1907SOL    HW2 6180   5.374   3.815   1.498  0.4304 -1.5047  1.0662
 1908SOL     OW 6181   5.808   1.695   0.648 -0.0801  0.1233 -0.3446
 1908SOL    HW1 6182   5.731   1.739   0.612  0.0139  0.8305  0.3087
 1908SOL    HW2 6183   5.821   1.735   0.734  0.3668 -0.7571  0.0131
 1909SOL     OW 6184   5.463   3.950   4.733 -0.3610 -0.1844  0.4405
 1909SOL    HW1 6185   5.513   3.876   4.768  1.7933  1.1802  0.4270
 1909SOL    HW2 6186   5.375   3.914   4.717  0.9900 -3.1523 -1.0304
 1910SOL     OW 6187   1.062   1.874   4.199  0.0889 -0.1552 -0.5821
 1910SOL    HW1 6188   1.112   1.923   4.134 -0.5214  0.5380 -0.5376
 1910SOL    HW2 6189   0.972   1.903   4.188 -0.0138  0.0347  0.6248
 1911SOL     OW 6190   3.932   3.720   3.235  0.7320  0.8333  0.5359
 1911SOL    HW1 6191   3.913   3.762   3.319  2.2273  0.9979  0.8182
 1911SOL    HW2 6192   3.934   3.626   3.256  0.1408  0.8077  0.4812
 1912SOL     OW 6193   0.646   5.803   4.136  0.0968  0.3194 -0.5953
 1912SOL    HW1 6194   0.584   5.823   4.206 -0.7026  0.1637 -1.2438
 1912SOL    HW2 6195   0.710   5.873   4.139  0.5984 -0.1647  0.8824
 1913SOL     OW 6196   5.463   1.085   3.731 -0.0395 -0.3048  0.2073
 1913SOL    HW1 6197   5.547   1.044   3.753 -0.2908  0.2274  2.3745
 1913SOL    HW2 6198   5.487   1.175   3.709  0.0442 -0.3550  0.0928
 1914SOL     OW 6199   0.308   0.878   4.616  0.0618 -0.6732 -0.2987
 1914SOL    HW1 6200   0.238   0.901   4.677 -0.4236 -1.1506 -0.6712
 1914SOL    HW2 6201   0.309   0.783   4.614  2.6182 -0.8084  1.8560
 1915SOL     OW 6202   6.222   4.112   0.575 -0.2092  0.0785 -0.7479
 1915SOL    HW1 6203   6.129   4.123   0.555 -0.2547  0.6689 -0.2700
 1915SOL    HW2 6204   6.266   4.173   0.517 -0.2940  1.3223  0.4385
 1916SOL     OW 6205   4.033   2.621   3.312  0.0073  0.2542  0.1781
 1916SOL    HW1 6206   4.092   2.685   3.272 -1.8914  0.4498 -2.5765
 1916SOL    HW2 6207   3.962   2.673   3.349 -0.2301 -0.1239  0.2602
 1917SOL     OW 6208   2.783   4.472   3.782  0.1441 -0.4490  0.0323
 1917SOL    HW1 6209   2.842   4.397   3.791 -0.6605 -0.9680  1.2374
 1917SOL    HW2 6210   2.696   4.437   3.801 -0.2538  0.7751  0.6044
 1918SOL     OW 6211   3.424   3.722   2.675  0.6015  0.1316 -0.1505
 1918SOL    HW1 6212   3.468   3.774   2.607  1.0062 -1.7993 -1.4644
 1918SOL    HW2 6213   3.475   3.640   2.679 -0.1079 -0.2734  1.6853
 1919SOL     OW 6214   0.493   0.012   2.706  0.0468 -0.1117  0.0856
 1919SOL    HW1 6215   0.416   0.064   2.728 -0.0954 -0.8687  1.4629
 1919SOL    HW2 6216   0.563   0.050   2.757 -0.1028 -1.3683  1.2819
 1920SOL     OW 6217   2.594   3.328   2.058  0.5311 -0.6178 -0.0147
 1920SOL    HW1 6218   2.645   3.290   2.129  3.0559 -1.4607 -2.1008
 1920SOL    HW2 6219   2.542   3.255   2.025 -1.1664 -0.0653  1.2947
 1921SOL     OW 6220   2.414   3.164   1.608 -0.5926 -0.4762  0.5602
 1921SOL    HW1 6221   2.498   3.198   1.640  0.2672 -1.3111 -0.7069
 1921SOL    HW2 6222   2.348   3.209   1.661  0.6493  0.1913  1.5973
 1922SOL     OW 6223   1.763   3.859   0.792 -0.1029 -0.7376  0.3265
 1922SOL    HW1 6224   1.804   3.943   0.771  1.2968 -1.2618  0.8475
 1922SOL    HW2 6225   1.669   3.876   0.784  0.0886  1.1438  1.3390
 1923SOL     OW 6226   3.894   4.925   1.852 -0.0821 -0.1800 -0.3458
 1923SOL    HW1 6227   3.984   4.896   1.834 -0.1356 -0.5618 -0.0401
 1923SOL    HW2 6228   3.862   4.861   1.916 -0.2868  0.4366  0.1831
 1924SOL     OW 6229   0.707   2.830   5.125  0.0770 -0.0519  0.1420
 1924SOL    HW1 6230   0.614   2.851   5.111 -0.1609 -0.1383  1.4453
 1924SOL    HW2 6231   0.711   2.734   5.115  0.7328  0.2030 -3.4625
 1925SOL     OW 6232   0.645   2.991   1.401  0.2147 -0.2858 -0.0207
 1925SOL    HW1 6233   0.616   3.071   1.357  0.7794 -0.5595 -0.9246
 1925SOL    HW2 6234   0.565   2.941   1.416 -0.5061  1.4926  2.8184
 1926SOL     OW 6235   2.268   2.521   2.081  0.4699  0.2216  0.0782
 1926SOL    HW1 6236   2.319   2.483   2.009  0.4039 -0.2995  0.2962
 1926SOL    HW2 6237   2.301   2.476   2.159  0.4687  0.7080  0.3614
 1927SOL     OW 6238   0.185   4.159   4.900 -0.6010  0.2836 -0.5644
 1927SOL    HW1 6239   0.248   4.087   4.897  0.9690  1.6314 -1.2696
 1927SOL    HW2 6240   0.101   4.116   4.920  0.2084 -1.7668 -1.2369
 1928SOL     OW 6241   0.557   4.129   0.259  0.2061 -0.1770 -0.5320
 1928SOL    HW1 6242   0.526   4.186   0.329 -0.9461 -0.3964 -0.8305
 1928SOL    HW2 6243   0.540   4.041   0.292 -1.7672 -0.2728 -1.6438
 1929SOL     OW 6244   1.859   2.633   1.321  0.2310  0.5585  0.1927
 1929SOL    HW1 6245   1.782   2.650   1.266  0.9227 -0.6766 -1.2033
 1929SOL    HW2 6246   1.928   2.688   1.283  0.2956  0.9404  0.8527
 1930SOL     OW 6247   2.374   4.325   0.062 -0.1961 -0.7062  0.5654
 1930SOL    HW1 6248   2.366   4.338  -0.033  0.8946  1.1344  0.6869
 1930SOL    HW2 6249   2.446   4.382   0.088 -2.3239  1.0951  2.9391
 1931SOL     OW 6250   2.142   2.321   5.573 -0.1060 -0.3679 -0.4249
 1931SOL    HW1 6251   2.104   2.279   5.496  1.3207 -0.7878 -0.9291
 1931SOL    HW2 6252   2.234   2.334   5.551  0.2648 -0.1776  1.0810
 1932SOL     OW 6253   1.114   4.079   3.655 -0.2399 -0.2205  0.5005
 1932SOL    HW1 6254   1.038   4.039   3.698 -0.3427 -0.0124  0.5139
 1932SOL    HW2 6255   1.094   4.075   3.562 -0.6894  0.6696  0.5465
 1933SOL     OW 6256   5.496   3.282   1.777  0.3037 -0.1672  0.0077
 1933SOL    HW1 6257   5.584   3.311   1.800 -0.2769  0.5624  1.3815
 1933SOL    HW2 6258   5.442   3.304   1.853 -0.8438 -1.7024 -0.3035
 1934SOL     OW 6259   1.133   1.106   2.244  0.5882 -0.1211  0.0655
 1934SOL    HW1 6260   1.128   1.200   2.257  0.5871 -0.1751  0.4770
 1934SOL    HW2 6261   1.205   1.078   2.301 -0.2876 -0.5453  1.0016
 1935SOL     OW 6262   5.202   6.380   3.592 -0.2901  0.6338 -0.8102
 1935SOL    HW1 6263   5.151   6.313   3.545 -1.4397  0.9491 -0.0670
 1935SOL    HW2 6264   5.216   6.449   3.527 -0.4982  0.3719 -1.1391
 1936SOL     OW 6265   5.360   3.173   4.065  0.2372 -0.4499 -0.6923
 1936SOL    HW1 6266   5.386   3.213   3.982  0.3789  1.7466  0.3163
 1936SOL    HW2 6267   5.442   3.154   4.110  0.1596  0.0843 -0.3164
 1937SOL     OW 6268   0.735   3.603   1.747  0.5318  0.0031  0.1507
 1937SOL    HW1 6269   0.715   3.695   1.731  0.7774 -0.2472 -1.8126
 1937SOL    HW2 6270   0.681   3.555   1.685  0.6792 -1.1744  0.9021
 1938SOL     OW 6271   0.576   4.914   3.518 -0.1805  0.5632 -0.1682
 1938SOL    HW1 6272   0.522   4.991   3.500 -1.5774  0.3963  2.7762
 1938SOL    HW2 6273   0.651   4.949   3.567 -1.4620  0.0329  2.3287
 1939SOL     OW 6274   4.405   0.182   0.335 -0.2878 -0.5066  0.6580
 1939SOL    HW1 6275   4.468   0.168   0.406 -0.3801 -2.5326  0.4143
 1939SOL    HW2 6276   4.326   0.215   0.379  0.3407  0.3154  1.1939
 1940SOL     OW 6277   2.596   3.704   3.878 -0.0566  0.4457 -0.0116
 1940SOL    HW1 6278   2.607   3.665   3.791 -1.1634  0.4771 -0.1816
 1940SOL    HW2 6279   2.508   3.740   3.877  0.1722  1.0699  0.8931
 1941SOL     OW 6280   0.796   1.374   4.956 -0.1161  0.5294  0.1569
 1941SOL    HW1 6281   0.783   1.286   4.922 -0.2571  0.8629 -0.6838
 1941SOL    HW2 6282   0.708   1.411   4.962 -0.2867 -0.1237  2.6403
 1942SOL     OW 6283   4.903   3.566   5.821  0.0103 -0.2389 -0.6084
 1942SOL    HW1 6284   4.932   3.618   5.746 -1.9207  0.2595 -1.0695
 1942SOL    HW2 6285   4.937   3.613   5.897  0.7094  0.0998 -1.1159
 1943SOL     OW 6286   1.458   2.836   0.205  0.0054  1.0263 -0.2150
 1943SOL    HW1 6287   1.502   2.773   0.149  0.8928  2.1193 -0.7832
 1943SOL    HW2 6288   1.374   2.795   0.226  0.4518 -0.2142 -0.7709
 1944SOL     OW 6289   4.816   6.292   5.095 -0.0616 -0.3856  0.4284
 1944SOL    HW1 6290   4.758   6.282   5.020 -1.0682 -2.9460  1.4319
 1944SOL    HW2 6291   4.764   6.341   5.159  0.3164  0.6290 -0.0156
 1945SOL     OW 6292   3.341   0.098   2.991 -0.0852 -0.5627  0.1354
 1945SOL    HW1 6293   3.325   0.188   2.962  0.0178  0.0393  1.8608
 1945SOL    HW2 6294   3.418   0.070   2.942 -2.0496 -0.9667 -2.9791
 1946SOL     OW 6295   3.373   1.726   2.677 -0.2297  0.1766 -0.1902
 1946SOL    HW1 6296   3.281   1.738   2.700 -0.0028 -0.6995  1.3012
 1946SOL    HW2 6297   3.421   1.759   2.753  0.7959  2.2770 -1.6564
 1947SOL     OW 6298   2.271   0.455   4.311 -0.5288 -0.3103 -0.0328
 1947SOL    HW1 6299   2.359   0.435   4.344 -0.1737  3.2548  1.6751
 1947SOL    HW2 6300   2.287   0.495   4.225 -0.1955  1.8047  0.9376
 1948SOL     OW 6301   1.949   1.599   1.425  0.1059  0.7709 -0.2265
 1948SOL    HW1 6302   1.949   1.510   1.462  0.5294  0.9897  0.3263
 1948SOL    HW2 6303   1.914   1.588   1.337 -1.6824  0.3343  0.4860
 1949SOL     OW 6304   1.622   4.449   1.425  0.2232 -0.0710  0.2317
 1949SOL    HW1 6305   1.614   4.534   1.469  0.7142 -0.3167  0.8233
 1949SOL    HW2 6306   1.613   4.385   1.496 -1.0505 -0.5513 -0.3439
 1950SOL     OW 6307   5.114   2.408   5.761  0.1576  0.5023 -0.3416
 1950SOL    HW1 6308   5.081   2.346   5.696 -0.5516 -0.5822  0.9932
 1950SOL    HW2 6309   5.108   2.494   5.718 -0.4261 -0.1641 -1.6410
 1951SOL     OW 6310   5.899   4.595   0.276 -0.3976 -0.5740 -0.1542
 1951SOL    HW1 6311   5.983   4.590   0.321 -0.2086  0.0252 -0.4275
 1951SOL    HW2 6312   5.834   4.590   0.346 -0.1189 -0.3462  0.1231
 1952SOL     OW 6313   5.919   1.442   2.678  0.0396  0.1141 -0.1748
 1952SOL    HW1 6314   5.952   1.364   2.632  1.6109 -0.1033  1.2348
 1952SOL    HW2 6315   5.930   1.513   2.614  1.2741 -0.3399 -0.4974
 1953SOL     OW 6316   0.090   2.088   3.306 -0.2310  0.1181  0.4558
 1953SOL    HW1 6317   0.031   2.023   3.267  0.8064  0.4970 -1.9294
 1953SOL    HW2 6318   0.083   2.164   3.248  3.0929 -0.0937 -0.4280
 1954SOL     OW 6319   3.487   3.428   3.686 -0.4281 -0.3143  0.0510
 1954SOL    HW1 6320   3.440   3.351   3.655 -0.1928 -0.7430  0.7376
 1954SOL    HW2 6321   3.579   3.406   3.675 -0.3457 -0.4101  0.8956
 1955SOL     OW 6322   5.743   1.136   4.219  0.1364  0.7801  0.1182
 1955SOL    HW1 6323   5.804   1.209   4.232  1.2524  0.0890 -0.9905
 1955SOL    HW2 6324   5.678   1.170   4.158  0.2375  1.0580  0.1618
 1956SOL     OW 6325   5.530   4.655   4.369 -0.3003  0.0933 -0.3075
 1956SOL    HW1 6326   5.608   4.699   4.403 -1.2568  0.9850  0.8215
 1956SOL    HW2 6327   5.492   4.612   4.446 -1.1930  0.0770 -0.7509
 1957SOL     OW 6328   1.427   2.321   0.962 -0.1171  0.4797 -0.0304
 1957SOL    HW1 6329   1.458   2.296   1.048 -0.5425  0.8774  0.2429
 1957SOL    HW2 6330   1.366   2.252   0.937 -0.1907  0.4997  0.0977
 1958SOL     OW 6331   1.194   2.696   3.982  0.0166  0.1465  0.1240
 1958SOL    HW1 6332   1.254   2.750   4.034  0.0664  0.4196 -0.2080
 1958SOL    HW2 6333   1.195   2.611   4.024  1.3003 -0.1094 -0.3619
 1959SOL     OW 6334   0.051   2.431   1.702 -0.0530 -0.7644 -1.1677
 1959SOL    HW1 6335   0.113   2.368   1.664  0.8887 -0.2206 -0.5953
 1959SOL    HW2 6336   0.072   2.514   1.658  0.1665 -0.4075 -0.4124
 1960SOL     OW 6337   2.233   2.700   0.459  0.3764 -0.0807 -0.4819
 1960SOL    HW1 6338   2.157   2.748   0.492  0.8171  1.0601 -1.0912
 1960SOL    HW2 6339   2.265   2.651   0.535  0.9215  1.9008  0.6346
 1961SOL     OW 6340   1.656   0.424   0.388 -0.0746  0.0714 -0.2487
 1961SOL    HW1 6341   1.693   0.481   0.456 -0.2025 -1.1772  0.9020
 1961SOL    HW2 6342   1.584   0.476   0.351 -0.4504  0.5311  1.0559
 1962SOL     OW 6343   0.996   3.905   1.585  0.3742 -0.7509  0.6684
 1962SOL    HW1 6344   0.963   3.828   1.539 -0.9399  0.4984 -0.5899
 1962SOL    HW2 6345   0.963   3.979   1.534  0.0980  0.6986  2.8172
 1963SOL     OW 6346   5.199   1.019   4.938 -0.1032  0.1718  0.1844
 1963SOL    HW1 6347   5.269   1.011   5.002  0.5773  0.1246 -0.5462
 1963SOL    HW2 6348   5.228   0.965   4.864 -0.0888  1.5034 -0.8256
 1964SOL     OW 6349   5.190   1.267   0.670 -0.2546  0.2401 -0.0878
 1964SOL    HW1 6350   5.133   1.275   0.594  0.3009  1.1319 -0.4264
 1964SOL    HW2 6351   5.137   1.299   0.744 -0.5133  0.1505 -0.2345
 1965SOL     OW 6352   0.873   5.018   5.959 -0.1974 -0.9296  0.1551
 1965SOL    HW1 6353   0.960   5.031   5.998 -0.1259 -0.7828 -0.0530
 1965SOL    HW2 6354   0.813   5.020   6.034  0.0381 -1.6500  0.3751
 1966SOL     OW 6355   2.762   1.341   1.907 -0.3751 -0.3022  0.1103
 1966SOL    HW1 6356   2.696   1.409   1.922  0.8264  0.8414  0.4349
 1966SOL    HW2 6357   2.777   1.343   1.812  0.9348  1.1877  0.3053
 1967SOL     OW 6358   4.835   1.598   5.063 -0.2946  0.3727  0.0997
 1967SOL    HW1 6359   4.817   1.627   4.974  0.7050  0.9186  0.0644
 1967SOL    HW2 6360   4.769   1.642   5.117  0.8512  2.3151 -0.0190
 1968SOL     OW 6361   2.451   2.366   1.418 -0.1815  0.6025 -0.5863
 1968SOL    HW1 6362   2.443   2.277   1.454 -1.9037  0.8547 -0.2843
 1968SOL    HW2 6363   2.467   2.352   1.325 -1.4439 -0.0548 -0.7276
 1969SOL     OW 6364   5.406   2.662   1.473  0.0074  0.2827  0.1779
 1969SOL    HW1 6365   5.341   2.723   1.506 -1.4046 -0.5070 -1.0409
 1969SOL    HW2 6366   5.357   2.600   1.419  1.4566 -1.5984  0.8878
 1970SOL     OW 6367   1.211   0.200   6.373 -0.4385  0.0132  0.5770
 1970SOL    HW1 6368   1.149   0.140   6.415  0.6562 -1.0698  0.7068
 1970SOL    HW2 6369   1.198   0.186   6.280 -1.5357  1.0223  0.5553
 1971SOL     OW 6370   4.500   2.237   5.970  0.4498  0.4510 -0.3529
 1971SOL    HW1 6371   4.469   2.266   5.885  1.4336  0.8144 -0.5980
 1971SOL    HW2 6372   4.430   2.262   6.031  0.5274  1.8316 -0.7985
 1972SOL     OW 6373   2.874   0.851   0.947 -0.5117  0.5357 -0.0347
 1972SOL    HW1 6374   2.893   0.758   0.963 -2.4779  0.4129  2.0743
 1972SOL    HW2 6375   2.880   0.892   1.033 -1.2589  2.0519 -0.6762
 1973SOL     OW 6376   0.872   4.456   5.067  0.3844  0.1084 -0.0445
 1973SOL    HW1 6377   0.966   4.441   5.081  0.2871  1.0051  1.7596
 1973SOL    HW2 6378   0.836   4.369   5.054  1.1648 -0.4446  1.3224
 1974SOL     OW 6379   0.441   1.631   0.091  0.3306  0.7959  0.2570
 1974SOL    HW1 6380   0.498   1.703   0.066  0.2744  0.6479 -0.2927
 1974SOL    HW2 6381   0.482   1.553   0.053 -0.2075  0.6813 -0.0959
 1975SOL     OW 6382   1.730   1.321   5.244  0.2221 -0.0797  0.1327
 1975SOL    HW1 6383   1.752   1.335   5.152  0.4794 -0.0358  0.1994
 1975SOL    HW2 6384   1.714   1.227   5.251  2.7742 -0.5639  0.5669
 1976SOL     OW 6385   4.938   3.168   0.215 -1.0918 -0.1847  0.3538
 1976SOL    HW1 6386   4.935   3.158   0.120 -2.2815  2.5566  0.0150
 1976SOL    HW2 6387   5.025   3.203   0.233 -1.3840  0.7044  0.0755
 1977SOL     OW 6388   4.760   4.912   4.054  0.5372 -0.2645  0.1851
 1977SOL    HW1 6389   4.750   4.880   4.144  1.1857 -0.3337  0.2344
 1977SOL    HW2 6390   4.834   4.972   4.058 -0.0435  0.4910 -0.1111
 1978SOL     OW 6391   3.907   0.098   1.479  0.9857 -0.0235 -0.7275
 1978SOL    HW1 6392   3.903   0.115   1.573 -1.2080  0.4633 -0.8628
 1978SOL    HW2 6393   3.912   0.003   1.472 -0.1977 -0.1461 -0.1130
 1979SOL     OW 6394   4.179   2.698   0.272 -0.2361  0.3404 -0.1894
 1979SOL    HW1 6395   4.107   2.672   0.330  0.3132  1.1482  0.8762
 1979SOL    HW2 6396   4.232   2.757   0.325 -0.1043  1.6788 -1.7628
 1980SOL     OW 6397   2.723   2.457   1.124  0.4754 -0.1576  0.5261
 1980SOL    HW1 6398   2.816   2.441   1.106 -0.2198 -1.3235 -2.5550
 1980SOL    HW2 6399   2.713   2.551   1.115  1.1138 -0.1753 -0.4854
 1981SOL     OW 6400   4.093   3.231   3.312  0.2765 -0.1777  0.1912
 1981SOL    HW1 6401   4.131   3.279   3.238  0.1331 -1.4584 -0.7472
 1981SOL    HW2 6402   4.049   3.298   3.364 -1.7657  0.4814 -2.2137
 1982SOL     OW 6403   1.068   1.321   1.560 -0.1316 -0.1713  0.3300
 1982SOL    HW1 6404   0.988   1.303   1.611  0.5162  2.1256  2.3406
 1982SOL    HW2 6405   1.126   1.365   1.622  1.0739  2.0312 -2.1858
 1983SOL     OW 6406   3.349   5.727   5.715  0.4602 -0.0397 -0.0119
 1983SOL    HW1 6407   3.430   5.709   5.668  1.4610 -1.8232  2.1944
 1983SOL    HW2 6408   3.297   5.647   5.703 -1.1849  1.2018 -1.6588
 1984SOL     OW 6409   1.579   2.839   1.422  0.0914  0.1395  0.1616
 1984SOL    HW1 6410   1.614   2.775   1.360 -0.7281 -1.2991  1.1312
 1984SOL    HW2 6411   1.627   2.920   1.404  1.1599 -0.7511 -1.0854
 1985SOL     OW 6412   2.047   0.335   1.237  0.1348 -0.2531 -0.2813
 1985SOL    HW1 6413   1.993   0.309   1.311 -0.4464  1.1159 -0.1871
 1985SOL    HW2 6414   2.101   0.258   1.218 -1.9679 -1.7527 -0.4966
 1986SOL     OW 6415   3.722   0.646   4.707 -0.3664 -0.2884 -0.1700
 1986SOL    HW1 6416   3.790   0.653   4.640  1.4583 -2.0820  1.3570
 1986SOL    HW2 6417   3.728   0.556   4.738 -0.9889  0.5055  2.5092
 1987SOL     OW 6418   1.348   1.173   6.010 -0.3173 -0.8721  0.1854
 1987SOL    HW1 6419   1.434   1.140   5.983 -0.5980 -1.6733  0.2360
 1987SOL    HW2 6420   1.360   1.196   6.102  0.3192  0.7405 -0.2684
 1988SOL     OW 6421   1.833   2.987   2.589  0.2400 -0.3304 -0.5835
 1988SOL    HW1 6422   1.800   2.923   2.527 -0.4080  0.3954 -1.0121
 1988SOL    HW2 6423   1.854   3.064   2.536  0.3344  0.0593 -0.0011
 1989SOL     OW 6424   1.168   1.066   5.550  0.1744 -0.6669  0.0637
 1989SOL    HW1 6425   1.228   1.091   5.479 -0.6111  0.9212 -0.0896
 1989SOL    HW2 6426   1.082   1.098   5.521 -0.4458 -1.3920  1.0427
 1990SOL     OW 6427   2.348   3.255   2.531 -0.0244  0.1636 -0.6423
 1990SOL    HW1 6428   2.392   3.327   2.485  1.3552 -0.9121 -1.1017
 1990SOL    HW2 6429   2.329   3.290   2.618  1.3779  0.8308 -0.5762
 1991SOL     OW 6430   2.714   2.677   5.593 -0.4522 -0.6309 -0.1628
 1991SOL    HW1 6431   2.624   2.649   5.576 -0.2313 -0.4095 -1.8753
 1991SOL    HW2 6432   2.725   2.665   5.688 -2.4611 -0.0994  0.2080
 1992SOL     OW 6433   4.859   1.807   0.922  0.1689  0.1620  0.3574
 1992SOL    HW1 6434   4.871   1.846   1.009  0.7854 -1.8324  1.2108
 1992SOL    HW2 6435   4.930   1.744   0.914 -0.7110 -0.6917 -1.0292
 1993SOL     OW 6436   3.641   4.996   0.895  0.0710 -0.2244  0.0488
 1993SOL    HW1 6437   3.614   4.960   0.980 -0.2133 -0.7472 -0.2515
 1993SOL    HW2 6438   3.602   5.083   0.893  1.8037  0.6322  1.3104
 1994SOL     OW 6439   3.533   0.422   6.136  0.2568 -0.7938  0.2267
 1994SOL    HW1 6440   3.442   0.446   6.152  0.9764  2.6237 -0.1433
 1994SOL    HW2 6441   3.584   0.482   6.190  2.3502 -3.1314  1.0286
 1995SOL     OW 6442   2.072   3.377   0.622 -0.2354  0.1809  0.1736
 1995SOL    HW1 6443   2.148   3.422   0.660  2.1397 -2.7424 -0.6990
 1995SOL    HW2 6444   2.049   3.429   0.545  1.0665  1.0020  0.3129
 1996SOL     OW 6445   5.449   5.387   5.009 -0.1726  0.0903  0.0916
 1996SOL    HW1 6446   5.390   5.462   5.010 -0.7934 -0.3608  1.9702
 1996SOL    HW2 6447   5.513   5.405   5.078  0.0262 -0.8074  0.1609
 1997SOL     OW 6448   2.816   5.991   2.575  0.1868  0.0999  0.4104
 1997SOL    HW1 6449   2.903   5.953   2.563 -0.1874 -0.3285 -1.0789
 1997SOL    HW2 6450   2.804   6.049   2.501 -0.8479  0.0619  0.5262
 1998SOL     OW 6451   3.702   5.460   1.367 -0.0629 -0.4691  0.1120
 1998SOL    HW1 6452   3.726   5.526   1.302  1.2163 -1.4284 -0.4257
 1998SOL    HW2 6453   3.647   5.508   1.430 -1.0454  0.5677 -1.4477
 1999SOL     OW 6454   6.174   3.887   0.203 -0.0481 -0.3866 -0.3153
 1999SOL    HW1 6455   6.183   3.948   0.129  1.4495  1.9851  1.6604
 1999SOL    HW2 6456   6.247   3.827   0.193 -0.3364 -0.6018 -1.2004
 2000SOL     OW 6457   1.200   3.672   2.425  0.1574 -0.0427  0.6525
 2000SOL    HW1 6458   1.239   3.759   2.424  0.1577 -0.0334  1.3223
 2000SOL    HW2 6459   1.167   3.660   2.336 -0.2326  0.8117  0.6744
 2001SOL     OW 6460   3.473   3.233   2.051 -0.3489  0.6317  0.0508
 2001SOL    HW1 6461   3.500   3.307   2.106 -0.7681  1.0044 -0.2309
 2001SOL    HW2 6462   3.440   3.168   2.113 -1.5631  1.3580  0.2193
 2002SOL     OW 6463   3.715   5.283   2.823  0.1850 -0.0443 -0.1908
 2002SOL    HW1 6464   3.751   5.233   2.750 -1.1120 -1.1357 -0.1242
 2002SOL    HW2 6465   3.645   5.335   2.784  0.0673  0.0387  0.1324
 2003SOL     OW 6466   4.569   3.012   5.536  0.6809 -0.5453 -0.5089
 2003SOL    HW1 6467   4.523   2.973   5.462 -0.1284 -0.8145  0.1266
 2003SOL    HW2 6468   4.515   3.087   5.562  1.2313 -0.1395 -0.5138
 2004SOL     OW 6469   2.889   6.304   0.135  0.0331  0.4088 -0.0761
 2004SOL    HW1 6470   2.848   6.390   0.143 -1.7239 -0.3489 -0.4632
 2004SOL    HW2 6471   2.934   6.291   0.219 -0.8656  1.1256  0.5355
 2005SOL     OW 6472   0.826   1.979   1.532  0.4573 -0.1902  0.0883
 2005SOL    HW1 6473   0.831   1.990   1.627 -0.7647  0.4110  0.1025
 2005SOL    HW2 6474   0.801   1.887   1.520 -0.4668  0.0152  0.3919
 2006SOL     OW 6475   2.730   4.261   2.440 -0.0517 -0.5101  0.1399
 2006SOL    HW1 6476   2.768   4.177   2.412 -0.7214 -0.6755 -0.2904
 2006SOL    HW2 6477   2.713   4.249   2.533 -0.4684 -0.9814  0.0081
 2007SOL     OW 6478   3.096   4.965   1.262  0.2394  0.2160  0.3994
 2007SOL    HW1 6479   3.136   5.046   1.231 -0.9711  0.4610 -0.5852
 2007SOL    HW2 6480   3.159   4.931   1.327  1.3550  1.2784 -0.0776
 2008SOL     OW 6481   3.444   6.019   1.051 -0.1047 -0.0463 -0.1964
 2008SOL    HW1 6482   3.417   6.033   1.141  1.9912 -0.0639  0.4993
 2008SOL    HW2 6483   3.503   6.093   1.032 -0.5089 -0.0394 -1.5552
 2009SOL     OW 6484   3.773   4.267   5.053  0.4581  0.5670 -0.1968
 2009SOL    HW1 6485   3.731   4.231   4.975  0.5782 -0.3963  0.1701
 2009SOL    HW2 6486   3.784   4.360   5.034  0.9191  0.2593 -1.5260
 2010SOL     OW 6487   4.657   3.965   0.146  0.8194  0.0158  0.2521
 2010SOL    HW1 6488   4.631   3.965   0.238  0.9834 -0.8998  0.3068
 2010SOL    HW2 6489   4.709   3.885   0.135  1.0472  0.2644 -0.5653
 2011SOL     OW 6490   0.955   2.189   5.172 -0.3212  0.0057  0.6736
 2011SOL    HW1 6491   0.942   2.271   5.220  0.8173  0.8030 -0.3317
 2011SOL    HW2 6492   0.876   2.180   5.118  0.4755  1.6085 -0.8418
 2012SOL     OW 6493   6.279   2.482   4.734 -0.3232  0.3233 -0.7578
 2012SOL    HW1 6494   6.259   2.403   4.684  1.0978 -0.7389  0.2588
 2012SOL    HW2 6495   6.195   2.509   4.771 -0.8022 -0.8285 -0.9667
 2013SOL     OW 6496   2.556   2.521   1.647  0.2195 -0.1623  0.0240
 2013SOL    HW1 6497   2.507   2.506   1.566 -1.6113  1.7526  0.6706
 2013SOL    HW2 6498   2.647   2.502   1.624  0.0829  2.0786 -3.0792
 2014SOL     OW 6499   3.310   1.963   6.306  0.0335  0.6325 -0.4239
 2014SOL    HW1 6500   3.382   1.915   6.266  0.4982  1.3279 -0.4459
 2014SOL    HW2 6501   3.253   1.985   6.232 -1.2943 -1.6811 -0.1553
 2015SOL     OW 6502   3.014   5.007   3.088 -0.3257 -0.5190 -0.1850
 2015SOL    HW1 6503   2.970   4.957   3.019 -3.2174  1.3186  0.1648
 2015SOL    HW2 6504   2.954   5.001   3.163  1.4044 -0.1587  1.2919
 2016SOL     OW 6505   4.233   4.164   0.590 -0.3538 -0.1862  0.2252
 2016SOL    HW1 6506   4.320   4.126   0.602  0.2110  1.3412  1.4421
 2016SOL    HW2 6507   4.219   4.162   0.495  0.4823 -1.5180  0.0962
 2017SOL     OW 6508   3.789   0.057   0.141 -0.9008  0.5577  0.6525
 2017SOL    HW1 6509   3.861   0.067   0.204 -0.4415  1.0191  0.0631
 2017SOL    HW2 6510   3.792   0.137   0.088 -1.2966  0.1840  0.0529
 2018SOL     OW 6511   3.784   0.843   2.251 -0.2382 -0.4029  0.2519
 2018SOL    HW1 6512   3.784   0.809   2.341  0.0826 -1.2283 -0.0501
 2018SOL    HW2 6513   3.694   0.833   2.221  0.0275 -1.8317 -0.1307
 2019SOL     OW 6514   4.067   3.260   0.359  0.2524  0.2735 -0.4158
 2019SOL    HW1 6515   4.131   3.219   0.417  0.2456  0.9099  0.0532
 2019SOL    HW2 6516   4.086   3.353   0.364  1.1287  0.2428 -2.5307
 2020SOL     OW 6517   4.712   3.386   5.744 -0.2484 -0.3020  0.2800
 2020SOL    HW1 6518   4.770   3.458   5.768 -0.4689 -0.0777  0.1422
 2020SOL    HW2 6519   4.737   3.314   5.802  0.8215 -0.5130 -0.4053
 2021SOL     OW 6520   5.949   0.071   2.005  0.3875 -0.3597 -0.4526
 2021SOL    HW1 6521   5.948   0.167   2.006  3.1627 -0.2277 -2.0441
 2021SOL    HW2 6522   5.906   0.046   2.087  0.9574  2.2535  0.7429
 2022SOL     OW 6523   5.368   2.418   4.310  0.2747 -0.2520 -0.0134
 2022SOL    HW1 6524   5.309   2.421   4.235 -0.8232  2.0742  0.8404
 2022SOL    HW2 6525   5.321   2.368   4.376 -0.6563  1.2668  0.5287
 2023SOL     OW 6526   3.370   6.289   0.061  0.3235  0.1790  0.4018
 2023SOL    HW1 6527   3.436   6.268   0.128  1.5745  1.2147 -0.4587
 2023SOL    HW2 6528   3.351   6.382   0.074 -0.4427  0.0612  0.1717
 2024SOL     OW 6529   0.037   3.874   2.624 -0.0963  0.1227 -0.4817
 2024SOL    HW1 6530   0.066   3.820   2.698 -1.3226 -0.5909 -0.5048
 2024SOL    HW2 6531   0.031   3.813   2.551  0.4590  0.7011 -1.0274
 2025SOL     OW 6532   1.362   5.703   5.371  0.4233  0.2509  0.2534
 2025SOL    HW1 6533   1.417   5.706   5.292  1.1145 -0.8928  0.6610
 2025SOL    HW2 6534   1.393   5.626   5.418  0.1859  1.0665  1.7816
 2026SOL     OW 6535   5.553   3.623   0.673  0.0043  0.1407  0.2861
 2026SOL    HW1 6536   5.541   3.530   0.657  2.2595 -0.3535  1.0817
 2026SOL    HW2 6537   5.528   3.666   0.591  0.6643 -1.3131 -0.7087
 2027SOL     OW 6538   5.229   2.980   1.288 -0.2205  1.1177  0.1385
 2027SOL    HW1 6539   5.296   2.918   1.259 -0.0966  0.2103  2.1841
 2027SOL    HW2 6540   5.251   3.062   1.243  0.5248  0.1158 -1.4414
 2028SOL     OW 6541   2.356   2.007   6.210 -0.0824  0.0426 -0.1374
 2028SOL    HW1 6542   2.306   1.927   6.193 -0.1705  0.1583 -0.4268
 2028SOL    HW2 6543   2.296   2.062   6.260 -0.0368 -0.0557  0.0252
 2029SOL     OW 6544   2.805   4.871   0.589 -1.1182  0.0262 -0.0642
 2029SOL    HW1 6545   2.818   4.960   0.556 -2.6833 -0.0025 -0.8231
 2029SOL    HW2 6546   2.886   4.826   0.565  0.1762  1.4911  1.3124
 2030SOL     OW 6547   0.614   3.823   1.570  0.3202 -0.7283  0.5135
 2030SOL    HW1 6548   0.644   3.903   1.613 -2.0187  1.3790 -1.4303
 2030SOL    HW2 6549   0.637   3.835   1.478 -0.3549 -2.1624  0.1334
 2031SOL     OW 6550   0.907   4.423   1.355  0.0516 -0.2171  0.3500
 2031SOL    HW1 6551   0.864   4.421   1.270 -0.4977  0.9281  0.5771
 2031SOL    HW2 6552   0.996   4.451   1.337 -0.1154  0.2001  0.1621
 2032SOL     OW 6553   1.856   5.046   1.635 -0.0750  0.5079  0.4131
 2032SOL    HW1 6554   1.773   5.002   1.616 -1.6427  3.3653  0.0718
 2032SOL    HW2 6555   1.884   5.010   1.719 -1.8334 -0.3132  0.6808
 2033SOL     OW 6556   2.856   2.673   3.587 -0.3340  0.1718  0.0112
 2033SOL    HW1 6557   2.830   2.628   3.506  0.9531 -1.1722  0.2977
 2033SOL    HW2 6558   2.773   2.700   3.627 -1.0310  0.1278 -1.3438
 2034SOL     OW 6559   2.651   5.422   6.364  0.0121 -0.0953  0.0336
 2034SOL    HW1 6560   2.585   5.491   6.369 -0.2708 -0.1589 -2.0572
 2034SOL    HW2 6561   2.607   5.345   6.402 -0.2623  0.4263  0.8110
 2035SOL     OW 6562   1.355   1.087   0.933 -0.0481  0.2659 -0.4718
 2035SOL    HW1 6563   1.328   1.160   0.878  1.7948  0.9369 -0.5761
 2035SOL    HW2 6564   1.335   1.009   0.881  2.3921  0.8957 -2.6098
 2036SOL     OW 6565   5.247   3.322   5.844  0.3338 -0.2717 -0.2881
 2036SOL    HW1 6566   5.169   3.270   5.828 -0.0467  0.3658 -0.5587
 2036SOL    HW2 6567   5.227   3.372   5.924  1.5629 -2.1796  1.2988
 2037SOL     OW 6568   1.169   1.095   4.898  0.3088 -0.3030 -0.1711
 2037SOL    HW1 6569   1.162   1.117   4.805  2.2010  1.1168 -0.0332
 2037SOL    HW2 6570   1.262   1.105   4.919  0.1434 -1.8212  1.6138
 2038SOL     OW 6571   1.891   2.123   5.735 -0.1322  0.3265 -0.2917
 2038SOL    HW1 6572   1.981   2.151   5.754 -0.9538  1.9682  1.4832
 2038SOL    HW2 6573   1.901   2.036   5.696  2.2010  0.2874  0.2457
 2039SOL     OW 6574   0.031   1.623   0.706  0.8589 -0.2966  0.1641
 2039SOL    HW1 6575   0.116   1.589   0.676  0.5298 -0.5622 -0.4782
 2039SOL    HW2 6576   0.037   1.621   0.802  1.4420 -0.6596  0.1243
 2040SOL     OW 6577   3.048   5.532   1.471 -0.1653  0.0232 -0.3385
 2040SOL    HW1 6578   2.978   5.492   1.418  0.1057 -2.7981  1.2544
 2040SOL    HW2 6579   3.001   5.587   1.534 -0.9032 -0.9755  0.0120
 2041SOL     OW 6580   4.184   2.792   4.867  0.4298  0.2750 -0.5590
 2041SOL    HW1 6581   4.252   2.734   4.833  0.6120  1.0392 -1.5536
 2041SOL    HW2 6582   4.232   2.864   4.909  0.2996  1.2433 -1.9793
 2042SOL     OW 6583   1.475   5.742   0.604  0.2507 -0.3832  0.3194
 2042SOL    HW1 6584   1.472   5.831   0.568  0.7560  0.2401  1.7318
 2042SOL    HW2 6585   1.553   5.703   0.565 -0.4916 -0.5492 -1.0317
 2043SOL     OW 6586   5.034   4.258   0.588  0.0483 -0.0878 -0.5069
 2043SOL    HW1 6587   4.965   4.255   0.521 -1.5436  0.6006  1.0206
 2043SOL    HW2 6588   5.021   4.342   0.631  1.3691 -0.2966  0.3536
 2044SOL     OW 6589   4.827   5.051   0.927  0.1562 -0.1983 -0.6599
 2044SOL    HW1 6590   4.767   5.049   0.852 -1.1180  0.0400  0.3087
 2044SOL    HW2 6591   4.792   4.986   0.988  0.4618  0.4533  0.2332
 2045SOL     OW 6592   3.447   2.525   5.073 -0.1949  0.0804 -0.3560
 2045SOL    HW1 6593   3.534   2.519   5.034 -0.8642 -0.6642 -1.8348
 2045SOL    HW2 6594   3.461   2.569   5.157  1.3921  1.2564 -1.1860
 2046SOL     OW 6595   2.044   0.205   2.802  0.2122  0.1776 -0.1873
 2046SOL    HW1 6596   2.061   0.198   2.896 -2.0083 -1.9719  0.1654
 2046SOL    HW2 6597   1.949   0.218   2.795 -0.0069 -1.8312 -2.1280
 2047SOL     OW 6598   4.772   2.353   4.563  0.2181  0.3214 -0.2547
 2047SOL    HW1 6599   4.702   2.351   4.628 -0.2085 -2.2991 -0.6751
 2047SOL    HW2 6600   4.727   2.349   4.479  0.8281  0.6898 -0.6049
 2048SOL     OW 6601   5.045   4.982   3.002  0.0944 -0.2862  0.2508
 2048SOL    HW1 6602   5.004   5.050   2.950  1.7328  0.2253 -0.4297
 2048SOL    HW2 6603   5.055   5.021   3.089 -1.7159 -0.7809  0.7235
 2049SOL     OW 6604   4.299   0.545   1.724  0.1591 -0.0395 -0.0598
 2049SOL    HW1 6605   4.275   0.453   1.719  1.9211 -0.4885 -1.4348
 2049SOL    HW2 6606   4.383   0.545   1.771  0.4868  0.7854 -0.6232
 2050SOL     OW 6607   0.705   4.458   5.307  0.1314 -0.2797 -0.2856
 2050SOL    HW1 6608   0.709   4.476   5.213  0.7382 -1.1988 -0.4538
 2050SOL    HW2 6609   0.692   4.363   5.312  1.2437 -0.4116  0.5575
 2051SOL     OW 6610   6.274   1.856   4.928  0.4119 -0.3717 -0.0150
 2051SOL    HW1 6611   6.330   1.841   5.003  1.4559  1.5440 -0.3391
 2051SOL    HW2 6612   6.322   1.919   4.874 -0.8599 -0.7239 -1.6683
 2052SOL     OW 6613   4.363   2.400   0.256 -0.0473 -0.2009  0.0067
 2052SOL    HW1 6614   4.408   2.323   0.291  2.3402  1.0277 -0.2022
 2052SOL    HW2 6615   4.408   2.474   0.295 -1.9508  1.1308 -0.2228
 2053SOL     OW 6616   3.978   2.085   4.631 -0.6385  0.2155 -0.5104
 2053SOL    HW1 6617   3.957   1.992   4.618 -1.1637  0.5952 -2.6847
 2053SOL    HW2 6618   4.051   2.084   4.693  0.5104 -1.7686 -1.7623
 2054SOL     OW 6619   0.426   3.539   0.597 -0.0837  0.6106 -0.6514
 2054SOL    HW1 6620   0.384   3.624   0.587 -0.6810  0.7794  2.3080
 2054SOL    HW2 6621   0.359   3.476   0.572 -1.3123  0.9637  1.4588
 2055SOL     OW 6622   4.547   1.792   4.894 -0.4922 -0.3884 -0.4735
 2055SOL    HW1 6623   4.633   1.797   4.852 -0.0790 -0.4376  0.3447
 2055SOL    HW2 6624   4.526   1.698   4.894  0.6436 -0.7182  1.5930
 2056SOL     OW 6625   2.585   2.201   2.137  0.0603  0.2222  0.3408
 2056SOL    HW1 6626   2.657   2.251   2.098  1.2702 -0.9568  0.9601
 2056SOL    HW2 6627   2.535   2.265   2.187  0.6871  1.0630 -0.0830
 2057SOL     OW 6628   4.860   4.402   4.010  0.3625  0.0483  0.0091
 2057SOL    HW1 6629   4.802   4.359   3.946  2.2868 -1.3432 -0.9011
 2057SOL    HW2 6630   4.800   4.433   4.078 -1.6695  0.6105 -1.8900
 2058SOL     OW 6631   0.514   2.117   2.413 -0.4903 -0.3734 -0.1605
 2058SOL    HW1 6632   0.580   2.050   2.391  0.7568  0.9225 -0.5313
 2058SOL    HW2 6633   0.527   2.185   2.347 -0.4734  1.0770  1.2867
 2059SOL     OW 6634   0.178   1.517   2.470  0.2765  0.3082  0.1413
 2059SOL    HW1 6635   0.230   1.597   2.478  1.9352 -0.5448 -1.3977
 2059SOL    HW2 6636   0.233   1.449   2.509  1.2364 -0.9376 -3.0924
 2060SOL     OW 6637   0.000   5.476   4.788 -0.4005 -0.3093  0.1677
 2060SOL    HW1 6638   0.090   5.497   4.763  0.2219 -0.9569  1.7194
 2060SOL    HW2 6639   0.001   5.381   4.801 -1.5270 -0.4365 -0.6137
 2061SOL     OW 6640   2.836   1.888   1.257  0.0457  0.0830 -0.0180
 2061SOL    HW1 6641   2.830   1.962   1.317  5.7619  0.3675  0.7525
 2061SOL    HW2 6642   2.802   1.814   1.306 -0.5030  1.2315  1.4162
 2062SOL     OW 6643   3.556   3.146   1.605 -0.0371  0.1624 -0.5722
 2062SOL    HW1 6644   3.595   3.160   1.518  0.9194  2.4307  0.1557
 2062SOL    HW2 6645   3.512   3.228   1.626  2.9134  1.1993  2.5704
 2063SOL     OW 6646   0.908   4.260   4.032 -0.5076  0.3412 -0.6274
 2063SOL    HW1 6647   0.887   4.346   4.066 -1.2799 -0.1873  0.2692
 2063SOL    HW2 6648   0.930   4.207   4.109  0.4763 -0.1327 -1.2070
 2064SOL     OW 6649   6.084   5.323   4.923  0.0499 -0.0580 -0.0944
 2064SOL    HW1 6650   6.022   5.272   4.870  0.0363 -2.0427  1.7123
 2064SOL    HW2 6651   6.154   5.347   4.862 -1.4272  0.4269 -1.6884
 2065SOL     OW 6652   2.726   2.765   1.446 -0.1564  0.0282 -0.2540
 2065SOL    HW1 6653   2.709   2.768   1.540 -0.2304  0.7615 -0.2844
 2065SOL    HW2 6654   2.706   2.675   1.421  1.0985 -0.5314  0.6536
 2066SOL     OW 6655   1.641   2.793   1.683  0.2049 -0.3261  0.1442
 2066SOL    HW1 6656   1.623   2.874   1.730 -1.1720 -0.2518 -0.4679
 2066SOL    HW2 6657   1.604   2.807   1.596 -1.3444 -2.0989  0.4523
 2067SOL     OW 6658   1.836   2.382   1.458  0.0423 -0.3116 -0.7965
 2067SOL    HW1 6659   1.786   2.384   1.540  0.1880 -0.1810 -0.7103
 2067SOL    HW2 6660   1.860   2.474   1.443 -0.1442 -0.3073 -1.0845
 2068SOL     OW 6661   6.266   3.797   3.091  0.1378 -0.2764 -0.3709
 2068SOL    HW1 6662   6.310   3.802   3.007 -1.4669 -0.1828 -1.2478
 2068SOL    HW2 6663   6.310   3.863   3.145  0.2594  0.6849 -1.6023
 2069SOL     OW 6664   2.433   4.906   2.338 -0.1068 -0.8607 -0.3362
 2069SOL    HW1 6665   2.486   4.982   2.314 -0.7497 -0.4633 -0.5137
 2069SOL    HW2 6666   2.425   4.912   2.433 -0.2501 -0.6426 -0.3617
 2070SOL     OW 6667   2.218   2.030   4.120 -0.0480  0.1789 -0.4849
 2070SOL    HW1 6668   2.306   2.000   4.142  0.0818  2.1886  2.2534
 2070SOL    HW2 6669   2.164   2.004   4.194 -0.6559  3.2353  0.2957
 2071SOL     OW 6670   3.806   2.276   0.089 -0.4633  0.3971  0.2521
 2071SOL    HW1 6671   3.798   2.324   0.007  1.7728  1.6467  0.6818
 2071SOL    HW2 6672   3.845   2.339   0.150 -0.9736 -0.8522  1.9483
 2072SOL     OW 6673   0.531   0.462   5.884 -0.4124  0.0474 -0.1040
 2072SOL    HW1 6674   0.494   0.478   5.797  1.0719 -2.1694 -1.2287
 2072SOL    HW2 6675   0.555   0.370   5.884  0.3758  0.1759  2.3887
 2073SOL     OW 6676   3.828   6.370   4.545 -0.3207 -0.5425 -0.2956
 2073SOL    HW1 6677   3.802   6.280   4.527 -0.3835 -0.3211 -1.3271
 2073SOL    HW2 6678   3.802   6.419   4.467  0.3522  0.2433 -0.0341
 2074SOL     OW 6679   0.032   2.059   6.230  0.1620  0.1631 -0.6858
 2074SOL    HW1 6680   0.066   2.148   6.235 -0.8071  0.4836  0.5630
 2074SOL    HW2 6681   0.041   2.035   6.138 -0.1789  1.8020 -1.1786
 2075SOL     OW 6682   3.412   4.877   6.313  0.3542 -0.3111  0.2529
 2075SOL    HW1 6683   3.439   4.883   6.221  0.1400  1.4252  0.2715
 2075SOL    HW2 6684   3.337   4.818   6.312  0.1018  0.0011 -0.7568
 2076SOL     OW 6685   0.436   2.307   4.307 -0.2363 -0.4732  0.6726
 2076SOL    HW1 6686   0.494   2.375   4.340  2.7238 -1.9889 -1.0228
 2076SOL    HW2 6687   0.389   2.275   4.384  1.5114  0.5344  2.2170
 2077SOL     OW 6688   1.517   5.705   2.090 -0.8967  0.3972 -0.1516
 2077SOL    HW1 6689   1.581   5.705   2.162 -1.1240 -1.0388  0.0835
 2077SOL    HW2 6690   1.491   5.797   2.081 -0.3969  0.6982  1.1983
 2078SOL     OW 6691   2.410   4.568   5.758 -0.0009  0.3961 -0.7278
 2078SOL    HW1 6692   2.381   4.656   5.781 -2.8260 -0.4857 -0.4809
 2078SOL    HW2 6693   2.389   4.559   5.665  0.4253  0.0529 -0.7931
 2079SOL     OW 6694   4.102   1.505   1.341  0.5833 -0.3615 -0.0854
 2079SOL    HW1 6695   4.058   1.549   1.413 -1.7875  0.5700 -1.9702
 2079SOL    HW2 6696   4.048   1.428   1.322  0.7547 -0.2126 -1.2822
 2080SOL     OW 6697   3.819   2.445   3.496 -0.0402  0.0833  0.4666
 2080SOL    HW1 6698   3.772   2.493   3.428  0.0915  0.5959  0.7325
 2080SOL    HW2 6699   3.893   2.405   3.450 -1.9255 -2.6331 -0.4355
 2081SOL     OW 6700   0.143   2.984   5.049  0.2238  0.0900  0.1365
 2081SOL    HW1 6701   0.171   2.986   4.957  1.5592 -2.1996  0.4036
 2081SOL    HW2 6702   0.062   2.933   5.048  1.9412 -2.8990  0.4600
 2082SOL     OW 6703   1.625   2.648   2.007 -0.6496  0.4655 -0.6246
 2082SOL    HW1 6704   1.607   2.738   2.034  0.8308  0.1282  1.7544
 2082SOL    HW2 6705   1.715   2.651   1.975 -0.6033 -0.1801 -0.5570
 2083SOL     OW 6706   2.791   1.881   1.545 -0.6202  0.6859 -0.1407
 2083SOL    HW1 6707   2.874   1.834   1.548  0.1334  1.8200 -1.7555
 2083SOL    HW2 6708   2.729   1.823   1.589  0.6430 -0.9899 -0.4676
 2084SOL     OW 6709   1.191   0.224   5.061 -0.2687 -0.3196 -0.5300
 2084SOL    HW1 6710   1.213   0.295   5.000 -1.8102  2.3965  1.7987
 2084SOL    HW2 6711   1.275   0.184   5.083  0.4381 -0.7652 -3.5218
 2085SOL     OW 6712   1.229   5.919   0.139  0.2433  0.4017  0.2063
 2085SOL    HW1 6713   1.320   5.943   0.120 -0.1785  1.6592 -0.2960
 2085SOL    HW2 6714   1.191   5.900   0.054  0.4772 -1.9663  0.5371
 2086SOL     OW 6715   4.054   4.526   1.736 -0.6018  0.3624  0.4934
 2086SOL    HW1 6716   3.966   4.488   1.731 -0.5547 -0.3149  3.2745
 2086SOL    HW2 6717   4.106   4.461   1.782  1.5569  0.5559 -1.4855
 2087SOL     OW 6718   5.063   2.606   3.010  0.5797 -0.6078 -0.3952
 2087SOL    HW1 6719   5.107   2.676   2.961 -1.1566  0.3238 -0.6760
 2087SOL    HW2 6720   5.051   2.643   3.098 -1.5090 -0.0018 -0.8935
 2088SOL     OW 6721   0.657   1.957   5.647 -0.5640  0.5377 -0.4155
 2088SOL    HW1 6722   0.704   1.901   5.708 -0.5627  1.3685  0.3564
 2088SOL    HW2 6723   0.633   1.898   5.575 -3.5886 -1.3994  1.8854
 2089SOL     OW 6724   0.957   2.215   3.468 -0.3883  0.0771 -0.2298
 2089SOL    HW1 6725   1.001   2.300   3.456 -0.4267  0.2637  0.8806
 2089SOL    HW2 6726   0.880   2.220   3.411 -0.9077  1.1680  0.5304
 2090SOL     OW 6727   3.396   5.865   5.930 -0.4911  0.2594 -0.3518
 2090SOL    HW1 6728   3.365   5.822   5.850 -0.9804 -0.8879  0.4440
 2090SOL    HW2 6729   3.457   5.803   5.969 -0.5000  0.6759  0.3383
 2091SOL     OW 6730   4.921   0.694   0.785  0.1960 -0.6958 -0.0245
 2091SOL    HW1 6731   4.904   0.600   0.773  1.2896 -0.7526 -1.4346
 2091SOL    HW2 6732   5.012   0.698   0.814 -0.3893 -0.1270  1.8790
 2092SOL     OW 6733   2.630   1.006   5.175  0.4974 -0.3041  0.3875
 2092SOL    HW1 6734   2.571   0.946   5.130  1.5767 -0.9816 -0.1861
 2092SOL    HW2 6735   2.615   1.091   5.135 -0.0292 -0.4810  0.2059
 2093SOL     OW 6736   4.004   5.391   4.079 -0.1771  0.3785  0.4995
 2093SOL    HW1 6737   4.036   5.393   3.988  2.4778 -0.8472  1.3130
 2093SOL    HW2 6738   3.928   5.333   4.076 -0.3864  0.6798 -0.9844
 2094SOL     OW 6739   0.960   2.597   3.231 -0.2060  0.0415 -0.4345
 2094SOL    HW1 6740   0.875   2.640   3.238 -0.7608 -1.0702 -0.0441
 2094SOL    HW2 6741   1.022   2.668   3.213 -0.7384  1.3010  2.2985
 2095SOL     OW 6742   2.491   0.668   5.740 -0.2436  0.0802 -0.0545
 2095SOL    HW1 6743   2.573   0.650   5.694 -0.8079  0.3807 -1.2153
 2095SOL    HW2 6744   2.478   0.762   5.729 -1.0497 -0.0665 -0.4229
 2096SOL     OW 6745   0.680   6.207   4.375  0.3780  0.1778  0.7358
 2096SOL    HW1 6746   0.688   6.185   4.468 -2.5015  0.3564  1.1260
 2096SOL    HW2 6747   0.636   6.132   4.336  1.4730  0.1452 -0.5129
 2097SOL     OW 6748   0.766   4.841   6.295  0.0883  0.8761  0.2940
 2097SOL    HW1 6749   0.681   4.807   6.321  0.8078 -0.0106  1.6124
 2097SOL    HW2 6750   0.795   4.783   6.224 -0.0418  0.6533  0.4232
 2098SOL     OW 6751   2.350   0.557   2.240  0.3033 -0.0828  0.2800
 2098SOL    HW1 6752   2.408   0.629   2.264  1.3388 -1.3023  1.5776
 2098SOL    HW2 6753   2.382   0.529   2.154  0.5991  0.2806  0.2691
 2099SOL     OW 6754   4.376   1.674   3.561  0.4774 -0.7132  0.1743
 2099SOL    HW1 6755   4.445   1.699   3.622 -0.3220 -0.1459  0.8735
 2099SOL    HW2 6756   4.415   1.684   3.474  0.5253  2.0296  0.4384
 2100SOL     OW 6757   2.860   3.754   5.362 -0.3515  0.1367  0.7597
 2100SOL    HW1 6758   2.918   3.828   5.349  0.4306 -0.5388  0.2946
 2100SOL    HW2 6759   2.875   3.698   5.286 -2.1841  0.3062  0.2253
 2101SOL     OW 6760   5.171   4.273   5.657  0.0325  0.1200  0.3841
 2101SOL    HW1 6761   5.215   4.269   5.573  0.5103 -2.4637  0.6604
 2101SOL    HW2 6762   5.185   4.362   5.688  0.6880  0.8309 -1.7943
 2102SOL     OW 6763   4.330   4.875   6.165  0.5968  0.1540 -0.0871
 2102SOL    HW1 6764   4.341   4.782   6.186  1.8270 -0.3910 -2.7386
 2102SOL    HW2 6765   4.315   4.876   6.071  2.5933  2.7477 -0.4825
 2103SOL     OW 6766   5.067   0.665   3.608  0.0131 -0.5772 -0.1090
 2103SOL    HW1 6767   5.058   0.595   3.672  0.4080 -1.0260 -0.5336
 2103SOL    HW2 6768   4.977   0.684   3.580 -0.1387 -0.5540  0.3871
 2104SOL     OW 6769   4.390   6.273   0.472 -0.1492 -0.0024 -0.1834
 2104SOL    HW1 6770   4.432   6.214   0.411 -1.2533 -1.6641  0.5672
 2104SOL    HW2 6771   4.297   6.269   0.449 -0.6933 -1.1968  1.9293
 2105SOL     OW 6772   2.551   0.892   0.041  0.3785  0.4010 -0.7304
 2105SOL    HW1 6773   2.536   0.850   0.125 -0.4494  1.3477 -0.3867
 2105SOL    HW2 6774   2.521   0.829  -0.025 -0.0570  0.1210 -0.2643
 2106SOL     OW 6775   2.408   2.657   5.545 -0.4338 -0.2751  0.1928
 2106SOL    HW1 6776   2.314   2.645   5.556 -0.1613 -0.8342  2.2500
 2106SOL    HW2 6777   2.439   2.686   5.631  1.2669  0.0284 -0.4817
 2107SOL     OW 6778   1.407   6.249   6.106 -0.4843  0.5833 -0.2918
 2107SOL    HW1 6779   1.379   6.226   6.017  0.5959 -0.4212 -0.3925
 2107SOL    HW2 6780   1.327   6.277   6.149 -1.2059  0.1368 -1.2883
 2108SOL     OW 6781   5.365   3.119   3.156 -0.0912 -0.4557 -0.3083
 2108SOL    HW1 6782   5.331   3.138   3.069  1.6736  1.2984 -0.6909
 2108SOL    HW2 6783   5.431   3.051   3.142 -1.5738 -2.0342  0.0752
 2109SOL     OW 6784   4.246   5.877   6.032  0.0242  0.0809  0.3292
 2109SOL    HW1 6785   4.258   5.915   5.945 -1.9386  3.9147  1.5317
 2109SOL    HW2 6786   4.330   5.893   6.076  0.3494 -0.0391 -0.2376
 2110SOL     OW 6787   1.944   1.325   1.775 -0.1747 -0.0180  0.0857
 2110SOL    HW1 6788   1.920   1.349   1.685 -0.7629 -0.4723  0.1191
 2110SOL    HW2 6789   1.894   1.246   1.793 -0.4063  0.3278  0.9836
 2111SOL     OW 6790   0.655   0.902   4.899  0.0735 -0.0796  0.1667
 2111SOL    HW1 6791   0.633   0.913   4.992 -0.0210  1.0183  0.0312
 2111SOL    HW2 6792   0.749   0.883   4.899 -0.0974 -0.9627  0.5299
 2112SOL     OW 6793   6.312   4.241   3.161  0.1893  0.1350  0.1516
 2112SOL    HW1 6794   6.347   4.193   3.085 -0.6734 -0.9604  0.4208
 2112SOL    HW2 6795   6.255   4.178   3.205 -1.8330  1.7296 -0.0530
 2113SOL     OW 6796   4.387   5.292   1.421  0.0984  0.1273  0.0584
 2113SOL    HW1 6797   4.293   5.301   1.404  0.3923 -0.9884 -2.6395
 2113SOL    HW2 6798   4.419   5.382   1.428 -0.6885  0.6851 -2.5199
 2114SOL     OW 6799   4.135   4.137   0.341  0.2472 -0.1439  0.3068
 2114SOL    HW1 6800   4.072   4.080   0.296  0.2566 -0.0997  0.2375
 2114SOL    HW2 6801   4.210   4.141   0.282 -0.2064  0.8568 -0.2196
 2115SOL     OW 6802   0.594   1.807   5.430 -0.4142  0.2644  0.2625
 2115SOL    HW1 6803   0.546   1.881   5.392 -0.9879  0.7362  1.8373
 2115SOL    HW2 6804   0.663   1.788   5.366 -0.9211  1.4582 -0.6788
 2116SOL     OW 6805   4.123   0.550   4.485 -0.6367 -0.1547  0.1449
 2116SOL    HW1 6806   4.079   0.468   4.506  0.3343 -0.7186  0.0313
 2116SOL    HW2 6807   4.182   0.565   4.559 -0.0626 -0.0958 -0.3241
 2117SOL     OW 6808   3.822   0.437   3.316  0.5530  0.1909 -0.3145
 2117SOL    HW1 6809   3.819   0.530   3.337 -1.1395  0.4868 -1.6325
 2117SOL    HW2 6810   3.826   0.435   3.220 -0.0114 -1.0947 -0.3224
 2118SOL     OW 6811   2.859   3.689   6.027  0.3254 -0.4511 -0.4737
 2118SOL    HW1 6812   2.906   3.610   6.001 -0.3898 -0.6391 -1.2493
 2118SOL    HW2 6813   2.767   3.666   6.016  0.1140  0.5627 -0.9555
 2119SOL     OW 6814   2.873   1.889   2.080  0.2909  0.3620  0.3256
 2119SOL    HW1 6815   2.780   1.910   2.085  0.3044  0.8100 -1.0225
 2119SOL    HW2 6816   2.913   1.963   2.035  0.7898 -1.1486 -1.8853
 2120SOL     OW 6817   1.528   5.984   0.512 -0.4092 -0.1818 -0.6087
 2120SOL    HW1 6818   1.550   6.041   0.586 -1.9875 -0.0206 -0.2409
 2120SOL    HW2 6819   1.535   6.041   0.436 -0.4479  0.0941 -0.4077
 2121SOL     OW 6820   1.708   5.640   2.597 -0.1209  0.0348  0.1358
 2121SOL    HW1 6821   1.636   5.602   2.547  2.2230 -1.5820 -2.2920
 2121SOL    HW2 6822   1.706   5.733   2.576 -2.2410  0.2929  1.2225
 2122SOL     OW 6823   3.832   1.100   2.443 -0.1565  0.5316  0.5805
 2122SOL    HW1 6824   3.825   1.078   2.350  2.0688  2.5945 -0.1816
 2122SOL    HW2 6825   3.811   1.018   2.488 -2.5830 -0.2313 -1.6290
 2123SOL     OW 6826   0.907   3.708   2.817 -0.0696 -0.2474 -0.5073
 2123SOL    HW1 6827   0.916   3.742   2.728  2.0859  0.0038 -0.2531
 2123SOL    HW2 6828   0.927   3.615   2.809  1.2529 -0.0208 -0.1739
 2124SOL     OW 6829   4.211   5.711   1.707  0.3506 -0.4756 -0.3152
 2124SOL    HW1 6830   4.236   5.628   1.747  0.2686 -0.4557 -0.2218
 2124SOL    HW2 6831   4.210   5.694   1.613 -3.6673 -1.7442 -0.2514
 2125SOL     OW 6832   2.032   3.333   2.143  0.0845  0.4335  0.0919
 2125SOL    HW1 6833   1.987   3.372   2.068 -2.2214 -2.7973 -0.4589
 2125SOL    HW2 6834   2.125   3.351   2.128 -0.5657  2.6332 -1.7795
 2126SOL     OW 6835   1.390   4.944   2.656  0.2404  0.7360 -0.0297
 2126SOL    HW1 6836   1.408   5.029   2.696 -1.1027  0.2295  1.7839
 2126SOL    HW2 6837   1.320   4.962   2.593  0.6445  1.1223 -0.3760
 2127SOL     OW 6838   6.106   3.228   5.757  0.2455 -0.2167 -0.0380
 2127SOL    HW1 6839   6.092   3.222   5.662 -1.1198  1.2954  0.0298
 2127SOL    HW2 6840   6.034   3.177   5.795  1.8594 -2.4303  0.2146
 2128SOL     OW 6841   0.014   3.402   6.371 -0.0952 -0.2433  0.7058
 2128SOL    HW1 6842   0.069   3.472   6.336  0.8937 -0.8387  1.0452
 2128SOL    HW2 6843  -0.074   3.421   6.336  0.6422 -0.2700 -1.3332
 2129SOL     OW 6844   1.224   3.130   1.548 -0.2078 -0.0811  0.4564
 2129SOL    HW1 6845   1.154   3.147   1.486 -0.5548  0.0379  0.8699
 2129SOL    HW2 6846   1.303   3.167   1.508 -0.5648  0.6393  0.4089
 2130SOL     OW 6847   5.870   3.491   4.445  0.0383 -0.0115  0.0760
 2130SOL    HW1 6848   5.909   3.412   4.407  0.2245  0.1228 -0.0117
 2130SOL    HW2 6849   5.784   3.462   4.476  0.9834 -0.8263  2.1341
 2131SOL     OW 6850   0.140   0.640   0.265 -0.5337 -0.2623 -0.2096
 2131SOL    HW1 6851   0.219   0.593   0.240  0.0582  0.7607 -0.3254
 2131SOL    HW2 6852   0.068   0.581   0.243  0.1828 -1.0483 -0.4572
 2132SOL     OW 6853   0.900   0.454   2.475 -0.0209  0.2626  0.0271
 2132SOL    HW1 6854   0.891   0.485   2.565 -0.2629  0.0887  0.0652
 2132SOL    HW2 6855   0.832   0.387   2.466  2.3038 -2.4203  0.8796
 2133SOL     OW 6856   4.616   1.670   3.043 -0.0463 -0.4157  0.0167
 2133SOL    HW1 6857   4.705   1.671   3.008 -0.2704 -1.3928 -0.6245
 2133SOL    HW2 6858   4.580   1.586   3.015 -1.4477  0.2986 -0.4481
 2134SOL     OW 6859   1.335   1.621   1.330 -0.3599  0.0894  0.2428
 2134SOL    HW1 6860   1.370   1.694   1.381 -2.0107  1.4120 -0.4042
 2134SOL    HW2 6861   1.409   1.586   1.282  0.7356  0.4396  1.6228
 2135SOL     OW 6862   0.213   4.724   4.019  0.4327 -0.4358 -0.4134
 2135SOL    HW1 6863   0.184   4.757   3.933 -2.4315 -0.5127  0.4037
 2135SOL    HW2 6864   0.256   4.641   3.999  1.9849  0.6521 -1.9392
 2136SOL     OW 6865   3.713   5.910   2.820  0.8411 -0.4024  0.7880
 2136SOL    HW1 6866   3.794   5.916   2.871  0.5013  1.6250  1.1551
 2136SOL    HW2 6867   3.677   5.999   2.820 -1.3787 -1.2232  0.6133
 2137SOL     OW 6868   4.581   2.847   2.162 -0.4648 -0.0451 -0.1066
 2137SOL    HW1 6869   4.657   2.789   2.157  0.5169  1.1899 -0.2070
 2137SOL    HW2 6870   4.612   2.930   2.123 -1.5274  0.8180  0.8230
 2138SOL     OW 6871   0.579   1.329   0.986 -0.0732  0.0364  0.0771
 2138SOL    HW1 6872   0.542   1.327   1.074 -0.6871  1.0459 -0.1429
 2138SOL    HW2 6873   0.605   1.239   0.969 -2.0657 -0.6464  0.3964
 2139SOL     OW 6874   5.892   1.033   1.632  0.1960  0.1695 -0.5126
 2139SOL    HW1 6875   5.985   1.021   1.654  0.8511  0.0133 -3.0070
 2139SOL    HW2 6876   5.849   1.050   1.715  2.4396  0.0355  0.7414
 2140SOL     OW 6877   5.815   2.762   3.737  0.0663  0.5176 -0.2415
 2140SOL    HW1 6878   5.880   2.807   3.682 -1.9564  0.4904 -2.9010
 2140SOL    HW2 6879   5.838   2.670   3.732  0.5553  0.6318 -0.1041
 2141SOL     OW 6880   2.005   3.391   2.913  0.4335  0.0238 -0.0921
 2141SOL    HW1 6881   2.022   3.299   2.931 -1.4626 -0.6424 -1.4315
 2141SOL    HW2 6882   1.916   3.393   2.877  1.2082  2.1006 -2.1611
 2142SOL     OW 6883   1.718   3.081   3.413 -0.4471  0.0948 -0.4375
 2142SOL    HW1 6884   1.739   3.133   3.335 -1.0108 -0.0703 -0.7067
 2142SOL    HW2 6885   1.755   3.130   3.486  0.7377 -0.1144 -0.8729
 2143SOL     OW 6886   0.266   3.903   3.257 -0.4985  0.4481 -0.5019
 2143SOL    HW1 6887   0.270   3.886   3.351 -1.4271 -1.6125 -0.7776
 2143SOL    HW2 6888   0.350   3.873   3.223 -0.9167 -0.7162 -0.5570
 2144SOL     OW 6889   4.697   5.902   1.894 -0.4838  0.3357  0.1675
 2144SOL    HW1 6890   4.657   5.981   1.930  1.5308  1.1234  0.8403
 2144SOL    HW2 6891   4.731   5.855   1.970 -0.8928 -0.7551 -0.2985
 2145SOL     OW 6892   2.532   5.483   1.413 -0.7293  0.0234 -0.4184
 2145SOL    HW1 6893   2.466   5.455   1.350 -1.5010 -0.4067  0.5408
 2145SOL    HW2 6894   2.519   5.577   1.421 -1.4256 -0.0940 -0.0467
 2146SOL     OW 6895   6.333   5.011   2.239 -0.0543 -0.3978  0.1566
 2146SOL    HW1 6896   6.363   5.100   2.224 -1.2391 -0.0574 -0.3507
 2146SOL    HW2 6897   6.311   4.977   2.152  0.1701 -1.1108  0.3649
 2147SOL     OW 6898   6.380   3.674   0.168 -0.8303  0.7367 -0.3084
 2147SOL    HW1 6899   6.455   3.725   0.198 -1.6555  1.0536  1.3791
 2147SOL    HW2 6900   6.408   3.635   0.086  1.1216  0.9561  0.2036
 2148SOL     OW 6901   3.977   2.656   0.440  0.8704 -0.1252  0.0516
 2148SOL    HW1 6902   3.941   2.606   0.513 -0.9458  1.6300  0.4490
 2148SOL    HW2 6903   3.993   2.743   0.476  0.2005  0.7018 -1.5278
 2149SOL     OW 6904   0.052   3.827   1.336  0.2151  0.6477 -0.0901
 2149SOL    HW1 6905   0.130   3.883   1.334  1.4500 -0.9276  1.1235
 2149SOL    HW2 6906   0.080   3.744   1.298 -0.7510 -0.0764  0.7024
 2150SOL     OW 6907   4.849   4.064   1.561 -0.5573  0.1691  0.3155
 2150SOL    HW1 6908   4.901   4.015   1.625  0.7761  0.7130 -0.3039
 2150SOL    HW2 6909   4.856   4.013   1.481  1.2200  1.5016 -0.4624
 2151SOL     OW 6910   4.846   5.948   1.352  0.1141  1.1400  0.1312
 2151SOL    HW1 6911   4.766   5.913   1.314  1.1964 -1.1734 -0.2108
 2151SOL    HW2 6912   4.824   5.962   1.444 -0.4724 -0.3449  0.2560
 2152SOL     OW 6913   5.385   0.707   2.879  0.0949  0.5373  0.4451
 2152SOL    HW1 6914   5.479   0.722   2.881 -0.1807  2.4546  0.7779
 2152SOL    HW2 6915   5.350   0.775   2.821 -1.2122  0.8069  1.4827
 2153SOL     OW 6916   1.687   3.653   1.587  0.1250  0.1563  0.3829
 2153SOL    HW1 6917   1.678   3.682   1.678 -1.4997  1.1786 -0.0437
 2153SOL    HW2 6918   1.658   3.729   1.536  0.2987 -0.6620 -0.9661
 2154SOL     OW 6919   2.891   5.838   4.895 -0.0326 -0.4404 -0.1377
 2154SOL    HW1 6920   2.847   5.805   4.973 -0.6503 -1.6123 -0.9496
 2154SOL    HW2 6921   2.966   5.886   4.929  0.2189 -1.6741  1.1582
 2155SOL     OW 6922   4.263   4.608   3.081 -0.8942 -0.1841  0.0919
 2155SOL    HW1 6923   4.293   4.666   3.011 -1.7731 -0.3281 -0.4117
 2155SOL    HW2 6924   4.305   4.643   3.160 -2.0183  1.6443 -0.0588
 2156SOL     OW 6925   5.154   0.589   2.764 -0.5039 -0.1346  0.9760
 2156SOL    HW1 6926   5.150   0.673   2.719  1.5275 -0.0014  0.9433
 2156SOL    HW2 6927   5.247   0.576   2.783 -0.6318 -2.7390  0.2653
 2157SOL     OW 6928   2.509   2.894   1.543  0.0726 -0.9081  0.5882
 2157SOL    HW1 6929   2.564   2.867   1.470 -0.3170 -1.1544  0.3839
 2157SOL    HW2 6930   2.485   2.984   1.522 -0.0898 -0.9983  0.3773
 2158SOL     OW 6931   6.288   1.143   5.103  0.0948  0.0483 -0.2589
 2158SOL    HW1 6932   6.352   1.207   5.133  0.5384 -0.3953 -0.2516
 2158SOL    HW2 6933   6.208   1.164   5.152  0.9297 -0.9914  1.6906
 2159SOL     OW 6934   4.498   0.899   1.881 -0.4062  0.1465  0.4907
 2159SOL    HW1 6935   4.554   0.966   1.921  1.4225 -0.3854 -0.9922
 2159SOL    HW2 6936   4.505   0.916   1.787  0.0888 -2.0744  0.0780
 2160SOL     OW 6937   4.267   4.707   4.670 -0.0087  0.2399 -0.3014
 2160SOL    HW1 6938   4.183   4.667   4.691  0.5508 -1.5378 -1.2155
 2160SOL    HW2 6939   4.245   4.790   4.627 -1.2421  0.4689  0.7360
 2161SOL     OW 6940   4.575   5.554   0.100 -0.1616 -0.1213 -0.2828
 2161SOL    HW1 6941   4.517   5.594   0.035 -1.2962 -1.4104 -0.1022
 2161SOL    HW2 6942   4.521   5.489   0.144  1.2124 -0.8055  0.4603
 2162SOL     OW 6943   6.164   3.702   0.454  0.2613  0.0434 -0.2988
 2162SOL    HW1 6944   6.217   3.622   0.454 -0.6293 -0.5966 -2.0427
 2162SOL    HW2 6945   6.132   3.709   0.544  2.2903 -0.1927  0.5071
 2163SOL     OW 6946   6.109   4.826   0.319 -0.4571  0.1689 -0.2271
 2163SOL    HW1 6947   6.043   4.819   0.249 -0.4673  1.0933 -0.3174
 2163SOL    HW2 6948   6.174   4.887   0.284  0.9529 -1.4204 -0.5170
 2164SOL     OW 6949   5.142   4.153   6.208 -0.0673  0.0548 -0.1477
 2164SOL    HW1 6950   5.188   4.069   6.200  0.2782  0.1741  0.5370
 2164SOL    HW2 6951   5.212   4.218   6.201  0.1162  0.2156  2.3254
 2165SOL     OW 6952   3.917   6.244   3.691  0.2595  0.7593  0.4580
 2165SOL    HW1 6953   3.942   6.184   3.621 -0.2071 -0.6343  1.4222
 2165SOL    HW2 6954   3.915   6.330   3.650  1.0622  0.1367 -0.9610
 2166SOL     OW 6955   3.080   1.777   1.170 -0.2683 -0.3617  0.0731
 2166SOL    HW1 6956   3.145   1.847   1.170 -0.3059 -0.2452 -2.1797
 2166SOL    HW2 6957   3.001   1.817   1.206  0.1270  0.3233  0.1954
 2167SOL     OW 6958   5.643   3.676   3.353 -0.6679  0.5665  0.2226
 2167SOL    HW1 6959   5.726   3.693   3.308 -0.9067 -1.2782 -1.0154
 2167SOL    HW2 6960   5.583   3.741   3.317 -0.0420  1.2495  0.3686
 2168SOL     OW 6961   5.318   1.477   5.414 -0.3375  0.3517  0.5394
 2168SOL    HW1 6962   5.403   1.520   5.408 -0.1726 -0.0155  0.1446
 2168SOL    HW2 6963   5.321   1.409   5.346 -0.6184 -0.2222  1.0952
 2169SOL     OW 6964   1.000   3.458   5.512 -0.4146 -0.2341  0.0952
 2169SOL    HW1 6965   0.927   3.411   5.552  0.9909 -1.1901  1.6282
 2169SOL    HW2 6966   0.965   3.486   5.427 -2.7762 -0.0468  1.0275
 2170SOL     OW 6967   1.102   5.999   4.417  0.4869 -0.6829 -0.0666
 2170SOL    HW1 6968   1.089   6.068   4.481  1.5193  0.2544 -0.8358
 2170SOL    HW2 6969   1.197   5.993   4.405  0.3249 -0.7729 -1.5516
 2171SOL     OW 6970   3.741   1.360   1.101 -0.2047 -0.1001  0.4688
 2171SOL    HW1 6971   3.735   1.455   1.110 -1.2150 -0.1813  0.6678
 2171SOL    HW2 6972   3.663   1.335   1.052  2.1353 -0.3356 -3.5953
 2172SOL     OW 6973   3.218   5.842   3.043  0.2677  0.0012  0.0864
 2172SOL    HW1 6974   3.273   5.776   3.001 -1.9906 -1.9958 -0.0008
 2172SOL    HW2 6975   3.273   5.920   3.049  2.5256 -1.3679 -1.3658
 2173SOL     OW 6976   1.461   0.790   2.668  0.5627  0.1806  0.4641
 2173SOL    HW1 6977   1.540   0.746   2.696  1.4200  1.5318  0.2646
 2173SOL    HW2 6978   1.456   0.869   2.723  0.0271  0.7338 -0.3434
 2174SOL     OW 6979   5.371   2.401   5.500 -0.0358 -0.0303  0.3564
 2174SOL    HW1 6980   5.444   2.375   5.556  0.1207  0.2555  0.2815
 2174SOL    HW2 6981   5.348   2.321   5.452 -0.3056 -0.3352  0.9761
 2175SOL     OW 6982   3.077   5.756   4.254  0.2178  0.4049  0.3181
 2175SOL    HW1 6983   3.020   5.689   4.216 -0.5949  1.5446 -0.5301
 2175SOL    HW2 6984   3.022   5.803   4.316  0.8396  0.1837  1.0616
 2176SOL     OW 6985   1.406   6.127   0.079  0.0349  0.3685 -0.2817
 2176SOL    HW1 6986   1.434   6.195   0.017 -0.9689 -0.9695 -2.3038
 2176SOL    HW2 6987   1.314   6.145   0.095  0.4498  1.1574  1.5475
 2177SOL     OW 6988   3.575   5.498   0.983  0.0915 -0.5840  0.3494
 2177SOL    HW1 6989   3.605   5.408   0.978 -0.8235 -0.8306 -2.0236
 2177SOL    HW2 6990   3.480   5.491   0.995  0.1310  0.0684  1.0795
 2178SOL     OW 6991   0.856   1.639   5.427 -0.3041 -0.5664  0.1422
 2178SOL    HW1 6992   0.804   1.563   5.400 -1.0759 -0.1259  0.3460
 2178SOL    HW2 6993   0.872   1.686   5.346  1.5046 -1.7210 -0.2253
 2179SOL     OW 6994   1.743   5.711   0.847  0.6028 -0.3731  0.3416
 2179SOL    HW1 6995   1.660   5.753   0.868 -0.1101 -0.8122 -1.4985
 2179SOL    HW2 6996   1.743   5.630   0.898 -0.0997 -0.3729  0.3431
 2180SOL     OW 6997   2.773   5.601   1.969  0.4618 -0.0910 -0.1645
 2180SOL    HW1 6998   2.815   5.595   1.884  0.7082  0.0713 -0.0568
 2180SOL    HW2 6999   2.682   5.576   1.953 -0.0148  1.8883 -0.8847
 2181SOL     OW 7000   4.960   5.185   2.808 -0.5592 -0.2885 -0.1155
 2181SOL    HW1 7001   4.873   5.183   2.849 -0.9143 -0.7877 -0.8753
 2181SOL    HW2 7002   4.948   5.141   2.724 -0.1799  1.9469 -1.4200
 2182SOL     OW 7003   1.725   2.509   2.788 -0.4947 -0.2847 -0.3495
 2182SOL    HW1 7004   1.809   2.553   2.790 -0.4843 -0.3280  0.6743
 2182SOL    HW2 7005   1.675   2.555   2.720 -1.0085  2.3208  1.6406
 2183SOL     OW 7006   3.678   4.638   4.488  0.0659 -0.1436  0.5561
 2183SOL    HW1 7007   3.587   4.668   4.482 -0.2876 -0.6840  2.5012
 2183SOL    HW2 7008   3.712   4.647   4.399 -1.7006  0.6462 -0.0903
 2184SOL     OW 7009   2.242   2.873   1.049 -0.1534  0.0991  0.0436
 2184SOL    HW1 7010   2.300   2.946   1.030 -2.0600  1.4843 -0.8041
 2184SOL    HW2 7011   2.217   2.838   0.963 -0.5069 -0.5160  0.3821
 2185SOL     OW 7012   3.318   0.643   3.499  0.5392 -0.3449  0.5690
 2185SOL    HW1 7013   3.411   0.621   3.495  0.7438  0.3248  1.3182
 2185SOL    HW2 7014   3.302   0.697   3.422  1.1264  0.7556  1.1869
 2186SOL     OW 7015   3.271   1.609   6.061 -0.1540  0.0949 -0.0234
 2186SOL    HW1 7016   3.234   1.538   6.114  0.3058 -0.9008 -0.9884
 2186SOL    HW2 7017   3.355   1.628   6.102 -0.2067 -0.0307  0.1467
 2187SOL     OW 7018   0.407   3.583   2.313 -0.1234 -0.1896  0.8742
 2187SOL    HW1 7019   0.447   3.669   2.300 -0.5818 -0.0339  0.4348
 2187SOL    HW2 7020   0.465   3.522   2.266  0.3114 -0.1527  1.3574
 2188SOL     OW 7021   3.794   5.946   5.457  0.2086 -0.0607 -0.1252
 2188SOL    HW1 7022   3.716   5.906   5.493  0.7381 -1.0102 -0.0054
 2188SOL    HW2 7023   3.823   6.007   5.525 -1.0191  1.1303 -0.6184
 2189SOL     OW 7024   0.256   2.079   2.466 -0.1936 -0.0424 -0.2760
 2189SOL    HW1 7025   0.244   1.985   2.463 -0.0295 -0.1070  0.7867
 2189SOL    HW2 7026   0.348   2.092   2.442 -0.4337 -0.0672 -1.2910
 2190SOL     OW 7027   1.299   1.667   0.001 -0.2658  0.0827  0.2507
 2190SOL    HW1 7028   1.338   1.733   0.058  1.9854 -0.9222 -0.0100
 2190SOL    HW2 7029   1.246   1.613   0.060  0.5017  0.1956  1.0605
 2191SOL     OW 7030   1.060   0.430   4.658  0.0474  0.3256 -0.9691
 2191SOL    HW1 7031   1.105   0.455   4.578  0.9672 -1.8453 -1.2147
 2191SOL    HW2 7032   0.996   0.364   4.630  1.0252 -1.1567  0.1509
 2192SOL     OW 7033   6.300   0.074   3.673 -0.3076 -0.1955 -0.1883
 2192SOL    HW1 7034   6.308   0.088   3.767  2.2736  1.2127 -0.5071
 2192SOL    HW2 7035   6.257  -0.011   3.664 -0.6816 -0.3203  2.2297
 2193SOL     OW 7036   1.000   5.105   0.455 -0.5153 -0.0566 -0.1176
 2193SOL    HW1 7037   0.919   5.155   0.452 -0.2278  0.4776  0.5433
 2193SOL    HW2 7038   0.977   5.024   0.500 -0.8755 -0.3085 -0.7467
 2194SOL     OW 7039   4.978   1.610   2.074 -0.4271 -0.0268  0.3036
 2194SOL    HW1 7040   4.960   1.519   2.098  0.8306 -0.5530 -0.5955
 2194SOL    HW2 7041   4.935   1.662   2.142 -1.8073 -1.2535  0.4158
 2195SOL     OW 7042   4.913   4.011   5.312 -0.3723  0.4376 -0.1532
 2195SOL    HW1 7043   4.913   3.958   5.391  2.1482  0.0179 -0.3524
 2195SOL    HW2 7044   4.957   4.092   5.337 -1.9647  1.4577 -0.4882
 2196SOL     OW 7045   5.071   5.029   6.126  0.2409 -0.1762 -0.0537
 2196SOL    HW1 7046   5.076   4.983   6.210  1.0486  0.7864  0.4443
 2196SOL    HW2 7047   5.155   5.074   6.118 -0.6192  1.4453 -0.3903
 2197SOL     OW 7048   2.140   0.528   0.757  0.6606  0.2546 -0.3655
 2197SOL    HW1 7049   2.083   0.550   0.684  1.3653  0.2000 -0.9354
 2197SOL    HW2 7050   2.093   0.459   0.804  0.2312  0.2534 -0.7883
 2198SOL     OW 7051   5.711   2.657   2.575 -0.2708 -0.6933 -0.5453
 2198SOL    HW1 7052   5.803   2.663   2.550 -0.0290  0.0260  0.4325
 2198SOL    HW2 7053   5.705   2.709   2.655 -1.6935 -0.0704 -1.0296
 2199SOL     OW 7054   1.594   1.004   2.072  0.5735  0.2306  0.2812
 2199SOL    HW1 7055   1.506   1.025   2.103 -0.1054 -1.2864 -0.4952
 2199SOL    HW2 7056   1.593   0.909   2.059  2.2748  0.2075  0.0932
 2200SOL     OW 7057   4.799   5.769   3.370  0.1603 -0.2095 -0.0898
 2200SOL    HW1 7058   4.760   5.820   3.441 -2.5499 -0.6519 -1.1656
 2200SOL    HW2 7059   4.835   5.835   3.311  0.4103  0.2489  0.5574
 2201SOL     OW 7060   4.322   0.821   4.232 -0.4862 -0.1113 -0.1005
 2201SOL    HW1 7061   4.308   0.879   4.307  2.1230  0.8099 -0.2129
 2201SOL    HW2 7062   4.291   0.871   4.157 -1.2685 -0.2410  0.1200
 2202SOL     OW 7063   5.176   4.017   0.802  0.3377  0.0012 -0.3219
 2202SOL    HW1 7064   5.251   3.962   0.778 -0.7748 -1.1032 -1.4130
 2202SOL    HW2 7065   5.135   3.971   0.875 -0.1894 -0.2735 -0.7810
 2203SOL     OW 7066   6.002   0.334   2.083  0.1200  0.0162  0.3068
 2203SOL    HW1 7067   6.038   0.412   2.041  0.3040 -0.7185 -0.9469
 2203SOL    HW2 7068   5.936   0.367   2.144  0.1900  1.1433 -0.2070
 2204SOL     OW 7069   1.390   1.118   0.050  0.1687 -0.2133 -0.0797
 2204SOL    HW1 7070   1.318   1.064   0.084 -0.4348  0.3261 -0.4795
 2204SOL    HW2 7071   1.448   1.131   0.125 -0.7604  0.3428  0.5502
 2205SOL     OW 7072   1.135   0.075   4.187 -0.0113 -0.2309  0.0185
 2205SOL    HW1 7073   1.219   0.121   4.190  0.3347 -0.8983  0.7098
 2205SOL    HW2 7074   1.075   0.131   4.235  0.4180 -0.5020  0.8887
 2206SOL     OW 7075   0.619   5.261   5.989  0.3586  0.4683 -0.2589
 2206SOL    HW1 7076   0.530   5.238   6.016 -0.1894  0.7990 -1.6985
 2206SOL    HW2 7077   0.674   5.234   6.063 -0.9347  0.3358  0.6922
 2207SOL     OW 7078   2.941   1.310   3.318  0.2496 -0.0570 -0.1578
 2207SOL    HW1 7079   2.951   1.292   3.224  0.6984  1.7361 -0.4807
 2207SOL    HW2 7080   2.925   1.404   3.323 -0.8529 -0.2877  1.5068
 2208SOL     OW 7081   5.179   3.127   2.536  0.5877 -0.3756  0.1446
 2208SOL    HW1 7082   5.231   3.181   2.595 -0.9177  2.0534 -0.6373
 2208SOL    HW2 7083   5.105   3.098   2.588 -1.1818  2.4463 -0.5965
 2209SOL     OW 7084   0.495   2.029   5.874  0.1834  0.2508  0.3259
 2209SOL    HW1 7085   0.410   2.064   5.849  1.4055  2.2464 -1.2938
 2209SOL    HW2 7086   0.539   2.012   5.791  1.6788  0.0531  1.1341
 2210SOL     OW 7087   2.928   4.896   1.483 -0.2995 -0.5145  0.0970
 2210SOL    HW1 7088   2.994   4.941   1.429 -1.0353 -0.2215 -0.5745
 2210SOL    HW2 7089   2.915   4.953   1.558 -1.1559  0.3812 -0.7040
 2211SOL     OW 7090   5.312   3.745   3.388  0.3896 -0.4001 -0.0251
 2211SOL    HW1 7091   5.343   3.739   3.297 -2.8764 -1.0579 -1.2274
 2211SOL    HW2 7092   5.293   3.655   3.413  0.9588 -0.1904  1.2306
 2212SOL     OW 7093   0.102   6.053   1.509 -0.5373 -0.2335 -0.0087
 2212SOL    HW1 7094   0.167   6.121   1.492 -1.7340  1.0814  0.5073
 2212SOL    HW2 7095   0.112   5.992   1.436 -0.2346  1.1043 -1.1237
 2213SOL     OW 7096   4.812   1.910   0.628 -0.2059  0.3611 -0.8883
 2213SOL    HW1 7097   4.717   1.897   0.634 -0.4135  1.2244 -2.0755
 2213SOL    HW2 7098   4.847   1.861   0.703 -1.5531 -0.2475 -0.6225
 2214SOL     OW 7099   5.868   4.596   3.743 -0.4180  0.3304  0.3263
 2214SOL    HW1 7100   5.829   4.529   3.686 -1.0427 -0.6216  1.8244
 2214SOL    HW2 7101   5.954   4.612   3.704 -0.0195 -1.7666  0.2210
 2215SOL     OW 7102   2.057   1.294   2.522  0.5043  0.2177  0.0965
 2215SOL    HW1 7103   2.044   1.373   2.574 -2.5388  2.7071 -3.8260
 2215SOL    HW2 7104   2.145   1.302   2.487  1.2460  0.3516  1.9146
 2216SOL     OW 7105   4.034   4.079   0.723  0.6296  0.1042  0.2754
 2216SOL    HW1 7106   3.967   4.106   0.660 -1.4858 -0.0685  2.3158
 2216SOL    HW2 7107   4.115   4.116   0.689 -0.7069  1.5251 -1.5864
 2217SOL     OW 7108   0.471   5.288   4.741 -0.3527 -0.5596 -0.0039
 2217SOL    HW1 7109   0.548   5.262   4.690 -0.1393 -0.9899  0.5284
 2217SOL    HW2 7110   0.507   5.327   4.821 -0.6292  2.6817 -1.3544
 2218SOL     OW 7111   6.280   6.021   1.732 -0.3774 -0.0347  0.5192
 2218SOL    HW1 7112   6.337   6.009   1.655  1.5242  3.6992  1.0998
 2218SOL    HW2 7113   6.195   6.044   1.695 -0.1332 -0.5851 -0.4349
 2219SOL     OW 7114   4.874   1.178   1.048 -0.2325 -0.3408  0.0519
 2219SOL    HW1 7115   4.927   1.100   1.034  0.3373  0.0122  0.2194
 2219SOL    HW2 7116   4.935   1.251   1.040 -0.7803  0.1029 -0.2303
 2220SOL     OW 7117   0.982   0.294   0.111  0.3559 -0.2473 -0.2241
 2220SOL    HW1 7118   1.058   0.307   0.054 -0.1612  3.4760 -0.3157
 2220SOL    HW2 7119   1.010   0.326   0.196 -0.6560 -0.2971  0.1450
 2221SOL     OW 7120   3.306   2.916   6.285 -0.3548 -1.1344  0.1320
 2221SOL    HW1 7121   3.310   2.999   6.332 -0.2418 -0.7041 -0.6230
 2221SOL    HW2 7122   3.377   2.921   6.220  0.5533 -2.3856  0.9841
 2222SOL     OW 7123   0.661   0.027   2.150  0.0345  0.3851 -0.2230
 2222SOL    HW1 7124   0.717  -0.027   2.094 -0.6328 -0.1462 -0.3937
 2222SOL    HW2 7125   0.583   0.042   2.097 -0.6856 -0.2712  0.6198
 2223SOL     OW 7126   1.647   4.733   4.887  0.1362 -0.0558 -0.2418
 2223SOL    HW1 7127   1.639   4.823   4.857  0.7212 -0.2466 -0.9904
 2223SOL    HW2 7128   1.724   4.699   4.842  1.6982 -0.0429  2.2315
 2224SOL     OW 7129   3.183   4.470   1.435  0.1610 -0.2086  0.0928
 2224SOL    HW1 7130   3.122   4.402   1.406  0.1081 -0.4654  0.7911
 2224SOL    HW2 7131   3.127   4.535   1.477  0.4805 -1.1894  2.1581
 2225SOL     OW 7132   1.061   0.097   3.440  0.1224  0.0636  0.5869
 2225SOL    HW1 7133   1.034   0.016   3.396  0.3655 -0.0976  0.7345
 2225SOL    HW2 7134   1.121   0.069   3.508  0.4168  0.3960  0.4675
 2226SOL     OW 7135   0.146   5.576   6.172 -0.3766 -0.0536 -0.4748
 2226SOL    HW1 7136   0.096   5.633   6.114  1.6306  2.1035 -0.2650
 2226SOL    HW2 7137   0.131   5.612   6.260  0.3123 -0.2807 -0.2540
 2227SOL     OW 7138   4.343   5.802   0.727  0.0293  0.1938 -0.2221
 2227SOL    HW1 7139   4.314   5.819   0.637 -0.0551 -0.0398 -0.2425
 2227SOL    HW2 7140   4.281   5.736   0.759  0.6218 -0.4159 -0.3142
 2228SOL     OW 7141   4.239   0.227   1.419  0.3383  0.4142  0.7351
 2228SOL    HW1 7142   4.215   0.228   1.326  0.2279  0.5354  0.7644
 2228SOL    HW2 7143   4.286   0.309   1.433  0.5638  0.2859  0.7333
 2229SOL     OW 7144   5.564   0.108   1.925 -0.1540  0.6433 -0.6177
 2229SOL    HW1 7145   5.585   0.072   1.839 -0.4705 -1.8888  0.2760
 2229SOL    HW2 7146   5.472   0.134   1.918 -0.1702  0.4774 -1.0385
 2230SOL     OW 7147   4.833   1.186   3.899  0.4342 -0.1579 -0.4804
 2230SOL    HW1 7148   4.899   1.252   3.922 -0.5556  1.4256 -1.8758
 2230SOL    HW2 7149   4.864   1.149   3.817 -1.0395  1.6720 -1.9559
 2231SOL     OW 7150   2.944   2.712   4.826 -0.7869  0.1497  0.1114
 2231SOL    HW1 7151   2.997   2.746   4.898 -0.3211 -0.1864 -0.0658
 2231SOL    HW2 7152   2.990   2.633   4.799 -1.4900 -0.2555  0.0821
 2232SOL     OW 7153   1.601   1.401   0.762  0.1737  0.4618 -0.5320
 2232SOL    HW1 7154   1.677   1.344   0.777  0.2736  0.5917 -0.5503
 2232SOL    HW2 7155   1.540   1.377   0.831  0.3949  0.6428 -0.2740
 2233SOL     OW 7156   2.960   3.068   2.868 -0.1219 -0.1190 -0.1222
 2233SOL    HW1 7157   2.997   3.098   2.951 -0.2826  0.6281 -0.3131
 2233SOL    HW2 7158   2.872   3.106   2.865 -0.2381 -0.4038 -0.4872
 2234SOL     OW 7159   0.347   2.677   0.964  0.2397 -0.4547  0.2745
 2234SOL    HW1 7160   0.329   2.675   1.058 -1.1045  1.7203  0.1315
 2234SOL    HW2 7161   0.310   2.595   0.931 -2.9960  0.4972  1.1240
 2235SOL     OW 7162   0.346   3.659   4.199 -0.2654  0.2521 -0.3085
 2235SOL    HW1 7163   0.300   3.598   4.142  1.1546 -0.1428 -1.0619
 2235SOL    HW2 7164   0.436   3.628   4.201 -0.0183  0.9558  1.2054
 2236SOL     OW 7165   0.932   3.675   1.460  0.1282  0.0405  0.7832
 2236SOL    HW1 7166   1.018   3.669   1.418  0.1036  0.4217  0.6741
 2236SOL    HW2 7167   0.916   3.587   1.494  0.4686 -0.0868  0.6220
 2237SOL     OW 7168   3.286   3.718   0.439 -0.2035 -0.3534 -0.1502
 2237SOL    HW1 7169   3.229   3.790   0.467 -0.4709 -0.7622  0.3698
 2237SOL    HW2 7170   3.339   3.698   0.517  0.8031  0.1569 -0.6865
 2238SOL     OW 7171   4.685   0.631   1.504  0.3364 -0.5439 -0.1422
 2238SOL    HW1 7172   4.715   0.666   1.588  0.7029  0.0025 -0.4962
 2238SOL    HW2 7173   4.608   0.579   1.526 -0.1143  0.3405  0.4260
 2239SOL     OW 7174   2.592   4.038   2.789  0.5125  0.0167  0.1314
 2239SOL    HW1 7175   2.654   4.110   2.799  0.6120 -0.0889  0.2659
 2239SOL    HW2 7176   2.575   4.035   2.694 -1.2215  1.6678  0.3330
 2240SOL     OW 7177   5.705   0.738   4.733  0.3511 -0.2132  0.2672
 2240SOL    HW1 7178   5.628   0.795   4.723 -0.3924 -1.1135  0.6918
 2240SOL    HW2 7179   5.772   0.795   4.772 -0.2642  0.4503  0.3865
 2241SOL     OW 7180   2.759   4.980   5.676 -0.0846 -0.3590  0.3293
 2241SOL    HW1 7181   2.833   4.984   5.736  0.3085 -0.3663 -0.1504
 2241SOL    HW2 7182   2.798   4.969   5.589 -0.6641 -0.9427  0.1300
 2242SOL     OW 7183   5.511   1.965   5.685  0.1546 -0.0141  0.6816
 2242SOL    HW1 7184   5.436   1.906   5.681 -0.0331  0.3102 -1.1611
 2242SOL    HW2 7185   5.483   2.035   5.744 -1.2082  0.3790 -0.3877
 2243SOL     OW 7186   4.880   3.791   2.464  0.5398 -0.3398  0.4578
 2243SOL    HW1 7187   4.791   3.759   2.475 -0.6959  2.6477  0.0956
 2243SOL    HW2 7188   4.925   3.769   2.545 -0.7470 -1.2636  0.9355
 2244SOL     OW 7189   0.819   1.867   3.123  0.6448 -0.2146  0.0806
 2244SOL    HW1 7190   0.876   1.929   3.168  1.4153  0.4894 -1.7655
 2244SOL    HW2 7191   0.785   1.811   3.192 -1.9695  3.6297  2.2657
 2245SOL     OW 7192   2.208   4.592   1.991  0.0076  0.6089  0.1624
 2245SOL    HW1 7193   2.213   4.654   1.918  0.5277 -0.0892 -0.4146
 2245SOL    HW2 7194   2.299   4.561   2.001 -0.1992  0.1431  0.6052
 2246SOL     OW 7195   0.226   2.499   5.064 -0.0840 -0.2702 -0.0356
 2246SOL    HW1 7196   0.186   2.462   4.986 -0.5013 -0.9128  0.4767
 2246SOL    HW2 7197   0.153   2.512   5.125  0.1687  0.6300  0.1029
 2247SOL     OW 7198   2.251   1.366   2.132 -0.2911 -0.5597 -0.6192
 2247SOL    HW1 7199   2.302   1.363   2.213 -1.0176 -1.4543 -0.1676
 2247SOL    HW2 7200   2.269   1.452   2.095  2.3649 -1.2211 -1.0469
 2248SOL     OW 7201   4.787   0.178   2.384  0.3314  0.5335  0.0534
 2248SOL    HW1 7202   4.711   0.172   2.442 -0.6688 -1.2732 -1.3330
 2248SOL    HW2 7203   4.823   0.265   2.400 -1.4213  1.0538  1.4955
 2249SOL     OW 7204   6.169   1.054   0.644  0.0971 -0.2723 -0.0719
 2249SOL    HW1 7205   6.210   1.118   0.702  0.7866 -1.7359  1.1261
 2249SOL    HW2 7206   6.231   1.042   0.573  0.3713 -0.2212  0.1552
 2250SOL     OW 7207   3.667   1.900   6.216 -0.2936  0.8508 -0.0446
 2250SOL    HW1 7208   3.740   1.896   6.278  0.8753  0.5401 -1.3862
 2250SOL    HW2 7209   3.601   1.840   6.251  2.3574 -3.4190 -1.5333
 2251SOL     OW 7210   0.122   6.075   6.314  0.0514 -0.5749  0.6631
 2251SOL    HW1 7211   0.214   6.048   6.308 -0.3328 -1.5645 -2.3779
 2251SOL    HW2 7212   0.106   6.125   6.235 -2.7084 -2.8629 -0.3878
 2252SOL     OW 7213   5.772   0.416   2.868  0.4093 -0.2413  0.3989
 2252SOL    HW1 7214   5.765   0.362   2.947 -0.6572 -0.5787  0.1013
 2252SOL    HW2 7215   5.820   0.361   2.806  1.7120  0.2285  0.9640
 2253SOL     OW 7216   4.092   1.991   0.594 -0.0554 -0.0976  0.9104
 2253SOL    HW1 7217   4.181   1.970   0.566 -0.8985 -2.6665 -0.1130
 2253SOL    HW2 7218   4.067   2.066   0.540  0.4066 -1.3719 -1.2110
 2254SOL     OW 7219   1.055   1.137   5.135 -0.8454  0.5042 -0.5011
 2254SOL    HW1 7220   1.084   1.097   5.053 -0.4811  1.2918 -0.7684
 2254SOL    HW2 7221   1.039   1.229   5.112 -2.3434  0.3679 -0.0701
 2255SOL     OW 7222   0.578   4.839   4.191 -0.7357  0.2207 -0.1092
 2255SOL    HW1 7223   0.541   4.751   4.199 -0.6508  0.2491  0.7563
 2255SOL    HW2 7224   0.667   4.830   4.225 -0.1376  0.2841 -1.6218
 2256SOL     OW 7225   1.728   2.924   0.862 -0.7043 -0.4055  1.0424
 2256SOL    HW1 7226   1.771   2.882   0.937 -2.7329 -2.4409  1.1753
 2256SOL    HW2 7227   1.681   2.853   0.818 -2.0009  1.2674 -0.4511
 2257SOL     OW 7228   5.061   4.623   6.112  0.1595  0.0793  0.3595
 2257SOL    HW1 7229   4.987   4.661   6.065  0.9538 -1.3712 -2.2668
 2257SOL    HW2 7230   5.021   4.561   6.173 -0.8150 -0.1648 -0.5048
 2258SOL     OW 7231   4.570   4.514   0.186 -1.0561  0.0621  0.0156
 2258SOL    HW1 7232   4.602   4.515   0.096 -0.8659 -0.1336  0.0821
 2258SOL    HW2 7233   4.516   4.593   0.193  0.5368  1.1852  0.3161
 2259SOL     OW 7234   0.323   1.945   3.391  0.0677  0.4103  0.3075
 2259SOL    HW1 7235   0.245   1.988   3.356  1.8325  2.4029 -1.4261
 2259SOL    HW2 7236   0.349   1.883   3.323  0.5388  0.4562  0.4458
 2260SOL     OW 7237   3.130   1.760   2.799  0.3885 -0.4340 -0.6754
 2260SOL    HW1 7238   3.088   1.694   2.743 -0.2252  0.8561 -1.7769
 2260SOL    HW2 7239   3.058   1.796   2.852  0.4300  0.4666 -1.2227
 2261SOL     OW 7240   0.801   5.866   4.406  0.2938  0.1750 -0.6470
 2261SOL    HW1 7241   0.811   5.773   4.385  1.6420  0.3599 -0.9177
 2261SOL    HW2 7242   0.884   5.905   4.380 -1.0151  1.8697 -2.6537
 2262SOL     OW 7243   1.288   2.637   1.757  0.4608 -0.4667 -0.4830
 2262SOL    HW1 7244   1.295   2.728   1.726 -0.9167  0.3377  1.3406
 2262SOL    HW2 7245   1.236   2.593   1.689 -2.8482  1.3423  0.5992
 2263SOL     OW 7246   0.715   0.790   4.079  0.5475  0.2080 -0.8690
 2263SOL    HW1 7247   0.635   0.785   4.027 -0.8147  0.9139  1.0411
 2263SOL    HW2 7248   0.710   0.875   4.123  0.5756 -1.1577  1.9618
 2264SOL     OW 7249   0.896   5.748   4.925  0.0093  0.1436  0.2026
 2264SOL    HW1 7250   0.976   5.709   4.960  1.1143  0.8363 -1.4146
 2264SOL    HW2 7251   0.927   5.818   4.866 -1.4433 -2.5296 -4.2588
 2265SOL     OW 7252   6.248   2.058   5.345 -0.6619 -0.4764  0.0171
 2265SOL    HW1 7253   6.268   2.039   5.437  0.8121 -1.7754 -0.5384
 2265SOL    HW2 7254   6.266   2.152   5.336 -1.6908 -0.1305  1.2491
 2266SOL     OW 7255   4.789   1.271   4.643 -0.2502 -0.1821  0.7036
 2266SOL    HW1 7256   4.882   1.280   4.623 -0.6816  1.1832 -0.9112
 2266SOL    HW2 7257   4.752   1.227   4.566 -1.0340 -0.1113  1.0307
 2267SOL     OW 7258   5.146   0.253   2.917  0.2726  0.6131  0.0853
 2267SOL    HW1 7259   5.065   0.292   2.886 -1.4106 -2.7981 -0.3297
 2267SOL    HW2 7260   5.201   0.247   2.839  0.2934  1.4531  0.0238
 2268SOL     OW 7261   4.999   5.383   1.560 -0.1667  0.1651  0.4977
 2268SOL    HW1 7262   5.085   5.380   1.601  0.7003 -0.4104 -1.2421
 2268SOL    HW2 7263   4.982   5.476   1.547  1.3045  0.2648 -1.2011
 2269SOL     OW 7264   4.335   6.263   1.884  0.4959  0.2042 -0.7533
 2269SOL    HW1 7265   4.411   6.213   1.916  1.0148  0.7555 -1.0966
 2269SOL    HW2 7266   4.367   6.353   1.877  0.2138  0.2094 -2.2036
 2270SOL     OW 7267   2.501   1.271   0.500 -0.1034  0.3823 -0.5480
 2270SOL    HW1 7268   2.580   1.219   0.516  0.3546  0.8982 -1.0868
 2270SOL    HW2 7269   2.507   1.344   0.561  0.8750  1.5209 -1.9508
 2271SOL     OW 7270   0.210   0.854   5.708  0.2144 -0.8443 -0.5346
 2271SOL    HW1 7271   0.116   0.843   5.721  0.0043 -1.6755 -2.4457
 2271SOL    HW2 7272   0.238   0.910   5.781 -1.9614  0.3934 -0.5645
 2272SOL     OW 7273   4.346   0.175   1.913 -0.1800 -0.1023  0.4688
 2272SOL    HW1 7274   4.425   0.228   1.919  0.5939 -1.0518 -0.8885
 2272SOL    HW2 7275   4.291   0.220   1.849 -0.6400  0.4198  1.2216
 2273SOL     OW 7276   3.340   3.128   0.127 -0.1932  0.0420 -0.0950
 2273SOL    HW1 7277   3.374   3.173   0.049 -0.4361  2.1791  0.9514
 2273SOL    HW2 7278   3.419   3.102   0.175 -0.0335  0.4326 -0.1377
 2274SOL     OW 7279   4.075   4.670   0.266 -0.3481 -0.5660 -0.1858
 2274SOL    HW1 7280   4.005   4.685   0.202 -0.9135  0.7018  0.6914
 2274SOL    HW2 7281   4.043   4.598   0.321 -1.1463  0.2299  0.4221
 2275SOL     OW 7282   1.161   5.505   2.191 -0.1731  0.2291  0.4627
 2275SOL    HW1 7283   1.079   5.555   2.183 -2.0343 -2.7971 -1.0477
 2275SOL    HW2 7284   1.189   5.521   2.281 -2.4505  1.3479  1.0680
 2276SOL     OW 7285   1.808   0.871   5.832  0.8653  0.4516 -0.0008
 2276SOL    HW1 7286   1.849   0.925   5.764  1.5269  0.4096  0.3550
 2276SOL    HW2 7287   1.790   0.788   5.789  1.1097  0.4883 -0.1780
 2277SOL     OW 7288   3.954   2.794   0.087 -0.4124  0.0114 -0.0117
 2277SOL    HW1 7289   3.943   2.765  -0.003  0.1742 -0.6447  0.1134
 2277SOL    HW2 7290   4.044   2.769   0.109 -0.6346 -0.0824  0.8363
 2278SOL     OW 7291   3.986   4.605   3.190  0.1102  0.1519 -0.6967
 2278SOL    HW1 7292   4.074   4.591   3.153  0.6571  2.3411 -0.4066
 2278SOL    HW2 7293   3.991   4.693   3.229 -1.3715 -0.7904  1.8383
 2279SOL     OW 7294   4.793   4.248   0.092  0.6905 -0.7412 -0.3027
 2279SOL    HW1 7295   4.751   4.162   0.096  0.7660 -0.8531 -1.5772
 2279SOL    HW2 7296   4.778   4.278   0.002  0.5997  0.6154  0.1368
 2280SOL     OW 7297   0.692   3.408   1.943  0.2483 -0.2340  0.3637
 2280SOL    HW1 7298   0.667   3.468   1.873  0.9421  1.6619  1.6478
 2280SOL    HW2 7299   0.666   3.321   1.912 -0.8168  0.7275 -1.5646
 2281SOL     OW 7300   4.826   5.433   5.929 -0.0192 -0.0691  0.1997
 2281SOL    HW1 7301   4.769   5.485   5.985  0.7954  0.5433  0.4835
 2281SOL    HW2 7302   4.900   5.409   5.985  1.5703  1.8393 -0.9551
 2282SOL     OW 7303   2.687   4.491   1.547 -0.1802  0.0201  0.0109
 2282SOL    HW1 7304   2.770   4.501   1.594 -0.0247  0.5699 -0.3621
 2282SOL    HW2 7305   2.710   4.508   1.456 -0.3192 -1.8225 -0.4037
 2283SOL     OW 7306   3.814   1.998   3.137 -0.6101  0.0684 -0.4668
 2283SOL    HW1 7307   3.820   1.952   3.221  0.3030  3.4981  1.5679
 2283SOL    HW2 7308   3.738   2.055   3.146 -1.0034 -0.1013 -2.3558
 2284SOL     OW 7309   6.335   3.270   5.912  0.1780 -0.0003 -0.1557
 2284SOL    HW1 7310   6.297   3.223   5.986  0.9159 -0.5225 -0.0998
 2284SOL    HW2 7311   6.262   3.281   5.851 -0.1525 -0.6643  0.1100
 2285SOL     OW 7312   2.428   3.603   0.462  0.3232 -0.6994 -0.5629
 2285SOL    HW1 7313   2.444   3.697   0.466 -0.6069 -0.5829  0.7596
 2285SOL    HW2 7314   2.466   3.576   0.378 -1.5309  1.2501 -2.1343
 2286SOL     OW 7315   3.420   0.542   1.817 -0.1681 -0.1558 -0.1774
 2286SOL    HW1 7316   3.427   0.509   1.906  2.0170  1.1866  0.2313
 2286SOL    HW2 7317   3.508   0.575   1.796 -1.3049  2.2462 -1.7191
 2287SOL     OW 7318   5.476   2.604   4.656  0.0885  0.6042  0.8520
 2287SOL    HW1 7319   5.428   2.623   4.736  0.9350 -0.1148  1.5451
 2287SOL    HW2 7320   5.523   2.523   4.674  0.6758  0.6899 -0.1965
 2288SOL     OW 7321   3.640   0.580   4.281 -0.4206 -0.0074 -0.3702
 2288SOL    HW1 7322   3.631   0.649   4.347  2.7258  1.5510 -1.3695
 2288SOL    HW2 7323   3.552   0.568   4.247 -1.3830  2.3541  1.0264
 2289SOL     OW 7324   6.327   1.788   4.416  0.4234  0.3051  0.4416
 2289SOL    HW1 7325   6.233   1.773   4.419  0.4226  0.0166 -0.6204
 2289SOL    HW2 7326   6.363   1.727   4.481 -0.1415  0.7394  1.1814
 2290SOL     OW 7327   2.301   1.084   1.308  0.2144 -0.2522 -0.4157
 2290SOL    HW1 7328   2.326   1.022   1.377 -0.1322 -1.1280 -1.0525
 2290SOL    HW2 7329   2.308   1.170   1.349 -3.5804 -0.8315  1.9422
 2291SOL     OW 7330   1.470   0.347   4.768 -0.0660  0.0800 -0.2075
 2291SOL    HW1 7331   1.423   0.290   4.708  0.2104  0.6894 -1.0086
 2291SOL    HW2 7332   1.403   0.374   4.832 -0.3645 -0.5313 -0.2465
 2292SOL     OW 7333   0.661   0.353   0.534 -0.4783  0.2178  0.0072
 2292SOL    HW1 7334   0.662   0.434   0.483 -1.3724  0.7043  0.7277
 2292SOL    HW2 7335   0.569   0.325   0.533 -1.1443  1.6845  3.4647
 2293SOL     OW 7336   0.575   0.833   0.291 -0.2184  0.5786  0.6115
 2293SOL    HW1 7337   0.609   0.804   0.207 -1.5719  1.5103 -0.3020
 2293SOL    HW2 7338   0.646   0.883   0.330 -0.0802  1.4260 -0.6754
 2294SOL     OW 7339   1.512   5.628   1.347  0.3420  0.4961 -0.3941
 2294SOL    HW1 7340   1.579   5.593   1.406  0.0878 -1.6981 -1.3048
 2294SOL    HW2 7341   1.546   5.611   1.259 -1.5255 -1.1047 -0.8955
 2295SOL     OW 7342   1.885   5.294   1.171  0.1749  0.2377  0.1050
 2295SOL    HW1 7343   1.805   5.273   1.219 -0.7412  0.2710 -1.3469
 2295SOL    HW2 7344   1.953   5.298   1.238 -0.3692 -3.0080  1.0066
 2296SOL     OW 7345   4.157   5.811   4.628  0.0879  0.1592 -0.1038
 2296SOL    HW1 7346   4.070   5.816   4.589  0.1311  1.0147 -0.0976
 2296SOL    HW2 7347   4.167   5.893   4.676 -0.4280 -1.2726  2.7319
 2297SOL     OW 7348   1.710   5.469   5.571 -0.2718 -0.1267 -0.0200
 2297SOL    HW1 7349   1.759   5.544   5.604  1.2023 -1.1321  0.1319
 2297SOL    HW2 7350   1.774   5.417   5.522 -0.8263 -2.1556  1.2942
 2298SOL     OW 7351   5.372   1.944   3.402 -0.0254 -0.4866  0.7597
 2298SOL    HW1 7352   5.414   1.935   3.317  3.4492 -0.7418  2.3420
 2298SOL    HW2 7353   5.361   1.854   3.434  0.5204 -0.3433  1.3706
 2299SOL     OW 7354   3.262   0.957   4.221  0.1544  0.5742  0.0782
 2299SOL    HW1 7355   3.329   1.023   4.204  0.9490 -0.3811 -0.6550
 2299SOL    HW2 7356   3.228   0.978   4.307  3.2401 -0.4119  1.6897
 2300SOL     OW 7357   0.656   4.538   0.619  0.3211 -0.6509 -0.1597
 2300SOL    HW1 7358   0.700   4.578   0.693 -1.2429  1.3372 -0.2251
 2300SOL    HW2 7359   0.690   4.585   0.543  0.7312 -1.5865 -0.5699
 2301SOL     OW 7360   4.445   1.653   1.679 -0.1343 -0.4560  0.4290
 2301SOL    HW1 7361   4.422   1.610   1.762 -0.4050  1.2986  1.3045
 2301SOL    HW2 7362   4.482   1.583   1.625  2.2093 -1.2548  2.8634
 2302SOL     OW 7363   5.929   3.462   2.083  0.2964 -0.0737  0.1662
 2302SOL    HW1 7364   5.986   3.416   2.022  1.6836 -0.1207  1.4334
 2302SOL    HW2 7365   5.962   3.551   2.085 -1.8223  0.8393 -1.6010
 2303SOL     OW 7366   4.465   0.040   2.188  0.0705  0.6339  0.1529
 2303SOL    HW1 7367   4.514  -0.025   2.138 -0.0367  0.3415  0.4229
 2303SOL    HW2 7368   4.430   0.100   2.122  0.0881  0.3630 -0.1045
 2304SOL     OW 7369   5.305   1.100   0.881 -0.4815  0.7225  0.3593
 2304SOL    HW1 7370   5.398   1.083   0.872 -0.4279  0.9060  0.5579
 2304SOL    HW2 7371   5.285   1.159   0.809 -0.4364  0.7144  0.3401
 2305SOL     OW 7372   6.104   5.485   1.807  0.7637  0.2455 -0.6982
 2305SOL    HW1 7373   6.028   5.443   1.766  0.7967  0.2360 -0.7502
 2305SOL    HW2 7374   6.092   5.471   1.901  1.7161 -1.5317 -0.7923
 2306SOL     OW 7375   2.749   3.186   2.274 -0.0621 -0.8198  0.5145
 2306SOL    HW1 7376   2.662   3.189   2.314 -0.9884 -2.5950 -1.1994
 2306SOL    HW2 7377   2.781   3.098   2.294  0.2763 -1.0428 -0.9238
 2307SOL     OW 7378   3.428   2.635   1.329 -0.3322 -1.1092 -0.1795
 2307SOL    HW1 7379   3.405   2.612   1.419 -1.9923  1.7193  0.2377
 2307SOL    HW2 7380   3.522   2.650   1.331 -0.7515  2.6096  2.1982
 2308SOL     OW 7381   2.835   5.099   0.465 -0.1636 -0.2474 -0.3805
 2308SOL    HW1 7382   2.916   5.139   0.433 -0.2270 -0.5545 -0.9392
 2308SOL    HW2 7383   2.767   5.138   0.410 -0.2894 -0.6996 -0.5415
 2309SOL     OW 7384   4.706   6.058   0.155 -0.3737 -0.6494 -0.7687
 2309SOL    HW1 7385   4.748   6.138   0.121 -2.1399  0.6150 -0.1076
 2309SOL    HW2 7386   4.776   6.012   0.200  1.0539 -0.2592 -2.4713
 2310SOL     OW 7387   2.473   6.158   5.916  0.2494 -0.1998  0.1260
 2310SOL    HW1 7388   2.551   6.103   5.925 -0.6209 -1.3617  0.9321
 2310SOL    HW2 7389   2.486   6.228   5.980 -0.3506 -1.6634  1.9662
 2311SOL     OW 7390   2.033   2.413   5.916  0.4024 -0.6471 -1.0416
 2311SOL    HW1 7391   1.946   2.413   5.955  1.3585 -0.4056  1.2262
 2311SOL    HW2 7392   2.093   2.420   5.990  2.3219  0.6228 -2.6022
 2312SOL     OW 7393   1.123   4.162   2.198  0.0176 -0.5644  0.2209
 2312SOL    HW1 7394   1.175   4.234   2.235 -1.2067  0.3786  0.1521
 2312SOL    HW2 7395   1.077   4.201   2.124 -1.3315 -1.1954  0.7103
 2313SOL     OW 7396   0.078   0.226   1.379 -0.4179 -0.7048 -0.1400
 2313SOL    HW1 7397   0.138   0.286   1.335 -0.7565 -0.6802 -0.5873
 2313SOL    HW2 7398   0.074   0.150   1.321 -1.6298 -0.2632 -0.6777
 2314SOL     OW 7399   3.200   0.544   1.008 -0.1637 -0.5165 -0.1380
 2314SOL    HW1 7400   3.194   0.494   1.089  0.0142 -0.1104  0.1226
 2314SOL    HW2 7401   3.109   0.558   0.982 -0.2288 -0.2332  0.2412
 2315SOL     OW 7402   1.320   3.757   4.429  0.3507 -0.4034  0.5385
 2315SOL    HW1 7403   1.384   3.782   4.363 -0.7172 -1.0318 -0.7868
 2315SOL    HW2 7404   1.346   3.669   4.456 -1.2280 -1.6657 -1.7542
 2316SOL     OW 7405   0.252   1.558   4.280 -0.0365 -0.2027 -0.6385
 2316SOL    HW1 7406   0.261   1.518   4.367 -0.6528 -0.3754 -0.6520
 2316SOL    HW2 7407   0.162   1.538   4.253 -0.4907  1.4963 -0.4946
 2317SOL     OW 7408   1.244   1.181   2.938 -0.4780 -0.4784 -0.5840
 2317SOL    HW1 7409   1.160   1.186   2.984  0.8485 -2.0164  2.2895
 2317SOL    HW2 7410   1.289   1.261   2.963  0.7259 -1.8661  2.0614
 2318SOL     OW 7411   5.655   2.400   3.889 -0.2189 -0.3333 -0.0923
 2318SOL    HW1 7412   5.649   2.315   3.933 -0.0090  0.2566  1.1187
 2318SOL    HW2 7413   5.727   2.446   3.934  0.2137  0.1842 -1.2663
 2319SOL     OW 7414   0.134   0.189   4.549 -0.6915  0.5061  0.0312
 2319SOL    HW1 7415   0.121   0.097   4.524  2.4344  0.0223 -0.1571
 2319SOL    HW2 7416   0.097   0.194   4.638  0.7134 -1.4939  0.8186
 2320SOL     OW 7417   0.286   5.880   4.135 -0.0857 -0.0843  0.1383
 2320SOL    HW1 7418   0.216   5.835   4.183 -1.3864 -0.4697 -1.9671
 2320SOL    HW2 7419   0.334   5.810   4.091  0.5181  0.2960  0.1907
 2321SOL     OW 7420   2.357   5.060   2.818 -1.0361 -0.0598  0.7298
 2321SOL    HW1 7421   2.382   5.134   2.762  1.4110 -1.4178 -0.1220
 2321SOL    HW2 7422   2.429   5.051   2.879  0.2505 -3.4060 -1.0000
 2322SOL     OW 7423   0.682   1.507   1.738  0.2471 -0.9317  0.5445
 2322SOL    HW1 7424   0.732   1.514   1.820  0.9648 -2.2408  0.2403
 2322SOL    HW2 7425   0.604   1.561   1.753 -0.3156 -2.2114  2.6041
 2323SOL     OW 7426   0.716   6.140   3.850 -0.2237  0.0526 -0.4893
 2323SOL    HW1 7427   0.740   6.230   3.824  0.8931 -0.0778  0.0329
 2323SOL    HW2 7428   0.776   6.085   3.800  1.9728 -0.2185  2.1946
 2324SOL     OW 7429   2.635   3.539   5.975 -0.3861 -0.0462 -0.0631
 2324SOL    HW1 7430   2.633   3.452   6.015 -0.1357  0.2285  0.5610
 2324SOL    HW2 7431   2.612   3.524   5.884  0.7993 -0.9352 -0.2509
 2325SOL     OW 7432   0.840   3.953   3.960 -0.3150  0.2176 -0.2878
 2325SOL    HW1 7433   0.878   4.029   4.005 -0.9825 -1.7371  4.1035
 2325SOL    HW2 7434   0.907   3.885   3.966 -1.7665 -1.1662  1.1089
 2326SOL     OW 7435   3.820   1.731   2.317  0.6083 -0.3038 -0.0287
 2326SOL    HW1 7436   3.786   1.738   2.228  0.1105 -1.5270  0.0372
 2326SOL    HW2 7437   3.856   1.642   2.322 -3.4583 -2.1186  2.2973
 2327SOL     OW 7438   6.102   5.500   6.267  0.4115  0.2645  0.1077
 2327SOL    HW1 7439   6.134   5.410   6.253 -2.3561 -0.8356  0.1568
 2327SOL    HW2 7440   6.007   5.490   6.273  0.1243  3.0718  1.4857
 2328SOL     OW 7441   4.009   2.133   2.979 -0.1128  0.2273 -0.6532
 2328SOL    HW1 7442   4.070   2.119   3.051  0.4291 -0.1002 -1.1654
 2328SOL    HW2 7443   3.926   2.097   3.010 -0.1796  1.0945  0.2290
 2329SOL     OW 7444   0.541   3.456   6.134  0.2372 -0.0372  0.3443
 2329SOL    HW1 7445   0.483   3.528   6.109  0.6089  0.2974  0.4260
 2329SOL    HW2 7446   0.626   3.498   6.148  0.4498 -0.4894  0.4263
 2330SOL     OW 7447   3.924   5.819   2.383 -0.3748  0.0508  0.1675
 2330SOL    HW1 7448   3.923   5.777   2.469 -1.8908 -0.5937 -0.1298
 2330SOL    HW2 7449   3.833   5.812   2.352  0.8454 -3.7570 -3.4111
 2331SOL     OW 7450   0.747   1.245   0.323 -0.2695 -0.1684  0.1340
 2331SOL    HW1 7451   0.663   1.286   0.341  0.3220  0.2260  2.2020
 2331SOL    HW2 7452   0.811   1.300   0.368  1.4009  0.6869 -2.9564
 2332SOL     OW 7453   0.973   5.699   1.250  0.2614 -0.0688  0.4755
 2332SOL    HW1 7454   0.917   5.753   1.194 -0.7141 -1.2754  0.2443
 2332SOL    HW2 7455   0.912   5.657   1.310  0.8996 -1.5552  0.1140
 2333SOL     OW 7456   3.695   1.289   1.575 -0.5248  0.0665 -0.1759
 2333SOL    HW1 7457   3.650   1.206   1.564 -1.5740  0.6733 -0.6233
 2333SOL    HW2 7458   3.743   1.279   1.657  0.0061 -1.2451 -0.6222
 2334SOL     OW 7459   0.023   5.821   0.730 -0.2658 -0.1702 -0.5286
 2334SOL    HW1 7460   0.110   5.782   0.739 -0.0269  0.8069  2.7989
 2334SOL    HW2 7461   0.033   5.911   0.760 -2.7405 -0.6608  2.3029
 2335SOL     OW 7462   1.659   3.663   0.597  0.0537  0.6116  0.2234
 2335SOL    HW1 7463   1.637   3.664   0.690  0.8945  0.2296  0.4387
 2335SOL    HW2 7464   1.699   3.577   0.582  0.0903  0.7395 -0.4444
 2336SOL     OW 7465   3.366   0.548   4.289 -0.1321 -0.2008  0.7589
 2336SOL    HW1 7466   3.401   0.492   4.359 -0.5597  0.5345  1.5840
 2336SOL    HW2 7467   3.366   0.492   4.211  4.4664  0.1539  0.1872
 2337SOL     OW 7468   3.056   0.109   2.037 -0.1304 -0.0034  0.3401
 2337SOL    HW1 7469   3.052   0.205   2.039  2.5971  0.1678  0.9160
 2337SOL    HW2 7470   3.002   0.081   2.111 -2.4616  0.9145 -0.8774
 2338SOL     OW 7471   5.919   6.047   1.809 -0.0009 -0.2305 -0.6862
 2338SOL    HW1 7472   5.884   6.088   1.729 -1.5324  1.4354  0.7413
 2338SOL    HW2 7473   5.841   6.023   1.859  0.9275 -2.0845 -0.0591
 2339SOL     OW 7474   2.644   0.514   5.032 -0.3339  0.0453  0.1750
 2339SOL    HW1 7475   2.578   0.540   5.097 -2.2327 -0.3022 -1.5086
 2339SOL    HW2 7476   2.693   0.594   5.014 -2.2521  1.0934 -0.6579
 2340SOL     OW 7477   4.478   3.590   0.715 -0.1925 -0.7399  0.3419
 2340SOL    HW1 7478   4.540   3.606   0.644  0.4898 -0.7316  0.9281
 2340SOL    HW2 7479   4.483   3.669   0.769 -0.8875 -0.6439  0.2800
 2341SOL     OW 7480   1.989   5.659   4.119  0.5756 -0.4414 -0.2422
 2341SOL    HW1 7481   2.026   5.691   4.036 -1.0844  0.5466 -0.6398
 2341SOL    HW2 7482   1.908   5.707   4.129  0.6148 -0.7361  1.8678
 2342SOL     OW 7483   6.056   3.500   3.693  0.3955 -0.1471 -0.3874
 2342SOL    HW1 7484   6.135   3.471   3.738  0.5779  0.5029 -0.2823
 2342SOL    HW2 7485   6.082   3.510   3.601  1.2605  2.8570  0.0743
 2343SOL     OW 7486   5.739   6.175   3.790  0.1903  0.2333 -0.3431
 2343SOL    HW1 7487   5.670   6.204   3.730  1.5348  0.0333 -2.0754
 2343SOL    HW2 7488   5.776   6.256   3.825 -1.2788  0.3269  1.0683
 2344SOL     OW 7489   0.867   3.684   0.638  0.3792  0.8543  0.4527
 2344SOL    HW1 7490   0.898   3.700   0.549 -0.2333  2.3375  0.4804
 2344SOL    HW2 7491   0.888   3.592   0.654 -0.8188  0.1291 -1.7533
 2345SOL     OW 7492   4.419   1.538   1.919 -0.8412  0.7203  0.0341
 2345SOL    HW1 7493   4.348   1.474   1.933  0.1186 -0.3923  0.0294
 2345SOL    HW2 7494   4.393   1.614   1.971 -2.4273  0.6596 -0.6149
 2346SOL     OW 7495   5.833   4.157   2.009  0.4250  0.2839  0.5611
 2346SOL    HW1 7496   5.851   4.091   2.076 -1.3559 -0.7118  0.1410
 2346SOL    HW2 7497   5.863   4.118   1.927 -0.5815 -0.0203  0.3185
 2347SOL     OW 7498   3.626   2.809   1.826  0.5999  0.2053 -0.4606
 2347SOL    HW1 7499   3.684   2.794   1.901  0.8967  1.0070 -0.5287
 2347SOL    HW2 7500   3.549   2.852   1.863 -0.0195 -0.9507 -0.3531
 2348SOL     OW 7501   4.198   2.301   4.286 -0.4418  0.0554 -0.4079
 2348SOL    HW1 7502   4.149   2.343   4.216  1.2555  1.2440 -0.9365
 2348SOL    HW2 7503   4.279   2.273   4.246  0.0275 -0.3871  0.7951
 2349SOL     OW 7504   4.021   5.393   3.118  0.1135 -0.3125  0.1372
 2349SOL    HW1 7505   4.005   5.483   3.145 -2.3738 -1.0492  1.3187
 2349SOL    HW2 7506   3.937   5.350   3.125  1.4605 -3.0627  0.7859
 2350SOL     OW 7507   5.604   0.645   5.209 -0.1147  0.1523  0.2151
 2350SOL    HW1 7508   5.651   0.594   5.275  2.6900  1.1469 -0.8640
 2350SOL    HW2 7509   5.670   0.703   5.172 -1.9166  0.7263 -2.3955
 2351SOL     OW 7510   4.551   3.105   2.048  0.1775 -0.4019 -0.0963
 2351SOL    HW1 7511   4.578   3.056   1.969 -1.0710 -4.0989  1.5449
 2351SOL    HW2 7512   4.456   3.104   2.045  0.1280  1.1514  0.5214
 2352SOL     OW 7513   5.736   1.234   0.466 -0.2357  0.3166 -0.6841
 2352SOL    HW1 7514   5.737   1.302   0.534 -0.0114 -1.4106  1.1107
 2352SOL    HW2 7515   5.816   1.183   0.482 -1.4648 -1.6694 -0.6020
 2353SOL     OW 7516   2.219   5.521   0.992 -0.1494  0.7750 -0.1227
 2353SOL    HW1 7517   2.246   5.576   0.918  0.0021  1.2855  0.3100
 2353SOL    HW2 7518   2.242   5.432   0.965 -1.6657  0.7363 -1.4263
 2354SOL     OW 7519   1.378   5.274   6.173  0.0001  0.1619  0.6465
 2354SOL    HW1 7520   1.380   5.179   6.160  0.5374  0.2176  0.3018
 2354SOL    HW2 7521   1.285   5.294   6.187 -0.2538 -0.2741 -0.3271
 2355SOL     OW 7522   6.257   1.836   6.335  0.2856  0.0704 -0.4075
 2355SOL    HW1 7523   6.198   1.844   6.261 -0.9222  0.5776  0.5704
 2355SOL    HW2 7524   6.295   1.923   6.345 -1.5171  0.7670  1.0899
 2356SOL     OW 7525   0.283   5.347   6.085 -0.2288 -0.4695 -0.2645
 2356SOL    HW1 7526   0.250   5.434   6.108 -1.7126 -1.2919  0.9083
 2356SOL    HW2 7527   0.329   5.318   6.163 -2.7032 -2.0745  0.7123
 2357SOL     OW 7528   5.273   1.580   5.056  0.0863  0.4277  0.0240
 2357SOL    HW1 7529   5.323   1.542   4.984 -0.2451  1.8037 -0.9836
 2357SOL    HW2 7530   5.338   1.600   5.122  0.1393 -3.0540  1.2428
 2358SOL     OW 7531   0.876   2.740   4.787  0.0092  0.3384 -0.0413
 2358SOL    HW1 7532   0.824   2.819   4.772 -0.2920  0.2427  0.4971
 2358SOL    HW2 7533   0.960   2.773   4.821  0.1087  0.4582 -0.3953
 2359SOL     OW 7534   2.487   2.538   2.758  0.0854  0.0280  0.2351
 2359SOL    HW1 7535   2.501   2.632   2.751  0.9291 -0.0979  0.2161
 2359SOL    HW2 7536   2.440   2.515   2.678  0.5637  0.3050 -0.1250
 2360SOL     OW 7537   4.931   4.285   4.964 -0.2036 -0.5466 -0.5537
 2360SOL    HW1 7538   4.860   4.326   4.915 -1.5245 -0.6272  1.1914
 2360SOL    HW2 7539   4.912   4.192   4.962 -0.1807 -0.5663 -0.0551
 2361SOL     OW 7540   5.269   2.380   0.189  0.2588  0.0766  0.3919
 2361SOL    HW1 7541   5.271   2.443   0.117  1.0937  0.5062  0.7808
 2361SOL    HW2 7542   5.185   2.396   0.232  0.2464  0.5786  0.1848
 2362SOL     OW 7543   2.809   2.558   5.251  0.0325  0.6550  0.7082
 2362SOL    HW1 7544   2.792   2.590   5.162  1.5812 -0.8807 -0.2052
 2362SOL    HW2 7545   2.894   2.596   5.274  0.6391 -0.6319  0.6571
 2363SOL     OW 7546   4.337   3.227   1.416  0.5206 -0.3976  0.1300
 2363SOL    HW1 7547   4.378   3.262   1.336 -2.5124 -0.5725 -1.6577
 2363SOL    HW2 7548   4.366   3.136   1.419 -1.4069 -1.2481 -2.4998
 2364SOL     OW 7549   3.164   5.647   3.937 -0.1230  0.0010  0.5664
 2364SOL    HW1 7550   3.118   5.731   3.940  1.0132  0.6232  1.2102
 2364SOL    HW2 7551   3.241   5.659   3.992  0.1168 -1.4442  0.6018
 2365SOL     OW 7552   5.670   2.635   1.378  0.3111  0.4013  0.1407
 2365SOL    HW1 7553   5.665   2.541   1.362 -0.9625  0.6557 -1.2768
 2365SOL    HW2 7554   5.604   2.652   1.445 -1.1299  0.5289 -1.2288
 2366SOL     OW 7555   5.342   2.197   0.593 -0.3362  0.1497  0.7306
 2366SOL    HW1 7556   5.410   2.207   0.527 -1.2725 -0.3263 -0.3474
 2366SOL    HW2 7557   5.353   2.272   0.652  0.9276  0.2174  0.4257
 2367SOL     OW 7558   2.941   2.655   2.021  0.2796 -0.1172  0.1498
 2367SOL    HW1 7559   2.909   2.576   2.065  3.1102 -2.0852 -0.9675
 2367SOL    HW2 7560   2.878   2.671   1.951  0.5036 -2.4906 -0.6781
 2368SOL     OW 7561   0.753   6.357   6.239 -0.3661  0.2012 -0.0083
 2368SOL    HW1 7562   0.774   6.284   6.181 -0.6407  0.0298  0.1036
 2368SOL    HW2 7563   0.774   6.325   6.327 -0.2071  0.3631  0.0123
 2369SOL     OW 7564   2.696   5.453   4.821 -0.1498  0.3098 -0.0690
 2369SOL    HW1 7565   2.665   5.458   4.911 -1.8164  0.8855 -0.6412
 2369SOL    HW2 7566   2.717   5.360   4.808  0.8066  0.3310  1.1017
 2370SOL     OW 7567   0.747   5.725   2.023  0.1385  0.4014 -0.2127
 2370SOL    HW1 7568   0.699   5.647   1.994  0.6658 -0.5716  1.3555
 2370SOL    HW2 7569   0.751   5.781   1.946 -0.2702 -1.1235 -1.4064
 2371SOL     OW 7570   5.465   4.883   2.903  0.1013  0.6665  0.5633
 2371SOL    HW1 7571   5.494   4.974   2.897 -0.0832  0.6310 -1.2770
 2371SOL    HW2 7572   5.377   4.884   2.866 -0.0868 -0.1899  0.9732
 2372SOL     OW 7573   4.900   3.413   5.408 -0.3159 -0.2617  0.7347
 2372SOL    HW1 7574   4.888   3.439   5.317  1.0757 -0.9949  0.3029
 2372SOL    HW2 7575   4.868   3.323   5.411 -1.9446  0.3188  1.3979
 2373SOL     OW 7576   3.188   0.195   0.500 -0.2212  0.3129  0.1762
 2373SOL    HW1 7577   3.113   0.154   0.543 -0.7847  0.8506 -0.2962
 2373SOL    HW2 7578   3.245   0.121   0.477 -1.5616 -0.2938 -1.3092
 2374SOL     OW 7579   2.450   2.856   0.410  0.1928  0.2133  0.6195
 2374SOL    HW1 7580   2.531   2.806   0.421  0.4802  0.2290 -1.2049
 2374SOL    HW2 7581   2.380   2.791   0.422  0.4898 -0.0205  1.1125
 2375SOL     OW 7582   1.874   2.811   5.261 -0.1547 -0.1413  0.4618
 2375SOL    HW1 7583   1.806   2.756   5.221  0.9433 -0.5505 -0.9124
 2375SOL    HW2 7584   1.956   2.767   5.240  0.6630  1.3280  0.4774
 2376SOL     OW 7585   3.367   5.391   1.697  0.1104  0.8210  0.0661
 2376SOL    HW1 7586   3.339   5.334   1.625 -0.2323  1.0506  0.0134
 2376SOL    HW2 7587   3.291   5.448   1.713  0.6733  1.7056 -0.3281
 2377SOL     OW 7588   2.215   2.931   4.566  0.6771 -0.5293  0.1776
 2377SOL    HW1 7589   2.296   2.974   4.596  0.3300  0.9183 -0.8285
 2377SOL    HW2 7590   2.235   2.901   4.478  0.1102 -0.1165 -0.0966
 2378SOL     OW 7591   2.239   1.861   0.472 -0.2385  0.4805 -0.0402
 2378SOL    HW1 7592   2.145   1.878   0.462 -0.0189  1.2763 -0.9101
 2378SOL    HW2 7593   2.248   1.766   0.459 -0.8602  0.4832 -0.5460
 2379SOL     OW 7594   2.064   1.259   4.887 -0.3216 -0.0795 -0.1435
 2379SOL    HW1 7595   2.002   1.193   4.917 -1.0177 -0.1092 -1.5943
 2379SOL    HW2 7596   2.104   1.293   4.968 -0.8349 -1.3939  0.6874
 2380SOL     OW 7597   2.069   2.218   3.263  0.1040  0.1407  0.0343
 2380SOL    HW1 7598   2.163   2.236   3.253  0.0588 -0.5449 -2.1547
 2380SOL    HW2 7599   2.054   2.139   3.211 -1.6748  0.1424  0.4764
 2381SOL     OW 7600   5.082   0.805   0.565 -0.1689  0.0153 -0.2645
 2381SOL    HW1 7601   5.057   0.873   0.629 -0.0711 -0.1023 -0.0989
 2381SOL    HW2 7602   5.171   0.830   0.539 -0.5082  0.5153 -0.9623
 2382SOL     OW 7603   5.820   4.705   1.204 -0.1847  0.2217 -0.1234
 2382SOL    HW1 7604   5.828   4.616   1.238  1.9504  0.7556  0.9251
 2382SOL    HW2 7605   5.800   4.694   1.111 -1.6638 -1.3046  0.3231
 2383SOL     OW 7606   4.719   0.074   0.842 -0.3524  0.2218  0.0338
 2383SOL    HW1 7607   4.703   0.153   0.790  1.1954  0.0841 -0.7127
 2383SOL    HW2 7608   4.813   0.059   0.834 -0.2904 -0.6030  1.7679
 2384SOL     OW 7609   3.047   3.065   4.526 -0.3814  0.4006 -0.3355
 2384SOL    HW1 7610   3.030   3.057   4.620  1.8745  0.1139  0.1215
 2384SOL    HW2 7611   3.076   2.978   4.500 -2.9768 -0.1163 -1.8461
 2385SOL     OW 7612   6.353   4.652   2.274  0.0134 -0.1061  0.2310
 2385SOL    HW1 7613   6.288   4.620   2.212 -2.1021  2.8769  0.7316
 2385SOL    HW2 7614   6.400   4.720   2.227 -0.2611  0.8121  1.2545
 2386SOL     OW 7615   5.150   5.974   5.864  0.0522 -0.3658  0.0530
 2386SOL    HW1 7616   5.079   6.004   5.808 -0.2113 -0.3157  0.4102
 2386SOL    HW2 7617   5.131   5.881   5.878  0.1495 -0.3919  0.0160
 2387SOL     OW 7618   1.350   3.766   0.918  0.1400 -0.0434 -0.5080
 2387SOL    HW1 7619   1.300   3.688   0.892 -0.2711  1.1593 -3.8651
 2387SOL    HW2 7620   1.309   3.795   0.999 -2.2035 -1.2200 -1.1725
 2388SOL     OW 7621   5.915   5.286   5.616  0.4772  0.3338  0.1594
 2388SOL    HW1 7622   5.917   5.382   5.607 -0.5463  0.3922  0.4113
 2388SOL    HW2 7623   5.835   5.269   5.667  0.2202 -0.7082 -0.5622
 2389SOL     OW 7624   2.511   0.685   2.430 -0.6210  0.2351  0.2579
 2389SOL    HW1 7625   2.556   0.621   2.485 -0.8705 -0.1618  0.0004
 2389SOL    HW2 7626   2.454   0.733   2.491  0.3190  0.9116  0.6323
 2390SOL     OW 7627   3.134   3.448   2.856 -0.0366  0.0144 -0.2916
 2390SOL    HW1 7628   3.160   3.540   2.851 -0.8986  0.1978 -2.7429
 2390SOL    HW2 7629   3.167   3.409   2.775  3.1919 -2.7365  2.0417
 2391SOL     OW 7630   1.466   0.455   5.366  0.2948  0.9005  0.3317
 2391SOL    HW1 7631   1.371   0.452   5.350  0.4035  0.8984 -0.3410
 2391SOL    HW2 7632   1.474   0.472   5.460 -0.3766  2.3973  0.1340
 2392SOL     OW 7633   2.716   1.552   1.086  0.4321  0.2729 -0.1794
 2392SOL    HW1 7634   2.736   1.503   1.006 -0.0225  2.4921 -1.7363
 2392SOL    HW2 7635   2.648   1.613   1.060  1.2095  1.9745  1.5701
 2393SOL     OW 7636   1.486   3.935   3.564 -0.3973  0.1010 -0.0027
 2393SOL    HW1 7637   1.549   3.865   3.579  1.2148  1.4423 -0.1436
 2393SOL    HW2 7638   1.420   3.923   3.633  0.0614 -1.2815  0.2333
 2394SOL     OW 7639   2.058   6.367   4.373  0.3627 -0.4070  0.4461
 2394SOL    HW1 7640   2.106   6.284   4.376 -0.4175 -0.8397  1.2117
 2394SOL    HW2 7641   1.983   6.354   4.431 -1.8729 -0.4663 -2.2409
 2395SOL     OW 7642   1.505   3.993   2.246 -0.7298 -0.1426  0.0653
 2395SOL    HW1 7643   1.492   3.917   2.189 -0.3399 -0.5247  0.4756
 2395SOL    HW2 7644   1.581   3.970   2.299 -0.0741  0.9138 -0.4057
 2396SOL     OW 7645   1.976   5.695   4.470 -0.2587 -0.1549  0.6871
 2396SOL    HW1 7646   2.011   5.706   4.558 -0.2308  0.0229  0.6545
 2396SOL    HW2 7647   2.051   5.668   4.418 -0.1437  0.3123  0.5996
 2397SOL     OW 7648   0.406   0.482   2.327  0.6571 -0.2120 -0.1840
 2397SOL    HW1 7649   0.311   0.469   2.333  0.6809 -0.1280  0.4043
 2397SOL    HW2 7650   0.441   0.437   2.403  1.3400 -2.4454 -1.7208
 2398SOL     OW 7651   3.955   5.925   4.389 -0.2739 -0.1409  0.4587
 2398SOL    HW1 7652   3.929   5.889   4.304 -1.4740 -0.2178  0.8410
 2398SOL    HW2 7653   4.024   5.988   4.368  0.0928 -0.8228 -0.4732
 2399SOL     OW 7654   4.708   5.653   3.139  0.1041 -0.4902 -0.6184
 2399SOL    HW1 7655   4.727   5.736   3.095  0.6835 -0.6524 -0.6838
 2399SOL    HW2 7656   4.752   5.659   3.223  0.5959 -0.9344 -0.8355
 2400SOL     OW 7657   0.975   0.705   4.005  0.2334  0.1687  0.1478
 2400SOL    HW1 7658   0.907   0.720   4.071  0.1160 -2.8114  0.8858
 2400SOL    HW2 7659   0.927   0.677   3.927  0.5161  0.7898 -0.2581
 2401SOL     OW 7660   3.113   1.789   5.275 -0.1032 -0.1534  0.1869
 2401SOL    HW1 7661   3.024   1.762   5.254 -0.8605  2.1588  0.1245
 2401SOL    HW2 7662   3.151   1.818   5.192 -0.8291  2.8105  0.7687
 2402SOL     OW 7663   0.121   1.284   5.212  0.3152 -0.7920  0.3053
 2402SOL    HW1 7664   0.119   1.295   5.307 -1.7970  1.1016  0.1173
 2402SOL    HW2 7665   0.193   1.340   5.183 -0.0982 -0.0530  0.6775
 2403SOL     OW 7666   1.413   2.344   1.698  0.1002 -0.5203  0.2812
 2403SOL    HW1 7667   1.466   2.396   1.638 -0.7020  1.4509  1.1729
 2403SOL    HW2 7668   1.383   2.407   1.764 -2.6769 -1.6820  0.2672
 2404SOL     OW 7669   5.863   2.539   0.222  0.0636 -0.3231  0.2992
 2404SOL    HW1 7670   5.787   2.565   0.170 -1.1552 -1.8036  1.2451
 2404SOL    HW2 7671   5.833   2.462   0.271  1.9026 -0.3942  1.3963
 2405SOL     OW 7672   2.033   4.872   5.675  0.3696  0.1023  0.8014
 2405SOL    HW1 7673   2.076   4.921   5.746 -0.6894  1.2293  0.6977
 2405SOL    HW2 7674   2.034   4.933   5.601  0.2895 -0.5806  0.2295
 2406SOL     OW 7675   5.575   5.178   3.122 -0.2796 -0.0055 -0.6735
 2406SOL    HW1 7676   5.526   5.220   3.192  0.4762 -0.1328 -0.0548
 2406SOL    HW2 7677   5.656   5.229   3.116 -0.1889 -0.2047 -1.2266
 2407SOL     OW 7678   4.596   4.847   6.189  0.2968  0.6771  0.2043
 2407SOL    HW1 7679   4.511   4.888   6.206  0.0941  0.3059  0.0938
 2407SOL    HW2 7680   4.608   4.855   6.095  0.6276  1.1933  0.2863
 2408SOL     OW 7681   6.308   3.421   1.302  0.1096  0.0882 -0.6783
 2408SOL    HW1 7682   6.349   3.480   1.239  1.3537  0.7422  0.6917
 2408SOL    HW2 7683   6.377   3.401   1.365 -1.2607  0.0121  0.8772
 2409SOL     OW 7684   4.143   4.020   4.208  0.2034 -0.5894  0.0644
 2409SOL    HW1 7685   4.103   3.997   4.124  1.4022 -1.0890 -0.3873
 2409SOL    HW2 7686   4.120   3.948   4.266  0.0725 -0.6456 -0.0566
 2410SOL     OW 7687   2.025   0.490   1.546  0.0582  0.0181 -0.8238
 2410SOL    HW1 7688   2.000   0.528   1.461  0.9718  1.6768 -0.3909
 2410SOL    HW2 7689   2.111   0.452   1.531 -0.2154 -0.5999 -0.8741
 2411SOL     OW 7690   2.226   5.706   4.377 -0.3690 -0.6248  0.0688
 2411SOL    HW1 7691   2.287   5.755   4.323 -0.2542 -1.2231 -0.3507
 2411SOL    HW2 7692   2.265   5.707   4.465 -0.0706 -0.4930 -0.0646
 2412SOL     OW 7693   1.563   4.038   6.017  0.4840  0.1257  0.3415
 2412SOL    HW1 7694   1.557   3.951   5.977  0.6937 -0.7436  2.0909
 2412SOL    HW2 7695   1.476   4.076   6.006 -0.4323 -1.3867  1.7930
 2413SOL     OW 7696   0.012   6.055   4.931  0.3766  0.2931 -0.3493
 2413SOL    HW1 7697  -0.016   6.127   4.986 -1.5556  1.0813 -2.2313
 2413SOL    HW2 7698  -0.063   5.996   4.928  0.1576  0.6008 -2.5698
 2414SOL     OW 7699   5.124   1.208   5.401 -0.6359 -0.1658  0.8234
 2414SOL    HW1 7700   5.181   1.264   5.349 -1.1978  0.2285  0.6179
 2414SOL    HW2 7701   5.053   1.184   5.342  0.1649 -2.0706  0.5350
 2415SOL     OW 7702   0.712   5.172   4.698  0.2244 -0.0838  0.5841
 2415SOL    HW1 7703   0.805   5.172   4.721  0.0648  0.4292  1.2671
 2415SOL    HW2 7704   0.711   5.154   4.604  1.0182 -0.0452  0.5564
 2416SOL     OW 7705   4.213   1.502   4.329 -0.2456 -0.1754 -0.4708
 2416SOL    HW1 7706   4.176   1.424   4.370 -0.7191  0.2221 -0.1191
 2416SOL    HW2 7707   4.266   1.469   4.256  2.8779 -1.1609  1.9921
 2417SOL     OW 7708   4.206   1.292   5.462 -0.5201  0.2426 -0.0011
 2417SOL    HW1 7709   4.163   1.266   5.543  0.7949 -0.7390  0.4223
 2417SOL    HW2 7710   4.142   1.346   5.417 -1.8747 -0.4980  0.9643
 2418SOL     OW 7711   3.768   5.258   4.645  0.5652  0.0002  0.0608
 2418SOL    HW1 7712   3.705   5.330   4.636 -0.4573 -1.0046 -1.1861
 2418SOL    HW2 7713   3.835   5.277   4.579  0.3169 -0.1672 -0.2404
 2419SOL     OW 7714   2.015   4.460   1.294  0.0055 -0.1327  0.0152
 2419SOL    HW1 7715   1.939   4.403   1.279  0.1919 -0.4266  0.1819
 2419SOL    HW2 7716   1.981   4.534   1.345 -0.2626 -0.0310 -0.3082
 2420SOL     OW 7717   0.285   4.786   5.266  0.0432  0.2846  0.4140
 2420SOL    HW1 7718   0.218   4.736   5.312 -1.4419  0.7357 -1.1613
 2420SOL    HW2 7719   0.350   4.720   5.240 -1.3843 -0.7475 -0.7577
 2421SOL     OW 7720   0.215   3.465   1.885 -0.1121 -0.1316  0.2993
 2421SOL    HW1 7721   0.280   3.406   1.924  0.6855 -0.7417 -1.7971
 2421SOL    HW2 7722   0.188   3.421   1.804 -1.8656  0.9350  0.2460
 2422SOL     OW 7723   0.999   4.200   5.413 -0.0157  0.6959 -0.3581
 2422SOL    HW1 7724   0.997   4.111   5.448  0.1514  0.9681  0.3578
 2422SOL    HW2 7725   1.071   4.200   5.350  0.1037  0.3742 -0.2204
 2423SOL     OW 7726   2.468   5.389   2.981  0.4591 -0.3927  0.1748
 2423SOL    HW1 7727   2.527   5.393   2.906  0.1804 -1.1323 -0.0970
 2423SOL    HW2 7728   2.526   5.399   3.057  0.5642  1.8944 -0.1492
 2424SOL     OW 7729   3.642   2.830   6.373 -0.3858  0.4087 -0.4552
 2424SOL    HW1 7730   3.555   2.817   6.409  0.8881 -0.9288  2.3848
 2424SOL    HW2 7731   3.702   2.814   6.446  2.2743  1.3019 -2.2757
 2425SOL     OW 7732   2.824   3.277   5.844  0.0107 -0.2112 -0.2113
 2425SOL    HW1 7733   2.768   3.253   5.918  0.0467 -0.7294 -0.3509
 2425SOL    HW2 7734   2.877   3.199   5.828 -1.1529 -0.7089 -1.8655
 2426SOL     OW 7735   5.526   1.201   1.369 -0.4046 -0.4228 -0.4386
 2426SOL    HW1 7736   5.488   1.269   1.424 -0.7576 -1.8552  1.1502
 2426SOL    HW2 7737   5.455   1.138   1.356  0.0250 -0.6955 -1.5570
 2427SOL     OW 7738   2.469   1.297   4.056 -0.0635 -0.1731  0.0745
 2427SOL    HW1 7739   2.513   1.260   3.980  0.1083 -0.6374  0.3937
 2427SOL    HW2 7740   2.537   1.347   4.102 -0.5390  1.4144 -0.9030
 2428SOL     OW 7741   0.332   2.197   4.795 -0.0178 -0.0241  0.0261
 2428SOL    HW1 7742   0.293   2.110   4.798  0.8494 -0.4579 -0.6175
 2428SOL    HW2 7743   0.260   2.257   4.814 -0.5367 -0.9027  0.9082
 2429SOL     OW 7744   6.238   6.254   5.054 -0.1231 -0.2865 -0.6079
 2429SOL    HW1 7745   6.234   6.280   5.146  0.0821 -0.8302 -0.4433
 2429SOL    HW2 7746   6.210   6.332   5.006  0.2180  0.1455 -0.1091
 2430SOL     OW 7747   2.408   1.261   4.871  0.7166 -0.8887 -0.2117
 2430SOL    HW1 7748   2.424   1.274   4.778  0.6757 -0.1048 -0.1162
 2430SOL    HW2 7749   2.418   1.348   4.910 -0.6057 -0.9567  0.3229
 2431SOL     OW 7750   1.569   6.073   0.958  0.3554  0.1479 -0.0514
 2431SOL    HW1 7751   1.649   6.033   0.924  0.4668 -0.2257  0.6209
 2431SOL    HW2 7752   1.569   6.051   1.051 -0.0013  1.0340  0.1727
 2432SOL     OW 7753   2.485   3.072   0.259 -0.1394 -0.4789  0.0385
 2432SOL    HW1 7754   2.575   3.077   0.292 -0.4805  0.0090  0.9442
 2432SOL    HW2 7755   2.443   3.004   0.312 -0.0845 -1.3056 -0.9579
 2433SOL     OW 7756   4.381   2.608   5.138 -0.6024  0.1737  0.1751
 2433SOL    HW1 7757   4.444   2.595   5.068  0.1310 -0.6336  0.9590
 2433SOL    HW2 7758   4.409   2.690   5.180  0.5414 -0.6535  1.1075
 2434SOL     OW 7759   0.578   4.868   0.196  0.0632  0.0141 -0.4796
 2434SOL    HW1 7760   0.538   4.911   0.120  0.3468 -1.6581 -1.6370
 2434SOL    HW2 7761   0.552   4.922   0.270  0.1510  1.9769 -1.7967
 2435SOL     OW 7762   3.291   5.976   4.359  0.0928  0.2673  0.0452
 2435SOL    HW1 7763   3.252   6.007   4.441 -2.8157 -1.8254 -0.3957
 2435SOL    HW2 7764   3.248   6.028   4.292 -0.7879 -0.9592 -0.3669
 2436SOL     OW 7765   2.574   2.028   0.407 -0.2272 -0.7660 -0.1727
 2436SOL    HW1 7766   2.606   1.941   0.385  0.1682 -1.4486  2.7396
 2436SOL    HW2 7767   2.498   2.012   0.463  1.4733  0.5828  2.7832
 2437SOL     OW 7768   4.195   0.059   2.291 -0.3115  0.0503  0.0362
 2437SOL    HW1 7769   4.288   0.052   2.270 -0.0363 -1.7371  1.5905
 2437SOL    HW2 7770   4.150   0.029   2.212  0.4886 -0.5894 -0.1854
 2438SOL     OW 7771   1.722   5.699   5.835 -0.5102  0.5232 -0.5608
 2438SOL    HW1 7772   1.780   5.624   5.847 -0.8797  0.1134 -1.3058
 2438SOL    HW2 7773   1.771   5.773   5.871  0.1341  0.0417 -0.4375
 2439SOL     OW 7774   3.159   6.205   1.744  0.5696 -0.3057 -0.3645
 2439SOL    HW1 7775   3.239   6.158   1.768 -0.1402 -0.7375  1.2984
 2439SOL    HW2 7776   3.113   6.147   1.683  1.5074 -0.0353 -1.3660
 2440SOL     OW 7777   5.072   0.132   5.669 -0.4558  0.3986 -0.0339
 2440SOL    HW1 7778   5.002   0.197   5.659 -0.0815  0.7900 -0.1887
 2440SOL    HW2 7779   5.059   0.072   5.596  1.7481  2.7622 -2.6313
 2441SOL     OW 7780   5.856   3.582   6.223 -0.3913 -0.1055 -0.2268
 2441SOL    HW1 7781   5.833   3.660   6.174 -1.4409  0.4165  1.0438
 2441SOL    HW2 7782   5.942   3.557   6.190 -1.0597  0.2038 -2.2967
 2442SOL     OW 7783   4.073   1.053   1.139  0.5000  0.0247  0.3121
 2442SOL    HW1 7784   4.164   1.028   1.124  1.2755  0.4338  3.4752
 2442SOL    HW2 7785   4.028   0.970   1.157  0.2777 -0.1395 -0.8971
 2443SOL     OW 7786   3.791   0.251   4.194  0.0862 -0.2101  0.2606
 2443SOL    HW1 7787   3.744   0.172   4.221 -2.8254  0.6882 -1.7064
 2443SOL    HW2 7788   3.729   0.322   4.207  1.8536  1.5037 -0.0916
 2444SOL     OW 7789   0.434   2.526   1.496  0.2128 -0.3124  0.1044
 2444SOL    HW1 7790   0.501   2.586   1.464 -2.4695  2.4169 -0.8399
 2444SOL    HW2 7791   0.449   2.521   1.590 -0.7552  3.8494  0.6619
 2445SOL     OW 7792   6.289   5.366   2.822 -0.2159  0.4223 -0.5447
 2445SOL    HW1 7793   6.288   5.317   2.740 -0.3567 -1.1162  0.3247
 2445SOL    HW2 7794   6.208   5.341   2.866  0.2935  0.4743  0.4617
 2446SOL     OW 7795   3.808   4.515   6.086 -0.0543  0.8528  0.6111
 2446SOL    HW1 7796   3.745   4.443   6.085 -0.3267  1.0795  1.0443
 2446SOL    HW2 7797   3.889   4.475   6.117  0.3972  0.2665 -1.2439
 2447SOL     OW 7798   3.379   1.775   1.987  0.5393 -0.5795 -0.6642
 2447SOL    HW1 7799   3.283   1.767   1.984  0.3585  0.9935  0.1315
 2447SOL    HW2 7800   3.408   1.698   2.036 -0.3845 -0.6155 -0.1572
 2448SOL     OW 7801   5.954   2.053   4.227  0.2736  0.4753 -0.0521
 2448SOL    HW1 7802   6.020   2.028   4.162  1.9664 -1.2983  2.1355
 2448SOL    HW2 7803   5.964   2.147   4.236  1.8483  0.3887 -0.5319
 2449SOL     OW 7804   1.730   1.734   2.799  0.0093  0.3645 -0.1975
 2449SOL    HW1 7805   1.797   1.685   2.752 -0.8844 -0.1207 -0.9906
 2449SOL    HW2 7806   1.678   1.667   2.844  0.8952  0.8147  1.6130
 2450SOL     OW 7807   1.900   0.666   1.715  0.3860  0.4167 -0.0694
 2450SOL    HW1 7808   1.959   0.605   1.670 -0.5259  0.0884 -0.8790
 2450SOL    HW2 7809   1.957   0.732   1.752  1.1984  0.8630 -1.9983
 2451SOL     OW 7810   1.011   2.887   2.416 -0.1722  0.1426 -0.1156
 2451SOL    HW1 7811   1.052   2.803   2.435 -0.4275 -0.2451 -1.2359
 2451SOL    HW2 7812   1.083   2.950   2.418  0.4619 -0.4938 -1.7908
 2452SOL     OW 7813   1.494   2.352   4.609 -0.1088 -0.0234 -0.0497
 2452SOL    HW1 7814   1.545   2.354   4.690  1.2948  0.2832 -0.9138
 2452SOL    HW2 7815   1.411   2.394   4.633 -0.0165 -0.5944  1.4008
 2453SOL     OW 7816   2.150   0.984   0.158  0.2485 -0.8577 -0.7730
 2453SOL    HW1 7817   2.189   0.912   0.108  1.9832  0.8572 -2.0558
 2453SOL    HW2 7818   2.217   1.052   0.157 -1.8611  1.3353 -0.8645
 2454SOL     OW 7819   5.660   5.217   5.249 -0.2571 -0.3555 -0.2838
 2454SOL    HW1 7820   5.707   5.155   5.305  0.7873 -0.3701 -1.1525
 2454SOL    HW2 7821   5.727   5.280   5.221 -1.3065  1.3050  0.7198
 2455SOL     OW 7822   5.633   1.466   5.519  0.2610 -0.1090  0.1679
 2455SOL    HW1 7823   5.621   1.372   5.501 -0.3122 -0.1307  0.6368
 2455SOL    HW2 7824   5.611   1.475   5.612  0.1891  0.5174  0.0890
 2456SOL     OW 7825   2.927   6.353   2.955 -0.5320 -0.3814  0.7713
 2456SOL    HW1 7826   2.910   6.419   3.022 -2.4226 -0.9434  0.9027
 2456SOL    HW2 7827   2.875   6.382   2.880  0.2240 -0.6628  0.1235
 2457SOL     OW 7828   0.967   3.418   2.024  0.7011 -0.0518  0.1873
 2457SOL    HW1 7829   0.874   3.405   2.005  1.1528 -1.4106 -1.2881
 2457SOL    HW2 7830   1.007   3.439   1.940  1.7721  0.3814  0.7714
 2458SOL     OW 7831   3.853   3.580   4.959  0.4169 -0.3600  0.2339
 2458SOL    HW1 7832   3.851   3.635   5.037  0.1344  0.1112 -0.0967
 2458SOL    HW2 7833   3.919   3.513   4.978  0.5499 -0.0838  0.7626
 2459SOL     OW 7834   1.470   4.730   1.716 -0.2183 -0.0483 -0.3055
 2459SOL    HW1 7835   1.443   4.649   1.673 -0.1752  0.8684 -2.1519
 2459SOL    HW2 7836   1.388   4.768   1.748 -0.4593  0.0335 -1.0062
 2460SOL     OW 7837   0.992   1.374   5.655  0.3962 -0.5637 -0.2026
 2460SOL    HW1 7838   1.046   1.324   5.717 -0.1795 -0.2222  0.5922
 2460SOL    HW2 7839   1.017   1.341   5.569  1.9922 -0.2850  0.1367
 2461SOL     OW 7840   5.787   4.422   1.255 -0.4338 -0.3887 -0.6260
 2461SOL    HW1 7841   5.723   4.387   1.193 -2.5004  0.0201  1.1758
 2461SOL    HW2 7842   5.857   4.356   1.256 -2.3240 -2.5036 -0.2840
 2462SOL     OW 7843   0.431   3.223   1.499 -0.4995  0.6762 -0.0026
 2462SOL    HW1 7844   0.463   3.151   1.444 -1.7276 -1.1864  1.5948
 2462SOL    HW2 7845   0.390   3.180   1.573  0.1790  3.0784  1.8942
 2463SOL     OW 7846   1.463   1.324   3.526  0.3682 -0.0240  0.1368
 2463SOL    HW1 7847   1.507   1.244   3.552 -0.5575 -0.0854  1.6521
 2463SOL    HW2 7848   1.461   1.378   3.606 -0.6361  0.7306 -0.3656
 2464SOL     OW 7849   3.829   4.126   0.014 -0.0445  0.3422 -0.3302
 2464SOL    HW1 7850   3.745   4.157   0.047  0.6671  1.8178  0.1984
 2464SOL    HW2 7851   3.816   4.117  -0.081 -0.5961  1.2657 -0.3515
 2465SOL     OW 7852   4.983   2.884   2.427 -0.2447 -0.1978  0.1412
 2465SOL    HW1 7853   5.034   2.934   2.363  0.0786  0.0821  0.6107
 2465SOL    HW2 7854   5.002   2.792   2.407  1.3617 -0.1003  1.0226
 2466SOL     OW 7855   5.482   5.312   2.350 -0.2160  0.1637  0.0557
 2466SOL    HW1 7856   5.497   5.269   2.265  1.4977 -0.2842  0.5469
 2466SOL    HW2 7857   5.387   5.318   2.357 -0.4580 -1.7604 -0.9386
 2467SOL     OW 7858   3.887   2.760   1.482  0.3757 -0.6215 -0.2158
 2467SOL    HW1 7859   3.823   2.688   1.478 -0.9405  0.3681  1.6429
 2467SOL    HW2 7860   3.972   2.717   1.490 -0.5119 -2.0797  3.0159
 2468SOL     OW 7861   5.500   3.536   5.550 -0.4392 -0.3594 -0.0953
 2468SOL    HW1 7862   5.438   3.602   5.581 -0.8843 -0.2318 -1.2066
 2468SOL    HW2 7863   5.569   3.587   5.507  0.7695 -0.4618  1.6154
 2469SOL     OW 7864   1.665   2.505   1.635 -0.2319 -0.3253  0.5325
 2469SOL    HW1 7865   1.641   2.593   1.664  1.1348 -0.5985  2.8357
 2469SOL    HW2 7866   1.686   2.459   1.717  0.4791 -2.3483 -0.7276
 2470SOL     OW 7867   0.391   3.679   1.567  0.7936  0.4205  0.3841
 2470SOL    HW1 7868   0.477   3.721   1.572  0.7528  0.6760 -0.7947
 2470SOL    HW2 7869   0.395   3.624   1.488 -0.6849  1.7973 -0.7249
 2471SOL     OW 7870   4.386   0.539   3.216  0.0344  0.1082 -0.0584
 2471SOL    HW1 7871   4.464   0.594   3.222  1.5781 -1.8822 -0.8999
 2471SOL    HW2 7872   4.416   0.451   3.240 -1.8859 -0.7749 -0.6689
 2472SOL     OW 7873   2.997   2.859   0.497 -0.1258  0.0618  0.1832
 2472SOL    HW1 7874   3.086   2.843   0.529 -0.2677 -1.2732 -0.0496
 2472SOL    HW2 7875   3.009   2.879   0.404 -0.2067 -2.1043 -0.3314
 2473SOL     OW 7876   6.133   2.031   4.025  0.4107  0.3748 -0.1830
 2473SOL    HW1 7877   6.213   2.052   4.073  0.2233  1.7092 -0.3955
 2473SOL    HW2 7878   6.163   1.998   3.941  0.7374  0.5200 -0.1248
 2474SOL     OW 7879   4.215   2.448   5.589 -0.5804 -0.0908 -0.0390
 2474SOL    HW1 7880   4.191   2.457   5.497  1.6493 -0.2499 -0.7020
 2474SOL    HW2 7881   4.192   2.533   5.628  0.9993  1.0440 -1.4193
 2475SOL     OW 7882   2.624   0.134   4.823  0.1684  0.3645 -0.3641
 2475SOL    HW1 7883   2.678   0.213   4.820 -1.3455  1.4431 -3.2483
 2475SOL    HW2 7884   2.543   0.162   4.866  0.5431 -0.3471  0.8633
 2476SOL     OW 7885   1.566   2.078   5.056 -0.4577 -0.2396 -0.7350
 2476SOL    HW1 7886   1.512   2.044   5.127 -0.3697 -3.9435 -2.2344
 2476SOL    HW2 7887   1.644   2.113   5.100 -1.0871 -0.9855  1.0582
 2477SOL     OW 7888   1.388   1.720   5.700 -0.0858  0.4942 -0.0565
 2477SOL    HW1 7889   1.405   1.796   5.643 -1.2493 -0.4789 -1.7966
 2477SOL    HW2 7890   1.298   1.733   5.730  0.3133  0.6809  1.1226
 2478SOL     OW 7891   2.949   4.754   5.533 -0.0683  0.6370 -0.2160
 2478SOL    HW1 7892   2.902   4.693   5.476 -1.7741  0.9905  0.7356
 2478SOL    HW2 7893   2.928   4.840   5.498 -0.1097  0.7992  0.2021
 2479SOL     OW 7894   0.852   1.045   0.644 -0.1330 -0.3565  0.9262
 2479SOL    HW1 7895   0.770   1.057   0.693  0.0706 -1.3841  1.5490
 2479SOL    HW2 7896   0.823   1.019   0.556 -0.5039  1.7371  0.3838
 2480SOL     OW 7897   1.711   0.654   2.789 -1.2826  0.0878 -0.2816
 2480SOL    HW1 7898   1.719   0.590   2.718 -1.4412  1.6545 -1.7861
 2480SOL    HW2 7899   1.755   0.613   2.864  0.2629 -0.9969 -1.7193
 2481SOL     OW 7900   2.339   5.411   5.608  0.3775 -0.2011  0.5559
 2481SOL    HW1 7901   2.329   5.454   5.693 -1.6460 -0.3077  0.4355
 2481SOL    HW2 7902   2.332   5.317   5.627 -0.0655 -0.2269  0.2876
 2482SOL     OW 7903   6.138   0.812   1.538 -0.2521 -0.0980  0.3779
 2482SOL    HW1 7904   6.125   0.724   1.572  0.6562  0.1137  1.3161
 2482SOL    HW2 7905   6.150   0.867   1.615  0.9835  0.5436 -0.2275
 2483SOL     OW 7906   4.473   1.950   6.022  0.0305  0.0294 -0.2042
 2483SOL    HW1 7907   4.530   1.927   5.948 -0.2565 -2.1969  0.1951
 2483SOL    HW2 7908   4.493   2.042   6.040  0.2417  0.5852 -2.9004
 2484SOL     OW 7909   5.186   3.557   1.509  0.0662 -0.4714 -0.6937
 2484SOL    HW1 7910   5.116   3.514   1.458  0.4759 -1.3849 -0.5139
 2484SOL    HW2 7911   5.224   3.486   1.561 -0.3891  0.4613  0.9680
 2485SOL     OW 7912   3.778   6.226   1.729 -0.3835 -0.0208  0.2436
 2485SOL    HW1 7913   3.817   6.313   1.739 -0.2396  0.0519 -0.7773
 2485SOL    HW2 7914   3.775   6.190   1.817  0.2470  0.7285  0.5807
 2486SOL     OW 7915   1.143   5.852   6.280  0.5121  0.3585  0.0226
 2486SOL    HW1 7916   1.063   5.810   6.312  0.0651  0.8537 -0.4125
 2486SOL    HW2 7917   1.210   5.785   6.288  0.0270 -0.1074  0.2877
 2487SOL     OW 7918   2.119   4.082   5.924  0.8033  0.2726  0.1147
 2487SOL    HW1 7919   2.037   4.032   5.918  2.3083 -2.5288  0.9025
 2487SOL    HW2 7920   2.092   4.169   5.954 -1.9011 -0.4335 -0.0122
 2488SOL     OW 7921   2.619   2.453   3.148 -0.0422  0.3704  0.0565
 2488SOL    HW1 7922   2.594   2.450   3.055  1.3802  1.2176 -0.3724
 2488SOL    HW2 7923   2.641   2.362   3.169  2.7245  0.5950 -1.3649
 2489SOL     OW 7924   1.142   4.914   0.806  0.4265 -0.0121 -0.0309
 2489SOL    HW1 7925   1.142   4.820   0.787  1.0646 -0.3223  1.4199
 2489SOL    HW2 7926   1.194   4.923   0.885  0.0862  1.5418  0.0496
 2490SOL     OW 7927   1.567   5.055   2.314 -0.6515 -0.0739 -0.0224
 2490SOL    HW1 7928   1.613   4.986   2.267  0.8359  0.0905  1.1079
 2490SOL    HW2 7929   1.561   5.127   2.251  0.0229 -0.3583 -0.4255
 2491SOL     OW 7930   5.314   4.784   1.061  0.1782 -0.3136 -0.2147
 2491SOL    HW1 7931   5.289   4.872   1.036 -0.7474  0.0702  1.8642
 2491SOL    HW2 7932   5.350   4.745   0.981 -3.0314  0.5745 -2.2782
 2492SOL     OW 7933   4.512   2.284   3.330  0.0016 -0.0726  0.2736
 2492SOL    HW1 7934   4.495   2.260   3.421  1.0543 -0.1773  0.4604
 2492SOL    HW2 7935   4.574   2.218   3.298  0.6853  0.7166 -0.0959
 2493SOL     OW 7936   4.051   2.352   4.520  0.2956 -0.0522 -0.1215
 2493SOL    HW1 7937   4.051   2.266   4.562  0.8377 -0.6480 -1.3004
 2493SOL    HW2 7938   4.107   2.341   4.444  1.2226  1.6343  0.2703
 2494SOL     OW 7939   3.000   1.362   4.489  0.1824 -0.4836  0.1443
 2494SOL    HW1 7940   3.066   1.428   4.508  1.0447 -1.1758 -0.4018
 2494SOL    HW2 7941   3.040   1.279   4.514  1.4785 -1.5289 -4.3597
 2495SOL     OW 7942   4.663   3.127   0.313  0.6143  0.4496  0.0858
 2495SOL    HW1 7943   4.603   3.083   0.252 -0.2607  0.4485  0.9219
 2495SOL    HW2 7944   4.746   3.132   0.266  1.1311 -3.1073  0.2823
 2496SOL     OW 7945   4.481   0.611   5.089 -0.0449 -0.1549  0.2494
 2496SOL    HW1 7946   4.404   0.562   5.061 -0.0997 -1.5030  2.4704
 2496SOL    HW2 7947   4.547   0.594   5.022 -0.3618 -2.5873  0.4690
 2497SOL     OW 7948   4.311   4.404   0.717 -0.0248  0.3119 -0.0686
 2497SOL    HW1 7949   4.279   4.400   0.807 -0.2827 -0.1910 -0.1829
 2497SOL    HW2 7950   4.289   4.319   0.680 -0.3795  0.7060 -0.7665
 2498SOL     OW 7951   4.207   3.029   6.000 -0.1742 -0.0124  0.1477
 2498SOL    HW1 7952   4.233   3.101   5.943  1.4150 -1.0278 -0.4690
 2498SOL    HW2 7953   4.140   2.982   5.951 -0.3116  0.3112  0.0228
 2499SOL     OW 7954   5.915   4.103   1.740  0.2446 -0.4681 -0.1763
 2499SOL    HW1 7955   5.989   4.045   1.758 -0.7166 -2.1365 -1.2766
 2499SOL    HW2 7956   5.861   4.054   1.677 -1.5072  0.9182  0.1568
 2500SOL     OW 7957   3.764   0.999   5.552  0.1345 -0.2251  0.7952
 2500SOL    HW1 7958   3.777   1.092   5.531 -0.3674 -0.1843  0.6543
 2500SOL    HW2 7959   3.807   0.953   5.480 -3.2324 -0.0833 -1.4969
 2501SOL     OW 7960   1.583   0.699   5.723  0.2321  0.4338  0.2381
 2501SOL    HW1 7961   1.636   0.627   5.756  1.6746  0.9210 -0.9232
 2501SOL    HW2 7962   1.588   0.691   5.628 -0.6475  1.3170  0.1017
 2502SOL     OW 7963   5.474   4.424   1.357  0.3280 -0.0312  0.0976
 2502SOL    HW1 7964   5.390   4.393   1.326 -0.7839  2.3262  0.5216
 2502SOL    HW2 7965   5.535   4.406   1.285 -0.7503 -0.7818 -0.6471
 2503SOL     OW 7966   2.061   3.139   2.878 -0.6614  0.4604  0.3009
 2503SOL    HW1 7967   2.013   3.059   2.900 -0.9050  0.6166  0.3436
 2503SOL    HW2 7968   2.049   3.149   2.784 -2.4413  1.5938  0.5972
 2504SOL     OW 7969   0.384   2.787   4.099  0.4246  0.0631 -0.0437
 2504SOL    HW1 7970   0.301   2.798   4.053  0.0221 -0.0673  0.6360
 2504SOL    HW2 7971   0.359   2.772   4.190  1.1387 -1.7255 -0.1149
 2505SOL     OW 7972   0.998   2.090   6.328  0.2664  0.5776  0.9147
 2505SOL    HW1 7973   0.947   2.083   6.248  2.2554  0.1670 -0.3825
 2505SOL    HW2 7974   0.986   2.005   6.371  0.3518  0.2364  0.2819
 2506SOL     OW 7975   4.773   0.161   6.256 -0.4037  0.2716  0.5501
 2506SOL    HW1 7976   4.739   0.218   6.187  1.3249 -0.1193 -0.7023
 2506SOL    HW2 7977   4.696   0.133   6.305 -2.1510 -1.6113 -2.8836
 2507SOL     OW 7978   0.930   5.322   3.267 -0.2370  0.2211 -0.3904
 2507SOL    HW1 7979   1.025   5.320   3.275 -0.3225 -0.6165  0.6503
 2507SOL    HW2 7980   0.904   5.231   3.256 -0.9309  0.4409 -0.7221
 2508SOL     OW 7981   1.795   3.701   3.173 -0.3432 -0.0343  0.2355
 2508SOL    HW1 7982   1.792   3.796   3.177  1.7898  0.0446  0.9994
 2508SOL    HW2 7983   1.760   3.679   3.086 -1.1471  1.3951  0.1732
 2509SOL     OW 7984   1.811   3.794   1.133  0.0525  0.0176  0.4412
 2509SOL    HW1 7985   1.721   3.795   1.164  0.0024  2.2351  0.4093
 2509SOL    HW2 7986   1.804   3.815   1.039  0.6281  2.2439  0.8201
 2510SOL     OW 7987   0.602   4.303   0.767 -0.4508 -0.0310 -0.7762
 2510SOL    HW1 7988   0.589   4.373   0.703 -4.1382 -0.7064 -0.9995
 2510SOL    HW2 7989   0.622   4.349   0.849  0.2441  1.0728 -1.5466
 2511SOL     OW 7990   5.594   0.516   2.220 -0.5316  0.0047 -0.6417
 2511SOL    HW1 7991   5.548   0.484   2.298 -0.4421 -4.6283 -2.1788
 2511SOL    HW2 7992   5.540   0.488   2.147  0.9442  1.3776 -2.3621
 2512SOL     OW 7993   3.004   2.761   3.251 -0.1679 -0.3672 -0.1355
 2512SOL    HW1 7994   2.960   2.764   3.166 -1.4009  2.3571  0.4930
 2512SOL    HW2 7995   2.961   2.690   3.298 -0.4881 -0.9426 -1.2606
 2513SOL     OW 7996   5.863   3.928   4.496 -0.2189 -0.2088  0.1586
 2513SOL    HW1 7997   5.931   3.992   4.515  1.4028 -1.8291  0.0606
 2513SOL    HW2 7998   5.902   3.844   4.519 -2.1461 -1.2139 -0.0565
 2514SOL     OW 7999   0.634   2.291   5.247 -0.2474 -0.2612  0.1568
 2514SOL    HW1 8000   0.685   2.309   5.326 -2.2530  2.3418  0.9878
 2514SOL    HW2 8001   0.570   2.362   5.242 -0.6085 -0.6103 -3.5248
 2515SOL     OW 8002   6.128   6.180   6.090  0.2840 -0.6725 -0.6242
 2515SOL    HW1 8003   6.054   6.124   6.070 -1.3586  2.1345 -3.2205
 2515SOL    HW2 8004   6.096   6.240   6.157  0.6816 -0.4026 -0.6679
 2516SOL     OW 8005   0.981   2.971   2.045  0.3074 -0.0601 -0.7103
 2516SOL    HW1 8006   1.058   2.915   2.041 -0.7656 -1.6015 -0.7020
 2516SOL    HW2 8007   0.907   2.910   2.041 -0.9104  1.3268 -0.1912
 2517SOL     OW 8008   1.213   5.236   0.925 -0.1416 -0.3036 -0.7275
 2517SOL    HW1 8009   1.234   5.251   0.833 -0.4212 -0.5761 -0.8376
 2517SOL    HW2 8010   1.225   5.142   0.937  1.4840 -0.0519 -0.0769
 2518SOL     OW 8011   3.731   0.072   2.040  0.0980  0.1034 -0.4201
 2518SOL    HW1 8012   3.776   0.092   2.122 -3.8699  1.1438  1.7759
 2518SOL    HW2 8013   3.776   0.125   1.975  2.1743  0.8285  1.4799
 2519SOL     OW 8014   4.414   3.964   5.565 -0.0613  0.1890  0.1810
 2519SOL    HW1 8015   4.427   3.916   5.483 -0.6000 -1.4731  1.0271
 2519SOL    HW2 8016   4.479   4.034   5.563 -0.9387  1.0235 -2.2680
 2520SOL     OW 8017   5.248   1.957   4.026  0.0556 -0.1281 -0.0524
 2520SOL    HW1 8018   5.232   1.974   4.119  1.4992 -1.3070  0.4598
 2520SOL    HW2 8019   5.222   1.866   4.013  0.1463 -0.0635 -0.7309
 2521SOL     OW 8020   5.009   0.291   0.949  0.2240 -0.5469  0.3116
 2521SOL    HW1 8021   5.083   0.344   0.918 -0.8905  0.0692 -1.4505
 2521SOL    HW2 8022   4.985   0.331   1.033  1.8244 -0.7390  0.9014
 2522SOL     OW 8023   6.331   4.157   1.284  0.7650 -0.4674  0.0292
 2522SOL    HW1 8024   6.258   4.096   1.290  0.4185 -0.0731 -0.1132
 2522SOL    HW2 8025   6.384   4.139   1.362  0.5854 -0.8448  0.0645
 2523SOL     OW 8026   1.454   2.387   1.241 -0.4583 -0.0785  0.0584
 2523SOL    HW1 8027   1.384   2.453   1.240 -0.6145 -0.2424  0.0919
 2523SOL    HW2 8028   1.534   2.438   1.250 -0.6818  0.0381  1.6765
 2524SOL     OW 8029   5.076   1.312   2.746 -0.3552  0.0394 -0.1763
 2524SOL    HW1 8030   5.163   1.324   2.784  0.2650 -1.6160 -0.9776
 2524SOL    HW2 8031   5.024   1.385   2.781  0.9953  0.3353  1.3365
 2525SOL     OW 8032   4.257   4.368   2.896 -0.1774 -0.0522  0.4777
 2525SOL    HW1 8033   4.277   4.458   2.922  0.3961  0.0351 -0.2129
 2525SOL    HW2 8034   4.180   4.344   2.947 -0.1392  0.7170  0.9086
 2526SOL     OW 8035   2.537   3.759   1.640 -0.5510 -0.1681  0.3901
 2526SOL    HW1 8036   2.450   3.722   1.625  0.4011 -2.2775 -0.3229
 2526SOL    HW2 8037   2.561   3.798   1.555  0.1927 -1.8863 -0.2328
 2527SOL     OW 8038   2.902   3.907   4.557 -0.2012  0.5849 -0.3498
 2527SOL    HW1 8039   2.939   3.832   4.510 -0.7999  1.7177 -2.8020
 2527SOL    HW2 8040   2.816   3.878   4.585  0.1761 -0.1292  0.0966
 2528SOL     OW 8041   1.258   3.155   1.811  0.4482  0.7163  0.5090
 2528SOL    HW1 8042   1.255   3.150   1.715 -2.0074  1.1477  0.5089
 2528SOL    HW2 8043   1.220   3.240   1.831  0.1306  0.2617  1.8932
 2529SOL     OW 8044   3.719   5.456   0.020  0.2418  0.8027 -0.0007
 2529SOL    HW1 8045   3.780   5.385   0.001 -0.4764  0.2094 -0.1232
 2529SOL    HW2 8046   3.642   5.436  -0.033  0.1520  1.8449 -0.2818
 2530SOL     OW 8047   2.433   4.987   3.782  0.1872  0.0007 -0.3572
 2530SOL    HW1 8048   2.523   5.018   3.793  0.0950  0.1450 -0.0164
 2530SOL    HW2 8049   2.438   4.925   3.709  0.7819 -0.8737  0.3981
 2531SOL     OW 8050   4.553   4.234   5.457 -0.2622  0.3298  0.0587
 2531SOL    HW1 8051   4.508   4.288   5.392  0.3753  0.6031 -0.1598
 2531SOL    HW2 8052   4.597   4.297   5.514  1.1779  0.0376 -0.6963
 2532SOL     OW 8053   0.745   2.201   1.776  0.0894  0.1596 -0.1217
 2532SOL    HW1 8054   0.788   2.274   1.731  2.4147 -0.3013  1.1917
 2532SOL    HW2 8055   0.712   2.240   1.857  0.7766 -0.0969  0.2879
 2533SOL     OW 8056   3.221   6.081   5.149 -0.1624 -0.1209 -0.1062
 2533SOL    HW1 8057   3.305   6.057   5.188 -1.1191 -2.1339  0.8504
 2533SOL    HW2 8058   3.197   6.005   5.095 -0.0649  1.5841 -2.7533
 2534SOL     OW 8059   4.085   3.383   1.867  0.5999 -0.3780 -0.0740
 2534SOL    HW1 8060   4.171   3.359   1.833 -0.5227 -1.5223 -2.3184
 2534SOL    HW2 8061   4.030   3.392   1.789 -1.7446 -1.4935  1.3286
 2535SOL     OW 8062   4.008   6.152   4.110 -0.0734 -0.6092 -0.1969
 2535SOL    HW1 8063   4.091   6.113   4.138  1.7208  0.9600 -2.8394
 2535SOL    HW2 8064   4.008   6.239   4.151 -0.8730 -0.9332  0.5071
 2536SOL     OW 8065   3.151   2.412   2.036  0.1322 -0.2886  0.3064
 2536SOL    HW1 8066   3.228   2.360   2.059  1.8208  1.3258 -1.4000
 2536SOL    HW2 8067   3.089   2.348   2.002  1.1308 -1.4971  0.6602
 2537SOL     OW 8068   1.941   0.634   5.232 -0.2765  0.6875 -0.7366
 2537SOL    HW1 8069   1.993   0.571   5.183 -0.7090 -0.2361 -0.0275
 2537SOL    HW2 8070   1.851   0.607   5.218 -0.3754 -0.4277  1.6139
 2538SOL     OW 8071   3.206   5.268   6.125 -0.2165  0.3024 -0.7026
 2538SOL    HW1 8072   3.240   5.178   6.128  0.1265  0.3623 -2.1385
 2538SOL    HW2 8073   3.130   5.266   6.183 -1.4893 -1.5017 -2.2831
 2539SOL     OW 8074   5.499   0.303   5.050  0.3587  0.3078  0.0513
 2539SOL    HW1 8075   5.469   0.392   5.029  0.2223  0.0945 -0.6955
 2539SOL    HW2 8076   5.576   0.291   4.995  1.0155  0.3415  0.9371
 2540SOL     OW 8077   5.640   4.932   3.632 -0.2577 -0.1407 -0.0599
 2540SOL    HW1 8078   5.573   4.988   3.671  0.5093  1.3611 -0.7992
 2540SOL    HW2 8079   5.653   4.862   3.696 -2.3472 -0.3491  0.1942
 2541SOL     OW 8080   4.448   2.982   1.406  0.2882  0.6705  0.3841
 2541SOL    HW1 8081   4.491   2.935   1.334 -3.0860 -1.1099 -0.7251
 2541SOL    HW2 8082   4.473   2.935   1.485  2.7742  1.6656  0.2611
 2542SOL     OW 8083   3.062   4.697   3.903 -0.5613 -0.1586  0.0545
 2542SOL    HW1 8084   3.066   4.611   3.945 -3.2533 -0.0884  0.6201
 2542SOL    HW2 8085   2.979   4.734   3.932  0.9514  3.1289  0.7029
 2543SOL     OW 8086   5.956   4.592   1.625  0.7136  0.1369  0.4516
 2543SOL    HW1 8087   5.952   4.515   1.569 -1.1544  0.9026 -0.5916
 2543SOL    HW2 8088   6.012   4.653   1.579 -1.2697  0.9802 -0.9936
 2544SOL     OW 8089   0.898   3.382   1.577 -0.0963  0.1741  0.3936
 2544SOL    HW1 8090   0.803   3.379   1.587 -0.0682 -0.8325  0.4561
 2544SOL    HW2 8091   0.916   3.324   1.504  0.5736 -0.7669  1.2688
 2545SOL     OW 8092   0.901   4.141   4.679 -0.8024  0.1062 -0.0019
 2545SOL    HW1 8093   0.968   4.072   4.674  0.4176  1.2336  0.0399
 2545SOL    HW2 8094   0.846   4.126   4.602  1.6153  1.1553 -2.1284
 2546SOL     OW 8095   4.312   1.302   0.658  0.2538 -0.0471 -1.1821
 2546SOL    HW1 8096   4.261   1.278   0.581  1.5524 -0.2370 -2.0242
 2546SOL    HW2 8097   4.259   1.368   0.703 -0.5231  0.0836 -2.2497
 2547SOL     OW 8098   1.205   3.074   2.384 -0.2196 -0.0992  0.4127
 2547SOL    HW1 8099   1.187   3.125   2.304 -0.0241  0.2048  0.5626
 2547SOL    HW2 8100   1.295   3.045   2.374 -0.5679 -1.0744 -0.0323
 2548SOL     OW 8101   2.530   1.278   4.370 -1.2262 -0.1134 -0.0395
 2548SOL    HW1 8102   2.535   1.193   4.325 -1.0686  0.7122 -1.6359
 2548SOL    HW2 8103   2.591   1.334   4.323 -2.5264  1.3502 -0.0339
 2549SOL     OW 8104   2.884   5.626   1.697 -0.2196  0.5143 -0.5200
 2549SOL    HW1 8105   2.827   5.702   1.713  0.4127  0.9733 -0.4071
 2549SOL    HW2 8106   2.826   5.561   1.659 -1.0236  0.6495  0.4148
 2550SOL     OW 8107   6.238   2.203   1.661  0.8098 -0.5024 -0.3102
 2550SOL    HW1 8108   6.301   2.273   1.641 -0.5725  0.4103 -1.7967
 2550SOL    HW2 8109   6.203   2.226   1.747 -0.0124  1.0022 -1.0068
 2551SOL     OW 8110   5.834   0.674   2.930  0.2803 -0.5570  0.5647
 2551SOL    HW1 8111   5.791   0.592   2.908  1.8841 -0.9574 -1.4625
 2551SOL    HW2 8112   5.864   0.708   2.846  1.8817  0.8045  1.6173
 2552SOL     OW 8113   1.813   0.020   3.183  0.5335  0.2262  0.4763
 2552SOL    HW1 8114   1.856   0.072   3.114 -0.0719 -0.5533 -0.5173
 2552SOL    HW2 8115   1.873  -0.053   3.198 -0.6509 -1.2298 -1.3865
 2553SOL     OW 8116   5.234   2.817   5.303  0.5402 -0.2183 -0.1946
 2553SOL    HW1 8117   5.294   2.753   5.341  1.6583  0.0415 -1.4510
 2553SOL    HW2 8118   5.194   2.771   5.230  1.4660  0.5320 -1.2057
 2554SOL     OW 8119   1.886   3.947   4.460  0.0337 -0.3760 -0.1117
 2554SOL    HW1 8120   1.832   3.989   4.393 -0.0885 -1.5475 -0.7764
 2554SOL    HW2 8121   1.917   3.867   4.418 -1.0375 -1.7673  1.6509
 2555SOL     OW 8122   2.075   0.078   2.125 -0.2430 -0.1549  0.2045
 2555SOL    HW1 8123   2.028   0.025   2.189 -0.1720  0.9227  1.1718
 2555SOL    HW2 8124   2.007   0.110   2.065 -0.3044 -1.1871 -0.2895
 2556SOL     OW 8125   0.641   3.181   3.463 -0.6015  0.0046 -0.3728
 2556SOL    HW1 8126   0.583   3.215   3.394  0.5839  0.0993 -1.3532
 2556SOL    HW2 8127   0.728   3.182   3.424  0.6324  2.8149  2.0812
 2557SOL     OW 8128   3.397   5.751   2.462 -0.1582 -0.7055  0.0588
 2557SOL    HW1 8129   3.352   5.829   2.429  0.0250 -0.3978  0.5202
 2557SOL    HW2 8130   3.415   5.772   2.554  1.9923 -0.3443 -0.4085
 2558SOL     OW 8131   1.923   1.871   3.785  0.1105 -0.5847  0.4466
 2558SOL    HW1 8132   1.934   1.895   3.693 -0.3749  0.4524  0.6452
 2558SOL    HW2 8133   1.839   1.824   3.789 -0.1458 -0.1272  0.4489
 2559SOL     OW 8134   0.398   0.237   0.621  0.3662 -0.2272  0.6647
 2559SOL    HW1 8135   0.396   0.268   0.712 -1.6253 -0.8950  0.8897
 2559SOL    HW2 8136   0.451   0.157   0.624 -0.3864 -0.7152  1.4238
 2560SOL     OW 8137   4.085   0.608   5.089 -0.0999  0.2373 -0.6685
 2560SOL    HW1 8138   4.141   0.568   5.022  1.0673 -0.5912  0.7646
 2560SOL    HW2 8139   4.108   0.701   5.086  1.1397 -0.0413 -0.3209
 2561SOL     OW 8140   4.232   0.044   4.883  0.3398 -0.2993 -0.3911
 2561SOL    HW1 8141   4.256  -0.045   4.907  1.0170  0.1818  0.8364
 2561SOL    HW2 8142   4.155   0.034   4.827 -0.5404 -1.5904  0.9609
 2562SOL     OW 8143   5.452   2.970   2.251 -0.1751 -0.2439 -0.0227
 2562SOL    HW1 8144   5.464   2.906   2.321 -0.6540 -1.7847 -1.2883
 2562SOL    HW2 8145   5.539   2.980   2.213  0.0221  0.3561  0.5567
 2563SOL     OW 8146   3.523   5.777   3.745  0.0133  0.1223 -0.3918
 2563SOL    HW1 8147   3.467   5.739   3.814 -1.6155  1.3376 -0.9649
 2563SOL    HW2 8148   3.612   5.751   3.769 -0.7306 -1.4605  0.8671
 2564SOL     OW 8149   4.666   2.961   4.950  0.2300 -0.3186 -0.0517
 2564SOL    HW1 8150   4.667   3.037   5.009  1.6374 -0.7561  0.5218
 2564SOL    HW2 8151   4.727   2.983   4.881 -0.6435 -0.2419 -0.8192
 2565SOL     OW 8152   4.277   0.989   1.498 -0.5768 -0.1453 -0.1528
 2565SOL    HW1 8153   4.254   0.915   1.442 -3.0131  1.4359 -1.3987
 2565SOL    HW2 8154   4.204   0.997   1.559 -0.0782  0.8787  0.3399
 2566SOL     OW 8155   1.733   6.003   3.939 -0.1404 -0.5481  0.4891
 2566SOL    HW1 8156   1.775   6.050   4.011 -0.6141  0.5974  0.0416
 2566SOL    HW2 8157   1.659   6.058   3.914  0.6008 -0.3961 -1.5305
 2567SOL     OW 8158   5.665   5.837   2.486  0.1220 -0.1520 -0.1808
 2567SOL    HW1 8159   5.761   5.832   2.485  0.4248  2.1878  2.2768
 2567SOL    HW2 8160   5.637   5.757   2.531  0.8325 -1.1582 -1.4708
 2568SOL     OW 8161   0.490   4.589   4.219 -0.2004  0.4250 -0.0691
 2568SOL    HW1 8162   0.458   4.551   4.138 -0.1760 -2.5571  1.2030
 2568SOL    HW2 8163   0.411   4.607   4.271 -0.2207  2.3762 -0.6884
 2569SOL     OW 8164   1.522   2.664   3.536  0.5030 -0.2165  0.3063
 2569SOL    HW1 8165   1.464   2.611   3.591 -0.4185 -1.2618 -1.5993
 2569SOL    HW2 8166   1.479   2.666   3.450  0.3267  3.8889  0.2885
 2570SOL     OW 8167   1.964   5.547   5.725 -0.0443  0.6958  0.1547
 2570SOL    HW1 8168   1.984   5.606   5.797 -0.4269  1.3695 -0.2765
 2570SOL    HW2 8169   1.991   5.595   5.647  0.2475  0.0277 -0.1553
 2571SOL     OW 8170   2.777   4.101   4.967 -0.3239 -0.1387  0.6769
 2571SOL    HW1 8171   2.818   4.016   4.957 -0.6019 -0.2172  0.1574
 2571SOL    HW2 8172   2.683   4.083   4.962 -0.3588  0.4382 -1.5833
 2572SOL     OW 8173   5.858   5.344   2.724  0.2834  0.1100 -0.4449
 2572SOL    HW1 8174   5.778   5.328   2.673 -0.2450 -0.3188  0.5064
 2572SOL    HW2 8175   5.928   5.311   2.668 -0.3430 -0.8733 -0.6757
 2573SOL     OW 8176   4.228   3.803   2.606  0.1185 -0.3599  0.0116
 2573SOL    HW1 8177   4.153   3.745   2.611 -1.0201  0.9264 -1.0869
 2573SOL    HW2 8178   4.285   3.763   2.540 -0.2095 -0.6983 -0.0694
 2574SOL     OW 8179   2.618   3.722   3.034  0.2677 -0.2394 -0.1691
 2574SOL    HW1 8180   2.637   3.694   3.123 -0.6741  0.2601  0.2003
 2574SOL    HW2 8181   2.626   3.818   3.037 -0.8469 -0.1294 -0.3398
 2575SOL     OW 8182   0.185   6.369   0.148  0.5642  0.5603  0.6829
 2575SOL    HW1 8183   0.246   6.310   0.103 -0.7506 -0.5577  0.2892
 2575SOL    HW2 8184   0.172   6.442   0.088  0.3868  0.0715  0.1212
 2576SOL     OW 8185   2.936   1.978   1.792 -0.0692 -0.0581 -0.7624
 2576SOL    HW1 8186   3.006   1.969   1.728  0.3683 -0.7683 -0.1969
 2576SOL    HW2 8187   2.896   1.891   1.796  3.0762 -1.6590  3.4956
 2577SOL     OW 8188   5.194   4.130   2.272 -0.4159  0.1534 -0.4626
 2577SOL    HW1 8189   5.282   4.095   2.280 -0.5132  0.0336  0.1225
 2577SOL    HW2 8190   5.174   4.124   2.179  0.5547  1.0671 -0.7466
 2578SOL     OW 8191   2.340   6.209   2.207  0.6883  0.5230  0.3093
 2578SOL    HW1 8192   2.293   6.166   2.278  0.1245 -0.2214 -0.4930
 2578SOL    HW2 8193   2.294   6.182   2.127  1.3906  1.2178 -0.3542
 2579SOL     OW 8194   2.343   1.257   2.859  0.4168  0.3903 -0.0490
 2579SOL    HW1 8195   2.268   1.230   2.911  1.1318 -1.2395  0.1868
 2579SOL    HW2 8196   2.314   1.246   2.768  0.3114 -0.0889  0.0400
 2580SOL     OW 8197   4.024   5.483   1.092  0.1557 -0.1925  0.3063
 2580SOL    HW1 8198   3.997   5.500   1.182  0.3940  0.2897  0.2919
 2580SOL    HW2 8199   3.947   5.445   1.050 -0.4660  1.0657  0.2852
 2581SOL     OW 8200   2.827   1.362   1.644 -0.3953  0.7606  0.0353
 2581SOL    HW1 8201   2.897   1.428   1.645 -1.6235  2.1165  2.0322
 2581SOL    HW2 8202   2.802   1.356   1.552  1.9368  0.6507 -0.6505
 2582SOL     OW 8203   1.726   5.749   3.836  0.4249  0.3645  0.5318
 2582SOL    HW1 8204   1.741   5.836   3.873  2.1402 -0.0332  0.8719
 2582SOL    HW2 8205   1.804   5.731   3.784 -0.9684 -0.0068 -1.5489
 2583SOL     OW 8206   6.064   0.967   0.347 -0.1761  0.5877 -0.2565
 2583SOL    HW1 8207   6.047   0.873   0.358  0.8921  0.3772 -0.3415
 2583SOL    HW2 8208   6.018   1.008   0.420 -2.4911  0.2257 -1.4022
 2584SOL     OW 8209   3.152   0.098   4.915  0.4489  0.1813  0.3826
 2584SOL    HW1 8210   3.149   0.101   4.820  2.8081 -0.4834  0.2289
 2584SOL    HW2 8211   3.065   0.066   4.941  0.2318 -0.9958 -1.6100
 2585SOL     OW 8212   4.127   2.383   2.911  0.3219 -0.3316  0.4040
 2585SOL    HW1 8213   4.098   2.395   2.820  0.6686 -0.3060  0.2935
 2585SOL    HW2 8214   4.094   2.296   2.935  0.0262 -0.2396  0.3329
 2586SOL     OW 8215   4.471   2.683   0.812 -0.0016 -0.1142 -0.0099
 2586SOL    HW1 8216   4.566   2.685   0.803 -0.0038  2.0229  0.0626
 2586SOL    HW2 8217   4.455   2.630   0.890  1.1466 -0.1338  0.2251
 2587SOL     OW 8218   0.111   3.261   5.192 -0.2268  0.2971  0.1214
 2587SOL    HW1 8219   0.177   3.249   5.260 -0.4732  0.4164  0.3813
 2587SOL    HW2 8220   0.133   3.196   5.125 -0.2999 -0.1835  0.5576
 2588SOL     OW 8221   6.145   2.217   3.144 -0.5101 -0.2894  0.0226
 2588SOL    HW1 8222   6.080   2.280   3.114  0.2188 -0.6475 -2.5832
 2588SOL    HW2 8223   6.219   2.270   3.172 -0.3463  0.0708 -1.0378
 2589SOL     OW 8224   0.206   3.252   5.995  0.1270  0.2045  0.5710
 2589SOL    HW1 8225   0.120   3.277   5.962  0.4148  0.3309 -0.1172
 2589SOL    HW2 8226   0.188   3.196   6.071 -0.6245 -1.8838 -1.0386
 2590SOL     OW 8227   5.412   4.913   1.574  0.2829 -0.9510 -0.5863
 2590SOL    HW1 8228   5.482   4.858   1.541 -0.6767 -0.5931 -3.5314
 2590SOL    HW2 8229   5.343   4.907   1.508 -2.0470 -0.4210  1.6155
 2591SOL     OW 8230   3.043   5.073   3.817 -0.3764  0.2115 -0.2055
 2591SOL    HW1 8231   2.995   5.004   3.770 -1.2847 -0.3434  1.4712
 2591SOL    HW2 8232   2.977   5.115   3.872  1.0523 -0.7224  2.3428
 2592SOL     OW 8233   0.852   4.131   3.002  0.1758  0.2530 -0.0553
 2592SOL    HW1 8234   0.916   4.141   2.932 -0.2186  0.3122 -0.4104
 2592SOL    HW2 8235   0.808   4.048   2.983 -0.5853  0.7368 -0.4162
 2593SOL     OW 8236   0.994   3.828   5.754 -0.4943 -0.3828  0.0666
 2593SOL    HW1 8237   1.059   3.879   5.802 -0.2855 -0.8909  0.3318
 2593SOL    HW2 8238   1.046   3.779   5.690 -0.4727 -1.6385  1.0110
 2594SOL     OW 8239   4.239   3.263   1.667  0.1315 -0.0712 -0.0726
 2594SOL    HW1 8240   4.179   3.194   1.695  0.5539 -0.1248  0.7293
 2594SOL    HW2 8241   4.261   3.240   1.577 -1.7513  0.4397 -0.7194
 2595SOL     OW 8242   0.642   2.908   3.633 -0.5480 -0.6733 -0.2432
 2595SOL    HW1 8243   0.731   2.932   3.656 -0.6440  1.1646 -1.5088
 2595SOL    HW2 8244   0.587   2.968   3.684 -1.0916 -1.9883  0.7555
 2596SOL     OW 8245   4.748   3.298   4.636  0.1510  0.0939 -0.3027
 2596SOL    HW1 8246   4.791   3.377   4.669  1.0438 -1.0582  1.4244
 2596SOL    HW2 8247   4.666   3.294   4.684 -1.0233  1.1396 -2.0669
 2597SOL     OW 8248   2.951   0.346   1.403 -0.1578  0.1456  0.6309
 2597SOL    HW1 8249   2.986   0.262   1.376 -1.3573 -0.4340  0.8101
 2597SOL    HW2 8250   2.943   0.396   1.321  3.4545  1.3224  0.8106
 2598SOL     OW 8251   3.045   3.076   3.920 -0.6733 -0.4176 -0.6416
 2598SOL    HW1 8252   3.068   3.151   3.974 -0.4701  0.3818 -1.8122
 2598SOL    HW2 8253   3.028   3.006   3.983 -0.5764  0.5157  0.4554
 2599SOL     OW 8254   0.608   3.936   4.704 -0.1762 -0.5689  0.1315
 2599SOL    HW1 8255   0.538   3.891   4.656 -1.0346  0.2105  0.6388
 2599SOL    HW2 8256   0.688   3.909   4.659 -0.8652 -0.8029 -0.9889
 2600SOL     OW 8257   3.696   5.526   4.123 -0.0930 -0.5938 -0.3670
 2600SOL    HW1 8258   3.706   5.465   4.197  2.1536  1.0455  0.8107
 2600SOL    HW2 8259   3.618   5.495   4.077 -2.0006 -1.3750  3.0242
 2601SOL     OW 8260   0.826   2.738   2.149 -0.3249  0.4100  0.1933
 2601SOL    HW1 8261   0.771   2.673   2.193  1.2190 -1.3307 -0.3470
 2601SOL    HW2 8262   0.910   2.735   2.195  0.5999  0.1305 -1.4354
 2602SOL     OW 8263   1.801   6.182   3.698  0.0432 -0.0898 -0.8538
 2602SOL    HW1 8264   1.810   6.165   3.792  0.9380 -3.9104 -1.4355
 2602SOL    HW2 8265   1.874   6.241   3.677  1.1096 -0.8331  0.5582
 2603SOL     OW 8266   1.011   4.920   2.371  0.1114  0.1326 -0.2432
 2603SOL    HW1 8267   1.003   4.858   2.298  0.9273 -0.7007  0.3493
 2603SOL    HW2 8268   0.964   4.998   2.342 -1.3329 -0.9181 -0.8356
 2604SOL     OW 8269   0.535   2.997   5.374 -0.0646  0.0761  0.8448
 2604SOL    HW1 8270   0.571   2.911   5.399 -0.6741 -0.6737 -0.7320
 2604SOL    HW2 8271   0.447   2.978   5.342  0.5391  0.9454 -1.5755
 2605SOL     OW 8272   6.152   3.902   2.689 -0.3905 -0.3316  0.3500
 2605SOL    HW1 8273   6.150   3.807   2.702 -1.3711 -0.5180 -0.9639
 2605SOL    HW2 8274   6.233   3.918   2.641 -0.7533 -0.6545 -0.3840
 2606SOL     OW 8275   5.876   0.193   5.530  0.8211  0.0108  0.3259
 2606SOL    HW1 8276   5.874   0.115   5.475  1.7106  0.3462 -0.2039
 2606SOL    HW2 8277   5.787   0.229   5.524  0.7093 -0.3581 -0.3062
 2607SOL     OW 8278   0.251   0.206   5.879  0.5770  0.8808  0.3351
 2607SOL    HW1 8279   0.244   0.113   5.898 -0.0416  1.1957  1.7383
 2607SOL    HW2 8280   0.216   0.215   5.790 -1.1454  0.0094  0.8695
 2608SOL     OW 8281   4.855   3.348   6.102 -0.8046 -0.3163 -0.3705
 2608SOL    HW1 8282   4.913   3.424   6.101  0.0656 -0.9658 -1.4558
 2608SOL    HW2 8283   4.787   3.370   6.166  1.0805  0.1317  1.5604
 2609SOL     OW 8284   3.828   0.835   2.542  0.0691 -0.3699 -0.6383
 2609SOL    HW1 8285   3.843   0.746   2.511 -0.8500 -0.8189  0.1716
 2609SOL    HW2 8286   3.881   0.842   2.622 -0.5553 -0.4975 -0.2068
 2610SOL     OW 8287   4.082   2.558   5.358  0.1822  0.1276 -0.3039
 2610SOL    HW1 8288   4.120   2.639   5.327 -0.9229  0.4813 -0.7799
 2610SOL    HW2 8289   4.046   2.516   5.279  0.3856 -0.6198 -0.0057
 2611SOL     OW 8290   0.311   1.117   1.061  0.3316 -0.0649 -0.2676
 2611SOL    HW1 8291   0.309   1.207   1.092  0.5365 -0.1705  0.0628
 2611SOL    HW2 8292   0.307   1.123   0.966 -0.6689  0.2598 -0.2224
 2612SOL     OW 8293   3.091   2.167   4.511 -0.4712 -0.2341  0.2003
 2612SOL    HW1 8294   3.052   2.230   4.571  0.9779  0.7129  0.1934
 2612SOL    HW2 8295   3.151   2.116   4.565 -0.4952 -0.5919 -0.1016
 2613SOL     OW 8296   4.742   2.502   0.311 -0.5828 -0.0964 -0.3243
 2613SOL    HW1 8297   4.705   2.588   0.331  0.0998  0.1515 -0.0727
 2613SOL    HW2 8298   4.712   2.445   0.382  2.4667  0.9558  2.0556
 2614SOL     OW 8299   4.736   4.231   1.951  0.4851 -0.1675  0.3366
 2614SOL    HW1 8300   4.798   4.173   1.996  0.1407 -1.3117 -0.6181
 2614SOL    HW2 8301   4.664   4.173   1.925  0.7401  0.4107 -1.8253
 2615SOL     OW 8302   0.471   4.767   3.310 -0.4809  0.1766 -0.2685
 2615SOL    HW1 8303   0.507   4.801   3.393  0.5696  0.0417 -0.6478
 2615SOL    HW2 8304   0.548   4.754   3.255 -1.0579 -0.8569 -0.8591
 2616SOL     OW 8305   4.981   3.736   3.748  0.3416  0.4481 -0.2090
 2616SOL    HW1 8306   4.906   3.795   3.755 -0.1439 -0.3239  1.6571
 2616SOL    HW2 8307   5.057   3.791   3.768 -0.2300  0.2566  2.9626
 2617SOL     OW 8308   1.748   1.596   3.234 -0.3838  0.2554  0.3867
 2617SOL    HW1 8309   1.695   1.543   3.294  0.9119 -0.8091  0.6467
 2617SOL    HW2 8310   1.812   1.639   3.290 -1.7706  2.6508  0.2509
 2618SOL     OW 8311   3.435   4.963   0.198  0.1393 -0.0765 -0.1892
 2618SOL    HW1 8312   3.352   5.007   0.216  1.4488  2.5217  0.0813
 2618SOL    HW2 8313   3.447   4.972   0.104  0.8495  1.1132 -0.0112
 2619SOL     OW 8314   1.180   1.724   3.658  0.2864  0.5431  0.6214
 2619SOL    HW1 8315   1.166   1.814   3.628  2.5178  0.4251 -1.0098
 2619SOL    HW2 8316   1.243   1.732   3.730 -0.4296  0.3420  1.2885
 2620SOL     OW 8317   4.041   0.835   6.359 -0.0024  0.6728  0.1933
 2620SOL    HW1 8318   4.125   0.872   6.386  0.5867 -1.8365  2.2300
 2620SOL    HW2 8319   3.983   0.850   6.433 -0.8742  0.9309 -0.5288
 2621SOL     OW 8320   3.733   5.605   1.755  0.4007  0.0963 -0.0950
 2621SOL    HW1 8321   3.696   5.542   1.817  1.9387 -0.5126  0.2477
 2621SOL    HW2 8322   3.698   5.578   1.670  1.7260 -1.8412 -0.0897
 2622SOL     OW 8323   2.886   0.029   4.942 -0.8846  0.5581  0.0352
 2622SOL    HW1 8324   2.807   0.075   4.917 -1.5196 -0.2339  0.5452
 2622SOL    HW2 8325   2.891   0.037   5.037  0.5204  1.9677 -0.1152
 2623SOL     OW 8326   1.813   1.252   2.103 -0.1064 -0.3062 -0.1033
 2623SOL    HW1 8327   1.773   1.189   2.042  0.1231  0.0064 -0.5880
 2623SOL    HW2 8328   1.907   1.238   2.092 -0.0729 -0.6387  0.6030
 2624SOL     OW 8329   3.868   4.706   3.746 -0.0184  0.3982 -0.1506
 2624SOL    HW1 8330   3.875   4.773   3.814 -0.0096  1.6216 -1.3204
 2624SOL    HW2 8331   3.958   4.692   3.716  0.1173 -0.9203  0.7821
 2625SOL     OW 8332   2.841   5.710   0.816  0.0758 -0.1215  0.3203
 2625SOL    HW1 8333   2.803   5.679   0.734  0.1755 -0.4265  0.3856
 2625SOL    HW2 8334   2.787   5.784   0.842 -0.8452 -0.9000  0.7029
 2626SOL     OW 8335   3.424   0.636   1.228 -0.0528 -0.6641  0.2716
 2626SOL    HW1 8336   3.480   0.639   1.305  0.6170 -0.1652 -0.2301
 2626SOL    HW2 8337   3.380   0.551   1.234  0.6517 -1.0066  0.7348
 2627SOL     OW 8338   2.358   5.443   1.208 -0.1170 -0.0185  0.1408
 2627SOL    HW1 8339   2.284   5.398   1.251 -0.8825  3.8322  3.4794
 2627SOL    HW2 8340   2.317   5.497   1.140  0.4802 -2.0330 -1.9524
 2628SOL     OW 8341   5.402   5.384   3.233 -0.4108  0.3175 -0.3892
 2628SOL    HW1 8342   5.425   5.423   3.317  0.0356 -0.3731 -0.1855
 2628SOL    HW2 8343   5.451   5.436   3.169 -0.0762  0.2951 -0.1505
 2629SOL     OW 8344   4.884   4.611   1.164 -0.9023  0.8882 -0.3581
 2629SOL    HW1 8345   4.805   4.618   1.218 -0.2312 -0.5568  0.8811
 2629SOL    HW2 8346   4.869   4.533   1.111 -0.3023  0.5860 -0.0901
 2630SOL     OW 8347   4.826   3.829   0.395  0.2648  0.2053  0.3449
 2630SOL    HW1 8348   4.768   3.901   0.419  0.1256  0.0910  0.3513
 2630SOL    HW2 8349   4.905   3.843   0.447  0.0876  0.1362  0.6364
 2631SOL     OW 8350   5.333   2.786   2.431  0.5975 -0.4213  0.0874
 2631SOL    HW1 8351   5.356   2.716   2.492 -0.1177  1.1493  2.2878
 2631SOL    HW2 8352   5.252   2.756   2.390  1.5488 -1.8869 -0.8142
 2632SOL     OW 8353   4.505   3.122   1.712 -0.0121  0.9509 -0.5349
 2632SOL    HW1 8354   4.441   3.192   1.725  0.0769  0.9480 -0.0618
 2632SOL    HW2 8355   4.453   3.046   1.686 -0.0450  1.3779 -1.8050
 2633SOL     OW 8356   5.052   5.192   5.426 -0.3770  0.1894 -0.1986
 2633SOL    HW1 8357   5.073   5.100   5.407 -0.4105  0.3499 -1.0166
 2633SOL    HW2 8358   5.129   5.223   5.475  0.9103  0.4673 -2.2566
 2634SOL     OW 8359   4.263   5.226   6.368  0.1430  0.0464 -0.1100
 2634SOL    HW1 8360   4.232   5.282   6.296 -1.5166 -2.2862 -1.3542
 2634SOL    HW2 8361   4.349   5.196   6.339  0.0819  0.2119 -0.4717
 2635SOL     OW 8362   6.240   0.137   5.570 -0.0996 -0.4911  0.2100
 2635SOL    HW1 8363   6.190   0.085   5.507 -2.1033 -0.3401  1.5694
 2635SOL    HW2 8364   6.221   0.227   5.546 -0.9957 -0.4331  1.0731
 2636SOL     OW 8365   4.761   2.679   1.486  0.1738  0.4096 -0.0301
 2636SOL    HW1 8366   4.789   2.701   1.574  1.7801 -1.4527 -0.0127
 2636SOL    HW2 8367   4.827   2.617   1.454 -1.6569 -0.8586 -1.6266
 2637SOL     OW 8368   0.504   2.004   4.376  0.0396  0.2183  0.2324
 2637SOL    HW1 8369   0.428   1.981   4.322  1.7236 -1.1326 -1.7006
 2637SOL    HW2 8370   0.486   2.094   4.404 -1.7060  0.3884 -1.2061
 2638SOL     OW 8371   1.302   1.153   2.605  0.0011 -0.3664  0.0939
 2638SOL    HW1 8372   1.227   1.130   2.660  0.5536  0.1388  1.0850
 2638SOL    HW2 8373   1.378   1.115   2.650  0.6723  1.4735  0.6196
 2639SOL     OW 8374   1.356   3.025   5.096  0.8888  0.3551 -0.2505
 2639SOL    HW1 8375   1.416   2.952   5.111 -0.6700 -1.3475 -1.8007
 2639SOL    HW2 8376   1.309   3.035   5.179  1.8085  0.2861  0.2909
 2640SOL     OW 8377   2.734   3.475   5.261  0.5193  0.0656  0.0038
 2640SOL    HW1 8378   2.759   3.382   5.263  1.1021  0.2389  1.7589
 2640SOL    HW2 8379   2.729   3.501   5.353  0.2823  1.7692 -0.4624
 2641SOL     OW 8380   0.528   0.803   3.320  0.1537  0.2047 -1.0734
 2641SOL    HW1 8381   0.559   0.831   3.406  1.4760 -1.2585 -1.0210
 2641SOL    HW2 8382   0.436   0.827   3.318 -0.1834 -0.6510  1.1881
 2642SOL     OW 8383   2.702   5.295   4.390  0.2723  0.2271 -0.3481
 2642SOL    HW1 8384   2.795   5.309   4.410  0.1188  0.8538 -0.0288
 2642SOL    HW2 8385   2.685   5.205   4.418  0.8290  0.0463 -0.5844
 2643SOL     OW 8386   1.333   1.567   2.527  0.0747 -0.2579  0.0831
 2643SOL    HW1 8387   1.246   1.533   2.507 -0.0617  0.7795 -1.2140
 2643SOL    HW2 8388   1.337   1.568   2.623 -1.2373 -0.5580  0.1586
 2644SOL     OW 8389   2.191   0.194   3.735 -0.1926 -0.5856 -1.1587
 2644SOL    HW1 8390   2.136   0.271   3.746  0.5415 -0.0984 -0.7882
 2644SOL    HW2 8391   2.241   0.189   3.817 -1.4363 -2.4424 -0.4567
 2645SOL     OW 8392   0.177   0.366   3.276 -0.4902  0.0261 -0.3302
 2645SOL    HW1 8393   0.257   0.336   3.233 -1.3966 -2.2452 -0.5608
 2645SOL    HW2 8394   0.121   0.395   3.204  0.0956  1.6920 -0.1630
 2646SOL     OW 8395   2.356   3.328   4.050  0.2849  0.0988  0.3639
 2646SOL    HW1 8396   2.388   3.373   3.971  0.9036 -1.4485 -0.2944
 2646SOL    HW2 8397   2.319   3.246   4.018  0.5276 -0.5525  1.6942
 2647SOL     OW 8398   3.958   5.435   4.535 -0.4853  0.3028  0.0312
 2647SOL    HW1 8399   4.052   5.447   4.548 -0.2875  0.3545 -1.3056
 2647SOL    HW2 8400   3.920   5.522   4.550 -0.2674  0.3852  0.1074
 2648SOL     OW 8401   2.509   0.952   1.116 -0.0229 -0.3667 -0.8289
 2648SOL    HW1 8402   2.589   1.005   1.126 -1.0567  1.1231 -0.1506
 2648SOL    HW2 8403   2.468   0.953   1.202 -1.0723 -0.6314 -1.3104
 2649SOL     OW 8404   5.501   2.648   0.508 -0.5502  0.5484  0.1438
 2649SOL    HW1 8405   5.446   2.661   0.585  0.1629  0.0845  0.7297
 2649SOL    HW2 8406   5.589   2.636   0.542 -0.3838 -0.7305 -0.6604
 2650SOL     OW 8407   6.255   0.209   2.606 -0.1610 -0.7255 -0.8566
 2650SOL    HW1 8408   6.165   0.193   2.580 -0.6943  0.4592  0.1580
 2650SOL    HW2 8409   6.308   0.167   2.538 -1.4712  0.1535 -2.4721
 2651SOL     OW 8410   6.196   4.997   5.004  0.1946 -0.8459 -0.3836
 2651SOL    HW1 8411   6.131   4.988   4.935 -0.4169 -2.9370  0.3834
 2651SOL    HW2 8412   6.147   5.036   5.077  0.1677 -1.0934 -0.2699
 2652SOL     OW 8413   5.506   1.334   3.595  0.2453  0.0068 -0.0913
 2652SOL    HW1 8414   5.484   1.421   3.561  0.1274 -0.2871 -0.7785
 2652SOL    HW2 8415   5.596   1.320   3.567 -0.0039 -0.4300 -0.7073
 2653SOL     OW 8416   0.536   0.796   3.873  0.4566 -0.2420 -0.0110
 2653SOL    HW1 8417   0.480   0.728   3.837  0.9137 -1.9673  2.2200
 2653SOL    HW2 8418   0.492   0.878   3.854 -2.3114 -1.4485  0.7638
 2654SOL     OW 8419   4.348   6.323   1.204 -0.4918 -0.3120  0.2367
 2654SOL    HW1 8420   4.361   6.363   1.290 -1.2117 -0.4291  0.4090
 2654SOL    HW2 8421   4.419   6.357   1.150 -0.2215  0.0113  0.7930
 2655SOL     OW 8422   3.276   0.843   3.299  0.3877  0.1148 -0.5968
 2655SOL    HW1 8423   3.273   0.838   3.204 -0.6614  0.6859 -0.6170
 2655SOL    HW2 8424   3.341   0.910   3.318  1.5384 -0.8933 -0.8513
 2656SOL     OW 8425   1.955   6.008   2.192  0.3812 -0.2810 -0.1553
 2656SOL    HW1 8426   1.903   5.966   2.124 -1.5455  1.4676  0.1060
 2656SOL    HW2 8427   1.895   6.015   2.267  1.5217  0.3753  0.7324
 2657SOL     OW 8428   4.877   6.369   3.831 -0.4089  0.1012  0.2342
 2657SOL    HW1 8429   4.816   6.300   3.857 -1.6618  0.5220 -1.4045
 2657SOL    HW2 8430   4.842   6.448   3.873 -0.2649  0.1221  0.3138
 2658SOL     OW 8431   6.361   1.288   6.036  0.4019 -0.2592  0.3196
 2658SOL    HW1 8432   6.294   1.232   6.075  1.3657 -0.9129  1.0679
 2658SOL    HW2 8433   6.424   1.228   5.997  0.4184  0.3535 -0.6461
 2659SOL     OW 8434   4.257   3.993   2.935 -0.5455  0.1384  0.3055
 2659SOL    HW1 8435   4.222   4.035   2.856  1.5922  0.8216 -0.3555
 2659SOL    HW2 8436   4.194   3.924   2.956 -0.9725 -0.3397 -2.2532
 2660SOL     OW 8437   0.103   2.044   4.426 -0.6320  0.0284 -0.2383
 2660SOL    HW1 8438   0.177   2.019   4.370 -0.9957  1.0094 -1.1857
 2660SOL    HW2 8439   0.040   1.973   4.415  0.2587 -0.9628  0.8012
 2661SOL     OW 8440   4.756   1.526   3.571 -0.2125  0.0732  0.3214
 2661SOL    HW1 8441   4.682   1.469   3.551  0.4221 -0.8398  0.4884
 2661SOL    HW2 8442   4.795   1.547   3.486  0.6058 -1.2226  0.3440
 2662SOL     OW 8443   3.962   1.464   0.289 -0.1250  0.2278 -0.1125
 2662SOL    HW1 8444   4.011   1.478   0.208  0.5101  1.0417  0.3957
 2662SOL    HW2 8445   3.874   1.498   0.270  0.4682  1.9339  0.0335
 2663SOL     OW 8446   4.993   3.372   1.426 -0.4642 -0.3450  0.1782
 2663SOL    HW1 8447   4.911   3.335   1.392  0.4106 -0.2745 -2.1902
 2663SOL    HW2 8448   5.023   3.307   1.489 -2.1363 -0.5561  0.8238
 2664SOL     OW 8449   2.306   0.918   3.873 -0.0350  0.0964 -0.3889
 2664SOL    HW1 8450   2.397   0.893   3.888 -0.2230 -0.7375 -0.6013
 2664SOL    HW2 8451   2.282   0.876   3.790 -0.6429  0.2302 -0.2907
 2665SOL     OW 8452   4.963   0.459   4.843  0.0526 -0.2763  0.4468
 2665SOL    HW1 8453   5.012   0.534   4.877  1.0248 -1.1972  1.1610
 2665SOL    HW2 8454   4.936   0.486   4.755 -2.0236  1.9530  1.6548
 2666SOL     OW 8455   1.194   2.527   4.947  0.5221 -0.0531  0.1243
 2666SOL    HW1 8456   1.237   2.467   4.885  2.7594  1.3977  0.1277
 2666SOL    HW2 8457   1.236   2.612   4.930 -1.2410  1.1304  1.3388
 2667SOL     OW 8458   2.508   2.288   1.142  0.3144 -0.2582  0.0827
 2667SOL    HW1 8459   2.581   2.347   1.159 -1.1878  1.3129  1.3498
 2667SOL    HW2 8460   2.507   2.279   1.046  1.3183  0.7919 -0.0479
 2668SOL     OW 8461   2.769   3.616   1.292 -0.3569 -0.0969 -0.6383
 2668SOL    HW1 8462   2.677   3.604   1.319 -0.3076  2.6911  1.2949
 2668SOL    HW2 8463   2.819   3.564   1.355 -0.5697 -0.2239 -0.5713
 2669SOL     OW 8464   5.510   0.484   4.760 -0.5434  0.7939  0.4958
 2669SOL    HW1 8465   5.483   0.510   4.849 -1.9872 -0.2159  0.3756
 2669SOL    HW2 8466   5.590   0.433   4.774 -1.4077 -0.3887  1.3630
 2670SOL     OW 8467   0.655   0.313   0.215 -0.1610 -0.8671  0.0037
 2670SOL    HW1 8468   0.722   0.360   0.265 -1.2137  2.1308 -1.1386
 2670SOL    HW2 8469   0.692   0.304   0.127 -0.4602 -1.0817 -0.1029
 2671SOL     OW 8470   2.185   3.503   0.947  0.6702 -0.2730 -0.4331
 2671SOL    HW1 8471   2.195   3.588   0.990 -2.1410  0.0261 -0.1738
 2671SOL    HW2 8472   2.215   3.517   0.857  0.8550  0.8123 -0.2127
 2672SOL     OW 8473   0.729   4.511   4.383 -0.4671  0.5100 -0.3095
 2672SOL    HW1 8474   0.664   4.555   4.329 -2.8999 -0.9553  1.2213
 2672SOL    HW2 8475   0.729   4.420   4.351  1.5959  0.6458 -0.8791
 2673SOL     OW 8476   3.969   4.427   5.859  0.4496 -0.0950  0.5005
 2673SOL    HW1 8477   3.918   4.480   5.920  1.5734  0.3329  1.1075
 2673SOL    HW2 8478   3.943   4.337   5.878  2.6979 -0.2412  3.6061
 2674SOL     OW 8479   4.492   5.589   2.089  0.3916  0.2576  0.6049
 2674SOL    HW1 8480   4.488   5.679   2.123 -0.1323  0.5607 -0.2326
 2674SOL    HW2 8481   4.556   5.545   2.145  1.6981  1.5387  0.1793
 2675SOL     OW 8482   4.427   1.927   0.439  0.2152  0.0126  0.5054
 2675SOL    HW1 8483   4.472   1.864   0.495 -0.0887 -0.3748  0.3156
 2675SOL    HW2 8484   4.397   1.876   0.364  2.6001  0.9285 -1.1978
 2676SOL     OW 8485   2.631   1.249   2.134 -0.1589  0.0803  0.3585
 2676SOL    HW1 8486   2.664   1.291   2.055  0.2158  1.8034  1.3663
 2676SOL    HW2 8487   2.694   1.180   2.152 -0.0361 -0.0775 -0.6264
 2677SOL     OW 8488   5.232   0.477   6.348  0.6397  0.5291  0.3112
 2677SOL    HW1 8489   5.247   0.431   6.431  1.3810 -0.1970 -0.1976
 2677SOL    HW2 8490   5.268   0.565   6.362 -1.1769  1.1322  1.4341
 2678SOL     OW 8491   0.306   4.914   2.905 -0.3222  0.2225  0.4479
 2678SOL    HW1 8492   0.365   4.839   2.893 -0.7719 -0.0004 -0.4277
 2678SOL    HW2 8493   0.295   4.951   2.818 -2.1424 -0.2630  0.4165
 2679SOL     OW 8494   3.443   3.389   1.664  0.7355 -0.0415 -0.0561
 2679SOL    HW1 8495   3.383   3.453   1.625  0.7267 -0.2406 -0.3696
 2679SOL    HW2 8496   3.506   3.442   1.713  1.1889  0.2561 -0.9439
 2680SOL     OW 8497   4.941   1.600   3.306 -0.3285 -0.2162 -0.1580
 2680SOL    HW1 8498   5.015   1.644   3.349  0.1695 -1.0247 -0.1472
 2680SOL    HW2 8499   4.937   1.638   3.219 -0.0577  0.0227 -0.0681
 2681SOL     OW 8500   2.482   4.265   4.683  0.3656  0.2767 -0.0649
 2681SOL    HW1 8501   2.467   4.340   4.625  0.7278  1.4800  1.3371
 2681SOL    HW2 8502   2.542   4.298   4.750  2.9503 -2.1010 -0.9963
 2682SOL     OW 8503   4.648   4.135   2.237 -0.7823  0.1800  0.0347
 2682SOL    HW1 8504   4.742   4.142   2.253 -0.9855  1.6077  0.7009
 2682SOL    HW2 8505   4.641   4.091   2.152  0.5188  1.2759 -0.6749
 2683SOL     OW 8506   0.114   5.989   0.947  0.1231  0.4899 -0.1305
 2683SOL    HW1 8507   0.089   5.956   1.033  0.8285  1.1280  0.3423
 2683SOL    HW2 8508   0.108   6.084   0.956 -0.8569  0.5404 -1.1334
 2684SOL     OW 8509   2.708   0.180   6.024  0.4211 -0.5474 -0.1617
 2684SOL    HW1 8510   2.752   0.258   6.057  0.1476 -0.7103  0.6069
 2684SOL    HW2 8511   2.754   0.158   5.943  1.4632 -0.4489  0.3937
 2685SOL     OW 8512   3.916   5.149   5.717 -0.9146 -0.7115  0.3677
 2685SOL    HW1 8513   3.941   5.236   5.748 -2.1071 -0.6862  1.3843
 2685SOL    HW2 8514   3.853   5.118   5.783 -1.2622 -1.9292 -0.4997
 2686SOL     OW 8515   0.789   4.882   3.713 -0.7381  0.3229  0.4993
 2686SOL    HW1 8516   0.866   4.915   3.666 -0.1536 -1.0449  0.4373
 2686SOL    HW2 8517   0.823   4.859   3.799 -0.7131 -1.6481  0.0065
 2687SOL     OW 8518   5.400   2.965   2.776 -0.2083  0.1712  0.1882
 2687SOL    HW1 8519   5.320   2.963   2.829 -0.0380 -0.0117  0.4403
 2687SOL    HW2 8520   5.457   3.028   2.821 -0.2536  0.3813 -0.0513
 2688SOL     OW 8521   4.323   5.634   5.092 -0.1859 -0.3517 -0.7518
 2688SOL    HW1 8522   4.381   5.612   5.020 -0.9351 -1.4701 -1.0440
 2688SOL    HW2 8523   4.317   5.553   5.144 -0.2824  0.1990  0.1220
 2689SOL     OW 8524   5.985   2.553   3.389 -0.0603  0.2308 -0.0524
 2689SOL    HW1 8525   6.005   2.624   3.450 -0.1026  0.4931 -0.3446
 2689SOL    HW2 8526   5.917   2.588   3.332 -0.0015 -0.0042 -0.2710
 2690SOL     OW 8527   5.750   3.941   5.385  0.1529 -0.0743  0.1188
 2690SOL    HW1 8528   5.837   3.970   5.355 -0.1127  0.1523 -0.4549
 2690SOL    HW2 8529   5.690   3.974   5.318 -0.3506 -0.4382  0.3885
 2691SOL     OW 8530   5.660   2.007   4.289  0.1255  0.2287  0.0729
 2691SOL    HW1 8531   5.753   1.994   4.305  0.6905  3.4672  0.2328
 2691SOL    HW2 8532   5.629   2.053   4.368 -1.4422 -0.1725 -0.2840
 2692SOL     OW 8533   3.715   0.851   4.863  0.4793 -0.3292 -0.1853
 2692SOL    HW1 8534   3.715   0.819   4.953 -0.5002  0.5060  0.1275
 2692SOL    HW2 8535   3.713   0.771   4.810  0.0364 -0.8156  0.5461
 2693SOL     OW 8536   5.617   1.485   6.030 -0.5380  0.1598 -0.3960
 2693SOL    HW1 8537   5.600   1.471   6.123 -0.4446 -1.4037 -0.5745
 2693SOL    HW2 8538   5.568   1.564   6.007  0.4884  1.3429  1.2540
 2694SOL     OW 8539   5.724   4.506   2.784  0.1995  0.0757 -0.3371
 2694SOL    HW1 8540   5.689   4.589   2.816 -0.4707 -0.0446 -0.7396
 2694SOL    HW2 8541   5.689   4.441   2.845  1.8098  0.1960  0.7965
 2695SOL     OW 8542   1.985   1.075   3.155 -0.3778  0.1038  0.3496
 2695SOL    HW1 8543   1.995   1.169   3.140  0.8904 -0.3600 -2.1754
 2695SOL    HW2 8544   1.914   1.048   3.097  1.9522 -1.0863 -2.2002
 2696SOL     OW 8545   2.777   0.297   0.505 -0.5627  0.0374 -0.0610
 2696SOL    HW1 8546   2.825   0.244   0.442 -1.7586 -0.5538 -0.5161
 2696SOL    HW2 8547   2.808   0.387   0.488  0.9376 -0.4009  0.2257
 2697SOL     OW 8548   2.457   1.375   2.318  0.2532 -0.2146 -0.4924
 2697SOL    HW1 8549   2.536   1.339   2.278  0.4490 -0.5188  0.1496
 2697SOL    HW2 8550   2.489   1.427   2.392 -0.2089 -1.6978  0.8161
 2698SOL     OW 8551   4.218   0.886   3.978 -0.0414  0.5329 -0.7874
 2698SOL    HW1 8552   4.265   0.959   3.937 -2.0022  2.0770 -0.4111
 2698SOL    HW2 8553   4.228   0.813   3.916  0.8239  1.5043 -1.8284
 2699SOL     OW 8554   1.450   5.418   1.009 -0.4390  0.3588  0.0705
 2699SOL    HW1 8555   1.366   5.380   0.982 -1.1533  1.4278  0.6936
 2699SOL    HW2 8556   1.496   5.346   1.052 -1.9215  0.2503  1.5821
 2700SOL     OW 8557   5.923   2.031   0.928 -0.1946  0.2268  0.5627
 2700SOL    HW1 8558   5.921   2.071   1.015  0.1413  2.0321 -0.2210
 2700SOL    HW2 8559   5.879   1.947   0.939 -1.2891  0.9735  2.1966
 2701SOL     OW 8560   2.686   2.110   0.788  0.0065  0.4774  0.0149
 2701SOL    HW1 8561   2.710   2.083   0.877  0.6527  1.0199  0.0155
 2701SOL    HW2 8562   2.591   2.119   0.791 -0.0042  0.2601  0.5895
 2702SOL     OW 8563   4.874   5.276   1.343  0.1197 -0.0863 -0.4691
 2702SOL    HW1 8564   4.903   5.294   1.432 -0.9324  0.1623 -0.1641
 2702SOL    HW2 8565   4.902   5.353   1.293  0.6620 -0.2003 -0.3411
 2703SOL     OW 8566   1.683   5.040   3.988 -0.0427 -0.6258  0.3918
 2703SOL    HW1 8567   1.611   5.064   4.046 -0.1303  1.1246 -0.3770
 2703SOL    HW2 8568   1.742   5.115   3.991  0.3726 -0.8562 -1.0999
 2704SOL     OW 8569   1.568   1.215   0.243 -0.9901  0.2031 -0.0406
 2704SOL    HW1 8570   1.656   1.177   0.245  0.0677  2.4257  2.0874
 2704SOL    HW2 8571   1.526   1.182   0.322 -0.5325  2.1963  1.1145
 2705SOL     OW 8572   6.336   5.733   1.955  0.8853  0.2825  0.3381
 2705SOL    HW1 8573   6.368   5.793   1.888  0.2433  1.2648  0.8915
 2705SOL    HW2 8574   6.247   5.763   1.975  0.4739 -0.9721  0.4938
 2706SOL     OW 8575   5.861   6.372   5.332 -0.1766 -0.1183  0.1503
 2706SOL    HW1 8576   5.894   6.428   5.262 -0.9376 -0.0580 -0.1777
 2706SOL    HW2 8577   5.794   6.318   5.289  0.4765 -1.2193  0.4839
 2707SOL     OW 8578   2.187   3.115   3.990  0.3881  0.1923  0.3729
 2707SOL    HW1 8579   2.154   3.064   4.064  2.6659 -0.1258  1.2444
 2707SOL    HW2 8580   2.147   3.074   3.913 -0.0910 -1.0551  1.2549
 2708SOL     OW 8581   5.615   1.872   1.435 -0.4743  0.7113  0.2877
 2708SOL    HW1 8582   5.541   1.881   1.494 -1.6347  1.5792 -1.2139
 2708SOL    HW2 8583   5.656   1.959   1.435  0.3317  0.3436  0.8155
 2709SOL     OW 8584   0.352   0.072   3.893 -0.6684 -0.3236 -0.0589
 2709SOL    HW1 8585   0.430   0.088   3.946 -1.3918  1.0475  0.6624
 2709SOL    HW2 8586   0.315  -0.009   3.928 -0.9728  0.4048  1.3896
 2710SOL     OW 8587   3.990   0.018   4.740  0.2818 -0.3034  0.0208
 2710SOL    HW1 8588   3.941   0.024   4.822 -0.9501 -2.1328 -0.5242
 2710SOL    HW2 8589   3.923   0.019   4.672  1.2611  0.6865 -0.9611
 2711SOL     OW 8590   1.670   4.247   3.413 -0.9366  0.2036 -0.2160
 2711SOL    HW1 8591   1.724   4.228   3.489 -0.6595  1.9865  0.0939
 2711SOL    HW2 8592   1.585   4.271   3.450 -0.8059  1.0583 -0.4452
 2712SOL     OW 8593   3.843   2.050   0.900 -0.2356 -0.0504  0.5917
 2712SOL    HW1 8594   3.773   2.081   0.958 -1.8278 -2.0490 -0.1505
 2712SOL    HW2 8595   3.848   1.956   0.917  0.2771 -0.4334 -1.4242
 2713SOL     OW 8596   1.181   3.350   5.054  0.0302  0.8121 -0.7793
 2713SOL    HW1 8597   1.117   3.301   5.105  1.5702  0.1022  0.5781
 2713SOL    HW2 8598   1.230   3.283   5.006  1.8222  0.9594  0.7071
 2714SOL     OW 8599   1.233   4.729   2.416  0.1939  0.2973  0.2797
 2714SOL    HW1 8600   1.179   4.808   2.419 -0.1394  0.0689  0.2880
 2714SOL    HW2 8601   1.314   4.758   2.372  1.9763  1.7714  4.0936
 2715SOL     OW 8602   6.265   1.446   0.489  0.0293  0.6234 -0.3102
 2715SOL    HW1 8603   6.350   1.407   0.469  0.0695  1.1791 -1.2651
 2715SOL    HW2 8604   6.207   1.412   0.421  0.1665  2.5624 -1.4717
 2716SOL     OW 8605   5.276   4.578   5.209 -0.2401  0.1805 -0.3694
 2716SOL    HW1 8606   5.276   4.674   5.216 -0.5258  0.3876 -2.6551
 2716SOL    HW2 8607   5.184   4.554   5.222 -0.0954  0.1292  0.7071
 2717SOL     OW 8608   2.146   2.216   1.666 -0.3007 -0.0070 -1.0865
 2717SOL    HW1 8609   2.184   2.190   1.750 -1.0125  0.7763 -0.5020
 2717SOL    HW2 8610   2.199   2.171   1.601  1.3808  0.7556 -0.2969
 2718SOL     OW 8611   4.170   0.762   1.361 -1.1440 -0.8463 -0.3076
 2718SOL    HW1 8612   4.123   0.748   1.278  1.6462 -0.4503 -2.0742
 2718SOL    HW2 8613   4.258   0.728   1.345 -0.3644 -0.3286  2.3835
 2719SOL     OW 8614   4.174   3.914   2.229 -0.0696  0.3974 -0.7797
 2719SOL    HW1 8615   4.110   3.929   2.160 -1.0151 -0.8749 -0.2105
 2719SOL    HW2 8616   4.137   3.957   2.306  1.1234  2.0734 -1.0953
 2720SOL     OW 8617   0.734   5.921   4.663  0.3269 -0.1421 -0.0867
 2720SOL    HW1 8618   0.712   5.832   4.689  0.2988 -0.1660 -0.1916
 2720SOL    HW2 8619   0.765   5.912   4.573 -0.4801  0.0679 -0.3939
 2721SOL     OW 8620   2.461   4.598   0.999  0.3565  0.7482  0.0191
 2721SOL    HW1 8621   2.544   4.636   1.027 -0.7164  2.6855  0.7715
 2721SOL    HW2 8622   2.482   4.549   0.919  2.4180  0.1152  0.8986
 2722SOL     OW 8623   2.880   3.527   2.961 -0.6675 -0.0137  0.1678
 2722SOL    HW1 8624   2.924   3.591   3.016  1.9113 -1.0270 -0.5467
 2722SOL    HW2 8625   2.950   3.467   2.934 -2.6016 -1.9980 -0.7564
 2723SOL     OW 8626   3.600   0.206   0.638  0.7994 -0.1577 -0.0978
 2723SOL    HW1 8627   3.669   0.182   0.700 -0.3607  1.4508  1.9576
 2723SOL    HW2 8628   3.628   0.290   0.602  0.8684 -0.4848 -0.8265
 2724SOL     OW 8629   3.803   6.095   4.524  0.2385 -0.1226  0.2130
 2724SOL    HW1 8630   3.870   6.042   4.482 -0.8346 -1.5409  0.1945
 2724SOL    HW2 8631   3.722   6.046   4.510 -1.1522  2.4391 -1.4171
 2725SOL     OW 8632   1.903   4.622   4.840 -0.1252  0.0913 -0.3806
 2725SOL    HW1 8633   1.971   4.676   4.800  1.0838 -1.3976 -0.4310
 2725SOL    HW2 8634   1.908   4.539   4.794 -0.8720 -0.6009  0.7385
 2726SOL     OW 8635   2.309   2.712   5.220  0.1522 -0.4499 -0.4012
 2726SOL    HW1 8636   2.274   2.734   5.306  1.5973 -0.0588  0.1176
 2726SOL    HW2 8637   2.318   2.617   5.222  0.3584 -0.4237 -0.0541
 2727SOL     OW 8638   3.654   0.840   0.075 -0.3195  0.1834  0.0266
 2727SOL    HW1 8639   3.631   0.914   0.018 -2.2151  1.3190  2.1384
 2727SOL    HW2 8640   3.743   0.860   0.104 -0.0337  0.5420 -1.0211
 2728SOL     OW 8641   5.854   2.564   5.487 -0.3766  0.7262 -0.6729
 2728SOL    HW1 8642   5.901   2.622   5.428  0.7514 -0.4619 -1.0070
 2728SOL    HW2 8643   5.905   2.565   5.568  0.7968 -1.1992 -1.3055
 2729SOL     OW 8644   4.736   4.844   0.329 -0.6208  0.3838  0.9595
 2729SOL    HW1 8645   4.675   4.790   0.379 -0.5575 -1.5887 -0.8881
 2729SOL    HW2 8646   4.707   4.834   0.238  2.0525 -0.1965  0.0654
 2730SOL     OW 8647   2.734   0.105   2.738 -0.4311 -0.4484  0.5338
 2730SOL    HW1 8648   2.709   0.174   2.677  0.1390  0.1169  0.9285
 2730SOL    HW2 8649   2.652   0.079   2.780 -0.8807 -1.0638 -0.6787
 2731SOL     OW 8650   0.652   2.413   1.960 -0.4101 -0.3080  0.4930
 2731SOL    HW1 8651   0.740   2.406   1.999  0.4014  2.7449 -0.4916
 2731SOL    HW2 8652   0.598   2.449   2.030  0.1817  1.6695  0.0179
 2732SOL     OW 8653   0.111   4.784   5.808  0.2304 -0.4096 -0.6506
 2732SOL    HW1 8654   0.155   4.699   5.808  0.2281 -0.4268 -2.1597
 2732SOL    HW2 8655   0.120   4.815   5.898  2.7701 -0.6907 -0.7377
 2733SOL     OW 8656   4.778   2.606   4.323 -1.0178 -0.0090  0.2258
 2733SOL    HW1 8657   4.784   2.511   4.338 -0.3057  0.0524  0.3404
 2733SOL    HW2 8658   4.869   2.636   4.322 -1.1763  0.4827 -1.0128
 2734SOL     OW 8659   3.485   0.996   1.609  0.5642  0.6000 -0.7858
 2734SOL    HW1 8660   3.405   0.975   1.561  1.6739 -2.1130 -1.6207
 2734SOL    HW2 8661   3.456   1.015   1.698 -1.0617  0.4619 -1.2682
 2735SOL     OW 8662   3.002   0.754   2.591 -0.5025 -0.0670  0.3153
 2735SOL    HW1 8663   3.050   0.835   2.569 -0.9523 -0.0772 -0.7867
 2735SOL    HW2 8664   2.910   0.778   2.584 -0.6468 -0.9346 -1.1143
 2736SOL     OW 8665   0.330   4.417   5.493  0.6077  0.2066  0.6519
 2736SOL    HW1 8666   0.354   4.375   5.411 -0.7625 -1.3211  0.9908
 2736SOL    HW2 8667   0.259   4.477   5.469 -1.0942 -1.5907  0.9294
 2737SOL     OW 8668   1.103   5.279   6.233 -0.6047  0.0744  0.2057
 2737SOL    HW1 8669   1.077   5.255   6.322  0.2611  0.1899  0.4943
 2737SOL    HW2 8670   1.105   5.196   6.185  1.5883 -0.3798  0.9937
 2738SOL     OW 8671   3.375   4.799   0.900  0.2245  0.0810 -0.2585
 2738SOL    HW1 8672   3.422   4.882   0.898  0.2303  0.0633 -1.0822
 2738SOL    HW2 8673   3.374   4.774   0.993  2.8409 -0.5063 -0.3165
 2739SOL     OW 8674   3.013   5.970   3.905 -0.3501  0.0963  0.1958
 2739SOL    HW1 8675   3.053   5.989   3.820 -1.0038 -1.9807 -0.6200
 2739SOL    HW2 8676   3.074   6.008   3.968  0.3517  1.3547 -1.1639
 2740SOL     OW 8677   1.201   1.061   4.264  0.0721  0.5069 -0.1755
 2740SOL    HW1 8678   1.108   1.048   4.249  0.7169 -1.9181 -2.7923
 2740SOL    HW2 8679   1.216   1.153   4.240 -1.6257  0.9822  0.4488
 2741SOL     OW 8680   1.877   4.093   3.977 -0.3471  0.4445 -0.4495
 2741SOL    HW1 8681   1.878   4.120   3.885 -2.1481  0.1452 -0.5958
 2741SOL    HW2 8682   1.936   4.018   3.980  1.6783  1.9088 -0.8130
 2742SOL     OW 8683   1.879   6.318   2.608  0.0891 -0.0171 -0.2357
 2742SOL    HW1 8684   1.896   6.405   2.570 -1.5478  0.4011 -0.1057
 2742SOL    HW2 8685   1.826   6.337   2.686  0.1032 -1.1178  0.0466
 2743SOL     OW 8686   2.536   4.722   5.272 -0.4263 -0.1328  0.5136
 2743SOL    HW1 8687   2.524   4.628   5.286 -0.4112 -0.0879  0.8443
 2743SOL    HW2 8688   2.510   4.762   5.355  1.1797  0.0186  0.9982
 2744SOL     OW 8689   3.841   2.045   2.097 -0.7823 -0.8331  0.4989
 2744SOL    HW1 8690   3.794   2.088   2.169 -0.8043  0.2424 -0.1380
 2744SOL    HW2 8691   3.914   1.999   2.140  0.6916  1.8021  1.0257
 2745SOL     OW 8692   4.189   4.748   1.344 -0.3470 -0.3052  0.1250
 2745SOL    HW1 8693   4.178   4.702   1.261  2.7783 -1.1406  0.0638
 2745SOL    HW2 8694   4.127   4.705   1.403 -1.3774 -0.8608 -1.2913
 2746SOL     OW 8695   1.235   2.613   0.483 -0.2484 -0.0338 -0.4720
 2746SOL    HW1 8696   1.286   2.678   0.531 -0.3795 -0.6461  0.5183
 2746SOL    HW2 8697   1.145   2.627   0.512 -0.3068 -0.5196 -0.4094
 2747SOL     OW 8698   3.149   6.095   3.664 -0.2353  0.1365  0.0608
 2747SOL    HW1 8699   3.234   6.061   3.635  0.0194 -0.9819  1.9501
 2747SOL    HW2 8700   3.162   6.190   3.668  0.8525  0.0082  0.0617
 2748SOL     OW 8701   3.509   0.260   3.590 -0.3782 -0.6447 -0.7921
 2748SOL    HW1 8702   3.431   0.209   3.568 -0.6962 -1.8125  2.5234
 2748SOL    HW2 8703   3.577   0.194   3.608  0.2276  0.2101  0.1537
 2749SOL     OW 8704   0.630   0.856   3.574  0.2280  0.0063  0.4264
 2749SOL    HW1 8705   0.671   0.821   3.653  1.0672  0.1895  0.0759
 2749SOL    HW2 8706   0.673   0.939   3.558 -0.1055  0.0854 -0.0962
 2750SOL     OW 8707   2.203   2.723   1.463 -0.0229 -0.2279 -0.2559
 2750SOL    HW1 8708   2.193   2.789   1.532  0.9401 -0.7076  0.3637
 2750SOL    HW2 8709   2.225   2.643   1.510 -0.0711 -0.7379 -1.0816
 2751SOL     OW 8710   2.356   3.137   2.941 -0.1393  0.5936 -0.3911
 2751SOL    HW1 8711   2.265   3.143   2.971  0.2094 -2.5811  1.8550
 2751SOL    HW2 8712   2.366   3.211   2.881 -3.3490  2.7411  1.3715
 2752SOL     OW 8713   2.196   2.207   5.864 -0.2488  0.3247  0.3504
 2752SOL    HW1 8714   2.116   2.260   5.861  1.2341  2.6949 -0.0445
 2752SOL    HW2 8715   2.248   2.238   5.790  2.0401  0.5944  1.9657
 2753SOL     OW 8716   0.326   1.536   5.381 -0.2578  0.2834 -0.1770
 2753SOL    HW1 8717   0.345   1.502   5.468 -2.1085  1.1454  0.6237
 2753SOL    HW2 8718   0.364   1.472   5.321  0.9374 -0.3928  1.2521
 2754SOL     OW 8719   5.188   5.597   4.089  0.5836 -0.0531 -0.1721
 2754SOL    HW1 8720   5.197   5.656   4.164 -1.3742 -0.4923  0.4543
 2754SOL    HW2 8721   5.215   5.649   4.014 -1.4441  1.8187  0.3099
 2755SOL     OW 8722   2.189   0.510   4.737 -0.6154  0.6372  0.2466
 2755SOL    HW1 8723   2.279   0.518   4.768 -0.5832  0.0183  0.3226
 2755SOL    HW2 8724   2.187   0.562   4.656 -0.2482  0.8255  0.3554
 2756SOL     OW 8725   2.806   2.328   5.851  0.2910 -0.2209 -0.3499
 2756SOL    HW1 8726   2.857   2.311   5.771 -0.9155 -0.7893 -1.0281
 2756SOL    HW2 8727   2.724   2.279   5.838  0.4738 -1.1886  1.6947
 2757SOL     OW 8728   0.701   5.021   0.670  0.4900 -0.7531  0.0895
 2757SOL    HW1 8729   0.778   5.019   0.727  0.9121 -1.7608 -0.5119
 2757SOL    HW2 8730   0.713   5.100   0.617 -0.1003  0.4327  1.6143
 2758SOL     OW 8731   2.239   0.490   0.493  0.1240  0.1054 -0.1283
 2758SOL    HW1 8732   2.193   0.407   0.509 -0.2686  0.4758  0.7309
 2758SOL    HW2 8733   2.316   0.485   0.549  0.2706  0.1897 -0.3223
 2759SOL     OW 8734   4.204   0.876   3.388  0.4401  0.4425 -0.6471
 2759SOL    HW1 8735   4.223   0.950   3.445  0.6148 -0.0957 -0.0012
 2759SOL    HW2 8736   4.256   0.893   3.309  1.3802  0.4354 -0.0500
 2760SOL     OW 8737   5.385   0.754   2.448 -0.5230 -0.6397  0.3426
 2760SOL    HW1 8738   5.327   0.729   2.377  0.5517  2.6793 -1.9456
 2760SOL    HW2 8739   5.334   0.815   2.501 -0.0585  0.1595 -0.0981
 2761SOL     OW 8740   4.156   2.140   1.196 -0.5407 -1.0866  0.3161
 2761SOL    HW1 8741   4.130   2.058   1.154  0.0811 -1.1413  0.0281
 2761SOL    HW2 8742   4.102   2.206   1.153  0.1358 -1.1345 -0.6294
 2762SOL     OW 8743   3.522   1.726   5.703 -0.1674  0.2378 -0.1215
 2762SOL    HW1 8744   3.552   1.783   5.774  1.0166 -0.1721 -0.2577
 2762SOL    HW2 8745   3.551   1.770   5.624 -0.9950  0.4132 -0.3377
 2763SOL     OW 8746   2.878   4.590   6.200  0.1411  0.3236 -0.2489
 2763SOL    HW1 8747   2.914   4.589   6.111  0.6291  0.1657 -0.0558
 2763SOL    HW2 8748   2.898   4.677   6.233 -1.1723  0.8288 -0.7343
 2764SOL     OW 8749   3.324   1.914   5.425  0.7657  0.2627 -0.2091
 2764SOL    HW1 8750   3.352   1.823   5.425 -1.2223 -0.4089 -0.1425
 2764SOL    HW2 8751   3.337   1.943   5.334 -0.5549 -0.7981 -0.7842
 2765SOL     OW 8752   0.562   2.974   5.805  0.1397  0.1968 -0.1979
 2765SOL    HW1 8753   0.577   3.065   5.832  1.5230  0.2388 -1.0125
 2765SOL    HW2 8754   0.635   2.954   5.747 -1.6508 -0.4808 -2.3872
 2766SOL     OW 8755   5.402   3.846   4.229  0.1590  0.1655  0.1313
 2766SOL    HW1 8756   5.399   3.789   4.305  2.0199  1.5623  1.3361
 2766SOL    HW2 8757   5.312   3.878   4.219 -0.4743 -1.3910  0.6344
 2767SOL     OW 8758   6.060   1.423   2.292 -0.6647  0.1790  0.1887
 2767SOL    HW1 8759   6.041   1.336   2.258  0.4742 -0.1722  0.3876
 2767SOL    HW2 8760   6.037   1.483   2.220 -3.0705 -0.1003  0.6419
 2768SOL     OW 8761   3.524   1.499   2.265  0.3086  0.4036  0.4684
 2768SOL    HW1 8762   3.507   1.592   2.277  0.1086  0.3614  0.5205
 2768SOL    HW2 8763   3.566   1.472   2.346  1.4044  0.6865  0.0116
 2769SOL     OW 8764   0.832   6.105   6.086 -0.0798  0.1939 -0.7031
 2769SOL    HW1 8765   0.793   6.045   6.022  0.9447  0.1417 -1.2981
 2769SOL    HW2 8766   0.923   6.078   6.092  0.0464  0.7667  0.1364
 2770SOL     OW 8767   1.567   2.886   5.670  0.1348 -0.2508 -0.6627
 2770SOL    HW1 8768   1.486   2.866   5.718  0.5094  0.4622  0.3080
 2770SOL    HW2 8769   1.612   2.801   5.664  0.5668 -0.2007  1.2292
 2771SOL     OW 8770   3.524   2.037   1.538  0.0810 -0.1799 -0.3245
 2771SOL    HW1 8771   3.444   2.041   1.591 -0.5151 -0.2133 -1.2065
 2771SOL    HW2 8772   3.581   2.103   1.577  0.5160 -1.6592  1.7099
 2772SOL     OW 8773   2.214   2.135   2.532 -0.2608  0.1064  0.2746
 2772SOL    HW1 8774   2.301   2.130   2.493 -1.0749 -0.3247 -1.5848
 2772SOL    HW2 8775   2.227   2.187   2.612  1.3986  1.5639 -0.8623
 2773SOL     OW 8776   2.935   0.935   0.067  0.4080  0.3132 -0.1449
 2773SOL    HW1 8777   2.863   0.970   0.119  0.0812  1.0083 -1.0427
 2773SOL    HW2 8778   3.013   0.949   0.120 -0.1027 -0.4482  0.8420
 2774SOL     OW 8779   3.721   1.572   0.223  0.3109  0.2823  0.6858
 2774SOL    HW1 8780   3.690   1.482   0.234 -0.5435  0.2956 -1.1747
 2774SOL    HW2 8781   3.654   1.615   0.170  1.5661  1.4950 -0.0143
 2775SOL     OW 8782   4.854   3.107   5.413 -0.1234  0.2759  0.0063
 2775SOL    HW1 8783   4.846   3.018   5.380  1.1266  0.4758 -0.9127
 2775SOL    HW2 8784   4.811   3.105   5.499 -0.5890 -1.0629 -0.2397
 2776SOL     OW 8785   1.660   1.445   4.211 -0.0463 -0.8035 -0.0934
 2776SOL    HW1 8786   1.752   1.470   4.212 -0.1825  0.0054 -2.2808
 2776SOL    HW2 8787   1.653   1.383   4.139 -1.5729  0.9334 -1.5355
 2777SOL     OW 8788   2.335   6.189   6.175  0.7308  0.0682  1.1550
 2777SOL    HW1 8789   2.374   6.272   6.150  0.7096 -0.0302  0.7898
 2777SOL    HW2 8790   2.319   6.144   6.092  1.4370 -0.6188  1.3740
 2778SOL     OW 8791   1.375   5.546   3.069 -0.3773 -0.2128 -0.2745
 2778SOL    HW1 8792   1.346   5.530   2.980 -0.4776 -0.6144 -0.1719
 2778SOL    HW2 8793   1.470   5.555   3.062 -0.0391 -2.7937 -0.1043
 2779SOL     OW 8794   1.981   5.258   5.751  0.1648 -0.3166 -0.2658
 2779SOL    HW1 8795   1.912   5.236   5.814 -0.2040 -1.3460 -1.0102
 2779SOL    HW2 8796   1.964   5.349   5.728 -0.2597 -0.2170  0.4127
 2780SOL     OW 8797   0.515   4.208   1.530  0.5835  0.0141  0.3508
 2780SOL    HW1 8798   0.426   4.223   1.560  0.4564  0.1769 -0.1135
 2780SOL    HW2 8799   0.518   4.245   1.442  0.2090 -2.7058 -0.9173
 2781SOL     OW 8800   6.084   0.169   0.399 -0.0270  0.3955 -0.3123
 2781SOL    HW1 8801   6.060   0.110   0.328  0.7909 -2.4985  1.6445
 2781SOL    HW2 8802   6.003   0.180   0.450  0.2162 -0.5301  0.2951
 2782SOL     OW 8803   2.624   2.021   4.930 -0.5441 -0.1533 -0.9653
 2782SOL    HW1 8804   2.549   1.963   4.940 -0.8330  0.5284  1.9841
 2782SOL    HW2 8805   2.586   2.107   4.914 -0.3950  0.0405 -0.3344
 2783SOL     OW 8806   4.082   5.375   5.742 -0.0850 -0.0543  0.1205
 2783SOL    HW1 8807   4.160   5.400   5.792  0.4173 -0.6814 -0.3384
 2783SOL    HW2 8808   4.116   5.328   5.666 -0.9573 -1.9207  0.8020
 2784SOL     OW 8809   1.557   0.981   5.940  0.2286 -0.2482  0.2366
 2784SOL    HW1 8810   1.637   1.025   5.969  0.2978  0.0980 -0.4708
 2784SOL    HW2 8811   1.587   0.913   5.881  0.0063 -0.1493  0.0073
 2785SOL     OW 8812   1.104   4.311   3.870  0.0427 -0.0421  0.1748
 2785SOL    HW1 8813   1.127   4.228   3.828  0.8234  0.5156 -0.5342
 2785SOL    HW2 8814   1.033   4.288   3.930  0.0605 -1.1717 -0.2010
 2786SOL     OW 8815   2.853   0.012   1.595 -0.7108  0.3184  0.4453
 2786SOL    HW1 8816   2.807   0.093   1.574 -1.9347  0.2759  2.6500
 2786SOL    HW2 8817   2.877   0.022   1.687  1.1588 -0.9086  0.1554
 2787SOL     OW 8818   1.098   0.026   4.870 -0.2407 -0.3568  0.5128
 2787SOL    HW1 8819   1.107   0.105   4.923  0.4208 -0.8942  1.2140
 2787SOL    HW2 8820   1.181   0.019   4.822 -0.6944 -0.0695 -0.3410
 2788SOL     OW 8821   3.595   3.513   2.003 -0.0938  0.0997 -0.2577
 2788SOL    HW1 8822   3.669   3.481   2.054  0.3383  2.1879  0.5184
 2788SOL    HW2 8823   3.628   3.521   1.914  0.0035 -0.8418 -0.3158
 2789SOL     OW 8824   0.090   1.279   0.387  0.0131  0.1401  0.4501
 2789SOL    HW1 8825   0.113   1.359   0.341 -1.5812  0.4781  0.1786
 2789SOL    HW2 8826   0.100   1.210   0.320  0.4135  0.2406  0.4028
 2790SOL     OW 8827   2.671   6.145   0.168  0.4017 -0.3672 -0.0449
 2790SOL    HW1 8828   2.721   6.068   0.198 -0.2070 -0.2262  1.3763
 2790SOL    HW2 8829   2.738   6.211   0.150  0.8490 -0.8130 -0.0374
 2791SOL     OW 8830   6.152   6.177   1.563  0.1031 -0.3918 -0.2708
 2791SOL    HW1 8831   6.214   6.235   1.518 -1.0115  1.2744  0.2006
 2791SOL    HW2 8832   6.137   6.220   1.648  0.6301 -2.3986  0.8816
 2792SOL     OW 8833   2.767   0.527   2.507  0.6446  0.0968  0.1363
 2792SOL    HW1 8834   2.830   0.502   2.440  1.0463 -0.0878  0.5825
 2792SOL    HW2 8835   2.711   0.450   2.517  2.2966 -0.9561  1.9978
 2793SOL     OW 8836   5.831   2.060   5.961  0.1924 -0.4365 -0.5373
 2793SOL    HW1 8837   5.759   2.082   5.902  0.9495 -0.0816 -1.3490
 2793SOL    HW2 8838   5.789   2.015   6.034 -0.9365  0.3360 -0.6816
 2794SOL     OW 8839   0.047   3.092   1.233  0.0289  0.0468 -0.5237
 2794SOL    HW1 8840   0.058   2.997   1.234  0.9989  0.0954  2.0973
 2794SOL    HW2 8841  -0.010   3.110   1.308  0.0141  1.5488 -0.8722
 2795SOL     OW 8842   6.301   6.185   3.311  0.0181 -0.4252 -0.3586
 2795SOL    HW1 8843   6.218   6.172   3.264 -0.8329 -1.4398  1.3391
 2795SOL    HW2 8844   6.276   6.191   3.403  1.5915  1.9616  0.0050
 2796SOL     OW 8845   2.830   5.026   2.646 -0.3644 -0.0058 -0.4018
 2796SOL    HW1 8846   2.915   5.056   2.615 -0.1436  0.4417  0.5890
 2796SOL    HW2 8847   2.797   5.099   2.700 -0.5006 -0.9149  0.7968
 2797SOL     OW 8848   4.971   5.669   1.577  0.2814 -0.6969  0.1150
 2797SOL    HW1 8849   4.885   5.692   1.612 -0.5443 -1.3861 -1.3938
 2797SOL    HW2 8850   4.982   5.726   1.501  1.1546 -0.6555  0.2591
 2798SOL     OW 8851   0.333   5.815   3.434  0.9681  0.0093 -0.1831
 2798SOL    HW1 8852   0.366   5.842   3.519  2.6722  0.5205 -0.9542
 2798SOL    HW2 8853   0.243   5.847   3.431 -0.0579 -2.2630  2.3862
 2799SOL     OW 8854   5.369   1.609   0.353  0.7100 -0.5786  0.0603
 2799SOL    HW1 8855   5.294   1.552   0.336  0.7599 -0.9398  0.9590
 2799SOL    HW2 8856   5.437   1.577   0.294  0.5344 -1.0340  0.0988
 2800SOL     OW 8857   1.972   3.170   4.162 -0.0557 -0.0968  0.0372
 2800SOL    HW1 8858   2.033   3.203   4.096 -0.8149  0.5012 -0.3808
 2800SOL    HW2 8859   2.024   3.166   4.242  0.5730  0.2500 -0.3453
 2801SOL     OW 8860   4.777   2.876   4.432 -0.2734  0.1389  0.6724
 2801SOL    HW1 8861   4.783   2.943   4.364  0.9504  0.3208  0.9333
 2801SOL    HW2 8862   4.836   2.807   4.402 -0.0846  0.0135  1.3263
 2802SOL     OW 8863   0.093   0.899   3.935  0.0349 -0.0795 -0.2253
 2802SOL    HW1 8864   0.029   0.930   4.000  0.2411  0.7638 -0.4135
 2802SOL    HW2 8865   0.173   0.886   3.985  0.0818  0.1712 -0.2339
 2803SOL     OW 8866   5.608   3.719   4.784 -0.1921  0.1699  0.3236
 2803SOL    HW1 8867   5.691   3.672   4.787 -0.2155  0.1447  2.2619
 2803SOL    HW2 8868   5.552   3.673   4.846 -2.2803 -0.8286 -2.1369
 2804SOL     OW 8869   2.594   3.383   3.040 -0.6859 -0.1564 -0.1816
 2804SOL    HW1 8870   2.591   3.360   2.947 -0.1850 -0.5365 -0.1092
 2804SOL    HW2 8871   2.659   3.453   3.046 -0.5892 -0.2543 -0.0900
 2805SOL     OW 8872   0.709   2.562   5.163 -0.7711  0.0440 -0.5984
 2805SOL    HW1 8873   0.618   2.538   5.181 -0.6207 -1.0333 -1.2352
 2805SOL    HW2 8874   0.761   2.492   5.202 -0.3006 -0.3833 -1.9464
 2806SOL     OW 8875   1.007   4.847   0.044 -0.6810 -0.2033 -0.6078
 2806SOL    HW1 8876   0.945   4.875  -0.023  0.0495 -1.2208 -1.7545
 2806SOL    HW2 8877   1.028   4.757   0.020  0.1651 -0.3322  0.5759
 2807SOL     OW 8878   4.787   1.714   0.406  0.4792  0.1448 -1.1939
 2807SOL    HW1 8879   4.810   1.645   0.468 -0.5954  0.1650 -0.7580
 2807SOL    HW2 8880   4.783   1.794   0.458 -0.9575  0.0761 -1.1508
 2808SOL     OW 8881   6.091   5.354   0.982  0.2507 -0.3457 -0.2167
 2808SOL    HW1 8882   6.108   5.260   0.988  1.4743 -0.1505 -0.3825
 2808SOL    HW2 8883   6.085   5.382   1.074  2.5811 -0.1614 -0.0513
 2809SOL     OW 8884   1.900   4.332   4.064 -0.1446 -0.2599  0.2366
 2809SOL    HW1 8885   1.913   4.347   4.158 -0.2895 -1.2739  0.4364
 2809SOL    HW2 8886   1.895   4.237   4.056 -2.0195 -0.1282 -0.5567
 2810SOL     OW 8887   2.178   3.476   4.871  0.0647  0.2646  0.4381
 2810SOL    HW1 8888   2.236   3.545   4.839  0.9240 -0.9179 -0.6457
 2810SOL    HW2 8889   2.218   3.395   4.840 -1.1243 -0.7087  1.3601
 2811SOL     OW 8890   0.871   6.232   3.361  0.4797  0.1876 -0.1789
 2811SOL    HW1 8891   0.806   6.168   3.391 -0.1447  0.6180 -0.5851
 2811SOL    HW2 8892   0.954   6.201   3.398  0.0471 -0.3733  0.3469
 2812SOL     OW 8893   6.352   0.185   1.095  0.5927  0.0800  0.4046
 2812SOL    HW1 8894   6.303   0.267   1.100 -0.3059 -0.3878 -0.3754
 2812SOL    HW2 8895   6.368   0.173   1.002  1.2882 -0.3057  0.5722
 2813SOL     OW 8896   2.954   5.629   2.726  0.0674  0.0908  0.6915
 2813SOL    HW1 8897   2.978   5.695   2.791  2.8852 -1.8113  1.7804
 2813SOL    HW2 8898   2.867   5.599   2.753  0.2952  0.8217  2.3744
 2814SOL     OW 8899   0.498   2.512   2.144 -0.1891 -0.3740  0.3288
 2814SOL    HW1 8900   0.445   2.589   2.165  2.3158  1.7779 -0.5901
 2814SOL    HW2 8901   0.556   2.502   2.220 -0.2284 -1.1160  0.2651
 2815SOL     OW 8902   4.339   3.721   5.760  0.2436 -0.4650 -0.2226
 2815SOL    HW1 8903   4.360   3.777   5.835 -1.5332 -0.5841  0.4118
 2815SOL    HW2 8904   4.334   3.782   5.686 -1.7566  0.3066  0.4739
 2816SOL     OW 8905   4.146   1.158   2.666  0.0352  0.2408  0.0095
 2816SOL    HW1 8906   4.095   1.094   2.717  1.9404  0.4725  2.3691
 2816SOL    HW2 8907   4.083   1.193   2.602 -1.3288 -3.2920 -0.8291
 2817SOL     OW 8908   1.050   2.316   4.306 -0.1779 -0.7183 -0.4158
 2817SOL    HW1 8909   1.011   2.261   4.238 -1.1846 -3.1491  1.9474
 2817SOL    HW2 8910   1.026   2.274   4.388  2.6108  0.9526  1.4483
 2818SOL     OW 8911   3.318   0.314   2.322 -0.0500 -0.0234 -0.5664
 2818SOL    HW1 8912   3.352   0.290   2.408  1.9445  0.4529 -1.1677
 2818SOL    HW2 8913   3.304   0.230   2.278  0.0935 -0.2356 -0.2110
 2819SOL     OW 8914   4.802   3.585   4.408  0.7771 -0.1976 -0.3668
 2819SOL    HW1 8915   4.873   3.648   4.397 -1.1889  1.9813 -1.3417
 2819SOL    HW2 8916   4.780   3.589   4.501  1.9892 -1.0293 -0.0210
 2820SOL     OW 8917   5.844   2.786   4.801 -0.2037  0.0020  0.0352
 2820SOL    HW1 8918   5.890   2.735   4.734 -1.6293 -0.6341 -0.5062
 2820SOL    HW2 8919   5.791   2.849   4.752 -0.4593  0.2396  0.6040
 2821SOL     OW 8920   1.868   2.241   0.233  0.0268  0.5807 -0.5464
 2821SOL    HW1 8921   1.958   2.211   0.247 -0.3988 -0.3188  0.4356
 2821SOL    HW2 8922   1.836   2.261   0.320 -0.9560  0.1723 -0.7991
 2822SOL     OW 8923   0.500   0.054   3.486 -0.5045 -0.2410  0.2509
 2822SOL    HW1 8924   0.576   0.068   3.542 -0.5652  0.5312  0.1579
 2822SOL    HW2 8925   0.532   0.068   3.397  0.1040 -3.5751 -0.1702
 2823SOL     OW 8926   4.401   5.551   4.434  0.1521 -0.0601  0.4945
 2823SOL    HW1 8927   4.319   5.533   4.478  0.0856 -1.5889 -0.1891
 2823SOL    HW2 8928   4.430   5.635   4.470 -0.6294 -0.5274  2.3102
 2824SOL     OW 8929   6.151   1.689   5.162 -0.1077  0.6110  0.6439
 2824SOL    HW1 8930   6.152   1.746   5.085 -0.5787 -2.5166 -1.8690
 2824SOL    HW2 8931   6.242   1.687   5.192  0.2055  1.4144 -0.1995
 2825SOL     OW 8932   4.308   3.691   4.481 -0.3791 -0.4334 -0.0615
 2825SOL    HW1 8933   4.325   3.598   4.499 -0.2884 -0.7473 -1.6744
 2825SOL    HW2 8934   4.346   3.736   4.557  0.0673 -1.6694  0.4917
 2826SOL     OW 8935   3.386   4.581   0.130  0.1552  0.3251 -0.2783
 2826SOL    HW1 8936   3.350   4.540   0.208 -0.8662 -1.7788 -1.7545
 2826SOL    HW2 8937   3.453   4.641   0.162  0.0379 -0.7576  2.1501
 2827SOL     OW 8938   2.792   4.872   4.041  0.1891  0.1063  0.5871
 2827SOL    HW1 8939   2.763   4.963   4.035  1.0799  0.3625 -0.1120
 2827SOL    HW2 8940   2.720   4.827   4.085 -0.1572  1.1950  1.1898
 2828SOL     OW 8941   5.715   4.764   2.883  0.0462  0.8732 -0.0425
 2828SOL    HW1 8942   5.773   4.759   2.959 -0.9560 -0.4501  0.7012
 2828SOL    HW2 8943   5.633   4.800   2.918 -0.0983  1.1977 -0.7098
 2829SOL     OW 8944   3.184   5.133   3.586 -0.3056  0.1952 -0.5917
 2829SOL    HW1 8945   3.276   5.126   3.612  0.5334  0.5935 -3.1421
 2829SOL    HW2 8946   3.135   5.103   3.662  1.9256 -0.0199  0.8544
 2830SOL     OW 8947   0.713   2.705   3.313  0.7040  0.5681  0.2912
 2830SOL    HW1 8948   0.643   2.761   3.347 -0.8589 -1.7133  1.0433
 2830SOL    HW2 8949   0.711   2.720   3.218 -1.1497  0.2517  0.2337
 2831SOL     OW 8950   2.929   0.055   5.195 -0.2866 -0.1453  0.0585
 2831SOL    HW1 8951   2.950   0.147   5.181 -3.1621  0.4430 -1.0236
 2831SOL    HW2 8952   2.933   0.044   5.290  0.3664  0.9901  0.1843
 2832SOL     OW 8953   1.898   3.591   1.294 -0.3360 -0.0364 -0.1082
 2832SOL    HW1 8954   1.924   3.538   1.219  0.2106  1.2837 -0.8844
 2832SOL    HW2 8955   1.847   3.663   1.255 -1.8758 -0.4795  1.0043
 2833SOL     OW 8956   0.354   3.759   5.671  0.0845 -0.3283 -0.7940
 2833SOL    HW1 8957   0.394   3.672   5.669  0.6843 -0.0788 -0.2436
 2833SOL    HW2 8958   0.261   3.743   5.684 -0.4128 -1.0217 -4.1426
 2834SOL     OW 8959   5.028   3.156   4.648  0.0709 -0.3483  0.1486
 2834SOL    HW1 8960   5.058   3.232   4.597  1.7868 -2.6534 -2.5806
 2834SOL    HW2 8961   4.935   3.150   4.628  0.4364 -0.4002 -1.7671
 2835SOL     OW 8962   3.648   3.092   5.478  0.2065  0.0617  0.0226
 2835SOL    HW1 8963   3.588   3.055   5.542 -0.8476  0.9920 -0.4093
 2835SOL    HW2 8964   3.622   3.183   5.469  1.2037  0.2990 -0.7369
 2836SOL     OW 8965   0.231   1.170   3.269 -0.2490 -0.2523  0.0423
 2836SOL    HW1 8966   0.245   1.082   3.302 -2.3018 -0.7374 -0.2107
 2836SOL    HW2 8967   0.149   1.198   3.310 -0.0328  1.2440 -0.4718
 2837SOL     OW 8968   4.205   0.800   2.787 -0.2440  0.0057  0.0521
 2837SOL    HW1 8969   4.189   0.727   2.727  1.5056  0.8484 -1.5353
 2837SOL    HW2 8970   4.300   0.814   2.784 -0.3174  1.2380  1.6794
 2838SOL     OW 8971   0.616   2.908   1.942  0.4905 -0.1381  0.3853
 2838SOL    HW1 8972   0.632   2.826   1.897  0.8374  0.0371  0.1786
 2838SOL    HW2 8973   0.543   2.890   2.001  0.4758 -0.5534  0.2426
 2839SOL     OW 8974   5.704   2.338   0.351 -0.4145 -0.4085  0.4281
 2839SOL    HW1 8975   5.700   2.260   0.294 -0.1480 -0.4285  0.4373
 2839SOL    HW2 8976   5.613   2.353   0.376 -0.7248  0.3157 -0.9801
 2840SOL     OW 8977   0.834   5.910   5.219  0.1729 -0.4562  0.2815
 2840SOL    HW1 8978   0.921   5.899   5.181  1.1175  0.6973  1.9900
 2840SOL    HW2 8979   0.793   5.977   5.165 -0.1595 -1.8343 -1.2666
 2841SOL     OW 8980   0.132   5.257   0.955 -0.1979  0.3520  0.3031
 2841SOL    HW1 8981   0.163   5.254   1.046 -0.5269  1.0576  0.4436
 2841SOL    HW2 8982   0.056   5.315   0.957  0.0559  0.7349 -0.4944
 2842SOL     OW 8983   0.206   0.265   0.437 -0.3039 -0.3976 -0.4016
 2842SOL    HW1 8984   0.141   0.295   0.501 -0.1945  0.5712 -0.7253
 2842SOL    HW2 8985   0.283   0.244   0.489 -0.0202  0.9458 -0.2502
 2843SOL     OW 8986   4.054   5.197   2.456 -0.5951  0.1927  0.3272
 2843SOL    HW1 8987   4.098   5.276   2.425 -1.3793  0.9455  1.0834
 2843SOL    HW2 8988   4.051   5.140   2.379 -0.5260  1.1199 -0.3826
 2844SOL     OW 8989   0.424   4.490   4.617  0.0808  0.2920 -0.6147
 2844SOL    HW1 8990   0.356   4.472   4.552  0.6517 -1.4708 -0.7542
 2844SOL    HW2 8991   0.484   4.416   4.611 -0.5067 -0.6500  2.7912
 2845SOL     OW 8992   3.788   0.994   5.235  0.5007 -0.1948  0.3899
 2845SOL    HW1 8993   3.726   0.925   5.211 -0.2892  0.5992  0.1310
 2845SOL    HW2 8994   3.848   0.951   5.297 -0.1314 -1.0406  0.4359
 2846SOL     OW 8995   4.268   5.436   5.389  0.1977 -0.7887  0.0486
 2846SOL    HW1 8996   4.173   5.427   5.382  0.2076 -0.3289 -0.8908
 2846SOL    HW2 8997   4.281   5.508   5.451 -0.0261 -1.7227  1.2137
 2847SOL     OW 8998   5.287   5.397   0.005 -0.2752 -0.2990 -0.2203
 2847SOL    HW1 8999   5.235   5.469   0.043 -1.1161 -0.2086 -1.4758
 2847SOL    HW2 9000   5.339   5.439  -0.064 -1.3462 -0.9773 -1.4944
 2848SOL     OW 9001   5.461   6.368   2.269  0.0385 -0.3101 -0.2235
 2848SOL    HW1 9002   5.445   6.307   2.197  0.0033 -1.0177  0.3737
 2848SOL    HW2 9003   5.418   6.449   2.242 -3.7794 -1.7855  0.8566
 2849SOL     OW 9004   6.000   4.954   4.840  0.5012  0.4525 -0.0800
 2849SOL    HW1 9005   6.001   4.891   4.768 -0.5399  0.0228  0.2625
 2849SOL    HW2 9006   5.919   4.936   4.886 -0.5114  2.9305 -0.7414
 2850SOL     OW 9007   0.419   2.863   4.569 -0.0138  0.7174  0.1598
 2850SOL    HW1 9008   0.514   2.865   4.579  0.0113  1.6057 -0.1930
 2850SOL    HW2 9009   0.389   2.807   4.641  0.7584  0.5761  0.3854
 2851SOL     OW 9010   3.861   4.782   5.986  0.2261  0.3023 -0.1219
 2851SOL    HW1 9011   3.875   4.731   6.066 -0.4137  1.5682  0.8453
 2851SOL    HW2 9012   3.948   4.815   5.963  0.6875 -1.3080 -0.8771
 2852SOL     OW 9013   2.807   5.462   2.915 -0.2347  0.0147 -0.2492
 2852SOL    HW1 9014   2.858   5.384   2.937  0.5639  0.3377 -0.8959
 2852SOL    HW2 9015   2.744   5.470   2.986 -1.1239 -1.8906 -0.7622
 2853SOL     OW 9016   4.374   2.465   6.082 -0.2387 -0.4184 -0.0139
 2853SOL    HW1 9017   4.421   2.544   6.055 -2.0995  0.2857 -1.4848
 2853SOL    HW2 9018   4.344   2.484   6.171  0.2188  0.1037  0.0322
 2854SOL     OW 9019   0.811   0.474   1.798  0.4947  0.0767 -0.1276
 2854SOL    HW1 9020   0.835   0.566   1.798 -1.1045  0.5703  1.7398
 2854SOL    HW2 9021   0.747   0.465   1.727 -0.9311  0.9293  0.9949
 2855SOL     OW 9022   0.602   1.249   3.467  0.0243  0.3507  0.6506
 2855SOL    HW1 9023   0.550   1.296   3.532  0.6228  1.3308  0.4415
 2855SOL    HW2 9024   0.664   1.197   3.518  1.8512  2.6251  0.9454
 2856SOL     OW 9025   6.202   2.848   1.242 -0.1628  0.8419  0.1547
 2856SOL    HW1 9026   6.241   2.794   1.173 -0.2864  1.1356 -0.1417
 2856SOL    HW2 9027   6.160   2.920   1.196 -2.6120 -0.3729  0.3089
 2857SOL     OW 9028   3.267   5.215   3.904 -0.2078  0.2668  0.2286
 2857SOL    HW1 9029   3.286   5.161   3.981  2.1843  1.4383  0.5546
 2857SOL    HW2 9030   3.191   5.173   3.863 -0.3090 -1.5395  2.1063
 2858SOL     OW 9031   0.337   4.287   5.724 -0.3770  0.2632 -0.3240
 2858SOL    HW1 9032   0.341   4.340   5.644 -1.0449  0.9833  0.1078
 2858SOL    HW2 9033   0.272   4.220   5.705  1.2762 -1.1526 -1.2870
 2859SOL     OW 9034   2.834   0.781   1.247  0.2378 -0.1242  0.4478
 2859SOL    HW1 9035   2.815   0.835   1.324 -0.6596  1.4341 -0.8233
 2859SOL    HW2 9036   2.927   0.761   1.255  0.5620  1.4815  1.0469
 2860SOL     OW 9037   0.358   3.982   5.493 -0.3894 -0.3440 -0.0269
 2860SOL    HW1 9038   0.300   4.030   5.552  2.0057 -0.7191  2.8687
 2860SOL    HW2 9039   0.377   3.901   5.540  1.0727 -1.0188 -1.6963
 2861SOL     OW 9040   0.462   0.557   6.136  0.1178 -0.2087  0.1262
 2861SOL    HW1 9041   0.508   0.528   6.057  0.9516 -3.3589  1.5944
 2861SOL    HW2 9042   0.528   0.548   6.206 -1.1424  0.6317  1.4789
 2862SOL     OW 9043   1.864   4.753   2.346 -0.3540  0.2123  0.3277
 2862SOL    HW1 9044   1.937   4.721   2.293 -0.9306 -0.3678 -0.1436
 2862SOL    HW2 9045   1.816   4.811   2.287 -1.5799 -1.2317 -0.1717
 2863SOL     OW 9046   5.137   2.078   4.952 -0.7482 -0.8134 -0.7236
 2863SOL    HW1 9047   5.200   2.022   4.998 -0.5650  0.0010  0.0477
 2863SOL    HW2 9048   5.060   2.023   4.940 -0.3552 -1.4221 -0.5377
 2864SOL     OW 9049   0.556   2.600   4.026  0.6558 -0.2999 -0.3608
 2864SOL    HW1 9050   0.625   2.662   4.000 -0.1692  0.6019 -0.4666
 2864SOL    HW2 9051   0.492   2.654   4.072 -0.3927 -0.9549 -1.0184
 2865SOL     OW 9052   2.684   3.796   4.301  0.0502  0.4575 -0.0224
 2865SOL    HW1 9053   2.730   3.795   4.385 -0.3753 -1.7986  0.2514
 2865SOL    HW2 9054   2.699   3.708   4.265 -2.3903  0.3120 -0.8188
 2866SOL     OW 9055   4.122   4.803   5.940 -0.7785 -0.1185 -0.3110
 2866SOL    HW1 9056   4.180   4.875   5.917 -0.8739 -0.0041 -0.1959
 2866SOL    HW2 9057   4.169   4.724   5.911 -0.5225 -0.0335 -0.1296
 2867SOL     OW 9058   1.242   3.814   0.130  0.0845  0.5033 -0.4532
 2867SOL    HW1 9059   1.207   3.728   0.106 -1.3140  0.8857  0.1331
 2867SOL    HW2 9060   1.316   3.826   0.071  1.3687 -1.8070  0.5533
 2868SOL     OW 9061   2.265   0.928   6.105 -0.2342  0.5754 -0.8352
 2868SOL    HW1 9062   2.231   1.014   6.083  1.8674  1.5643 -0.4638
 2868SOL    HW2 9063   2.292   0.890   6.021 -0.7732  0.4295 -0.9488
 2869SOL     OW 9064   3.554   3.073   0.269 -0.3786  0.2644  0.0915
 2869SOL    HW1 9065   3.633   3.033   0.233 -0.5584  0.3990 -0.4605
 2869SOL    HW2 9066   3.577   3.166   0.278 -0.2587  0.1947  0.5453
 2870SOL     OW 9067   5.454   0.870   5.634  0.8808  0.1228 -0.3324
 2870SOL    HW1 9068   5.368   0.893   5.600  0.3573 -0.1073  0.7694
 2870SOL    HW2 9069   5.444   0.873   5.729  2.8026  2.8099 -0.0910
 2871SOL     OW 9070   2.651   1.246   3.283  0.5081 -0.3650 -0.0616
 2871SOL    HW1 9071   2.744   1.227   3.295  0.0438 -2.0268  1.5284
 2871SOL    HW2 9072   2.639   1.334   3.318  1.7982  0.7256 -2.2175
 2872SOL     OW 9073   1.025   4.404   2.053  0.0181  0.1058 -0.1199
 2872SOL    HW1 9074   1.104   4.391   2.001 -0.8160  0.0012 -1.4033
 2872SOL    HW2 9075   1.043   4.482   2.105  0.2547  1.2828 -1.8672
 2873SOL     OW 9076   2.431   4.917   3.330  0.4167 -0.0212 -0.3687
 2873SOL    HW1 9077   2.475   4.890   3.411 -1.6508 -0.3374  0.7198
 2873SOL    HW2 9078   2.485   4.989   3.297  1.8181 -0.4700  0.7908
 2874SOL     OW 9079   0.754   5.911   0.601 -0.5783 -0.0696 -0.3785
 2874SOL    HW1 9080   0.673   5.864   0.622 -0.1588 -1.7079 -2.2061
 2874SOL    HW2 9081   0.815   5.886   0.671 -0.7116 -1.3688 -0.7099
 2875SOL     OW 9082   0.172   3.324   3.004 -0.0430  0.2782 -0.2864
 2875SOL    HW1 9083   0.208   3.336   2.917  0.7749  0.5444  0.0762
 2875SOL    HW2 9084   0.228   3.258   3.045  0.4038  1.1056  0.4779
 2876SOL     OW 9085   1.692   2.812   2.759 -0.1733 -0.1840  0.1636
 2876SOL    HW1 9086   1.771   2.865   2.750  0.0028 -0.5285 -0.3305
 2876SOL    HW2 9087   1.707   2.736   2.704 -0.4239 -0.7605  0.8642
 2877SOL     OW 9088   5.912   0.744   3.930  0.2210 -0.1646  0.5005
 2877SOL    HW1 9089   5.966   0.815   3.896  0.1551  0.5610  1.8583
 2877SOL    HW2 9090   5.823   0.765   3.901  0.4697 -0.7418 -0.7414
 2878SOL     OW 9091   3.123   1.711   1.931 -0.1198 -0.2528 -0.0537
 2878SOL    HW1 9092   3.051   1.652   1.954  0.0609 -0.9578 -1.2170
 2878SOL    HW2 9093   3.082   1.779   1.879  0.1315 -0.9867 -1.2371
 2879SOL     OW 9094   1.597   5.455   1.782 -0.3057 -0.1362 -0.4603
 2879SOL    HW1 9095   1.533   5.517   1.747 -0.8195 -0.3754  0.0229
 2879SOL    HW2 9096   1.647   5.505   1.846  0.2200  0.1381 -1.0745
 2880SOL     OW 9097   4.618   3.433   1.460  0.1015 -0.6360 -0.1271
 2880SOL    HW1 9098   4.527   3.449   1.434  0.7333  0.3591 -1.9060
 2880SOL    HW2 9099   4.652   3.372   1.394  0.9033 -0.5196  0.1646
 2881SOL     OW 9100   4.234   0.184   6.031 -0.0873 -0.6207 -0.2383
 2881SOL    HW1 9101   4.205   0.127   5.959  0.7732 -1.9226  0.4117
 2881SOL    HW2 9102   4.170   0.170   6.100 -1.5652  1.4738 -1.0563
 2882SOL     OW 9103   2.439   5.200   1.532  0.3748  0.1022 -0.4168
 2882SOL    HW1 9104   2.472   5.252   1.458  0.2669  1.7831  0.6769
 2882SOL    HW2 9105   2.355   5.166   1.501  0.0130  1.3368 -0.8446
 2883SOL     OW 9106   2.944   0.885   2.027 -0.4012  0.0540 -0.0058
 2883SOL    HW1 9107   2.883   0.817   2.000 -0.8900  0.5617 -0.2072
 2883SOL    HW2 9108   3.012   0.839   2.076 -1.7234 -0.3478  1.5600
 2884SOL     OW 9109   4.170   4.367   0.964  0.3931  0.4677  0.7885
 2884SOL    HW1 9110   4.199   4.285   1.004  1.7395  0.7150  0.3599
 2884SOL    HW2 9111   4.082   4.348   0.930  1.5570 -1.5172 -1.3816
 2885SOL     OW 9112   6.353   1.138   1.071 -0.8872 -0.2535 -0.1490
 2885SOL    HW1 9113   6.276   1.106   1.117  0.0897  2.0749  3.5381
 2885SOL    HW2 9114   6.426   1.123   1.131  1.3607 -0.9170 -2.8226
 2886SOL     OW 9115   1.109   3.403   1.766  0.2195 -0.9090  0.0804
 2886SOL    HW1 9116   1.025   3.401   1.721  0.4717 -0.6632 -0.4043
 2886SOL    HW2 9117   1.165   3.458   1.711  0.4200 -0.2928  0.8733
 2887SOL     OW 9118   3.837   1.867   0.042 -0.5060  0.8210  0.6049
 2887SOL    HW1 9119   3.931   1.850   0.043 -0.2447  2.1690  1.1220
 2887SOL    HW2 9120   3.819   1.907   0.127 -1.6346  0.2106  0.6729
 2888SOL     OW 9121   5.924   5.630   1.514 -0.7794  0.0551  0.0406
 2888SOL    HW1 9122   6.003   5.640   1.568 -0.1716  2.4240 -1.1847
 2888SOL    HW2 9123   5.882   5.551   1.549  1.8759 -1.0519  1.0341
 2889SOL     OW 9124   1.000   3.427   4.532  0.1062  0.3417  0.4489
 2889SOL    HW1 9125   0.928   3.468   4.580 -0.1570  0.1634  0.2049
 2889SOL    HW2 9126   1.019   3.346   4.579  1.4632  1.3207  1.6809
 2890SOL     OW 9127   6.148   5.628   5.737 -0.7569  0.2047  0.2351
 2890SOL    HW1 9128   6.134   5.663   5.825 -0.5906  1.4347 -0.2132
 2890SOL    HW2 9129   6.237   5.657   5.714 -0.6673 -0.4054 -0.2066
 2891SOL     OW 9130   2.736   1.385   0.859 -0.2920  0.1381 -0.1131
 2891SOL    HW1 9131   2.779   1.442   0.795  1.7700  0.3866  1.3964
 2891SOL    HW2 9132   2.759   1.297   0.832  0.5340  0.2413  0.2256
 2892SOL     OW 9133   3.668   5.040   4.703 -0.3642  0.2739 -0.8987
 2892SOL    HW1 9134   3.721   5.029   4.783  1.6132 -0.1173 -2.1903
 2892SOL    HW2 9135   3.694   5.125   4.669 -1.0558  0.3530 -1.2378
 2893SOL     OW 9136   3.088   3.926   0.435  0.2134 -0.0798 -0.1322
 2893SOL    HW1 9137   3.019   3.889   0.491  0.6946 -0.5932  0.1413
 2893SOL    HW2 9138   3.044   3.947   0.353 -0.0220 -1.6794 -0.4567
 2894SOL     OW 9139   2.880   0.964   4.627  0.4323 -0.4726  0.2029
 2894SOL    HW1 9140   2.879   0.956   4.723  1.7490  1.8679  0.4736
 2894SOL    HW2 9141   2.964   1.006   4.608 -0.8869  1.3937 -1.7675
 2895SOL     OW 9142   6.315   5.834   2.836  0.1506 -0.3157 -0.2761
 2895SOL    HW1 9143   6.389   5.894   2.847  0.2519 -0.5912  0.6620
 2895SOL    HW2 9144   6.347   5.769   2.774 -0.0042  0.6474 -1.3966
 2896SOL     OW 9145   5.774   0.881   3.301 -0.3190  0.0855  0.3921
 2896SOL    HW1 9146   5.826   0.819   3.249 -1.8875 -1.4367  0.5346
 2896SOL    HW2 9147   5.687   0.843   3.302 -1.4780  2.5714  0.1469
 2897SOL     OW 9148   1.794   2.250   0.504  0.3078  0.1538 -0.3328
 2897SOL    HW1 9149   1.830   2.322   0.556  1.1091  0.4519 -1.2611
 2897SOL    HW2 9150   1.699   2.257   0.514  0.4480  0.1399  1.1446
 2898SOL     OW 9151   2.717   0.101   0.719 -0.0406 -0.0484 -0.1264
 2898SOL    HW1 9152   2.709   0.166   0.649  0.0456  0.1619  0.0561
 2898SOL    HW2 9153   2.630   0.063   0.727 -0.8622  1.9780  1.6226
 2899SOL     OW 9154   1.963   1.582   2.049 -0.4402 -0.6280 -0.1230
 2899SOL    HW1 9155   1.869   1.575   2.034 -0.9210  2.0775  1.0384
 2899SOL    HW2 9156   1.978   1.531   2.129 -1.2230  0.1286  0.5281
 2900SOL     OW 9157   3.614   1.848   4.546 -0.3203  0.3560 -0.0707
 2900SOL    HW1 9158   3.644   1.917   4.605 -0.8041  0.0929  0.4932
 2900SOL    HW2 9159   3.693   1.798   4.526 -0.0851  0.6750  0.0465
 2901SOL     OW 9160   5.286   3.248   4.362 -0.2106 -0.1353  0.2279
 2901SOL    HW1 9161   5.332   3.190   4.423 -1.6625 -2.1510 -0.4718
 2901SOL    HW2 9162   5.222   3.294   4.416  0.1649 -0.0823  0.6257
 2902SOL     OW 9163   2.876   2.912   2.289  0.6814  0.4416  0.1327
 2902SOL    HW1 9164   2.958   2.934   2.245  0.2731  0.1458 -0.7921
 2902SOL    HW2 9165   2.890   2.825   2.326 -0.0313 -0.7543 -2.2155
 2903SOL     OW 9166   3.638   6.118   1.522 -0.7123  0.1052  0.0969
 2903SOL    HW1 9167   3.586   6.192   1.492 -0.5163  0.3602  0.3749
 2903SOL    HW2 9168   3.691   6.153   1.594 -0.5401 -0.2777  0.1631
 2904SOL     OW 9169   0.758   3.897   2.932 -0.3750  0.3527 -0.4727
 2904SOL    HW1 9170   0.679   3.889   2.878 -0.6589 -0.5961  0.0473
 2904SOL    HW2 9171   0.820   3.837   2.891 -0.5379 -0.2514  0.1455
 2905SOL     OW 9172   0.012   1.740   3.516 -0.3502  0.1498 -0.0533
 2905SOL    HW1 9173  -0.035   1.811   3.471  0.6220  0.6071 -0.3711
 2905SOL    HW2 9174  -0.057   1.680   3.544 -1.1044  0.6459 -0.7911
 2906SOL     OW 9175   3.022   0.260   0.030  0.4176 -0.3028  0.1106
 2906SOL    HW1 9176   2.942   0.246   0.081 -0.9718 -1.3632 -2.1679
 2906SOL    HW2 9177   3.088   0.284   0.095 -0.9601 -2.4509  2.5065
 2907SOL     OW 9178   3.210   3.159   5.977  0.1401  0.1218  0.3943
 2907SOL    HW1 9179   3.214   3.235   6.034  0.9308  0.3556  0.0517
 2907SOL    HW2 9180   3.142   3.103   6.014  1.4254 -0.2859  2.2683
 2908SOL     OW 9181   1.280   1.341   5.125 -0.3893  0.4224 -0.2642
 2908SOL    HW1 9182   1.288   1.433   5.151 -0.4398  0.3683 -0.0556
 2908SOL    HW2 9183   1.192   1.317   5.152 -0.2918  0.2450 -0.1034
 2909SOL     OW 9184   2.339   3.346   3.379 -0.0089 -0.4012 -0.0081
 2909SOL    HW1 9185   2.278   3.400   3.429  2.3757  1.7731  0.7905
 2909SOL    HW2 9186   2.372   3.404   3.310  0.3848 -1.8377 -1.0740
 2910SOL     OW 9187   3.103   4.764   0.843  0.4142 -0.1357 -0.1220
 2910SOL    HW1 9188   3.193   4.795   0.841  0.1937  0.5069 -0.5947
 2910SOL    HW2 9189   3.053   4.837   0.880 -0.3707  0.8258 -2.8149
 2911SOL     OW 9190   0.126   3.681   4.373 -0.6314 -0.1445 -0.7560
 2911SOL    HW1 9191   0.161   3.750   4.429 -1.4994 -0.1703 -0.1692
 2911SOL    HW2 9192   0.191   3.671   4.304 -0.8779  1.8721 -1.3364
 2912SOL     OW 9193   1.626   1.073   0.557  0.6311  0.7925 -0.5579
 2912SOL    HW1 9194   1.721   1.064   0.555  0.6772  0.3917  1.3303
 2912SOL    HW2 9195   1.612   1.162   0.591  0.3655  0.3592  0.4996
 2913SOL     OW 9196   5.357   1.921   1.982  0.3292 -0.3235  0.0559
 2913SOL    HW1 9197   5.374   1.944   2.073  2.4126  1.3073 -0.6567
 2913SOL    HW2 9198   5.409   1.984   1.932 -0.7328 -1.1995 -2.2673
 2914SOL     OW 9199   0.298   2.773   4.349  0.5479  0.2423 -0.1053
 2914SOL    HW1 9200   0.275   2.683   4.368  1.3744  0.2089  0.7796
 2914SOL    HW2 9201   0.363   2.796   4.414  0.9255  1.2332 -0.8019
 2915SOL     OW 9202   2.220   5.811   2.163 -0.1206 -0.4114  0.2663
 2915SOL    HW1 9203   2.216   5.871   2.088  1.8854  1.3679  1.4671
 2915SOL    HW2 9204   2.164   5.852   2.229 -1.5819 -1.7781 -0.0639
 2916SOL     OW 9205   5.064   0.942   6.258  0.1516 -0.1356 -0.2486
 2916SOL    HW1 9206   5.007   1.019   6.249 -0.9579 -1.1175 -2.3672
 2916SOL    HW2 9207   5.038   0.903   6.341  0.1923  1.3352  0.4844
 2917SOL     OW 9208   0.784   1.949   1.909  0.7596 -0.0671  0.6615
 2917SOL    HW1 9209   0.705   1.943   1.962 -0.0620 -1.5711 -0.6704
 2917SOL    HW2 9210   0.772   2.029   1.857 -1.1221 -1.5173 -1.3237
 2918SOL     OW 9211   4.816   5.880   6.331 -0.4005  0.2617 -0.0348
 2918SOL    HW1 9212   4.757   5.806   6.314 -1.6361  0.9949  0.8302
 2918SOL    HW2 9213   4.759   5.947   6.368  0.9315  1.1540  0.4738
 2919SOL     OW 9214   3.358   5.709   0.572 -0.5594  0.2572 -0.1677
 2919SOL    HW1 9215   3.312   5.667   0.499 -0.5271  0.1585 -0.1305
 2919SOL    HW2 9216   3.288   5.747   0.625 -0.6226 -0.2122  0.0908
 2920SOL     OW 9217   3.247   0.969   6.272 -0.0429  0.0559 -0.0257
 2920SOL    HW1 9218   3.206   0.960   6.358 -1.2470 -0.5284 -0.6429
 2920SOL    HW2 9219   3.222   0.890   6.225 -0.0324  0.7105 -1.1632
 2921SOL     OW 9220   1.532   5.808   3.634 -0.0759  0.1873  0.6158
 2921SOL    HW1 9221   1.611   5.781   3.680  0.4859  2.1568  0.8760
 2921SOL    HW2 9222   1.461   5.788   3.694  0.1993 -1.3646  0.4806
 2922SOL     OW 9223   2.229   2.815   6.065  0.4571  0.2412  0.3020
 2922SOL    HW1 9224   2.269   2.879   6.006  1.5541 -1.0330 -0.3774
 2922SOL    HW2 9225   2.201   2.867   6.141 -0.5220  1.8252 -1.0855
 2923SOL     OW 9226   3.749   1.020   1.679 -0.6673  0.1320 -0.0180
 2923SOL    HW1 9227   3.657   0.993   1.678 -0.7215  0.3366 -0.8405
 2923SOL    HW2 9228   3.763   1.052   1.768 -1.5027  0.4597  0.0048
 2924SOL     OW 9229   2.610   3.071   5.197  0.0812 -0.3135 -0.7827
 2924SOL    HW1 9230   2.522   3.089   5.229  0.1878 -2.0198  0.6317
 2924SOL    HW2 9231   2.604   2.983   5.159  1.3370 -0.8142  0.1156
 2925SOL     OW 9232   3.409   6.172   4.597  0.2792 -0.3883 -1.0619
 2925SOL    HW1 9233   3.333   6.120   4.623  0.2964  0.1477  0.1458
 2925SOL    HW2 9234   3.415   6.160   4.502 -0.4602 -1.5670 -0.9847
 2926SOL     OW 9235   1.193   5.717   0.553  0.5149 -0.4655 -0.0077
 2926SOL    HW1 9236   1.173   5.681   0.639  0.9588 -0.6931  0.0018
 2926SOL    HW2 9237   1.109   5.718   0.507  0.3618 -0.8019  0.2608
 2927SOL     OW 9238   0.322   3.084   1.703 -0.3404 -0.3123  0.4351
 2927SOL    HW1 9239   0.330   3.084   1.799 -2.2917 -2.5692  0.6918
 2927SOL    HW2 9240   0.384   3.018   1.674  0.8085  0.9065  0.0158
 2928SOL     OW 9241   4.254   4.961   3.644  0.0083  0.2327 -0.1313
 2928SOL    HW1 9242   4.318   4.900   3.681  0.2486  0.7987  0.4055
 2928SOL    HW2 9243   4.183   4.905   3.611  0.0551 -0.3160  0.6843
 2929SOL     OW 9244   1.371   1.264   0.530 -0.0151 -0.3982 -0.3847
 2929SOL    HW1 9245   1.380   1.192   0.468 -1.2882 -0.5902 -0.3726
 2929SOL    HW2 9246   1.311   1.231   0.597  0.1132  0.3538  0.1151
 2930SOL     OW 9247   3.335   0.198   4.303  0.1811 -0.0320  0.0249
 2930SOL    HW1 9248   3.380   0.244   4.232  0.2434  1.3048  0.8759
 2930SOL    HW2 9249   3.277   0.137   4.259 -0.0200  0.9873 -1.1988
 2931SOL     OW 9250   0.843   2.325   2.815 -0.1485  0.4035  0.1209
 2931SOL    HW1 9251   0.866   2.261   2.881  1.0445  2.7807  2.1771
 2931SOL    HW2 9252   0.748   2.334   2.823 -0.1284 -0.0018  0.8865
 2932SOL     OW 9253   1.150   4.920   1.579  0.0815 -0.5701  0.0487
 2932SOL    HW1 9254   1.060   4.946   1.562  0.2839 -0.4577 -0.8601
 2932SOL    HW2 9255   1.204   4.983   1.532  0.6163 -1.3544 -0.4200
 2933SOL     OW 9256   5.141   3.599   2.319 -0.1971  0.3608 -0.4102
 2933SOL    HW1 9257   5.114   3.653   2.245 -0.4625  0.1762 -0.4500
 2933SOL    HW2 9258   5.154   3.512   2.283  0.1014  0.3665 -0.3204
 2934SOL     OW 9259   5.325   2.145   0.076  0.3541 -0.0791  0.4751
 2934SOL    HW1 9260   5.306   2.233   0.109  1.7258  0.4079  0.0342
 2934SOL    HW2 9261   5.244   2.118   0.033 -0.2230  0.7943  0.9614
 2935SOL     OW 9262   1.096   4.574   6.254  0.3554 -0.2080  0.0984
 2935SOL    HW1 9263   1.007   4.539   6.257 -0.7810  2.3985  3.3908
 2935SOL    HW2 9264   1.148   4.509   6.301 -0.3345 -0.5952  0.3422
 2936SOL     OW 9265   0.510   4.385   6.257  0.0973  0.6817 -0.2679
 2936SOL    HW1 9266   0.468   4.411   6.175 -0.4750  0.5188 -0.0261
 2936SOL    HW2 9267   0.470   4.441   6.324 -0.8803 -0.5596  0.2044
 2937SOL     OW 9268   0.569   5.143   3.246 -1.0068  0.2492  0.8176
 2937SOL    HW1 9269   0.555   5.226   3.199 -2.0405 -0.3060  0.1114
 2937SOL    HW2 9270   0.503   5.084   3.210 -0.1669 -0.9454  1.1861
 2938SOL     OW 9271   1.196   2.147   5.055 -0.0483  0.1743  0.3545
 2938SOL    HW1 9272   1.105   2.133   5.081 -0.2308 -1.5090 -1.0479
 2938SOL    HW2 9273   1.203   2.105   4.969  2.7094 -2.1217  1.5538
 2939SOL     OW 9274   3.616   4.265   0.073  0.3104 -0.1025  0.6622
 2939SOL    HW1 9275   3.529   4.280   0.035 -0.0775 -1.4276  0.9872
 2939SOL    HW2 9276   3.632   4.343   0.127 -1.3925 -0.5656  1.9105
 2940SOL     OW 9277   4.024   3.561   2.211 -0.3354 -0.2164  0.0955
 2940SOL    HW1 9278   4.047   3.576   2.303  0.0941 -3.2534  0.5618
 2940SOL    HW2 9279   4.057   3.639   2.166  1.3525  0.3953  2.2258
 2941SOL     OW 9280   2.796   4.636   2.654  0.2566  0.2894  0.2529
 2941SOL    HW1 9281   2.819   4.589   2.735 -0.9010 -1.8206 -0.5669
 2941SOL    HW2 9282   2.835   4.583   2.584 -0.9183  0.6729 -0.7075
 2942SOL     OW 9283   2.397   3.427   6.120 -0.6956  0.9330 -0.5795
 2942SOL    HW1 9284   2.442   3.504   6.084 -1.7032  2.3532  1.0185
 2942SOL    HW2 9285   2.304   3.449   6.114 -0.9955 -0.1107  0.0345
 2943SOL     OW 9286   5.317   1.299   5.205  0.1519 -0.3404  0.3522
 2943SOL    HW1 9287   5.295   1.356   5.132  0.4871 -0.8393 -0.1487
 2943SOL    HW2 9288   5.358   1.223   5.164 -0.9142 -1.2642  0.9279
 2944SOL     OW 9289   4.220   4.578   5.434  0.1270 -0.0008  0.0141
 2944SOL    HW1 9290   4.143   4.588   5.490  1.5088 -0.7896  2.2341
 2944SOL    HW2 9291   4.276   4.652   5.459  1.3297 -1.1037  0.7268
 2945SOL     OW 9292   1.817   2.521   0.372  0.0090 -0.0406  0.4188
 2945SOL    HW1 9293   1.902   2.479   0.390 -0.4637 -0.9502  0.6005
 2945SOL    HW2 9294   1.763   2.497   0.447 -0.3161  0.8212  0.4678
 2946SOL     OW 9295   4.378   4.738   2.044  0.2560 -0.9794  0.2759
 2946SOL    HW1 9296   4.440   4.686   2.096 -0.9519 -1.4796  1.2800
 2946SOL    HW2 9297   4.375   4.695   1.959  0.1717 -1.8561  0.7102
 2947SOL     OW 9298   2.901   5.315   0.874 -0.2318  0.0723 -0.1709
 2947SOL    HW1 9299   2.850   5.395   0.882 -0.1759  0.1709 -0.7826
 2947SOL    HW2 9300   2.853   5.262   0.810  0.7847  0.4497 -1.2814
 2948SOL     OW 9301   3.900   1.616   6.242  0.0647  0.1195 -0.5956
 2948SOL    HW1 9302   3.820   1.665   6.262  0.8226  0.4550  1.9953
 2948SOL    HW2 9303   3.940   1.664   6.169 -1.5164  0.6073 -1.1756
 2949SOL     OW 9304   0.758   0.626   0.921 -0.0910  0.3559 -0.3474
 2949SOL    HW1 9305   0.773   0.672   1.004  0.0725 -1.1701  0.4980
 2949SOL    HW2 9306   0.843   0.629   0.876  0.7771 -1.5868  1.0105
 2950SOL     OW 9307   4.992   2.725   3.287 -0.1808  0.0363 -0.0580
 2950SOL    HW1 9308   4.931   2.796   3.267 -1.6729 -1.1451  0.1530
 2950SOL    HW2 9309   5.031   2.751   3.371 -0.0199  1.0389 -0.4319
 2951SOL     OW 9310   2.316   2.809   4.293  0.2216 -0.2594  0.0566
 2951SOL    HW1 9311   2.363   2.870   4.236 -0.0743  0.5149  0.6257
 2951SOL    HW2 9312   2.384   2.771   4.350  0.4974 -0.9367 -0.7046
 2952SOL     OW 9313   2.323   4.593   2.911 -0.6643  0.1569  0.1605
 2952SOL    HW1 9314   2.328   4.685   2.937 -1.6005  0.7522 -1.6197
 2952SOL    HW2 9315   2.233   4.568   2.928 -0.7873  0.0054 -0.6582
 2953SOL     OW 9316   2.151   4.999   2.976 -0.4616  0.1232  0.2186
 2953SOL    HW1 9317   2.109   5.080   3.005  0.2084  1.3085 -1.8964
 2953SOL    HW2 9318   2.217   5.027   2.913  2.8225 -1.7107  2.4826
 2954SOL     OW 9319   5.598   4.377   6.274  0.2352  0.7704 -0.2981
 2954SOL    HW1 9320   5.663   4.318   6.313 -2.1632 -1.3970  0.7484
 2954SOL    HW2 9321   5.587   4.447   6.338 -0.3780 -0.3354  0.8501
 2955SOL     OW 9322   0.503   2.371   3.681  1.0207  0.0315  0.1665
 2955SOL    HW1 9323   0.544   2.413   3.606  1.0843 -0.1613  0.0915
 2955SOL    HW2 9324   0.491   2.279   3.653 -0.4516  0.3086 -0.2302
 2956SOL     OW 9325   3.304   1.635   1.258  0.5419  0.6669 -0.6832
 2956SOL    HW1 9326   3.227   1.691   1.243  0.5143  0.9792  0.5181
 2956SOL    HW2 9327   3.302   1.573   1.185 -1.5590 -0.1003 -0.0585
 2957SOL     OW 9328   0.130   1.861   0.543 -0.0415  0.5257  0.1985
 2957SOL    HW1 9329   0.218   1.841   0.509 -0.9766 -0.6923 -1.6464
 2957SOL    HW2 9330   0.110   1.787   0.600 -0.7378 -0.3735 -1.1697
 2958SOL     OW 9331   1.943   4.104   5.035  0.5074  0.3459  0.3677
 2958SOL    HW1 9332   1.971   4.047   5.107  0.9429  0.1193  0.0272
 2958SOL    HW2 9333   1.921   4.043   4.964  0.5696  0.5839  0.1410
 2959SOL     OW 9334   1.558   3.224   3.163 -0.0629 -0.4419  0.2425
 2959SOL    HW1 9335   1.621   3.188   3.100  2.2696  1.1504  1.5543
 2959SOL    HW2 9336   1.539   3.312   3.131 -2.2931 -1.1397 -0.5344
 2960SOL     OW 9337   0.839   4.519   3.071 -0.1326 -0.7116  0.3083
 2960SOL    HW1 9338   0.826   4.466   3.150  0.4713 -1.8920 -0.3552
 2960SOL    HW2 9339   0.918   4.484   3.031  0.3219  0.7495 -0.1441
 2961SOL     OW 9340   6.190   3.415   4.480  0.3701 -0.4157  0.0890
 2961SOL    HW1 9341   6.154   3.331   4.505 -0.0246 -0.4442 -0.5600
 2961SOL    HW2 9342   6.234   3.399   4.397  1.4968 -0.2811  0.6388
 2962SOL     OW 9343   5.101   5.560   0.111 -0.0219  0.4412 -0.3159
 2962SOL    HW1 9344   5.095   5.648   0.073  0.4049  0.2944 -0.7361
 2962SOL    HW2 9345   5.043   5.563   0.187  1.4189  1.6758  0.8206
 2963SOL     OW 9346   4.291   3.727   0.559 -0.2123 -0.4555 -0.3269
 2963SOL    HW1 9347   4.204   3.756   0.589  0.1669  1.0942 -0.6488
 2963SOL    HW2 9348   4.336   3.699   0.639 -0.1756  1.0312  0.1968
 2964SOL     OW 9349   1.522   1.732   5.956  0.3988 -0.1113 -0.8512
 2964SOL    HW1 9350   1.597   1.674   5.942  0.4046 -0.0930 -0.8970
 2964SOL    HW2 9351   1.456   1.700   5.895 -0.3337 -1.3575  0.5340
 2965SOL     OW 9352   0.115   5.075   5.231  0.2069  0.1304  0.2266
 2965SOL    HW1 9353   0.107   5.171   5.230 -1.3991  0.0209 -1.3779
 2965SOL    HW2 9354   0.031   5.044   5.263  0.2703 -0.7729 -0.4352
 2966SOL     OW 9355   0.372   1.249   2.371 -0.1683  0.5706 -0.2496
 2966SOL    HW1 9356   0.354   1.219   2.282  0.4381 -0.3603 -0.0786
 2966SOL    HW2 9357   0.467   1.264   2.372 -0.0230 -0.2887  0.4718
 2967SOL     OW 9358   2.083   3.478   4.476  0.4918  0.7968 -0.0632
 2967SOL    HW1 9359   2.177   3.495   4.477  0.2838  2.2553 -1.3285
 2967SOL    HW2 9360   2.075   3.392   4.435  1.3669 -0.7601  2.7252
 2968SOL     OW 9361   3.910   5.454   2.072  0.0235 -0.1017  0.0739
 2968SOL    HW1 9362   3.924   5.369   2.031  1.7528  0.1366  0.1118
 2968SOL    HW2 9363   3.948   5.446   2.159 -0.7209  0.4137  0.4594
 2969SOL     OW 9364   6.030   2.708   5.950 -0.1103  0.4457  0.0108
 2969SOL    HW1 9365   5.963   2.775   5.937 -1.0671 -0.7828 -1.8091
 2969SOL    HW2 9366   6.111   2.757   5.961 -0.6088  1.9399 -2.2593
 2970SOL     OW 9367   5.874   3.675   1.408  0.0443  0.3897 -0.1253
 2970SOL    HW1 9368   5.838   3.587   1.408 -1.0476  0.8238  0.2172
 2970SOL    HW2 9369   5.961   3.665   1.369  1.1664 -1.3222  2.4935
 2971SOL     OW 9370   2.337   4.053   0.093  0.5425  0.0016 -0.4013
 2971SOL    HW1 9371   2.335   4.147   0.074  2.3195  0.5817  1.8433
 2971SOL    HW2 9372   2.261   4.039   0.149  1.5486  0.6715  1.2214
 2972SOL     OW 9373   4.618   0.197   2.596  0.0349  0.4372  0.0662
 2972SOL    HW1 9374   4.627   0.257   2.670  1.9195 -0.4847  0.6494
 2972SOL    HW2 9375   4.617   0.110   2.635 -0.0291 -0.0329 -0.9340
 2973SOL     OW 9376   5.237   1.286   1.917  0.1869 -0.6683  0.1462
 2973SOL    HW1 9377   5.290   1.207   1.925 -0.6402 -1.1953  0.5214
 2973SOL    HW2 9378   5.188   1.274   1.835 -1.4428 -1.5010  1.1858
 2974SOL     OW 9379   3.797   1.534   3.536 -0.0838 -0.5013 -0.0638
 2974SOL    HW1 9380   3.814   1.449   3.495  0.3285 -0.8982  0.8862
 2974SOL    HW2 9381   3.721   1.569   3.490 -1.9117 -2.5504  1.2240
 2975SOL     OW 9382   1.618   5.203   2.796 -0.3163  0.4721 -0.4515
 2975SOL    HW1 9383   1.713   5.191   2.795 -0.4154 -0.4139 -0.3817
 2975SOL    HW2 9384   1.592   5.185   2.887 -0.6045  0.1936 -0.5846
 2976SOL     OW 9385   4.562   0.306   1.907 -0.0998  0.4316  0.0127
 2976SOL    HW1 9386   4.647   0.261   1.906  0.2434  1.0639 -0.0695
 2976SOL    HW2 9387   4.548   0.331   1.816 -0.0901  0.8497  0.1261
 2977SOL     OW 9388   5.578   0.233   0.556 -0.2744  0.3286  0.6038
 2977SOL    HW1 9389   5.624   0.282   0.488 -0.1125  0.9199  1.1250
 2977SOL    HW2 9390   5.485   0.246   0.536 -0.2350  0.9608  0.8050
 2978SOL     OW 9391   1.704   4.857   2.134 -0.0800 -0.1969 -0.5000
 2978SOL    HW1 9392   1.698   4.899   2.049  2.3647  0.4874 -0.4218
 2978SOL    HW2 9393   1.692   4.764   2.116 -2.6092  0.1795 -1.0963
 2979SOL     OW 9394   3.318   1.071   1.799  0.4282 -0.2504 -0.5097
 2979SOL    HW1 9395   3.288   1.119   1.877  1.5398 -0.1880 -0.1031
 2979SOL    HW2 9396   3.309   0.979   1.823  2.0985 -0.2500  0.2674
 2980SOL     OW 9397   0.557   5.745   2.196  0.2797  0.0238  0.1543
 2980SOL    HW1 9398   0.629   5.744   2.133  0.4007  0.0815  0.2907
 2980SOL    HW2 9399   0.503   5.820   2.170  1.6908  1.6601  1.6265
 2981SOL     OW 9400   0.715   1.369   5.612 -0.1861  0.3425  0.5029
 2981SOL    HW1 9401   0.720   1.275   5.595  0.4802  0.6488 -1.1064
 2981SOL    HW2 9402   0.806   1.398   5.617 -0.2188  1.6018 -3.4188
 2982SOL     OW 9403   3.847   1.736   1.461 -0.6250 -0.0122  0.1815
 2982SOL    HW1 9404   3.837   1.783   1.544 -0.7420 -0.3707  0.3766
 2982SOL    HW2 9405   3.906   1.663   1.483  1.2848  1.2272 -0.5964
 2983SOL     OW 9406   2.578   5.480   4.555  0.1141 -0.3541 -0.4917
 2983SOL    HW1 9407   2.605   5.416   4.489 -1.1295  0.2699 -1.6685
 2983SOL    HW2 9408   2.658   5.501   4.603  0.6859 -2.2696 -0.5043
 2984SOL     OW 9409   5.862   6.212   0.875 -0.6617  0.1480  0.1547
 2984SOL    HW1 9410   5.876   6.195   0.782 -0.4487  0.0053  0.2110
 2984SOL    HW2 9411   5.924   6.282   0.896 -1.3650  0.8318 -0.0203
 2985SOL     OW 9412   4.969   2.431   5.199  0.4519  0.5065  0.1018
 2985SOL    HW1 9413   4.969   2.522   5.170 -0.4645  0.4519 -0.0992
 2985SOL    HW2 9414   4.992   2.435   5.292 -0.0849  0.9953  0.2193
 2986SOL     OW 9415   3.515   4.431   4.623  0.4777 -0.2091  0.4632
 2986SOL    HW1 9416   3.535   4.515   4.580 -1.3298 -0.3793 -0.8931
 2986SOL    HW2 9417   3.441   4.452   4.680 -0.3978 -0.9540 -0.3588
 2987SOL     OW 9418   2.640   6.177   5.619  0.2529 -0.1790 -0.1733
 2987SOL    HW1 9419   2.555   6.139   5.596  0.9325 -0.2044 -3.0294
 2987SOL    HW2 9420   2.643   6.259   5.570  1.2993  0.5805  1.1047
 2988SOL     OW 9421   2.652   1.367   3.018 -0.4485  1.2195  0.2133
 2988SOL    HW1 9422   2.599   1.344   2.941 -1.7635  1.8707  0.8770
 2988SOL    HW2 9423   2.637   1.295   3.079  0.6136  0.6915 -0.1271
 2989SOL     OW 9424   3.246   0.394   3.073 -0.0376  0.2080  0.5064
 2989SOL    HW1 9425   3.335   0.378   3.105 -0.3123  2.2792  2.6011
 2989SOL    HW2 9426   3.197   0.420   3.151 -2.6625 -1.3287 -0.4980
 2990SOL     OW 9427   0.304   5.076   2.156  0.6970  0.1626  0.8699
 2990SOL    HW1 9428   0.263   5.150   2.110  1.7100 -0.1163 -0.5501
 2990SOL    HW2 9429   0.381   5.114   2.199  2.9500 -0.4167 -2.2521
 2991SOL     OW 9430   3.561   5.433   3.698  0.1977  0.0791  0.1570
 2991SOL    HW1 9431   3.605   5.495   3.641 -0.5988  0.7954  0.3052
 2991SOL    HW2 9432   3.500   5.387   3.641  1.3774 -1.1980 -0.1330
 2992SOL     OW 9433   5.064   3.502   2.563 -0.1941 -0.0160  0.1394
 2992SOL    HW1 9434   5.023   3.416   2.552 -0.4006  0.1644 -0.5356
 2992SOL    HW2 9435   5.089   3.529   2.475  2.1437 -0.4681  0.6064
 2993SOL     OW 9436   2.561   3.875   0.564 -0.3065  0.2104  0.2933
 2993SOL    HW1 9437   2.558   3.797   0.619  0.2482  0.2912  0.4428
 2993SOL    HW2 9438   2.593   3.944   0.622 -0.4249  0.4619  0.0605
 2994SOL     OW 9439   1.851   5.707   4.850 -0.1063 -0.1241  0.2033
 2994SOL    HW1 9440   1.850   5.794   4.810  0.0261 -0.5593 -0.7651
 2994SOL    HW2 9441   1.855   5.725   4.944 -2.0618  0.9319  0.1330
 2995SOL     OW 9442   3.283   5.384   4.703 -0.1764  0.1964 -0.1249
 2995SOL    HW1 9443   3.329   5.462   4.670 -0.6736  0.1882 -0.8657
 2995SOL    HW2 9444   3.344   5.346   4.766  0.6515  0.4343 -0.7499
 2996SOL     OW 9445   1.578   2.982   3.635  1.0694  0.5347 -0.3163
 2996SOL    HW1 9446   1.667   2.985   3.670  1.1637  1.3922 -0.6154
 2996SOL    HW2 9447   1.589   2.999   3.542  0.7452 -1.0081 -0.6679
 2997SOL     OW 9448   1.335   1.695   4.248  0.1385  0.4076  0.5316
 2997SOL    HW1 9449   1.404   1.714   4.312 -0.7848  0.4780  1.5176
 2997SOL    HW2 9450   1.256   1.734   4.284 -0.2106  1.3498 -1.1524
 2998SOL     OW 9451   5.231   0.381   4.296  0.2577  0.3912 -0.1181
 2998SOL    HW1 9452   5.255   0.412   4.384  0.4037  1.1326 -0.4094
 2998SOL    HW2 9453   5.197   0.459   4.252  0.5376  0.1094 -0.8443
 2999SOL     OW 9454   3.347   4.623   4.027  0.3173 -0.2326  0.5156
 2999SOL    HW1 9455   3.374   4.532   4.016  0.0899 -0.1726 -0.6583
 2999SOL    HW2 9456   3.419   4.674   3.989  0.6070  0.1016  1.4863
 3000SOL     OW 9457   3.789   6.381   2.332 -0.2622 -0.6203  0.5312
 3000SOL    HW1 9458   3.700   6.370   2.366 -0.0962 -1.5568  0.7040
 3000SOL    HW2 9459   3.824   6.292   2.329 -0.0967 -0.5485 -1.6250
 3001SOL     OW 9460   5.163   5.437   0.951  0.5796  0.0804 -0.3259
 3001SOL    HW1 9461   5.171   5.530   0.971  1.5219  0.3978 -1.9882
 3001SOL    HW2 9462   5.072   5.416   0.972  0.2306  1.4730 -0.3050
 3002SOL     OW 9463   5.296   3.324   1.582  0.0994  0.0378 -0.1670
 3002SOL    HW1 9464   5.383   3.306   1.618  0.8041  0.5480 -1.5702
 3002SOL    HW2 9465   5.239   3.264   1.630  1.4835 -1.6318 -0.4928
 3003SOL     OW 9466   4.737   4.278   0.637 -0.5412 -0.2794 -0.3150
 3003SOL    HW1 9467   4.720   4.369   0.664  2.2463 -0.1738  1.5685
 3003SOL    HW2 9468   4.806   4.286   0.571  1.2150 -0.9877  1.3225
 3004SOL     OW 9469   2.660   5.262   1.056  0.1055  0.4740 -0.3542
 3004SOL    HW1 9470   2.671   5.216   0.973  2.3012 -0.3087  0.3111
 3004SOL    HW2 9471   2.687   5.352   1.037  0.5050  0.3218 -0.5069
 3005SOL     OW 9472   2.851   0.663   4.892  0.5747 -0.0623  0.4717
 3005SOL    HW1 9473   2.943   0.654   4.915  0.6092  0.7004  0.6627
 3005SOL    HW2 9474   2.841   0.754   4.867 -0.3095  0.1003  1.3257
 3006SOL     OW 9475   3.027   0.420   4.729 -0.6371 -0.4287 -0.2418
 3006SOL    HW1 9476   3.038   0.496   4.785 -1.2559  0.0144 -0.7093
 3006SOL    HW2 9477   3.116   0.393   4.707 -0.4136  0.4638 -0.4733
 3007SOL     OW 9478   1.482   3.199   1.443 -0.2941  0.3731  0.3648
 3007SOL    HW1 9479   1.536   3.259   1.495  0.0068 -0.3386  0.8915
 3007SOL    HW2 9480   1.541   3.165   1.376 -0.6422  1.1708 -0.3660
 3008SOL     OW 9481   0.805   4.560   6.288 -0.1306  0.1084 -0.3137
 3008SOL    HW1 9482   0.716   4.525   6.276  0.4520 -1.3701 -0.5125
 3008SOL    HW2 9483   0.831   4.531   6.375  1.0355 -1.6124 -1.1638
 3009SOL     OW 9484   5.739   5.104   3.892  0.7219 -0.2088  0.9842
 3009SOL    HW1 9485   5.653   5.120   3.932 -0.0279  2.7110 -1.4015
 3009SOL    HW2 9486   5.746   5.009   3.885 -2.5693 -0.5412  0.8522
 3010SOL     OW 9487   0.981   0.719   1.561 -0.0436  0.1142  0.5306
 3010SOL    HW1 9488   1.060   0.762   1.528 -0.2669  1.5206  1.6631
 3010SOL    HW2 9489   1.013   0.639   1.603  0.7175  0.3931  0.5057
 3011SOL     OW 9490   1.838   1.064   2.369 -0.2361 -0.0344 -0.0538
 3011SOL    HW1 9491   1.791   1.116   2.303 -0.7616 -0.7120 -0.2379
 3011SOL    HW2 9492   1.930   1.085   2.355 -0.5225  2.1834  1.0465
 3012SOL     OW 9493   6.085   0.812   1.269  0.4131  0.6311 -0.2167
 3012SOL    HW1 9494   6.130   0.829   1.352 -0.4700  1.3653  0.1284
 3012SOL    HW2 9495   6.010   0.758   1.294  0.9756 -0.4244 -0.7585
 3013SOL     OW 9496   2.397   1.493   5.021 -0.0606 -0.5002  0.0311
 3013SOL    HW1 9497   2.490   1.512   5.015 -0.2815  0.1652 -1.7642
 3013SOL    HW2 9498   2.364   1.554   5.087  0.4393  0.6430 -0.7521
 3014SOL     OW 9499   0.293   4.234   3.702  0.0734  0.1438  0.5267
 3014SOL    HW1 9500   0.313   4.292   3.629  2.0000  1.6060  2.1111
 3014SOL    HW2 9501   0.345   4.155   3.684 -0.8814 -0.2721 -0.5478
 3015SOL     OW 9502   0.579   5.512   1.892  0.6045  0.1172 -0.2253
 3015SOL    HW1 9503   0.531   5.431   1.906  0.0195  0.3438 -0.8734
 3015SOL    HW2 9504   0.637   5.493   1.819  1.3954 -0.0983  0.4352
 3016SOL     OW 9505   0.840   0.657   2.718  0.8522  0.2173  0.1154
 3016SOL    HW1 9506   0.781   0.698   2.781  0.1881  0.5738 -0.7169
 3016SOL    HW2 9507   0.795   0.667   2.634  1.8705  0.0399 -0.4583
 3017SOL     OW 9508   5.882   4.994   5.785  0.1250 -0.3131 -0.7409
 3017SOL    HW1 9509   5.858   4.975   5.875  1.6688 -1.0421 -0.4486
 3017SOL    HW2 9510   5.816   4.948   5.732 -1.6749  1.3364 -0.0384
 3018SOL     OW 9511   5.287   5.788   0.851 -0.6529  0.3278 -0.4963
 3018SOL    HW1 9512   5.269   5.880   0.833 -1.2708  0.3489  0.1860
 3018SOL    HW2 9513   5.214   5.760   0.906 -0.5389 -0.6049 -0.8063
 3019SOL     OW 9514   5.506   4.123   4.271 -0.5121  0.2866 -0.1382
 3019SOL    HW1 9515   5.445   4.175   4.324 -0.9605 -0.9663  0.6133
 3019SOL    HW2 9516   5.469   4.035   4.273  1.9649 -0.8162  1.3995
 3020SOL     OW 9517   1.092   4.664   5.887  0.5331 -0.3140  0.0755
 3020SOL    HW1 9518   1.057   4.752   5.900 -0.0603 -0.6268  0.6162
 3020SOL    HW2 9519   1.143   4.670   5.806  1.5253  0.8252  0.7655
 3021SOL     OW 9520   2.136   2.803   4.840  0.6021 -0.2013 -0.6374
 3021SOL    HW1 9521   2.075   2.756   4.783  0.9552  0.6035 -1.7305
 3021SOL    HW2 9522   2.223   2.780   4.806  0.9897 -1.8238  1.2839
 3022SOL     OW 9523   4.743   4.820   5.269 -0.4280  0.0082  0.5456
 3022SOL    HW1 9524   4.689   4.792   5.343 -0.0128 -0.2051  0.7711
 3022SOL    HW2 9525   4.772   4.739   5.228  1.5232  0.0310  1.7404
 3023SOL     OW 9526   3.837   5.201   3.497 -0.0614 -0.1168  0.1809
 3023SOL    HW1 9527   3.845   5.228   3.588  0.9385 -2.4490  0.8610
 3023SOL    HW2 9528   3.852   5.106   3.498  0.6699 -0.1308 -2.4756
 3024SOL     OW 9529   3.224   0.019   1.389 -0.3098 -0.1190  0.6083
 3024SOL    HW1 9530   3.261   0.106   1.373 -1.0351 -0.1001 -1.2122
 3024SOL    HW2 9531   3.141   0.020   1.342 -0.8697 -1.4387  1.5056
 3025SOL     OW 9532   0.787   5.975   1.519 -0.0294  0.8331  0.6920
 3025SOL    HW1 9533   0.835   6.021   1.450  1.0164  0.0447  0.8529
 3025SOL    HW2 9534   0.710   5.940   1.476  0.8530 -0.0584 -0.2208
 3026SOL     OW 9535   5.568   0.603   1.291  0.4132 -0.3155  0.2105
 3026SOL    HW1 9536   5.611   0.571   1.212  0.1569  1.3646 -0.6523
 3026SOL    HW2 9537   5.639   0.613   1.354  0.9019 -0.0114 -0.3753
 3027SOL     OW 9538   5.806   3.367   0.496 -0.2709 -0.3349 -0.4781
 3027SOL    HW1 9539   5.726   3.329   0.532 -0.2594  0.2826  0.2043
 3027SOL    HW2 9540   5.827   3.439   0.554 -0.3814  0.8427 -1.8467
 3028SOL     OW 9541   1.527   0.102   3.943  0.0066 -0.2068  0.0183
 3028SOL    HW1 9542   1.464   0.099   3.871  0.3278 -1.1643 -0.2382
 3028SOL    HW2 9543   1.608   0.068   3.905  0.5458  0.5462  0.4811
 3029SOL     OW 9544   0.503   4.677   2.921  0.3079 -0.0268 -0.2151
 3029SOL    HW1 9545   0.538   4.593   2.892 -0.6475 -1.2056  1.7960
 3029SOL    HW2 9546   0.490   4.666   3.016  1.8779  3.0280  0.4819
 3030SOL     OW 9547   5.276   6.144   5.585  0.0625 -0.3122  0.3099
 3030SOL    HW1 9548   5.206   6.091   5.625  0.0237  0.2102  0.9552
 3030SOL    HW2 9549   5.323   6.083   5.528 -0.9091 -0.6828 -0.1308
 3031SOL     OW 9550   5.884   2.395   0.528 -0.0439 -0.2334  0.6896
 3031SOL    HW1 9551   5.961   2.338   0.530  0.6640  0.7311  1.5814
 3031SOL    HW2 9552   5.827   2.355   0.462  2.2496  0.3923 -1.8498
 3032SOL     OW 9553   0.920   5.119   1.921 -0.0364 -0.4398 -0.0155
 3032SOL    HW1 9554   1.010   5.088   1.934  0.3983  0.9223  0.4003
 3032SOL    HW2 9555   0.866   5.057   1.971  0.7456 -0.8628  0.3182
 3033SOL     OW 9556   5.084   2.186   3.506 -0.0143  0.3082 -0.2801
 3033SOL    HW1 9557   5.006   2.226   3.545 -1.2668 -1.2099 -1.1580
 3033SOL    HW2 9558   5.064   2.093   3.501  1.2484  0.0806 -1.9380
 3034SOL     OW 9559   3.205   0.444   5.638  0.2255  0.1679  0.4052
 3034SOL    HW1 9560   3.252   0.361   5.627  0.4825  0.2499  0.8619
 3034SOL    HW2 9561   3.113   0.418   5.644 -0.2291  0.2426 -3.7075
 3035SOL     OW 9562   1.995   4.488   0.202 -0.7132 -0.0022  0.5823
 3035SOL    HW1 9563   2.040   4.539   0.269 -0.4201  0.5319 -0.0216
 3035SOL    HW2 9564   1.946   4.552   0.150 -1.8581 -0.5218  0.9644
 3036SOL     OW 9565   3.351   3.730   1.759  0.0955 -0.0597 -0.3539
 3036SOL    HW1 9566   3.294   3.688   1.694  0.0414 -0.8575  0.1879
 3036SOL    HW2 9567   3.351   3.669   1.833  3.3499 -1.1741 -1.1156
 3037SOL     OW 9568   3.999   2.170   1.598  0.5139  0.3285 -0.0060
 3037SOL    HW1 9569   3.997   2.136   1.687 -1.6716  1.4145  0.4102
 3037SOL    HW2 9570   4.029   2.260   1.608 -0.0490  0.5515 -0.3412
 3038SOL     OW 9571   0.727   4.182   5.337 -0.0128 -0.5435 -0.4428
 3038SOL    HW1 9572   0.817   4.188   5.370 -0.3117 -1.7293  0.6705
 3038SOL    HW2 9573   0.712   4.088   5.326 -1.5373 -0.4710  0.6571
 3039SOL     OW 9574   3.526   6.332   1.411  0.1232  0.2445 -0.3385
 3039SOL    HW1 9575   3.430   6.336   1.414  0.0075 -1.5940  2.3460
 3039SOL    HW2 9576   3.546   6.311   1.320 -2.1099 -0.2563 -0.7814
 3040SOL     OW 9577   4.731   4.707   3.167  0.3826 -0.3048 -0.0981
 3040SOL    HW1 9578   4.775   4.699   3.251 -0.2222 -1.0907  0.1488
 3040SOL    HW2 9579   4.801   4.696   3.102  0.4723 -2.3097  0.2800
 3041SOL     OW 9580   4.346   4.809   2.913 -0.0787 -0.3222 -0.1577
 3041SOL    HW1 9581   4.358   4.880   2.977 -1.7302 -1.1710  1.1761
 3041SOL    HW2 9582   4.287   4.847   2.847 -0.4588 -0.2460  0.2206
 3042SOL     OW 9583   4.787   1.645   3.809  0.0675  0.1118  0.6506
 3042SOL    HW1 9584   4.780   1.594   3.729 -0.3317 -0.8171  1.2633
 3042SOL    HW2 9585   4.851   1.714   3.788  0.4304 -0.4844 -0.2589
 3043SOL     OW 9586   4.225   5.030   1.675  0.5359  0.1513  0.0650
 3043SOL    HW1 9587   4.148   5.083   1.693 -0.1045 -0.5940 -0.4548
 3043SOL    HW2 9588   4.292   5.065   1.733 -0.5875 -0.1454  1.5865
 3044SOL     OW 9589   1.943   4.393   5.113 -0.1559 -0.2316 -0.4825
 3044SOL    HW1 9590   1.935   4.299   5.097  0.9131 -0.1822 -1.3674
 3044SOL    HW2 9591   1.863   4.431   5.078  0.1366 -0.6425 -1.6348
 3045SOL     OW 9592   3.035   5.638   1.054  0.7005 -0.1698 -0.3752
 3045SOL    HW1 9593   3.063   5.548   1.066  2.0203  0.0458 -1.6301
 3045SOL    HW2 9594   2.941   5.632   1.037  0.2957 -1.0758  1.9275
 3046SOL     OW 9595   3.473   5.240   0.880 -0.4930  0.0496  0.7111
 3046SOL    HW1 9596   3.385   5.268   0.905 -0.7199  0.0360 -0.0371
 3046SOL    HW2 9597   3.481   5.266   0.788  0.0468 -0.5135  0.5893
 3047SOL     OW 9598   2.940   3.133   0.503 -0.6376  0.0816 -0.5124
 3047SOL    HW1 9599   2.880   3.170   0.568 -2.3214 -1.2643 -1.2261
 3047SOL    HW2 9600   2.963   3.046   0.537 -1.8083 -0.7818 -1.8244
 3048SOL     OW 9601   5.378   0.722   6.373 -0.5374  0.3532 -0.2150
 3048SOL    HW1 9602   5.439   0.758   6.436 -1.3174  0.4490  0.5028
 3048SOL    HW2 9603   5.353   0.796   6.318  1.7321 -0.1301 -2.0172
 3049SOL     OW 9604   5.245   4.103   5.877 -0.4264 -0.2544  0.0772
 3049SOL    HW1 9605   5.163   4.071   5.915 -1.1911  1.9739  0.4628
 3049SOL    HW2 9606   5.217   4.168   5.812  1.0298  0.9150  0.5749
 3050SOL     OW 9607   0.135   0.123   5.273 -0.0152  0.6747 -0.4999
 3050SOL    HW1 9608   0.218   0.147   5.313 -0.7652 -0.3369  1.8311
 3050SOL    HW2 9609   0.155   0.046   5.220  0.3579 -0.3231  1.0344
 3051SOL     OW 9610   3.587   0.086   3.269  0.0518  0.3213  0.0449
 3051SOL    HW1 9611   3.543   0.170   3.255  2.8912  1.7447 -1.3053
 3051SOL    HW2 9612   3.668   0.093   3.219  0.6373 -3.1026  0.2579
 3052SOL     OW 9613   0.876   1.228   1.739 -0.1114  0.3815  0.1294
 3052SOL    HW1 9614   0.842   1.317   1.739 -3.1226 -0.6429 -0.9505
 3052SOL    HW2 9615   0.825   1.182   1.672  1.6239 -2.0671  0.3279
 3053SOL     OW 9616   5.882   1.442   5.409 -0.0195 -0.0589 -0.0124
 3053SOL    HW1 9617   5.790   1.442   5.436 -0.2497 -2.4023 -0.6554
 3053SOL    HW2 9618   5.928   1.399   5.480  0.9118  2.5199  1.0690
 3054SOL     OW 9619   3.602   4.745   3.387 -0.1664 -0.2768 -0.2185
 3054SOL    HW1 9620   3.617   4.736   3.293  0.7053 -2.7368  0.0710
 3054SOL    HW2 9621   3.509   4.763   3.395 -0.1774  0.4028 -1.5484
 3055SOL     OW 9622   5.815   6.254   5.030  0.7283 -0.1602  0.3454
 3055SOL    HW1 9623   5.865   6.218   5.104  0.5210  0.6690  0.9071
 3055SOL    HW2 9624   5.724   6.245   5.056  0.5529 -1.5510 -0.6255
 3056SOL     OW 9625   2.437   1.226   5.336  0.1162  0.1229 -0.2442
 3056SOL    HW1 9626   2.492   1.297   5.305 -0.0272  0.1660 -0.3957
 3056SOL    HW2 9627   2.369   1.216   5.270  0.3442 -0.3984 -0.4116
 3057SOL     OW 9628   5.458   0.002   2.968 -0.0893 -0.4502  0.0117
 3057SOL    HW1 9629   5.373  -0.038   2.951 -0.2425 -1.1324  2.0936
 3057SOL    HW2 9630   5.446   0.049   3.051  1.5646 -0.6447  0.3928
 3058SOL     OW 9631   5.877   5.231   4.740  0.6063  0.4953 -0.1278
 3058SOL    HW1 9632   5.878   5.143   4.704 -0.5003  0.5394 -0.2736
 3058SOL    HW2 9633   5.802   5.233   4.799  0.7963  1.2562  0.1083
 3059SOL     OW 9634   4.596   3.468   5.487  0.3587 -0.4585  0.0814
 3059SOL    HW1 9635   4.629   3.445   5.574  1.2792 -0.4820 -0.2697
 3059SOL    HW2 9636   4.632   3.554   5.470 -0.5666 -0.0608  0.0933
 3060SOL     OW 9637   5.750   0.490   3.931 -0.5582 -0.4798 -0.0297
 3060SOL    HW1 9638   5.721   0.488   4.022 -2.1004  0.2432 -0.4716
 3060SOL    HW2 9639   5.804   0.569   3.925 -3.1636  1.4067 -0.4345
 3061SOL     OW 9640   5.846   6.200   1.551 -0.2242  0.4693 -0.0431
 3061SOL    HW1 9641   5.838   6.231   1.461  0.3166 -0.0944 -0.2960
 3061SOL    HW2 9642   5.899   6.121   1.544 -0.4221  0.2569  0.7401
 3062SOL     OW 9643   0.135   5.680   3.920 -0.3341  0.3627  0.4488
 3062SOL    HW1 9644   0.101   5.685   4.009 -2.6160 -0.3566 -0.3024
 3062SOL    HW2 9645   0.190   5.602   3.920 -1.4648 -0.4737  0.9331
 3063SOL     OW 9646   3.670   6.200   4.108  0.2922 -0.0155 -0.4805
 3063SOL    HW1 9647   3.734   6.129   4.118  0.1061 -0.2018 -0.5867
 3063SOL    HW2 9648   3.690   6.238   4.022  0.9846  0.6670 -0.0316
 3064SOL     OW 9649   2.870   5.222   4.866 -0.2562  0.2447 -0.0329
 3064SOL    HW1 9650   2.820   5.142   4.883 -0.1384  0.1103 -0.3154
 3064SOL    HW2 9651   2.944   5.193   4.813 -1.1080  0.7904 -1.5807
 3065SOL     OW 9652   4.405   0.749   6.214  0.5107  0.1395 -0.1285
 3065SOL    HW1 9653   4.449   0.724   6.296  0.5120 -2.7746 -0.9264
 3065SOL    HW2 9654   4.475   0.753   6.149  0.0393 -1.5183 -0.7765
 3066SOL     OW 9655   0.755   4.073   2.326 -0.3728 -0.0829  0.4222
 3066SOL    HW1 9656   0.668   4.093   2.360 -0.6327 -0.5957  0.0572
 3066SOL    HW2 9657   0.753   4.102   2.235 -0.1470 -0.0692  0.4198
 3067SOL     OW 9658   0.330   1.717   5.785  0.5368 -0.0595  0.4702
 3067SOL    HW1 9659   0.378   1.785   5.832  0.1750  0.5947 -0.0956
 3067SOL    HW2 9660   0.393   1.683   5.721  0.5362  0.1546  0.3550
 3068SOL     OW 9661   5.180   3.104   1.733 -0.1587  0.3872  0.2242
 3068SOL    HW1 9662   5.109   3.164   1.758  0.5296  1.8084 -1.0387
 3068SOL    HW2 9663   5.224   3.084   1.815 -0.1296  2.0224  0.6539
 3069SOL     OW 9664   3.906   2.140   3.511  0.0218  0.2481  0.2469
 3069SOL    HW1 9665   3.816   2.172   3.520 -0.0541  0.3038 -0.5530
 3069SOL    HW2 9666   3.946   2.201   3.449  0.3206 -0.3307 -0.1435
 3070SOL     OW 9667   5.947   6.008   3.746 -0.0089 -0.3795  0.3103
 3070SOL    HW1 9668   5.859   6.046   3.748  0.2466  0.3976 -1.2427
 3070SOL    HW2 9669   6.001   6.070   3.794  0.0007  0.0863 -0.2911
 3071SOL     OW 9670   6.219   4.536   5.132 -0.0341  0.1255 -0.1279
 3071SOL    HW1 9671   6.278   4.586   5.075  0.6943  1.0659  1.3759
 3071SOL    HW2 9672   6.259   4.450   5.139  0.7059  0.4798  0.1583
 3072SOL     OW 9673   0.468   1.337   2.903  0.3548 -0.0708  0.4059
 3072SOL    HW1 9674   0.513   1.299   2.978  0.7004 -0.4128  0.0265
 3072SOL    HW2 9675   0.539   1.371   2.847  0.2150 -1.3917 -0.6220
 3073SOL     OW 9676   1.866   2.935   3.647  0.2334 -0.2834 -0.2013
 3073SOL    HW1 9677   1.863   2.976   3.561 -2.7079 -0.2332 -0.1750
 3073SOL    HW2 9678   1.861   2.841   3.629  1.1751 -0.3568 -0.1082
 3074SOL     OW 9679   3.466   0.792   4.409  0.1431  0.3736 -0.1433
 3074SOL    HW1 9680   3.407   0.716   4.415  0.4007  0.2505  1.6336
 3074SOL    HW2 9681   3.409   0.868   4.418 -0.1082  0.4214 -1.8611
 3075SOL     OW 9682   1.055   2.884   4.469 -0.0601 -0.5417 -0.0920
 3075SOL    HW1 9683   1.115   2.958   4.474 -0.1099 -0.5238  0.2977
 3075SOL    HW2 9684   0.978   2.912   4.519 -1.0311  0.0241 -1.8429
 3076SOL     OW 9685   5.743   0.255   1.728 -0.0452 -0.1931  0.7447
 3076SOL    HW1 9686   5.720   0.285   1.816  2.4766  0.6146  1.1972
 3076SOL    HW2 9687   5.749   0.335   1.676  0.1470 -0.5289  0.2430
 3077SOL     OW 9688   0.471   1.803   1.573  0.2992 -0.0773 -0.0323
 3077SOL    HW1 9689   0.465   1.755   1.656  0.2674  0.9642  0.5849
 3077SOL    HW2 9690   0.382   1.834   1.557  0.3168 -0.2240 -0.4394
 3078SOL     OW 9691   3.246   5.566   5.410 -0.2420  0.2931  0.0823
 3078SOL    HW1 9692   3.175   5.585   5.471  0.0980 -1.9007  1.2894
 3078SOL    HW2 9693   3.266   5.473   5.425  1.2514  0.2106 -1.9412
 3079SOL     OW 9694   0.160   2.914   4.710 -0.7016  0.3323  0.1430
 3079SOL    HW1 9695   0.233   2.906   4.650  0.7300  2.5994  1.3969
 3079SOL    HW2 9696   0.123   3.001   4.692 -1.5850  0.1812  1.0782
 3080SOL     OW 9697   6.350   3.635   4.081 -0.4412 -0.6287 -0.4713
 3080SOL    HW1 9698   6.320   3.674   4.163 -0.2271 -0.3524 -0.5222
 3080SOL    HW2 9699   6.326   3.542   4.088  2.1527 -1.2676  1.1628
 3081SOL     OW 9700   0.961   5.859   0.805  0.2374 -0.2674 -0.2131
 3081SOL    HW1 9701   1.019   5.791   0.838 -0.3695 -0.7844 -0.1868
 3081SOL    HW2 9702   0.899   5.875   0.877  0.2710  0.1919 -0.2814
 3082SOL     OW 9703   6.246   5.598   6.050 -0.5804  0.3881  0.5973
 3082SOL    HW1 9704   6.235   5.686   6.087  2.5013  1.1160  0.0567
 3082SOL    HW2 9705   6.196   5.541   6.109  0.5438  2.0187  3.3491
 3083SOL     OW 9706   3.302   2.910   5.331 -0.3781  0.1104 -0.0917
 3083SOL    HW1 9707   3.348   2.954   5.259  1.5525 -2.0601 -0.2806
 3083SOL    HW2 9708   3.282   2.980   5.393 -0.0108  1.6719 -1.6473
 3084SOL     OW 9709   3.744   4.424   4.225  0.2305 -0.0132 -0.7398
 3084SOL    HW1 9710   3.741   4.345   4.278 -3.1858 -0.5891 -1.5598
 3084SOL    HW2 9711   3.813   4.407   4.161  0.8188 -1.5388  0.2505
 3085SOL     OW 9712   2.202   0.837   5.752  0.4392 -0.1789 -0.4132
 3085SOL    HW1 9713   2.287   0.866   5.720  0.0978  0.5316 -0.7268
 3085SOL    HW2 9714   2.139   0.885   5.698 -0.1775  1.4130  1.5730
 3086SOL     OW 9715   3.218   0.674   2.799 -0.1396  0.3019 -0.3439
 3086SOL    HW1 9716   3.149   0.713   2.746  0.2335  1.4035 -0.0392
 3086SOL    HW2 9717   3.277   0.746   2.820  0.4196 -0.3648  0.4775
 3087SOL     OW 9718   1.401   4.205   2.670 -0.1896  0.2593  0.1608
 3087SOL    HW1 9719   1.451   4.182   2.748  1.0504 -1.6837 -1.1107
 3087SOL    HW2 9720   1.467   4.218   2.602 -1.3027 -0.7781 -1.1904
 3088SOL     OW 9721   6.233   5.785   0.963  0.3967  0.1671  0.1644
 3088SOL    HW1 9722   6.171   5.747   0.901  2.2600 -0.3581 -1.4767
 3088SOL    HW2 9723   6.286   5.846   0.911  0.8179  1.1589  1.6654
 3089SOL     OW 9724   0.035   5.482   2.033 -0.4049 -0.3260 -0.4001
 3089SOL    HW1 9725   0.022   5.571   2.002 -0.6947  0.5768  2.1012
 3089SOL    HW2 9726  -0.049   5.457   2.071 -0.6582 -2.1140 -1.9618
 3090SOL     OW 9727   5.626   3.541   1.100 -0.0960  0.2426 -0.2782
 3090SOL    HW1 9728   5.635   3.629   1.138 -0.2070 -0.0679  0.4923
 3090SOL    HW2 9729   5.597   3.487   1.173 -1.5907 -0.1335 -1.0993
 3091SOL     OW 9730   4.741   2.160   0.885 -0.0398  0.0240  0.2941
 3091SOL    HW1 9731   4.703   2.101   0.950 -0.7379 -1.2859 -1.2413
 3091SOL    HW2 9732   4.698   2.137   0.803  2.4330  0.0096 -1.1060
 3092SOL     OW 9733   5.155   5.573   2.208  0.3434  0.7205  0.1857
 3092SOL    HW1 9734   5.170   5.657   2.251  1.6284  0.3336  0.5299
 3092SOL    HW2 9735   5.063   5.576   2.181 -0.0729  1.5872  1.6007
 3093SOL     OW 9736   3.287   2.869   2.475  0.2046 -0.5997  0.0221
 3093SOL    HW1 9737   3.229   2.796   2.494  0.4535 -0.9754 -0.6168
 3093SOL    HW2 9738   3.341   2.838   2.402  2.9185 -1.1747  2.1309
 3094SOL     OW 9739   4.824   0.497   5.849  0.1232 -0.0165  0.1099
 3094SOL    HW1 9740   4.915   0.496   5.877  0.1149 -0.6001  0.1237
 3094SOL    HW2 9741   4.821   0.439   5.773 -0.1702  0.2907 -0.1217
 3095SOL     OW 9742   5.209   2.394   2.879 -0.1408  0.1862  0.0174
 3095SOL    HW1 9743   5.143   2.332   2.846  0.0805 -0.4170  0.6748
 3095SOL    HW2 9744   5.159   2.454   2.934 -0.0450 -0.8174  1.2575
 3096SOL     OW 9745   4.901   5.232   2.143  0.1992  0.4399 -0.7804
 3096SOL    HW1 9746   4.863   5.285   2.072 -0.1121  0.6211 -0.4833
 3096SOL    HW2 9747   4.920   5.148   2.103  1.2658  0.9660 -1.4211
 3097SOL     OW 9748   2.681   4.493   3.204  0.1010  0.5548 -0.0443
 3097SOL    HW1 9749   2.592   4.520   3.223 -0.2072  0.2060 -0.9654
 3097SOL    HW2 9750   2.714   4.559   3.143  0.5552  0.8125  0.4738
 3098SOL     OW 9751   2.078   1.964   4.343  0.2639  0.2722  0.1560
 3098SOL    HW1 9752   2.145   1.933   4.403  0.8847  0.7980 -0.2505
 3098SOL    HW2 9753   1.995   1.945   4.387  0.6647 -0.5327  0.5914
 3099SOL     OW 9754   3.233   5.223   1.267  0.3304  0.4263 -0.3832
 3099SOL    HW1 9755   3.173   5.273   1.211  0.1035  1.0602  0.4113
 3099SOL    HW2 9756   3.317   5.268   1.260 -0.3874  2.3987  2.1076
 3100SOL     OW 9757   0.412   1.151   0.210  0.4270  0.3321  0.1720
 3100SOL    HW1 9758   0.344   1.119   0.269  0.3352  1.0783  0.4869
 3100SOL    HW2 9759   0.476   1.080   0.207 -1.4466 -1.4266 -2.0126
 3101SOL     OW 9760   0.648   5.249   3.564 -0.0951 -0.3757  0.1153
 3101SOL    HW1 9761   0.557   5.220   3.558  0.3928 -2.0084  0.1196
 3101SOL    HW2 9762   0.691   5.209   3.488  0.7820 -0.3058  0.5576
 3102SOL     OW 9763   2.762   1.501   2.274  0.3204 -0.0458 -0.5282
 3102SOL    HW1 9764   2.719   1.487   2.359 -0.4384  1.1281 -0.6973
 3102SOL    HW2 9765   2.852   1.472   2.288  0.0955 -0.2656  0.5545
 3103SOL     OW 9766   2.545   6.111   1.389 -0.4243  0.0754 -0.2595
 3103SOL    HW1 9767   2.485   6.080   1.322 -2.6319  1.3888  0.9849
 3103SOL    HW2 9768   2.489   6.130   1.464  1.4578  2.0765  0.7511
 3104SOL     OW 9769   5.541   3.154   3.617  0.5882 -0.1323 -0.2807
 3104SOL    HW1 9770   5.466   3.146   3.558  0.8565 -1.6309 -0.4535
 3104SOL    HW2 9771   5.609   3.100   3.577  1.6332  0.8938  0.0843
 3105SOL     OW 9772   1.149   1.819   5.839 -0.2168 -0.3800 -0.7112
 3105SOL    HW1 9773   1.116   1.786   5.923 -1.6483 -0.0889 -1.1299
 3105SOL    HW2 9774   1.103   1.767   5.773 -0.1938  0.3754 -1.3368
 3106SOL     OW 9775   1.242   4.533   4.174  0.7914 -0.0663  0.1675
 3106SOL    HW1 9776   1.221   4.618   4.134  0.0651  0.7916  2.2107
 3106SOL    HW2 9777   1.165   4.513   4.227  1.1015 -1.8818 -0.0247
 3107SOL     OW 9778   2.061   6.314   3.238 -0.0590  0.6176 -0.0641
 3107SOL    HW1 9779   2.103   6.321   3.323  1.5240  0.5326 -0.8049
 3107SOL    HW2 9780   2.074   6.223   3.211 -2.1481  0.1272  0.3536
 3108SOL     OW 9781   4.195   0.643   3.026 -0.3980  1.0102  0.6274
 3108SOL    HW1 9782   4.221   0.707   2.960 -1.8813  0.9101 -0.1124
 3108SOL    HW2 9783   4.277   0.609   3.062  0.4483  0.9962 -1.2285
 3109SOL     OW 9784   3.127   5.099   2.638 -0.4471 -0.0346 -0.0463
 3109SOL    HW1 9785   3.200   5.112   2.579 -0.2729 -1.4322 -0.1800
 3109SOL    HW2 9786   3.146   5.155   2.714 -0.6867  1.7879 -1.2675
 3110SOL     OW 9787   4.044   0.027   3.867  0.1282 -0.2141 -0.4532
 3110SOL    HW1 9788   3.991  -0.043   3.830 -0.2751  0.6689 -1.6192
 3110SOL    HW2 9789   3.981   0.094   3.893  0.5650  0.0852 -0.1457
 3111SOL     OW 9790   4.626   2.077   4.434  0.1914 -0.2807 -0.2405
 3111SOL    HW1 9791   4.602   2.081   4.527  0.1868  0.7243 -0.2737
 3111SOL    HW2 9792   4.639   1.984   4.417  1.5219 -0.3860  1.1079
 3112SOL     OW 9793   5.165   5.445   1.867 -0.0945 -0.4729 -0.0061
 3112SOL    HW1 9794   5.260   5.450   1.870 -0.0010 -1.1115  3.8343
 3112SOL    HW2 9795   5.135   5.523   1.914 -1.4378 -0.7497 -0.3446
 3113SOL     OW 9796   4.340   5.987   0.918 -0.1487 -0.3673 -0.2060
 3113SOL    HW1 9797   4.362   6.073   0.883  1.7410 -0.2295  1.1264
 3113SOL    HW2 9798   4.377   5.925   0.855 -0.7997 -0.1989 -0.7568
 3114SOL     OW 9799   3.107   3.261   1.744 -0.1337 -0.2866 -0.5852
 3114SOL    HW1 9800   3.051   3.311   1.803 -1.6069 -0.9013 -1.4154
 3114SOL    HW2 9801   3.190   3.308   1.744 -0.0918 -0.2391  1.9061
 3115SOL     OW 9802   3.051   4.590   2.164 -0.3623 -0.0616  0.3041
 3115SOL    HW1 9803   2.985   4.543   2.215  1.3279 -2.1569  0.6928
 3115SOL    HW2 9804   3.046   4.680   2.197 -3.5939  0.1142 -0.3556
 3116SOL     OW 9805   3.558   3.430   4.725  0.5024 -0.2338  0.2734
 3116SOL    HW1 9806   3.554   3.371   4.800 -0.4257  0.1573  0.5521
 3116SOL    HW2 9807   3.652   3.441   4.708  0.7178 -2.6313 -0.4909
 3117SOL     OW 9808   1.694   1.337   4.973  0.5768  0.7483  0.1014
 3117SOL    HW1 9809   1.710   1.272   4.905 -0.1350  0.2104  0.4338
 3117SOL    HW2 9810   1.628   1.396   4.937 -0.6441 -0.1909  0.7061
 3118SOL     OW 9811   0.714   3.461   0.553  0.2573 -0.0145  0.0992
 3118SOL    HW1 9812   0.748   3.503   0.473 -2.0930 -1.0791 -1.6028
 3118SOL    HW2 9813   0.637   3.514   0.576  0.6533  0.0035  1.4172
 3119SOL     OW 9814   4.939   5.996   4.806  0.8690 -0.2091 -0.1157
 3119SOL    HW1 9815   4.903   5.952   4.883  1.8605  1.0624  1.1445
 3119SOL    HW2 9816   5.027   5.961   4.797  1.9442  1.8525  1.3401
 3120SOL     OW 9817   4.528   3.968   2.047  0.3472  0.3011  0.5054
 3120SOL    HW1 9818   4.599   3.909   2.024 -1.1171 -1.6196  0.6316
 3120SOL    HW2 9819   4.449   3.922   2.020 -0.9585  1.5601  1.9783
 3121SOL     OW 9820   4.241   6.084   1.149  0.4077 -0.5108 -0.0563
 3121SOL    HW1 9821   4.285   6.162   1.184 -1.0781 -0.1848  1.1981
 3121SOL    HW2 9822   4.286   6.066   1.067  1.4762  1.0516  0.1400
 3122SOL     OW 9823   5.066   1.167   5.980 -0.0313  0.0779 -0.0117
 3122SOL    HW1 9824   5.144   1.178   5.926  0.0355  2.0241  0.4115
 3122SOL    HW2 9825   4.996   1.151   5.917  0.6593 -1.5580 -0.4040
 3123SOL     OW 9826   1.379   0.316   4.245  0.1347 -0.5243 -0.1359
 3123SOL    HW1 9827   1.425   0.329   4.162 -0.6926 -2.5897 -0.9993
 3123SOL    HW2 9828   1.350   0.403   4.271 -0.4361  0.0936 -2.5549
 3124SOL     OW 9829   4.389   2.299   5.730  0.2332 -0.2789  0.6571
 3124SOL    HW1 9830   4.368   2.218   5.683 -0.0775  0.9606 -1.4952
 3124SOL    HW2 9831   4.328   2.363   5.694  0.1854  0.8492  2.6303
 3125SOL     OW 9832   1.248   4.020   0.700 -0.0982  0.1027 -0.3404
 3125SOL    HW1 9833   1.338   3.998   0.721 -0.7307 -1.3919  0.9428
 3125SOL    HW2 9834   1.213   3.942   0.657 -0.7226  0.7532 -1.0404
 3126SOL     OW 9835   4.190   4.038   5.185 -0.3606  0.2586  0.8055
 3126SOL    HW1 9836   4.160   4.088   5.261  1.9754  0.1031  1.9246
 3126SOL    HW2 9837   4.158   4.088   5.109 -2.3273  0.6778  1.8405
 3127SOL     OW 9838   0.204   0.627   4.619  0.2600  0.2773 -0.1287
 3127SOL    HW1 9839   0.188   0.554   4.558  0.8422  1.3581 -1.6370
 3127SOL    HW2 9840   0.172   0.595   4.703  1.2483 -2.0325 -0.5471
 3128SOL     OW 9841   4.946   6.079   6.132  0.7968  0.2019  0.0139
 3128SOL    HW1 9842   4.961   6.064   6.039 -0.8739  1.6902 -0.5573
 3128SOL    HW2 9843   4.892   6.004   6.160 -0.3867  0.7484 -0.7313
 3129SOL     OW 9844   2.088   3.031   3.761  0.9136 -0.1834  0.4147
 3129SOL    HW1 9845   2.001   2.993   3.747  1.8314 -3.2986  2.1943
 3129SOL    HW2 9846   2.079   3.122   3.732 -2.9088 -0.3502  0.5159
 3130SOL     OW 9847   1.720   3.950   3.370 -0.0081  0.3653  0.5388
 3130SOL    HW1 9848   1.680   3.865   3.392 -0.6292  1.1647  2.7812
 3130SOL    HW2 9849   1.657   4.015   3.402  0.9232  1.6768 -0.2145
 3131SOL     OW 9850   4.254   0.504   0.272  0.1570  0.3727  0.6421
 3131SOL    HW1 9851   4.248   0.485   0.179  2.9796 -0.2444  0.5128
 3131SOL    HW2 9852   4.221   0.424   0.315 -2.1188  1.0304  0.2803
 3132SOL     OW 9853   5.526   5.909   4.319  0.4424  0.0351  0.3344
 3132SOL    HW1 9854   5.520   6.005   4.314  1.6982  0.0853 -1.4219
 3132SOL    HW2 9855   5.435   5.879   4.315  0.0791  1.1470 -0.2316
 3133SOL     OW 9856   1.860   1.710   0.947  0.2318 -0.4661 -0.0293
 3133SOL    HW1 9857   1.803   1.764   0.892  1.1874  2.8200  1.8937
 3133SOL    HW2 9858   1.940   1.699   0.895 -1.3645 -3.8312 -2.1217
 3134SOL     OW 9859   2.090   2.883   4.148 -0.0114 -0.1484  0.4499
 3134SOL    HW1 9860   2.012   2.909   4.198  0.2448 -0.0014  0.7747
 3134SOL    HW2 9861   2.156   2.864   4.214  0.8497  1.6342  0.1764
 3135SOL     OW 9862   3.444   1.839   2.306 -0.0563 -0.1287  0.4919
 3135SOL    HW1 9863   3.519   1.867   2.254 -0.5362  0.8732  0.3046
 3135SOL    HW2 9864   3.441   1.902   2.379  0.2348 -1.1322  1.3971
 3136SOL     OW 9865   5.292   6.375   5.088 -0.2599 -0.2858 -0.5874
 3136SOL    HW1 9866   5.347   6.425   5.148 -0.3068 -1.0160  0.0840
 3136SOL    HW2 9867   5.226   6.335   5.144 -0.7500 -0.3838 -1.2292
 3137SOL     OW 9868   6.225   5.874   6.126  0.2049  0.0134 -0.5394
 3137SOL    HW1 9869   6.256   5.965   6.133 -0.1402  0.1638 -0.8963
 3137SOL    HW2 9870   6.158   5.867   6.194  0.2603  0.0126 -0.4848
 3138SOL     OW 9871   1.824   4.332   3.814 -0.0760 -0.0961  0.0425
 3138SOL    HW1 9872   1.816   4.414   3.766  2.5036 -0.8892 -1.9763
 3138SOL    HW2 9873   1.854   4.357   3.901 -0.9804  1.1448  0.0237
 3139SOL     OW 9874   5.573   5.498   4.100  0.7674  0.6482  0.2504
 3139SOL    HW1 9875   5.605   5.583   4.070  1.1177  0.3042 -0.3611
 3139SOL    HW2 9876   5.583   5.441   4.024 -2.0443  0.6890 -0.2586
 3140SOL     OW 9877   3.494   4.391   6.117  0.6841 -0.3434  0.6558
 3140SOL    HW1 9878   3.433   4.384   6.191  1.3481 -1.4715  1.1076
 3140SOL    HW2 9879   3.437   4.395   6.040  0.0069 -0.0646  1.1568
 3141SOL     OW 9880   6.351   3.911   0.669 -0.3475  0.0934 -0.5300
 3141SOL    HW1 9881   6.444   3.929   0.685 -0.1815  0.7182 -1.9969
 3141SOL    HW2 9882   6.319   3.989   0.625 -1.9377  0.4433  1.1511
 3142SOL     OW 9883   3.532   2.887   0.692 -0.3335 -0.2626 -0.2600
 3142SOL    HW1 9884   3.504   2.798   0.714  1.2200 -0.6194  0.4329
 3142SOL    HW2 9885   3.626   2.878   0.674 -0.3357  1.1008 -1.0471
 3143SOL     OW 9886   3.158   1.459   3.090  0.2464 -0.1934 -0.3246
 3143SOL    HW1 9887   3.184   1.426   3.176 -0.4860  1.1251  0.4380
 3143SOL    HW2 9888   3.156   1.554   3.101 -0.5751 -0.0433 -1.5948
 3144SOL     OW 9889   4.375   4.452   4.584  0.4811 -0.7045  0.4855
 3144SOL    HW1 9890   4.357   4.538   4.621  0.0576 -1.1732  1.3899
 3144SOL    HW2 9891   4.468   4.436   4.602  0.5067 -0.5286  0.5062
 3145SOL     OW 9892   1.282   5.012   3.000  0.0428  0.2874 -0.5762
 3145SOL    HW1 9893   1.194   5.021   3.036 -0.4651 -1.2294 -1.3303
 3145SOL    HW2 9894   1.276   4.936   2.941  2.3589 -1.2898  1.0204
 3146SOL     OW 9895   4.608   4.674   4.814  0.2300 -0.2117 -0.2902
 3146SOL    HW1 9896   4.657   4.737   4.866 -1.6152  0.9638  0.1436
 3146SOL    HW2 9897   4.598   4.717   4.729  0.4729 -0.7165 -0.5788
 3147SOL     OW 9898   3.060   4.249   2.371  0.2033  0.3720 -0.2468
 3147SOL    HW1 9899   3.102   4.189   2.432 -2.7062  0.3508  1.9144
 3147SOL    HW2 9900   3.048   4.197   2.291 -0.7181 -1.4335  0.9946
 3148SOL     OW 9901   5.098   1.641   5.538 -0.1682 -0.2932  0.1734
 3148SOL    HW1 9902   5.140   1.587   5.471 -0.4848 -0.1877 -0.1151
 3148SOL    HW2 9903   5.069   1.578   5.604  0.4485 -0.3654  0.3817
 3149SOL     OW 9904   0.456   5.488   4.390 -0.1051 -0.2616  0.0743
 3149SOL    HW1 9905   0.448   5.483   4.295 -2.3054 -0.3722  0.2125
 3149SOL    HW2 9906   0.467   5.398   4.419 -2.0725 -0.5461  0.0594
 3150SOL     OW 9907   4.270   2.235   2.100  0.0435  0.0413  0.3035
 3150SOL    HW1 9908   4.354   2.257   2.139  0.9736  0.1602 -1.6594
 3150SOL    HW2 9909   4.262   2.140   2.111 -0.1212  0.1742  1.4777
 3151SOL     OW 9910   4.763   2.034   4.071 -0.7164 -0.3500  0.5587
 3151SOL    HW1 9911   4.709   2.014   3.994  0.2448 -0.0158 -0.2318
 3151SOL    HW2 9912   4.836   2.086   4.036 -0.9626  0.9890  1.9051
 3152SOL     OW 9913   3.519   2.199   3.945 -0.1073 -0.3290  0.2642
 3152SOL    HW1 9914   3.498   2.256   4.019 -0.5340  0.0416 -0.1362
 3152SOL    HW2 9915   3.610   2.173   3.960  1.1107  2.7923 -1.0208
 3153SOL     OW 9916   3.180   5.356   5.050  0.1719 -0.1230 -0.0688
 3153SOL    HW1 9917   3.262   5.335   5.005  0.6513 -0.9501  1.1377
 3153SOL    HW2 9918   3.196   5.333   5.141 -1.2779  0.0644  0.2587
 3154SOL     OW 9919   5.589   1.172   6.156 -0.7192  0.5762 -0.3940
 3154SOL    HW1 9920   5.511   1.197   6.107 -1.8589  1.4784  1.7588
 3154SOL    HW2 9921   5.595   1.236   6.226  0.7067 -0.7738  0.7902
 3155SOL     OW 9922   0.196   2.006   0.901  0.1240  0.2139 -0.5625
 3155SOL    HW1 9923   0.278   1.967   0.869  0.8773  1.5824 -0.3840
 3155SOL    HW2 9924   0.223   2.060   0.975 -1.1226 -0.1794  0.2022
 3156SOL     OW 9925   1.614   5.348   5.255  0.1862  0.3027 -0.0169
 3156SOL    HW1 9926   1.707   5.364   5.237  0.2951 -0.1615  0.1330
 3156SOL    HW2 9927   1.612   5.317   5.346 -0.1989  1.1128  0.2657
 3157SOL     OW 9928   2.186   0.676   1.771 -0.4167  0.1983 -0.2701
 3157SOL    HW1 9929   2.172   0.584   1.795  0.5061  0.2248  0.4142
 3157SOL    HW2 9930   2.195   0.721   1.855 -2.3902  1.1907 -0.5351
 3158SOL     OW 9931   2.563   1.239   6.098  0.0886 -0.4055  0.0048
 3158SOL    HW1 9932   2.549   1.219   6.191  0.3213  0.1864  0.1728
 3158SOL    HW2 9933   2.590   1.155   6.059 -1.3400 -0.9767  0.1871
 3159SOL     OW 9934   4.105   1.842   0.010  0.0306  0.3088 -0.2008
 3159SOL    HW1 9935   4.172   1.858  -0.057 -0.9804 -1.3242 -1.6670
 3159SOL    HW2 9936   4.114   1.916   0.070  0.1563  2.5633 -2.8037
 3160SOL     OW 9937   0.128   6.096   1.903  0.0574 -0.2100 -0.5373
 3160SOL    HW1 9938   0.154   6.161   1.839  0.8149 -1.3954 -1.4729
 3160SOL    HW2 9939   0.052   6.052   1.864  0.3791 -0.7851 -0.5285
 3161SOL     OW 9940   2.845   1.542   3.525  0.4753 -0.1307  0.3534
 3161SOL    HW1 9941   2.892   1.566   3.605 -1.8303  0.4899  1.6337
 3161SOL    HW2 9942   2.790   1.468   3.551 -0.1775 -0.0368 -0.6836
 3162SOL     OW 9943   4.467   5.352   0.918 -0.1009  0.3613 -0.2250
 3162SOL    HW1 9944   4.392   5.409   0.933  0.5273  0.7267  1.7884
 3162SOL    HW2 9945   4.431   5.276   0.873 -1.2322  1.6070 -1.5445
 3163SOL     OW 9946   3.172   6.345   2.544  0.3150  0.2214 -0.0681
 3163SOL    HW1 9947   3.121   6.426   2.532 -0.3459  0.0835  1.4630
 3163SOL    HW2 9948   3.189   6.342   2.639  0.6098 -1.2726 -0.1429
 3164SOL     OW 9949   1.642   5.363   4.919 -0.4372  0.0499  0.1098
 3164SOL    HW1 9950   1.596   5.412   4.852 -1.2344  0.9960  1.3104
 3164SOL    HW2 9951   1.582   5.292   4.943 -0.4001  0.0517  0.2114
 3165SOL     OW 9952   1.242   4.006   1.966 -0.2069  0.1197  0.4905
 3165SOL    HW1 9953   1.244   4.094   2.004  2.0176  1.0645 -1.5561
 3165SOL    HW2 9954   1.154   3.997   1.930 -0.2313  1.8920  0.0193
 3166SOL     OW 9955   4.836   5.180   6.014  0.5970 -0.0429 -0.1961
 3166SOL    HW1 9956   4.913   5.171   6.071  0.7165 -1.2388 -0.5235
 3166SOL    HW2 9957   4.873   5.204   5.929  0.6328 -0.7538 -0.3882
 3167SOL     OW 9958   0.866   5.845   5.601 -0.2694 -0.2532 -0.4705
 3167SOL    HW1 9959   0.942   5.902   5.600  0.0726 -0.6517  0.8079
 3167SOL    HW2 9960   0.799   5.892   5.551  0.8893 -0.0414 -1.8997
 3168SOL     OW 9961   2.740   5.444   4.009 -0.1954 -0.3435 -0.6510
 3168SOL    HW1 9962   2.714   5.518   3.954  1.5354  1.3740  0.7235
 3168SOL    HW2 9963   2.663   5.427   4.063 -1.2161 -0.7519 -2.1454
 3169SOL     OW 9964   4.698   3.740   1.943  0.4770 -0.2184  0.3387
 3169SOL    HW1 9965   4.710   3.733   2.037  0.0474 -1.2620  0.3322
 3169SOL    HW2 9966   4.664   3.654   1.917 -0.3668  0.3839 -0.6134
 3170SOL     OW 9967   3.335   1.115   5.033  0.0745  0.3570 -0.0439
 3170SOL    HW1 9968   3.383   1.127   5.115  0.0101 -1.5275  0.3128
 3170SOL    HW2 9969   3.402   1.125   4.965  0.2633  1.2379  0.2659
 3171SOL     OW 9970   5.384   2.164   3.028 -0.5448 -0.2528  0.0250
 3171SOL    HW1 9971   5.446   2.237   3.024 -0.6143 -0.1712  0.4275
 3171SOL    HW2 9972   5.302   2.204   3.057 -0.3579 -0.6281  1.1221
 3172SOL     OW 9973   4.737   0.747   3.572  0.0374  0.0362  0.5142
 3172SOL    HW1 9974   4.767   0.752   3.481 -1.5306  0.1109 -0.0291
 3172SOL    HW2 9975   4.705   0.657   3.582 -0.6637  0.2959  0.6823
 3173SOL     OW 9976   2.533   4.825   4.805  0.0412  0.2439  0.2538
 3173SOL    HW1 9977   2.583   4.850   4.727  0.5080  0.3520  0.5871
 3173SOL    HW2 9978   2.446   4.862   4.790 -0.7732 -2.1856 -1.5610
 3174SOL     OW 9979   4.976   0.292   0.038 -0.4939 -0.6849 -0.0824
 3174SOL    HW1 9980   4.923   0.235  -0.018  1.4358  1.1057 -4.1132
 3174SOL    HW2 9981   5.062   0.252   0.038 -0.3576 -0.4748  1.5217
 3175SOL     OW 9982   3.334   3.228   3.547 -0.3534 -0.4400 -0.1065
 3175SOL    HW1 9983   3.279   3.182   3.610 -0.7600 -0.4277 -0.4427
 3175SOL    HW2 9984   3.283   3.227   3.466 -1.0720  1.8825  0.2167
 3176SOL     OW 9985   6.072   5.504   5.313  0.5893  0.3735  0.0636
 3176SOL    HW1 9986   6.110   5.590   5.294 -0.2176  0.9404  0.8983
 3176SOL    HW2 9987   6.012   5.521   5.386 -0.3016 -0.7238 -0.3959
 3177SOL     OW 9988   5.748   4.454   4.189  0.1676  0.1936 -0.1848
 3177SOL    HW1 9989   5.783   4.374   4.227 -1.0280  0.0170  0.5739
 3177SOL    HW2 9990   5.707   4.500   4.262  1.3757  1.8245 -0.4718
 3178SOL     OW 9991   2.634   4.646   4.532  0.2780  0.0881 -0.7055
 3178SOL    HW1 9992   2.710   4.631   4.475  1.0654  2.1508 -0.2847
 3178SOL    HW2 9993   2.612   4.738   4.518 -1.1326 -0.0552  0.4171
 3179SOL     OW 9994   1.774   1.864   2.301 -0.1800 -0.0273  0.0650
 3179SOL    HW1 9995   1.842   1.877   2.235  0.7113  0.0745  0.9765
 3179SOL    HW2 9996   1.694   1.897   2.260 -0.0280 -1.6283 -1.6498
 3180SOL     OW 9997   4.034   0.201   5.537 -0.4519  0.4967  0.3326
 3180SOL    HW1 9998   4.112   0.248   5.508  0.3093 -1.2246 -0.5893
 3180SOL    HW2 9999   3.975   0.269   5.568  0.9083  1.9600 -0.1528
 3181SOL     OW10000   3.880   5.071   2.995 -0.3087  0.0001  0.6162
 3181SOL    HW110001   3.821   5.003   2.961 -1.4085  1.2782 -0.1365
 3181SOL    HW210002   3.923   5.107   2.918  0.5126 -0.0403  1.0409
 3182SOL     OW10003   1.316   1.382   0.158 -0.2449 -0.4927  0.4279
 3182SOL    HW110004   1.390   1.331   0.126  0.1062 -0.1338  0.6588
 3182SOL    HW210005   1.250   1.375   0.088 -0.3206 -1.5044  0.5959
 3183SOL     OW10006   2.654   2.455   0.168 -0.3366 -0.0324  0.5457
 3183SOL    HW110007   2.713   2.505   0.225 -0.2220 -1.1112  1.4146
 3183SOL    HW210008   2.654   2.367   0.206  0.5379 -1.0732 -1.7047
 3184SOL     OW10009   2.503   3.672   3.321  0.0481  0.2442  0.3529
 3184SOL    HW110010   2.466   3.607   3.261  0.1677 -0.2369  0.7948
 3184SOL    HW210011   2.480   3.756   3.282 -1.2988 -0.0406  0.4957
 3185SOL     OW10012   3.175   0.010   3.196 -0.1225  0.1083  0.2598
 3185SOL    HW110013   3.103   0.069   3.176  0.8179  1.5487  0.9108
 3185SOL    HW210014   3.247   0.041   3.141  0.8233  0.5410  1.6949
 3186SOL     OW10015   3.187   3.072   3.706 -0.2943 -0.1925  0.3096
 3186SOL    HW110016   3.164   2.987   3.668  1.3482 -1.7722  2.5629
 3186SOL    HW210017   3.131   3.079   3.783 -1.2549  1.3938 -0.4815
 3187SOL     OW10018   1.932   6.045   4.441  0.0691  0.0708 -0.0460
 3187SOL    HW110019   1.936   6.135   4.471 -1.1126  0.0785  0.1181
 3187SOL    HW210020   1.968   5.994   4.514  0.4504  0.3747 -0.0181
 3188SOL     OW10021   5.333   1.105   2.692 -0.2087 -0.4354 -0.5071
 3188SOL    HW110022   5.267   1.106   2.622  0.4165  0.2142 -1.1082
 3188SOL    HW210023   5.417   1.103   2.646  0.2236  0.3510  0.2157
 3189SOL     OW10024   2.145   5.482   0.623  0.0863  0.1075 -0.2433
 3189SOL    HW110025   2.195   5.531   0.689  0.7416 -0.8093 -0.0380
 3189SOL    HW210026   2.177   5.517   0.540 -1.6848  2.2108 -0.1355
 3190SOL     OW10027   1.761   1.161   4.752 -0.3906  0.1772  0.2406
 3190SOL    HW110028   1.846   1.119   4.738 -0.2819  0.5566 -0.2752
 3190SOL    HW210029   1.698   1.088   4.752 -0.2011  0.0010 -0.6167
 3191SOL     OW10030   6.151   4.209   0.904 -0.1105 -0.1325  0.1833
 3191SOL    HW110031   6.216   4.233   0.839 -0.3403  0.2764  0.0984
 3191SOL    HW210032   6.105   4.134   0.866  0.2000 -0.3177  0.1729
 3192SOL     OW10033   4.245   3.723   3.139 -0.5849 -0.2828  1.2657
 3192SOL    HW110034   4.172   3.720   3.078 -1.3018  2.4800  1.8785
 3192SOL    HW210035   4.263   3.631   3.159 -2.3516 -1.1162 -0.6700
 3193SOL     OW10036   0.697   4.115   1.260  0.2070 -0.0829  0.5203
 3193SOL    HW110037   0.730   4.028   1.239  0.0072 -0.8107  2.8733
 3193SOL    HW210038   0.622   4.099   1.317 -1.1865  1.6244 -0.7138
 3194SOL     OW10039   1.647   1.494   0.227  0.6433 -0.2697 -0.4827
 3194SOL    HW110040   1.603   1.430   0.282  0.1957  1.3788  1.1852
 3194SOL    HW210041   1.723   1.522   0.278  0.4171  1.0493 -0.8276
 3195SOL     OW10042   5.233   4.193   0.244 -0.4395  0.3595 -0.6115
 3195SOL    HW110043   5.147   4.156   0.265  0.1132 -0.5654  0.1171
 3195SOL    HW210044   5.221   4.238   0.161 -1.1146 -1.6833 -1.6942
 3196SOL     OW10045   3.478   1.619   4.300  0.1306 -0.3267  0.5322
 3196SOL    HW110046   3.536   1.678   4.349 -0.4218 -0.0013  0.8017
 3196SOL    HW210047   3.467   1.543   4.357 -0.7967  0.2043  1.0882
 3197SOL     OW10048   4.733   0.444   3.562 -0.3053 -0.3093 -0.2121
 3197SOL    HW110049   4.675   0.399   3.500 -0.1819 -0.2134 -0.3970
 3197SOL    HW210050   4.807   0.384   3.573 -0.3801 -0.3771 -0.0691
 3198SOL     OW10051   1.202   1.809   4.947 -0.0988 -0.5212  0.3158
 3198SOL    HW110052   1.183   1.872   4.877  0.9693 -1.7615 -1.1534
 3198SOL    HW210053   1.200   1.723   4.903  0.7316 -1.3280  1.7903
 3199SOL     OW10054   0.058   5.233   6.351  0.3234  0.0928 -0.1810
 3199SOL    HW110055   0.143   5.263   6.319 -0.2752 -0.3284 -2.2784
 3199SOL    HW210056   0.068   5.138   6.362  0.4828  0.2129  0.8433
 3200SOL     OW10057   4.955   4.628   3.895 -0.1754  0.0158 -0.1386
 3200SOL    HW110058   4.996   4.609   3.810  2.0117 -1.5397  1.1688
 3200SOL    HW210059   4.925   4.542   3.926 -0.8742  0.5608  0.7338
 3201SOL     OW10060   4.198   3.103   2.589  1.1306  0.1572  0.0786
 3201SOL    HW110061   4.277   3.063   2.553 -0.0558 -1.1383 -1.2513
 3201SOL    HW210062   4.132   3.034   2.585 -0.3935  1.5434 -0.0739
 3202SOL     OW10063   0.463   4.593   1.562  0.4505  0.0099 -0.4806
 3202SOL    HW110064   0.399   4.581   1.632 -0.7772  0.2395 -1.5183
 3202SOL    HW210065   0.455   4.685   1.537  1.9027  0.2980  0.0143
 3203SOL     OW10066   2.599   0.954   0.649  0.1493 -0.0668  0.4862
 3203SOL    HW110067   2.615   0.865   0.681 -0.4587 -0.0112  0.9765
 3203SOL    HW210068   2.507   0.953   0.623  0.7696 -0.2988 -1.9250
 3204SOL     OW10069   2.273   1.943   4.614 -0.3792  0.1405 -0.3050
 3204SOL    HW110070   2.220   2.019   4.637 -0.1000 -0.2700  1.8780
 3204SOL    HW210071   2.237   1.871   4.665  0.5700 -0.7710 -0.8681
 3205SOL     OW10072   3.894   3.720   5.198 -0.2528  0.4427 -0.2626
 3205SOL    HW110073   3.984   3.703   5.169 -0.1040  0.3203  0.2619
 3205SOL    HW210074   3.881   3.814   5.185  0.1950  0.5892  0.3295
 3206SOL     OW10075   3.263   1.975   4.629  0.0371  0.0693 -0.4359
 3206SOL    HW110076   3.359   1.974   4.629  0.0580  0.2179 -1.9096
 3206SOL    HW210077   3.238   1.918   4.556 -0.9688  1.0907 -0.9209
 3207SOL     OW10078   2.458   4.503   1.967  0.4285  0.0863  0.3360
 3207SOL    HW110079   2.540   4.548   1.988  0.2379  0.2798  0.6797
 3207SOL    HW210080   2.476   4.411   1.984  0.8375  0.0234 -0.4150
 3208SOL     OW10081   5.009   0.141   0.695  0.4998 -0.5871  0.1918
 3208SOL    HW110082   5.011   0.199   0.619  1.8461 -0.8627 -0.0021
 3208SOL    HW210083   5.003   0.199   0.770  3.2588 -0.0573  0.0894
 3209SOL     OW10084   0.925   3.399   5.879 -0.5042  0.2121 -0.1575
 3209SOL    HW110085   0.874   3.318   5.868  1.7197 -1.4239  0.7760
 3209SOL    HW210086   0.860   3.466   5.897 -2.3380 -1.7507  0.9354
 3210SOL     OW10087   3.835   0.148   3.162 -0.0256  0.1301 -0.1026
 3210SOL    HW110088   3.846   0.104   3.078  0.1905 -1.9493  0.9461
 3210SOL    HW210089   3.923   0.179   3.185 -0.0696  0.6248 -0.5658
 3211SOL     OW10090   3.206   4.224   5.624  0.2259 -0.6179  0.3254
 3211SOL    HW110091   3.258   4.176   5.559  0.9843 -0.1506  0.5701
 3211SOL    HW210092   3.211   4.315   5.596  0.0747 -0.4852  0.7207
 3212SOL     OW10093   5.823   1.170   6.343 -0.4325  0.3374  0.1205
 3212SOL    HW110094   5.840   1.085   6.383 -0.5133  0.5522  0.6192
 3212SOL    HW210095   5.788   1.224   6.414 -0.7735  0.6657 -0.2862
 3213SOL     OW10096   4.941   6.291   3.211  0.3693 -0.3812 -0.0320
 3213SOL    HW110097   4.986   6.341   3.142 -0.4845  0.4531 -0.0140
 3213SOL    HW210098   4.944   6.200   3.181 -0.2243 -0.0009 -1.3289
 3214SOL     OW10099   0.263   3.986   1.861  0.2321 -0.7699 -0.2943
 3214SOL    HW110100   0.216   3.903   1.869  0.9581 -1.1326  0.4368
 3214SOL    HW210101   0.258   4.008   1.768 -1.4256 -0.7477 -0.2261
 3215SOL     OW10102   2.266   2.503   1.012 -0.2888  0.8522  0.0289
 3215SOL    HW110103   2.255   2.512   1.107  0.7445  0.0732  0.2458
 3215SOL    HW210104   2.194   2.447   0.985  0.4715 -0.4893  0.6795
 3216SOL     OW10105   4.952   0.914   1.048 -0.4622 -0.2322 -0.0169
 3216SOL    HW110106   5.023   0.854   1.030 -1.1969 -1.2534  0.3911
 3216SOL    HW210107   4.939   0.909   1.143  0.6031  1.9073  0.3079
 3217SOL     OW10108   2.258   1.287   0.381  0.0151 -0.6451 -0.1121
 3217SOL    HW110109   2.271   1.254   0.291  1.0398  1.6439 -0.8847
 3217SOL    HW210110   2.343   1.277   0.422  0.0028 -0.1593  0.0393
 3218SOL     OW10111   4.907   2.273   0.562  0.2819 -0.1410  0.2045
 3218SOL    HW110112   4.816   2.302   0.565  0.4717  0.3790  1.6194
 3218SOL    HW210113   4.956   2.343   0.604  1.5123  0.1278 -1.5388
 3219SOL     OW10114   2.799   2.236   1.803 -0.3493 -0.2693 -0.1443
 3219SOL    HW110115   2.761   2.246   1.715  0.3909  0.5772 -0.3825
 3219SOL    HW210116   2.852   2.156   1.797 -0.3166 -0.2274 -0.4628
 3220SOL     OW10117   4.630   1.855   1.561 -0.2829 -0.0817 -0.2385
 3220SOL    HW110118   4.548   1.813   1.588 -0.4430  0.9601  1.0183
 3220SOL    HW210119   4.697   1.810   1.612 -0.0811 -0.7465 -1.0624
 3221SOL     OW10120   3.944   2.767   4.999 -0.0025 -0.0276  0.5280
 3221SOL    HW110121   4.023   2.772   4.945  0.8733  0.6229  1.8260
 3221SOL    HW210122   3.879   2.816   4.950  0.9785  1.1663  0.3730
 3222SOL     OW10123   1.695   6.327   6.132 -0.1427 -0.7120  0.1939
 3222SOL    HW110124   1.610   6.287   6.110 -0.5979 -0.1262  0.8550
 3222SOL    HW210125   1.707   6.307   6.225  0.6599 -1.1722 -0.0064
 3223SOL     OW10126   3.575   3.536   5.855 -0.3789  0.6671 -0.5618
 3223SOL    HW110127   3.511   3.503   5.793 -0.7185  0.9013 -0.3372
 3223SOL    HW210128   3.652   3.480   5.843 -0.8508 -0.0289 -0.3793
 3224SOL     OW10129   3.224   4.503   2.646 -0.0420 -0.6049  0.2505
 3224SOL    HW110130   3.135   4.474   2.625 -0.0805  0.6390 -1.5360
 3224SOL    HW210131   3.261   4.528   2.561  1.5440  0.1999  1.1435
 3225SOL     OW10132   0.873   4.309   3.313  0.0702 -0.1578  0.5167
 3225SOL    HW110133   0.867   4.217   3.286  0.8156  0.4385 -1.9184
 3225SOL    HW210134   0.966   4.328   3.314 -0.1119  0.9086 -0.3921
 3226SOL     OW10135   5.400   0.123   3.221  0.5361  0.4287  0.3423
 3226SOL    HW110136   5.462   0.193   3.204 -0.3504  1.0715 -0.3305
 3226SOL    HW210137   5.334   0.163   3.278 -1.7265  1.1803 -2.5726
 3227SOL     OW10138   2.844   4.231   5.178 -0.1240 -0.3076  0.3994
 3227SOL    HW110139   2.825   4.199   5.090  0.1158  0.4455  0.0601
 3227SOL    HW210140   2.789   4.178   5.236  0.1159 -1.1763 -0.1469
 3228SOL     OW10141   2.700   1.308   3.569 -0.1348  0.0341  0.5426
 3228SOL    HW110142   2.768   1.241   3.570  0.6034  0.7691  0.4584
 3228SOL    HW210143   2.618   1.259   3.583  0.5121 -0.7268  1.8689
 3229SOL     OW10144   1.578   0.681   2.303  0.2139 -0.0779  0.5854
 3229SOL    HW110145   1.651   0.619   2.306  1.0179  0.6240 -2.0071
 3229SOL    HW210146   1.610   0.758   2.350  1.1102  0.1689 -0.4045
 3230SOL     OW10147   1.150   2.920   0.495 -0.5011  0.1066  0.1183
 3230SOL    HW110148   1.175   2.899   0.406  0.7067  0.8527  0.2562
 3230SOL    HW210149   1.219   2.883   0.549  0.8899  2.9253  0.4566
 3231SOL     OW10150   0.997   3.493   6.242  0.2082 -0.0292  0.1938
 3231SOL    HW110151   1.009   3.423   6.177 -2.2252 -0.4054  0.0341
 3231SOL    HW210152   0.947   3.451   6.313 -1.1393  1.4606  0.1833
 3232SOL     OW10153   4.294   4.134   1.100  0.3369  0.0727  0.2292
 3232SOL    HW110154   4.258   4.063   1.154  0.2875  0.3147  0.5165
 3232SOL    HW210155   4.385   4.141   1.128 -0.2182  1.6418  1.8545
 3233SOL     OW10156   5.373   6.135   6.059 -0.2282 -0.5876 -0.0015
 3233SOL    HW110157   5.355   6.063   5.999  1.3209  0.2693 -1.5911
 3233SOL    HW210158   5.400   6.092   6.140 -2.4458 -1.7739  0.1833
 3234SOL     OW10159   5.442   1.921   1.646  0.3081 -0.0870 -0.1780
 3234SOL    HW110160   5.374   1.892   1.708  1.4249  0.2835  1.2861
 3234SOL    HW210161   5.423   2.014   1.632  0.0657 -0.1654 -0.3697
 3235SOL     OW10162   2.025   2.625   5.029 -0.2486  0.5184  0.2514
 3235SOL    HW110163   2.096   2.682   4.997 -0.3691 -0.4166 -1.8693
 3235SOL    HW210164   1.945   2.675   5.014 -0.2695  0.2615 -0.5219
 3236SOL     OW10165   3.594   1.273   2.409 -0.1285  0.3395  0.2419
 3236SOL    HW110166   3.516   1.296   2.459 -0.3796  0.3172 -0.1349
 3236SOL    HW210167   3.654   1.236   2.474 -0.5815 -0.0064  0.4748
 3237SOL     OW10168   0.437   4.969   1.946 -0.3482 -0.0650  0.1651
 3237SOL    HW110169   0.367   4.991   1.884  1.2372  2.6390 -0.8235
 3237SOL    HW210170   0.400   4.991   2.032 -1.4874 -0.8922 -0.0897
 3238SOL     OW10171   6.135   4.531   1.381 -0.0140  0.1909  0.3055
 3238SOL    HW110172   6.096   4.444   1.391  1.6657 -0.7515 -0.8311
 3238SOL    HW210173   6.207   4.532   1.445  0.3661  0.4777 -0.1205
 3239SOL     OW10174   1.050   6.320   5.307  0.2761  0.0145 -0.0066
 3239SOL    HW110175   0.961   6.347   5.288 -0.1373  0.1171  1.8687
 3239SOL    HW210176   1.053   6.311   5.403  2.3685  0.3543  0.0190
 3240SOL     OW10177   4.871   4.850   5.995 -0.0655  0.5156  0.6290
 3240SOL    HW110178   4.924   4.903   6.055  1.8103 -1.4109  0.8153
 3240SOL    HW210179   4.922   4.848   5.914 -0.7885  0.1409  0.1732
 3241SOL     OW10180   1.043   2.355   1.191 -0.1147 -0.0991 -0.1566
 3241SOL    HW110181   1.119   2.340   1.248 -0.1462 -2.2021 -0.5928
 3241SOL    HW210182   0.968   2.336   1.247 -0.1901 -1.0485 -0.5747
 3242SOL     OW10183   3.545   5.948   1.315  0.4919 -0.3243  0.1299
 3242SOL    HW110184   3.580   5.997   1.390  0.5033 -1.3896  0.8343
 3242SOL    HW210185   3.619   5.938   1.256  0.9174 -0.9392  0.7573
 3243SOL     OW10186   1.581   2.470   2.205  0.1666  0.2868 -0.1191
 3243SOL    HW110187   1.598   2.524   2.128 -1.1552  0.6251 -0.2008
 3243SOL    HW210188   1.641   2.504   2.272 -0.8803  2.1686 -0.0506
 3244SOL     OW10189   1.205   3.334   0.739 -0.0708  0.5135  0.0319
 3244SOL    HW110190   1.143   3.269   0.706 -0.2240  0.6813 -0.0141
 3244SOL    HW210191   1.267   3.346   0.668  1.1799 -1.1056  0.7862
 3245SOL     OW10192   1.940   4.685   3.874  0.0269 -0.5984  0.2352
 3245SOL    HW110193   1.850   4.718   3.873  0.2543  0.0399 -0.1762
 3245SOL    HW210194   1.965   4.687   3.966  0.2525  1.0463  0.1638
 3246SOL     OW10195   1.434   4.765   5.065 -0.3932  0.1127 -0.6894
 3246SOL    HW110196   1.502   4.746   4.999 -0.1711 -0.9746 -0.1617
 3246SOL    HW210197   1.469   4.840   5.113 -0.2347  0.4755 -1.3544
 3247SOL     OW10198   2.609   2.736   3.283  0.2335  0.3476 -0.2627
 3247SOL    HW110199   2.633   2.821   3.248 -0.1322  0.8145  0.5978
 3247SOL    HW210200   2.616   2.676   3.208  1.7897  0.8733 -0.5715
 3248SOL     OW10201   1.785   5.869   2.008  0.0646 -0.4674 -0.4471
 3248SOL    HW110202   1.753   5.823   1.930  0.4913  0.4817 -1.2040
 3248SOL    HW210203   1.718   5.854   2.074 -1.0324 -0.0965 -1.4368
 3249SOL     OW10204   1.008   4.140   6.019  0.2838 -0.1197 -0.5397
 3249SOL    HW110205   0.978   4.152   6.109 -1.2605  0.8083 -1.1429
 3249SOL    HW210206   1.004   4.045   6.006  0.8874 -0.3040  0.4678
 3250SOL     OW10207   3.321   1.385   4.062  0.1602  0.3984  0.1043
 3250SOL    HW110208   3.399   1.331   4.054 -0.6706 -0.8128 -0.0450
 3250SOL    HW210209   3.310   1.399   4.156  0.6838  0.7935  0.1143
 3251SOL     OW10210   4.165   0.314   0.449  0.0790 -0.3805 -0.0095
 3251SOL    HW110211   4.155   0.234   0.501 -1.0977  0.0897  0.5319
 3251SOL    HW210212   4.129   0.383   0.505 -0.9975  0.1686 -1.3254
 3252SOL     OW10213   5.431   2.182   2.652  0.1349  0.6600 -0.2018
 3252SOL    HW110214   5.440   2.266   2.697 -2.9867  1.7172 -1.2714
 3252SOL    HW210215   5.476   2.120   2.708  0.9608  2.7530  1.6013
 3253SOL     OW10216   2.245   2.337   4.152  0.3879 -0.0508 -0.0795
 3253SOL    HW110217   2.329   2.344   4.197 -0.8711 -0.6273  2.5895
 3253SOL    HW210218   2.207   2.424   4.160 -0.3552 -0.4684  1.1329
 3254SOL     OW10219   2.005   5.973   2.798 -0.0863  0.0287  0.0437
 3254SOL    HW110220   1.932   5.916   2.772  0.0173  0.3144 -0.9349
 3254SOL    HW210221   1.966   6.037   2.857 -0.8304  0.6972 -1.1356
 3255SOL     OW10222   6.025   5.779   5.947 -0.0979 -0.3783  0.2555
 3255SOL    HW110223   5.952   5.779   6.009  0.7838 -0.1612  1.3491
 3255SOL    HW210224   6.088   5.841   5.986  0.6642 -0.5759 -0.6426
 3256SOL     OW10225   0.600   4.438   1.783 -0.2090 -0.2804  0.4154
 3256SOL    HW110226   0.555   4.476   1.708  0.0263 -1.0729 -0.1398
 3256SOL    HW210227   0.606   4.509   1.846  0.0910  0.5603 -0.5395
 3257SOL     OW10228   1.399   3.696   3.178 -0.1763 -0.4606 -0.0741
 3257SOL    HW110229   1.471   3.671   3.235  0.1034 -0.3993 -0.3985
 3257SOL    HW210230   1.407   3.791   3.168  0.2204 -0.5655 -0.8081
 3258SOL     OW10231   2.282   5.724   0.729  0.0742 -0.3280 -0.0078
 3258SOL    HW110232   2.208   5.733   0.789  0.2616  1.2730  0.0315
 3258SOL    HW210233   2.257   5.774   0.652  0.5911 -0.8556 -0.5258
 3259SOL     OW10234   5.834   0.141   4.118  0.6095 -0.2125  0.1513
 3259SOL    HW110235   5.836   0.149   4.023 -0.9137  2.7052  0.2158
 3259SOL    HW210236   5.891   0.211   4.149 -0.6679  0.3611  1.3249
 3260SOL     OW10237   5.938   5.686   0.146 -0.0012 -0.0718 -0.2816
 3260SOL    HW110238   5.910   5.607   0.100 -0.3245 -0.3838  0.4390
 3260SOL    HW210239   5.999   5.728   0.085  0.8026 -1.2920 -0.3660
 3261SOL     OW10240   6.110   4.790   1.559 -0.3404 -0.0178 -0.7793
 3261SOL    HW110241   6.140   4.855   1.496 -0.9034  0.8289 -0.1972
 3261SOL    HW210242   6.184   4.778   1.618 -1.0967  2.1857  0.7533
 3262SOL     OW10243   5.234   6.001   1.752  0.0401  0.4470 -0.1925
 3262SOL    HW110244   5.297   6.012   1.680 -0.5530  3.4240 -0.4045
 3262SOL    HW210245   5.276   5.942   1.813  1.0197 -1.3439 -2.4793
 3263SOL     OW10246   6.156   1.968   1.094 -0.4917  0.1761 -0.0349
 3263SOL    HW110247   6.061   1.973   1.081 -0.4303  0.6800 -0.2914
 3263SOL    HW210248   6.193   1.980   1.006 -0.1897  0.0003  0.0669
 3264SOL     OW10249   4.634   4.070   0.417  0.0423  0.4937 -0.0456
 3264SOL    HW110250   4.597   4.074   0.505 -1.6244  0.5812 -0.7146
 3264SOL    HW210251   4.591   4.142   0.370  1.8119  1.2282 -0.6272
 3265SOL     OW10252   4.832   0.024   3.418  0.3557 -0.2017 -0.2610
 3265SOL    HW110253   4.740  -0.002   3.417  0.5807 -1.0698  0.5727
 3265SOL    HW210254   4.875  -0.041   3.363  0.4445  0.3847 -0.9078
 3266SOL     OW10255   5.207   1.613   3.113  0.2385 -0.2105  0.0240
 3266SOL    HW110256   5.224   1.621   3.020  1.3784  1.3620  0.3185
 3266SOL    HW210257   5.285   1.570   3.149  1.4829  2.3786  0.6775
 3267SOL     OW10258   4.655   5.564   3.551  0.4202  0.7099 -0.2893
 3267SOL    HW110259   4.695   5.634   3.499 -1.3039  0.3386 -2.2322
 3267SOL    HW210260   4.617   5.608   3.627  0.7485  1.6432 -0.6551
 3268SOL     OW10261   5.438   0.962   3.401 -0.5090  0.1112 -0.6889
 3268SOL    HW110262   5.418   0.873   3.431 -1.4448  0.5754  0.1307
 3268SOL    HW210263   5.362   0.987   3.349 -0.7248  0.7993 -0.0565
 3269SOL     OW10264   4.979   0.295   4.518  0.2110 -0.2759  0.8916
 3269SOL    HW110265   4.924   0.334   4.450 -1.1483 -1.5284  1.2132
 3269SOL    HW210266   5.049   0.359   4.532 -0.2434  0.6327 -0.6933
 3270SOL     OW10267   2.374   1.691   0.710  0.3794 -0.1148  0.4352
 3270SOL    HW110268   2.405   1.693   0.800  1.5935 -0.1231  0.0260
 3270SOL    HW210269   2.307   1.760   0.706  0.8085  0.3495  1.1590
 3271SOL     OW10270   1.158   0.648   5.059  0.0074 -0.7011 -0.9180
 3271SOL    HW110271   1.125   0.706   5.128 -0.5255 -1.3336 -0.6377
 3271SOL    HW210272   1.253   0.649   5.072  0.1323  0.9961 -1.6287
 3272SOL     OW10273   0.704   2.993   2.231  0.3653  0.2817 -0.1375
 3272SOL    HW110274   0.760   3.052   2.180 -0.0149  0.0413 -0.8488
 3272SOL    HW210275   0.731   2.905   2.204  0.8343  0.1138  0.8164
 3273SOL     OW10276   3.277   3.139   4.677  0.7468 -0.0469  0.3562
 3273SOL    HW110277   3.317   3.081   4.742  1.6950  0.1734 -0.0106
 3273SOL    HW210278   3.195   3.096   4.653  0.1372  0.1222  2.0603
 3274SOL     OW10279   4.096   0.170   6.257  0.0110  0.4336  0.1657
 3274SOL    HW110280   4.006   0.199   6.237 -1.4083  0.0427  4.7544
 3274SOL    HW210281   4.085   0.082   6.291  1.9246  0.8489  2.0068
 3275SOL     OW10282   2.331   6.131   1.605 -0.1180  0.1162 -0.0646
 3275SOL    HW110283   2.334   6.215   1.650 -0.2610 -0.2710  0.6951
 3275SOL    HW210284   2.274   6.077   1.660 -0.7592 -0.2078 -1.0094
 3276SOL     OW10285   4.628   4.011   2.495  0.1057  0.1502  0.1435
 3276SOL    HW110286   4.672   4.046   2.417 -0.6516 -0.8073 -0.7361
 3276SOL    HW210287   4.561   3.952   2.460 -0.2495 -0.2910  1.5271
 3277SOL     OW10288   0.215   5.537   3.573 -0.0272  0.3515  0.0886
 3277SOL    HW110289   0.226   5.629   3.549 -0.1164  0.7603  1.4950
 3277SOL    HW210290   0.303   5.507   3.595 -0.1210  0.3959  0.5532
 3278SOL     OW10291   3.317   3.447   0.592 -0.3836 -0.0763 -0.1084
 3278SOL    HW110292   3.230   3.464   0.558  0.0333  0.8054 -0.7837
 3278SOL    HW210293   3.317   3.488   0.679 -1.0199 -1.1635  0.4277
 3279SOL     OW10294   1.340   6.310   5.266 -0.6070 -0.2769 -0.2801
 3279SOL    HW110295   1.382   6.358   5.195  1.1425 -1.5944 -0.2027
 3279SOL    HW210296   1.257   6.281   5.229 -0.1677 -0.0934 -1.4631
 3280SOL     OW10297   3.860   6.318   3.391 -0.0723  0.0436 -0.0458
 3280SOL    HW110298   3.921   6.392   3.386 -0.4633  0.3411 -0.4795
 3280SOL    HW210299   3.787   6.344   3.335 -0.0974 -0.7880 -0.4023
 3281SOL     OW10300   2.644   0.203   4.021  0.0011 -0.7209 -0.6245
 3281SOL    HW110301   2.580   0.215   4.091 -0.1176  1.0859 -0.9959
 3281SOL    HW210302   2.597   0.223   3.941  1.1813  1.6520 -0.8294
 3282SOL     OW10303   5.828   0.281   5.978  0.6171 -0.3287  0.2208
 3282SOL    HW110304   5.867   0.355   6.024 -0.3837 -1.1001  2.4376
 3282SOL    HW210305   5.877   0.276   5.895  1.0333  2.4462  0.2056
 3283SOL     OW10306   2.787   4.231   1.916 -0.8405  0.5035  0.1285
 3283SOL    HW110307   2.826   4.144   1.907 -0.8365  0.3842  1.1679
 3283SOL    HW210308   2.756   4.253   1.828  0.0535 -0.1207 -0.3555
 3284SOL     OW10309   4.245   5.497   0.970 -0.0952  0.3840 -0.4951
 3284SOL    HW110310   4.163   5.499   1.020  0.4438  0.1607  0.4262
 3284SOL    HW210311   4.249   5.583   0.929 -1.2104  0.0906 -1.2666
 3285SOL     OW10312   1.030   3.350   4.208  0.2072  0.3781  0.4304
 3285SOL    HW110313   1.009   3.344   4.115  1.4379  0.3842  0.1334
 3285SOL    HW210314   0.960   3.301   4.252 -1.2830  1.7164 -0.3421
 3286SOL     OW10315   4.167   2.836   0.545  0.8357  0.4825  0.3193
 3286SOL    HW110316   4.158   2.931   0.542  0.3983  0.4208 -1.3287
 3286SOL    HW210317   4.261   2.821   0.558  0.7431  1.1091  1.9961
 3287SOL     OW10318   1.349   4.411   1.282 -0.2533 -0.1607  0.3667
 3287SOL    HW110319   1.384   4.411   1.193 -2.1407  0.6310 -0.4415
 3287SOL    HW210320   1.407   4.353   1.331  1.2457 -0.0617 -1.1983
 3288SOL     OW10321   3.101   3.146   2.390 -0.3087  0.2078  0.0708
 3288SOL    HW110322   3.171   3.173   2.331  0.2073  0.7526  0.9109
 3288SOL    HW210323   3.104   3.050   2.389 -0.7807  0.1905 -1.3216
 3289SOL     OW10324   1.512   3.234   3.690  0.5359  0.0824 -0.2828
 3289SOL    HW110325   1.562   3.242   3.771 -0.1877  0.3161  0.1458
 3289SOL    HW210326   1.518   3.141   3.667 -1.7186 -0.6372  1.6640
 3290SOL     OW10327   4.480   5.480   3.128  0.2141  0.2904 -0.1322
 3290SOL    HW110328   4.512   5.410   3.186  0.2314  1.0930  0.8566
 3290SOL    HW210329   4.547   5.547   3.132 -0.4560  0.9630  0.0612
 3291SOL     OW10330   1.534   5.738   2.826  0.2246  0.1533 -0.5120
 3291SOL    HW110331   1.440   5.736   2.806 -0.4707 -2.2898  2.3189
 3291SOL    HW210332   1.558   5.646   2.835  2.1738  0.7876  1.7642
 3292SOL     OW10333   4.755   0.717   5.204  0.6463 -0.0031  0.1889
 3292SOL    HW110334   4.768   0.636   5.154  0.5722  0.8027 -1.2130
 3292SOL    HW210335   4.740   0.688   5.294 -2.0970 -1.7676 -0.6927
 3293SOL     OW10336   1.722   2.604   5.995 -0.2325  0.4395 -0.2215
 3293SOL    HW110337   1.741   2.525   6.045  1.9460 -0.5041 -2.3093
 3293SOL    HW210338   1.778   2.671   6.033 -1.1310  0.6909  0.7204
 3294SOL     OW10339   2.438   1.968   3.701  0.3283 -0.1095 -0.0036
 3294SOL    HW110340   2.485   2.049   3.683 -0.3613  1.0548  2.8124
 3294SOL    HW210341   2.353   1.979   3.659  0.3504  0.5047  0.1035
 3295SOL     OW10342   5.621   3.524   3.584 -0.4257 -0.0112  0.0741
 3295SOL    HW110343   5.652   3.444   3.541 -0.8828 -0.0999 -0.1002
 3295SOL    HW210344   5.612   3.588   3.513  3.2892  1.3362  0.6155
 3296SOL     OW10345   5.822   5.493   6.364 -0.1033  0.3257 -0.1561
 3296SOL    HW110346   5.741   5.543   6.352  0.6138  1.6486  0.2968
 3296SOL    HW210347   5.793   5.407   6.395 -1.3441  0.6562 -0.3640
 3297SOL     OW10348   1.362   0.186   4.586 -0.1282  0.6986 -0.1243
 3297SOL    HW110349   1.361   0.099   4.624  1.7174  0.8170  0.3006
 3297SOL    HW210350   1.379   0.171   4.493 -1.7865  0.5386 -0.4201
 3298SOL     OW10351   4.259   1.709   1.188  0.0080 -0.2656  0.0900
 3298SOL    HW110352   4.201   1.691   1.262  0.1137 -0.7785  0.0517
 3298SOL    HW210353   4.244   1.636   1.127 -0.8801  0.6913 -0.9027
 3299SOL     OW10354   5.807   3.276   0.235  0.4386  0.1308 -0.0588
 3299SOL    HW110355   5.902   3.269   0.225  0.6931  0.3828  1.7035
 3299SOL    HW210356   5.796   3.313   0.323 -1.3216 -1.3721  0.4112
 3300SOL     OW10357   6.188   0.278   2.296  0.8087  0.5029 -0.4001
 3300SOL    HW110358   6.149   0.309   2.214 -1.2818  0.8888  0.6843
 3300SOL    HW210359   6.118   0.229   2.339  3.0819 -3.3840 -0.6993
 3301SOL     OW10360   4.700   0.396   6.098  0.2057  0.2526  0.2076
 3301SOL    HW110361   4.754   0.440   6.032 -1.4269  1.6717 -0.2529
 3301SOL    HW210362   4.610   0.421   6.077 -0.5820 -1.1836  1.5766
 3302SOL     OW10363   6.189   6.022   5.262  0.6321 -1.1694  0.1567
 3302SOL    HW110364   6.142   6.078   5.324  1.4700 -0.4494  0.1658
 3302SOL    HW210365   6.205   6.079   5.186  0.1402 -1.8673 -0.4797
 3303SOL     OW10366   3.274   4.836   1.407  0.2683  0.0407 -0.4564
 3303SOL    HW110367   3.275   4.746   1.439  0.4722  0.0720 -0.3763
 3303SOL    HW210368   3.259   4.889   1.485  1.5425  0.1712 -0.2787
 3304SOL     OW10369   1.068   4.405   0.323 -0.2390 -0.1906  0.2794
 3304SOL    HW110370   0.997   4.386   0.385 -1.0566  1.0360 -0.2481
 3304SOL    HW210371   1.142   4.430   0.378 -0.7838  0.3353  0.7798
 3305SOL     OW10372   1.344   3.011   0.885  0.1935 -0.4199  0.1555
 3305SOL    HW110373   1.280   3.065   0.932 -1.3360 -1.4094 -0.6989
 3305SOL    HW210374   1.405   2.981   0.952  0.8863  1.9893  0.7305
 3306SOL     OW10375   6.028   0.684   3.624  0.2067  0.2842  0.0120
 3306SOL    HW110376   6.024   0.768   3.580  1.2532 -0.3922 -1.4668
 3306SOL    HW210377   6.112   0.684   3.668  0.7592 -0.4124 -0.9894
 3307SOL     OW10378   3.353   0.907   0.495  0.2719 -0.3628  0.2990
 3307SOL    HW110379   3.445   0.925   0.517  0.3332 -1.5645  1.0889
 3307SOL    HW210380   3.306   0.918   0.578 -0.0594 -1.2868  0.2428
 3308SOL     OW10381   5.782   2.674   6.166  0.1478 -0.3892 -0.1858
 3308SOL    HW110382   5.780   2.672   6.070 -0.2435 -1.0448 -0.1657
 3308SOL    HW210383   5.871   2.704   6.187 -0.4867  2.1648 -0.7646
 3309SOL     OW10384   1.108   3.607   4.133  0.1860  0.4162  0.1585
 3309SOL    HW110385   1.108   3.523   4.180  1.5120  0.0233 -0.4779
 3309SOL    HW210386   1.036   3.657   4.172 -2.9110 -2.2213 -1.6768
 3310SOL     OW10387   3.520   4.759   2.176  0.1568  0.1208  0.5305
 3310SOL    HW110388   3.504   4.684   2.119 -0.4209 -0.7499  1.7997
 3310SOL    HW210389   3.565   4.823   2.120  0.8802 -1.2580 -0.5192
 3311SOL     OW10390   6.211   1.357   5.476 -0.1042  0.3426  0.1080
 3311SOL    HW110391   6.218   1.337   5.570  0.7078 -0.4913 -0.1204
 3311SOL    HW210392   6.301   1.373   5.448 -0.2183 -0.4449 -0.7416
 3312SOL     OW10393   1.667   3.114   0.669 -0.0446 -0.1340  0.2206
 3312SOL    HW110394   1.690   3.055   0.740 -1.6264 -1.3327 -0.2082
 3312SOL    HW210395   1.721   3.191   0.683  1.2442 -1.2205  1.4615
 3313SOL     OW10396   0.840   3.716   0.042  0.1728 -0.7288  0.1233
 3313SOL    HW110397   0.905   3.785   0.027 -1.3009  0.6699 -0.0814
 3313SOL    HW210398   0.836   3.707   0.137  0.0477 -0.1947  0.1712
 3314SOL     OW10399   2.284   2.209   0.038 -0.1667 -0.0883  0.1370
 3314SOL    HW110400   2.360   2.189   0.092  1.4433  2.8745 -0.8553
 3314SOL    HW210401   2.233   2.271   0.090  0.4943  1.4309 -0.9574
 3315SOL     OW10402   0.534   5.631   6.083 -0.1721  0.3120 -0.4338
 3315SOL    HW110403   0.622   5.613   6.050  0.5684  1.9442  0.4926
 3315SOL    HW210404   0.526   5.726   6.077 -1.2630  0.3444  0.9516
 3316SOL     OW10405   2.816   1.728   5.536 -0.2883 -0.2984  0.1108
 3316SOL    HW110406   2.856   1.756   5.454  1.1431 -0.4963  0.7239
 3316SOL    HW210407   2.840   1.796   5.599 -0.4650 -0.6971  0.6144
 3317SOL     OW10408   1.434   1.995   2.416 -0.3646  0.3084  0.6516
 3317SOL    HW110409   1.366   1.930   2.402  0.3954 -0.1732 -1.1355
 3317SOL    HW210410   1.496   1.954   2.477 -0.1370 -0.4818 -0.0894
 3318SOL     OW10411   5.833   4.948   3.451  0.2478  0.8948 -0.4612
 3318SOL    HW110412   5.762   4.943   3.515 -0.0021  0.7417 -0.7467
 3318SOL    HW210413   5.864   4.857   3.444 -0.7802  0.6104 -1.7281
 3319SOL     OW10414   0.340   0.187   1.148  0.0168  0.0823  0.3955
 3319SOL    HW110415   0.329   0.204   1.055 -1.7265  0.8741  0.7043
 3319SOL    HW210416   0.312   0.268   1.191 -0.3051 -0.6534  1.6286
 3320SOL     OW10417   0.503   1.281   1.249 -0.0812 -0.4994  0.2456
 3320SOL    HW110418   0.428   1.232   1.282  0.1898 -0.2862  1.2026
 3320SOL    HW210419   0.533   1.332   1.324  0.0083  0.6796 -0.5738
 3321SOL     OW10420   2.258   0.584   5.086 -0.2670  0.4062  0.0530
 3321SOL    HW110421   2.246   0.566   4.993  0.0624  1.2715 -0.1724
 3321SOL    HW210422   2.241   0.501   5.130 -1.5395  0.2586 -0.6834
 3322SOL     OW10423   2.011   2.435   0.102 -0.3570  0.5946  0.3782
 3322SOL    HW110424   1.960   2.366   0.144 -0.0038  0.7243  1.0253
 3322SOL    HW210425   1.949   2.508   0.092 -0.2669  0.8056  1.2926
 3323SOL     OW10426   3.866   4.154   1.995 -0.4143 -0.7645  0.3587
 3323SOL    HW110427   3.914   4.090   2.048  0.0298  0.0591  0.9746
 3323SOL    HW210428   3.930   4.222   1.975 -0.4725 -1.2186 -1.5799
 3324SOL     OW10429   6.228   4.660   5.783  0.2700  0.2632 -0.0774
 3324SOL    HW110430   6.312   4.704   5.788  0.1404  0.4790  0.2093
 3324SOL    HW210431   6.245   4.581   5.732  0.9694 -0.4331  1.1818
 3325SOL     OW10432   1.985   6.031   0.391  0.1232  0.1239  0.2337
 3325SOL    HW110433   1.966   6.103   0.451  1.9405  1.0033 -0.1523
 3325SOL    HW210434   2.007   5.957   0.447 -0.8833  0.1285  0.6401
 3326SOL     OW10435   3.097   6.207   4.331  0.1666  0.4288 -0.4490
 3326SOL    HW110436   3.032   6.192   4.263 -0.1288 -0.1206 -0.0488
 3326SOL    HW210437   3.056   6.270   4.391  0.4179  0.8951 -0.7606
 3327SOL     OW10438   1.335   4.982   4.734  0.2053  0.5549  0.3181
 3327SOL    HW110439   1.365   5.071   4.716 -0.0052  0.8293  1.2779
 3327SOL    HW210440   1.342   4.937   4.650 -0.4373  1.6886 -0.3754
 3328SOL     OW10441   2.911   2.292   3.387  0.0101 -0.1067 -0.3532
 3328SOL    HW110442   3.000   2.256   3.382 -0.0701 -0.1982 -1.6832
 3328SOL    HW210443   2.854   2.220   3.359 -0.4749 -0.0101  0.3622
 3329SOL     OW10444   1.841   2.669   0.135 -0.3239  0.1777 -0.3119
 3329SOL    HW110445   1.837   2.753   0.181  0.1891  0.7172 -1.2299
 3329SOL    HW210446   1.834   2.604   0.205  0.2795  0.9703  0.5235
 3330SOL     OW10447   5.048   3.830   5.761  0.4659 -0.1700  0.1020
 3330SOL    HW110448   5.036   3.830   5.856  0.0665 -3.2937  0.1438
 3330SOL    HW210449   5.118   3.767   5.746 -0.4224 -0.7757 -1.7584
 3331SOL     OW10450   1.559   2.367   6.348 -0.1853 -0.4359 -0.2956
 3331SOL    HW110451   1.569   2.280   6.388  0.9398  0.3778  1.2598
 3331SOL    HW210452   1.484   2.357   6.289 -0.4370 -2.3064  0.2740
 3332SOL     OW10453   1.831   3.418   6.083 -0.3893  0.4852  0.0141
 3332SOL    HW110454   1.893   3.418   6.156  1.5665  1.6659 -1.5370
 3332SOL    HW210455   1.844   3.503   6.040 -0.9209 -0.4300 -2.1195
 3333SOL     OW10456   2.729   4.625   1.043 -0.3499  0.2601 -0.6137
 3333SOL    HW110457   2.770   4.597   0.961  0.6745  0.5905 -0.2278
 3333SOL    HW210458   2.802   4.634   1.105 -1.0896  0.1587  0.2984
 3334SOL     OW10459   2.749   4.983   4.931  0.7522  0.1316 -0.2978
 3334SOL    HW110460   2.690   4.924   4.885  1.0096 -0.4046  0.0578
 3334SOL    HW210461   2.795   4.928   4.994  1.3698  0.6122 -0.3134
 3335SOL     OW10462   0.318   1.641   3.481 -0.2152 -0.0411 -0.0553
 3335SOL    HW110463   0.337   1.608   3.393  0.6097  1.3972 -0.4519
 3335SOL    HW210464   0.332   1.735   3.474 -2.9399  0.5255  0.8960
 3336SOL     OW10465   0.388   2.358   5.512  0.0694  0.1514  0.7667
 3336SOL    HW110466   0.300   2.327   5.532  0.0399 -0.0939  0.2671
 3336SOL    HW210467   0.434   2.354   5.596 -0.4951  0.6372  1.1087
 3337SOL     OW10468   1.354   5.263   3.759  0.1776 -0.3225 -0.1154
 3337SOL    HW110469   1.419   5.227   3.698 -0.4352 -1.6359 -0.0219
 3337SOL    HW210470   1.329   5.188   3.814 -3.4047 -0.6198 -1.8716
 3338SOL     OW10471   4.903   1.893   6.261 -0.8111 -0.2982  0.2700
 3338SOL    HW110472   4.841   1.966   6.261 -0.6636 -0.1730  0.5485
 3338SOL    HW210473   4.909   1.867   6.169 -0.4206  0.4192  0.0821
 3339SOL     OW10474   5.884   2.233   5.038  0.5363  0.1611 -0.3227
 3339SOL    HW110475   5.838   2.276   5.110 -1.1980  0.4952 -1.5706
 3339SOL    HW210476   5.954   2.294   5.014  0.6342  0.3988  0.5331
 3340SOL     OW10477   4.862   1.792   2.330  0.4422  0.7031 -1.0487
 3340SOL    HW110478   4.825   1.711   2.366  1.1815 -0.0811 -1.9680
 3340SOL    HW210479   4.806   1.862   2.363  0.2435 -0.1102  0.4050
 3341SOL     OW10480   4.647   0.716   5.475 -0.4770 -0.4906 -0.1987
 3341SOL    HW110481   4.638   0.662   5.554  0.6091  1.5065  1.3989
 3341SOL    HW210482   4.726   0.768   5.491 -1.7869  2.0067 -1.3422
 3342SOL     OW10483   5.458   0.502   5.960 -0.2036  0.0877  0.3483
 3342SOL    HW110484   5.402   0.449   6.017  0.5170  0.1964  1.1799
 3342SOL    HW210485   5.397   0.546   5.901 -0.9871  0.0837  1.1293
 3343SOL     OW10486   3.176   4.317   0.680 -0.0296 -0.3305  1.2724
 3343SOL    HW110487   3.170   4.260   0.604 -2.3440 -0.5492  1.5415
 3343SOL    HW210488   3.155   4.404   0.647  1.7094  0.0829  1.1907
 3344SOL     OW10489   1.445   5.950   2.154  0.0765 -0.0806  0.0817
 3344SOL    HW110490   1.381   5.944   2.226  0.1020  1.3394  0.2543
 3344SOL    HW210491   1.483   6.037   2.164 -0.7876  0.6396 -2.3942
 3345SOL     OW10492   0.885   4.682   6.075  0.2394 -0.3593  0.2295
 3345SOL    HW110493   0.850   4.621   6.140 -1.4772 -0.0369 -0.3331
 3345SOL    HW210494   0.968   4.644   6.048  0.4798 -1.0444  1.8287
 3346SOL     OW10495   5.111   0.052   2.149  0.4723 -0.0022  0.2355
 3346SOL    HW110496   5.028   0.020   2.115  0.9496 -1.2317  0.1733
 3346SOL    HW210497   5.168   0.059   2.072  0.5196  0.5823  0.3149
 3347SOL     OW10498   5.036   5.071   3.288  0.5869 -0.0785 -0.3776
 3347SOL    HW110499   5.129   5.084   3.308  0.5962 -1.7878  0.8877
 3347SOL    HW210500   4.990   5.122   3.354  0.6260 -0.1639 -0.2844
 3348SOL     OW10501   5.939   5.563   5.571 -0.6173  0.3533  0.1569
 3348SOL    HW110502   5.868   5.594   5.626 -0.9138  1.9494 -1.0536
 3348SOL    HW210503   6.019   5.583   5.621 -0.9462 -1.3443  1.4665
 3349SOL     OW10504   5.194   4.694   1.846  0.0248  0.4236  0.3066
 3349SOL    HW110505   5.188   4.708   1.752  1.5629 -2.0110 -0.2409
 3349SOL    HW210506   5.103   4.691   1.876 -0.4895  1.3234 -1.0528
 3350SOL     OW10507   5.208   6.148   4.333 -0.3195 -0.3531  0.7216
 3350SOL    HW110508   5.216   6.086   4.405 -1.0981  0.0647  1.1835
 3350SOL    HW210509   5.167   6.225   4.372  0.1233  0.2440  0.0373
 3351SOL     OW10510   4.418   2.273   1.207 -0.2349 -0.7339  0.0604
 3351SOL    HW110511   4.330   2.236   1.217 -0.5198 -0.1270 -0.1713
 3351SOL    HW210512   4.473   2.197   1.187 -0.9117 -0.9667 -1.0160
 3352SOL     OW10513   6.085   2.407   0.766 -0.0719  0.2926 -0.3476
 3352SOL    HW110514   6.042   2.325   0.741 -0.6027  0.6787 -0.7292
 3352SOL    HW210515   6.014   2.462   0.799  0.6289 -0.3313  2.4924
 3353SOL     OW10516   1.001   6.169   1.004 -0.2472  0.4141 -0.1792
 3353SOL    HW110517   1.075   6.135   0.953 -0.0061  0.3484  0.2051
 3353SOL    HW210518   0.940   6.096   1.011  0.5790 -0.1750  1.2268
 3354SOL     OW10519   4.906   5.498   3.392  0.5936  0.1198 -0.6308
 3354SOL    HW110520   4.910   5.455   3.306  2.2431  0.5815 -0.8154
 3354SOL    HW210521   4.863   5.582   3.374 -0.0124 -0.2156 -0.7943
 3355SOL     OW10522   2.491   0.927   3.507 -0.4752 -0.1568 -0.2075
 3355SOL    HW110523   2.465   1.015   3.480  1.0799  0.0525 -1.1110
 3355SOL    HW210524   2.586   0.931   3.515 -0.1902 -2.1631 -1.8368
 3356SOL     OW10525   5.045   1.084   4.681  0.0134  0.1638  0.1471
 3356SOL    HW110526   4.999   1.102   4.763 -1.7725  0.3977 -0.8516
 3356SOL    HW210527   5.103   1.159   4.670  1.6138 -0.7136  2.0369
 3357SOL     OW10528   0.911   4.765   1.850 -0.2230 -0.2117 -0.3302
 3357SOL    HW110529   0.827   4.726   1.827  0.2904 -2.2090  0.9207
 3357SOL    HW210530   0.966   4.751   1.772 -0.0173 -2.2516  0.1059
 3358SOL     OW10531   3.697   4.390   5.296  0.4409  0.4027 -0.5348
 3358SOL    HW110532   3.709   4.338   5.375 -1.7652 -0.2079 -0.5146
 3358SOL    HW210533   3.710   4.328   5.224  0.5217  0.4778 -0.5843
 3359SOL     OW10534   1.034   2.964   0.916 -0.2991  0.3280 -0.4902
 3359SOL    HW110535   0.938   2.971   0.913 -0.2181  1.7313 -0.4306
 3359SOL    HW210536   1.065   3.054   0.905  0.9630  0.2849  2.0327
 3360SOL     OW10537   4.013   4.416   0.331 -0.4973  1.2223 -0.3043
 3360SOL    HW110538   4.044   4.424   0.241  0.0067  0.7610 -0.1781
 3360SOL    HW210539   4.053   4.335   0.363 -2.6771 -0.0075 -0.4655
 3361SOL     OW10540   3.241   4.189   0.145  0.1300  0.5422  0.1943
 3361SOL    HW110541   3.221   4.101   0.113 -0.1322  1.4661 -2.4451
 3361SOL    HW210542   3.161   4.239   0.131  0.8199  1.6142 -0.1037
 3362SOL     OW10543   3.693   4.508   0.233  0.0498 -0.3813 -0.5027
 3362SOL    HW110544   3.771   4.547   0.192  0.2241 -0.5667 -0.3483
 3362SOL    HW210545   3.638   4.583   0.255  0.0003 -0.2708 -0.9780
 3363SOL     OW10546   4.055   0.488   1.294  0.3560  0.2962 -0.1257
 3363SOL    HW110547   4.085   0.501   1.384  1.4517  1.5368 -0.6298
 3363SOL    HW210548   3.960   0.483   1.300  0.4979 -1.4398  1.2873
 3364SOL     OW10549   0.580   3.522   4.799  0.0067 -0.5229 -0.2428
 3364SOL    HW110550   0.597   3.428   4.807  0.2228 -0.3982  0.9293
 3364SOL    HW210551   0.614   3.560   4.880  0.5499  0.6652 -0.9955
 3365SOL     OW10552   2.795   1.067   2.208 -0.0042 -0.5608 -0.0376
 3365SOL    HW110553   2.856   1.111   2.267 -0.0007 -0.7340  0.0873
 3365SOL    HW210554   2.836   0.983   2.189 -0.4318 -0.8770  0.4277
 3366SOL     OW10555   3.398   3.669   3.045 -0.5978 -0.4415 -0.1985
 3366SOL    HW110556   3.417   3.750   3.092  1.6102 -0.7853 -0.3573
 3366SOL    HW210557   3.352   3.698   2.966  0.4644  0.7344 -0.4351
 3367SOL     OW10558   5.284   0.551   5.756 -0.1683 -0.3791  0.2187
 3367SOL    HW110559   5.303   0.521   5.667  0.0062 -0.2510  0.2127
 3367SOL    HW210560   5.246   0.638   5.744  0.2746 -0.1714  0.2931
 3368SOL     OW10561   4.440   6.042   2.798 -0.0159 -0.5564 -0.1567
 3368SOL    HW110562   4.368   5.990   2.835 -0.3691 -0.1885 -0.3244
 3368SOL    HW210563   4.506   5.976   2.773 -1.0400 -1.0583 -1.6466
 3369SOL     OW10564   1.234   0.343   1.597  0.2206 -0.0990 -0.0961
 3369SOL    HW110565   1.291   0.331   1.522  1.3067 -0.8139  0.8222
 3369SOL    HW210566   1.215   0.254   1.628 -0.3595  0.1774  0.3704
 3370SOL     OW10567   2.047   5.205   3.092  0.1289  0.6951  0.0493
 3370SOL    HW110568   2.071   5.297   3.106  0.9207  0.7503 -1.4743
 3370SOL    HW210569   2.025   5.172   3.179  1.3537  1.9066  0.8460
 3371SOL     OW10570   1.722   3.995   4.844  0.0826 -0.5071 -0.1852
 3371SOL    HW110571   1.745   3.907   4.815  4.1395  0.3553 -0.1415
 3371SOL    HW210572   1.788   4.052   4.804 -0.0967  2.0433  2.7396
 3372SOL     OW10573   2.240   0.703   1.269  0.4683  0.1608  0.1041
 3372SOL    HW110574   2.302   0.756   1.319  0.6840  0.4506 -0.4585
 3372SOL    HW210575   2.274   0.706   1.179  0.3787 -0.7811  0.0334
 3373SOL     OW10576   4.720   5.564   1.738 -0.2388  0.1070 -0.0417
 3373SOL    HW110577   4.673   5.596   1.815 -0.5628 -1.1486  0.3099
 3373SOL    HW210578   4.655   5.512   1.690  0.3103 -0.1847 -0.4816
 3374SOL     OW10579   3.985   3.907   2.037 -0.6663  0.3318 -0.1688
 3374SOL    HW110580   4.004   3.932   1.947 -2.2395  1.1213 -0.3138
 3374SOL    HW210581   3.936   3.825   2.029 -0.6069  0.2805 -0.0113
 3375SOL     OW10582   2.422   3.107   5.582  0.0743  0.7116  0.1022
 3375SOL    HW110583   2.461   3.021   5.599  1.0156  1.0838 -0.1116
 3375SOL    HW210584   2.354   3.090   5.517  1.9887  0.4662 -1.9472
 3376SOL     OW10585   1.428   3.754   5.975  0.2103  0.0186  0.0981
 3376SOL    HW110586   1.415   3.698   6.052 -0.6493 -0.0237 -0.0656
 3376SOL    HW210587   1.496   3.710   5.924  2.6744  1.3406  2.0276
 3377SOL     OW10588   4.692   5.910   0.757  0.1794 -0.3009  0.2180
 3377SOL    HW110589   4.635   5.965   0.704  0.7581  0.6786  0.5951
 3377SOL    HW210590   4.712   5.963   0.834 -0.3256 -1.5366  1.2409
 3378SOL     OW10591   4.637   1.885   5.818  0.0335  0.0676  0.1175
 3378SOL    HW110592   4.703   1.826   5.781 -1.0400 -1.4210  0.4597
 3378SOL    HW210593   4.599   1.930   5.743  0.7523  0.1988 -0.1728
 3379SOL     OW10594   0.867   5.580   3.168  0.1448 -0.4676  0.1707
 3379SOL    HW110595   0.893   5.489   3.184  0.0158 -0.5743 -0.2107
 3379SOL    HW210596   0.796   5.596   3.231 -0.6571 -1.0249 -0.5635
 3380SOL     OW10597   3.234   4.997   1.647  0.4227 -0.0527 -0.4177
 3380SOL    HW110598   3.191   5.080   1.624  0.0305 -0.2403 -0.3619
 3380SOL    HW210599   3.305   5.023   1.705 -0.0761  0.1923  0.0944
 3381SOL     OW10600   0.407   5.507   2.198  0.1805  0.3688  0.8716
 3381SOL    HW110601   0.458   5.587   2.185  0.6135  0.3050  2.0162
 3381SOL    HW210602   0.455   5.460   2.266  0.9295 -1.7399 -0.9942
 3382SOL     OW10603   3.955   2.973   2.884 -0.1225  0.9600  0.2163
 3382SOL    HW110604   4.042   3.008   2.903 -0.2299  1.7354 -0.6131
 3382SOL    HW210605   3.897   3.049   2.889 -0.4378  0.8386 -1.1540
 3383SOL     OW10606   2.960   1.966   2.385  0.2943 -0.2914 -0.6646
 3383SOL    HW110607   2.901   1.952   2.459  0.6379  0.1266 -0.3054
 3383SOL    HW210608   2.974   1.879   2.348 -0.0258 -0.4760 -0.3499
 3384SOL     OW10609   1.900   2.133   0.884  0.1002 -0.3283 -0.0896
 3384SOL    HW110610   1.813   2.172   0.871  0.1137  0.4081  1.7804
 3384SOL    HW210611   1.921   2.093   0.799 -1.3578  0.8742 -1.0689
 3385SOL     OW10612   4.364   5.048   3.098  0.5147 -0.1118 -0.5972
 3385SOL    HW110613   4.341   5.139   3.077 -0.3854 -0.6034 -1.8428
 3385SOL    HW210614   4.460   5.048   3.099  0.5461  0.6429 -1.6559
 3386SOL     OW10615   1.386   5.266   5.734 -0.3120  0.0428 -0.1222
 3386SOL    HW110616   1.440   5.311   5.799 -0.0010  0.9655 -0.9944
 3386SOL    HW210617   1.434   5.186   5.715 -1.8808 -1.8120  2.9762
 3387SOL     OW10618   0.475   4.074   2.322  0.4085  0.1996  0.7158
 3387SOL    HW110619   0.444   4.053   2.410 -0.5384  1.0740  0.6130
 3387SOL    HW210620   0.398   4.059   2.266 -0.1131  3.1019  0.5279
 3388SOL     OW10621   6.067   1.431   4.805 -0.4393  0.7852 -0.0452
 3388SOL    HW110622   6.147   1.402   4.849  0.5584  2.7758 -0.4196
 3388SOL    HW210623   6.091   1.514   4.764 -2.8032  1.6126  0.0867
 3389SOL     OW10624   2.682   0.392   3.418 -1.0194  0.2590  0.4007
 3389SOL    HW110625   2.700   0.325   3.484  1.9074 -0.8190 -1.3019
 3389SOL    HW210626   2.737   0.466   3.443 -0.1711 -0.0203 -0.5326
 3390SOL     OW10627   4.388   3.767   4.723 -0.5049 -0.1990 -0.0744
 3390SOL    HW110628   4.465   3.801   4.768 -0.8451  0.4750  0.0081
 3390SOL    HW210629   4.359   3.693   4.776  0.1982 -0.5863 -0.2152
 3391SOL     OW10630   4.187   2.883   1.014  0.4579  0.2391  0.1228
 3391SOL    HW110631   4.141   2.963   0.988  1.8869  1.0096 -0.1523
 3391SOL    HW210632   4.181   2.882   1.109 -2.1201 -0.9471  0.0279
 3392SOL     OW10633   0.532   1.586   5.627 -0.2259 -0.5513 -0.0169
 3392SOL    HW110634   0.586   1.660   5.599  0.2297  0.1317  2.3714
 3392SOL    HW210635   0.585   1.509   5.608  0.4584 -0.0661 -0.1446
 3393SOL     OW10636   3.405   3.503   1.060  0.5369 -0.1434  0.0486
 3393SOL    HW110637   3.422   3.413   1.090  2.3968 -0.0935 -0.7312
 3393SOL    HW210638   3.402   3.496   0.965 -1.5819  0.2973  0.0454
 3394SOL     OW10639   4.435   4.593   3.537  0.1158  0.4155  0.3232
 3394SOL    HW110640   4.449   4.673   3.589  1.0982 -0.8003  2.0339
 3394SOL    HW210641   4.391   4.533   3.598  0.2097 -0.6601 -0.6376
 3395SOL     OW10642   2.634   1.914   6.226  0.0732  1.0694 -0.1007
 3395SOL    HW110643   2.561   1.969   6.197 -0.6503  0.4221  0.4654
 3395SOL    HW210644   2.601   1.870   6.304  1.0421  0.6883  0.1028
 3396SOL     OW10645   0.322   1.790   1.192 -0.3437 -0.2407 -0.0382
 3396SOL    HW110646   0.322   1.747   1.107  0.6453  0.3376 -0.3464
 3396SOL    HW210647   0.410   1.826   1.201 -1.0554  1.5733  0.2602
 3397SOL     OW10648   2.597   6.382   1.078  0.0833 -0.0437  0.1467
 3397SOL    HW110649   2.639   6.349   1.158  0.5511  0.7623  0.2370
 3397SOL    HW210650   2.607   6.311   1.015 -0.6806 -0.8791  0.9165
 3398SOL     OW10651   6.007   6.182   2.057 -0.2988 -0.9055  0.1505
 3398SOL    HW110652   5.984   6.275   2.052 -1.0183 -0.9988  1.3800
 3398SOL    HW210653   5.989   6.148   1.969  1.1280  0.3515 -0.6646
 3399SOL     OW10654   3.518   5.678   4.863 -0.0745 -0.4909  0.3828
 3399SOL    HW110655   3.563   5.755   4.828  0.9727 -0.0236  2.6018
 3399SOL    HW210656   3.432   5.711   4.889  0.1083 -0.2405  0.6702
 3400SOL     OW10657   5.252   1.167   3.512  0.3696 -0.0512  0.0907
 3400SOL    HW110658   5.267   1.170   3.607  0.1069  1.9866  0.1033
 3400SOL    HW210659   5.339   1.170   3.474  0.4277  0.8462  0.2703
 3401SOL     OW10660   1.911   5.539   2.008  0.3264  0.0647 -0.1807
 3401SOL    HW110661   1.923   5.455   1.963  1.3077  0.5762 -0.8953
 3401SOL    HW210662   1.914   5.605   1.939  0.3093  0.7599  0.4613
 3402SOL     OW10663   3.781   1.682   5.317 -0.2639 -0.1473 -0.1172
 3402SOL    HW110664   3.760   1.711   5.228 -0.4789  1.9718  0.5571
 3402SOL    HW210665   3.859   1.733   5.341  0.7698 -1.8633  0.3782
 3403SOL     OW10666   0.815   0.559   0.405 -0.0395  0.2482 -0.0225
 3403SOL    HW110667   0.815   0.615   0.327  0.7772  0.7565  0.3335
 3403SOL    HW210668   0.863   0.609   0.471  0.9132 -0.9607  0.2393
 3404SOL     OW10669   1.903   0.111   1.920  0.0111 -0.4765  0.1375
 3404SOL    HW110670   1.908   0.172   1.847 -0.3898  0.7175  1.0696
 3404SOL    HW210671   1.836   0.148   1.978 -0.3384 -1.8827  0.6638
 3405SOL     OW10672   1.476   5.124   1.499  0.4140 -0.7486  0.4028
 3405SOL    HW110673   1.466   5.150   1.591  2.6991  0.5055  0.3675
 3405SOL    HW210674   1.537   5.050   1.502  0.5801 -0.6321 -0.1189
 3406SOL     OW10675   1.645   1.610   1.837  0.6833 -0.0377 -0.0661
 3406SOL    HW110676   1.632   1.600   1.931 -0.0114 -0.4154 -0.1985
 3406SOL    HW210677   1.634   1.521   1.802 -2.8556  0.6012 -0.9484
 3407SOL     OW10678   0.029   3.952   5.171  0.7453  0.5947  0.4397
 3407SOL    HW110679   0.027   3.967   5.076 -0.4275  1.3411  0.5609
 3407SOL    HW210680  -0.039   3.886   5.186  0.7428  0.6753  0.7877
 3408SOL     OW10681   2.946   6.076   5.942  0.4799  0.5027 -0.6795
 3408SOL    HW110682   2.996   6.141   5.992  0.0389  0.3164  0.0112
 3408SOL    HW210683   2.999   6.061   5.863  0.6456  1.6153 -0.8006
 3409SOL     OW10684   3.272   0.424   1.242  0.3867  0.1548 -0.0736
 3409SOL    HW110685   3.291   0.402   1.333  0.5369  1.2817  0.1736
 3409SOL    HW210686   3.290   0.343   1.194  0.5826 -0.3657  0.8540
 3410SOL     OW10687   3.108   3.117   1.184 -0.4426 -0.2244 -0.2129
 3410SOL    HW110688   3.165   3.152   1.116 -0.5294  0.2195 -0.0578
 3410SOL    HW210689   3.028   3.169   1.179  0.2738  1.1230  1.4956
 3411SOL     OW10690   2.477   3.415   2.353  0.1639 -0.5764 -0.4683
 3411SOL    HW110691   2.428   3.413   2.271 -2.9177  1.9850  1.0315
 3411SOL    HW210692   2.530   3.494   2.347 -0.4892 -0.0747  0.1451
 3412SOL     OW10693   0.263   5.014   2.641 -0.0217  0.4642 -0.0942
 3412SOL    HW110694   0.296   4.941   2.587  1.1445  2.2216 -1.9130
 3412SOL    HW210695   0.201   5.059   2.584 -3.2478 -0.8004  2.1156
 3413SOL     OW10696   5.219   6.223   2.860 -0.2439 -0.1351  0.3681
 3413SOL    HW110697   5.171   6.152   2.818  1.1563 -1.2166  0.5323
 3413SOL    HW210698   5.151   6.287   2.884 -1.2992 -0.4344 -1.6345
 3414SOL     OW10699   2.781   0.506   3.992 -0.1758  0.1305  0.2156
 3414SOL    HW110700   2.772   0.430   4.048 -1.2491  0.2064  0.1533
 3414SOL    HW210701   2.802   0.578   4.051  1.4795 -0.3044  0.2135
 3415SOL     OW10702   5.028   0.882   4.026  0.1594 -0.3150 -0.2054
 3415SOL    HW110703   4.995   0.971   4.041  0.3852 -0.2681  0.0134
 3415SOL    HW210704   4.978   0.828   4.088  0.6415 -0.2122  0.2834
 3416SOL     OW10705   3.986   4.061   3.954 -0.0636  0.3907  0.4058
 3416SOL    HW110706   3.915   4.115   3.918  1.0930 -0.3071 -3.3738
 3416SOL    HW210707   3.942   4.005   4.018 -2.4832  1.5248 -0.1154
 3417SOL     OW10708   5.306   4.231   0.524 -0.0013 -0.4126  0.0581
 3417SOL    HW110709   5.218   4.208   0.554  0.5280 -0.1135  2.0097
 3417SOL    HW210710   5.302   4.222   0.429 -1.9369 -1.0706  0.1485
 3418SOL     OW10711   2.242   5.936   3.964 -0.3332 -0.3419 -0.3150
 3418SOL    HW110712   2.267   5.933   4.056  0.3453 -0.4390 -0.4982
 3418SOL    HW210713   2.324   5.925   3.916 -0.8553 -1.9129 -0.9324
 3419SOL     OW10714   4.722   2.134   3.224  0.0722 -0.2438  0.3682
 3419SOL    HW110715   4.768   2.051   3.210 -1.1400 -0.7207 -1.0856
 3419SOL    HW210716   4.773   2.199   3.174  0.9048 -0.1271  1.3391
 3420SOL     OW10717   5.371   5.051   2.591 -0.1851  0.4879  0.1257
 3420SOL    HW110718   5.403   5.129   2.636  1.6589 -0.9022  1.3908
 3420SOL    HW210719   5.375   5.073   2.498 -1.5314  2.5207  0.5080
 3421SOL     OW10720   0.914   0.976   3.865  0.3927 -0.0837 -0.5784
 3421SOL    HW110721   0.945   0.912   3.929  2.2109  0.1900 -1.1355
 3421SOL    HW210722   0.909   1.058   3.914 -0.3402 -0.2952 -0.2766
 3422SOL     OW10723   5.767   1.086   4.489  0.2033 -0.1636 -0.4013
 3422SOL    HW110724   5.778   1.089   4.394 -0.2213  0.9962 -0.4279
 3422SOL    HW210725   5.824   1.154   4.523 -0.9361  0.6132  0.0307
 3423SOL     OW10726   2.947   1.673   4.942  0.3588 -0.3841  0.2818
 3423SOL    HW110727   2.920   1.699   4.854  2.1612 -0.7030 -0.4137
 3423SOL    HW210728   2.927   1.749   4.997  0.4260  0.3295 -0.6649
 3424SOL     OW10729   4.154   5.964   0.468 -0.2930  0.5918 -0.3303
 3424SOL    HW110730   4.119   6.052   0.483 -1.6135  0.1262 -0.6049
 3424SOL    HW210731   4.108   5.932   0.390  0.5804 -0.1365 -0.5695
 3425SOL     OW10732   5.159   2.530   1.326 -0.1182  0.6619 -0.2685
 3425SOL    HW110733   5.214   2.452   1.321  0.8905  1.1984  1.4714
 3425SOL    HW210734   5.112   2.520   1.409  1.8620  2.9772  1.2589
 3426SOL     OW10735   5.135   5.661   4.567  0.4023  0.0715  0.0578
 3426SOL    HW110736   5.171   5.572   4.567  0.9506  0.2869  0.8262
 3426SOL    HW210737   5.067   5.659   4.635  1.4766  0.6383  1.1969
 3427SOL     OW10738   0.774   0.702   1.380 -0.5802 -0.2306 -0.0624
 3427SOL    HW110739   0.715   0.773   1.407  0.2166  1.2112 -1.9039
 3427SOL    HW210740   0.839   0.696   1.450 -1.9819 -0.7850  1.2402
 3428SOL     OW10741   5.019   3.566   1.886  0.4392 -0.2746 -0.3169
 3428SOL    HW110742   5.032   3.620   1.964 -2.7705  1.2197 -0.6532
 3428SOL    HW210743   4.990   3.627   1.818 -0.2705 -1.9985 -1.6535
 3429SOL     OW10744   3.511   0.753   6.076  0.4342  0.3687 -0.2218
 3429SOL    HW110745   3.490   0.718   6.163 -0.7203 -0.0244 -0.6430
 3429SOL    HW210746   3.590   0.806   6.090  1.4810 -1.3430  0.6771
 3430SOL     OW10747   3.185   3.832   5.780  0.4898  0.9800 -0.3345
 3430SOL    HW110748   3.136   3.756   5.813  1.0686  0.7707  0.0593
 3430SOL    HW210749   3.218   3.805   5.695  2.2311  0.0994  0.5736
 3431SOL     OW10750   4.713   6.092   4.438  0.0162  0.1105  0.0560
 3431SOL    HW110751   4.678   6.057   4.520 -0.9162 -1.0006 -0.7758
 3431SOL    HW210752   4.749   6.016   4.392  0.5837  0.7238 -0.5362
 3432SOL     OW10753   0.232   1.915   1.567  0.1025  0.1156  0.0576
 3432SOL    HW110754   0.202   1.938   1.479  1.5896 -0.6253 -0.6685
 3432SOL    HW210755   0.158   1.938   1.624 -0.3287  2.0244 -1.1781
 3433SOL     OW10756   4.391   0.878   4.924  0.9604  0.3572 -0.2211
 3433SOL    HW110757   4.426   0.900   4.838  2.2420  2.0161  0.6516
 3433SOL    HW210758   4.465   0.838   4.970  0.3650 -0.2735  0.2135
 3434SOL     OW10759   0.131   0.216   3.862 -0.4296 -0.5322  0.1181
 3434SOL    HW110760   0.060   0.152   3.873 -1.4746  0.5732  0.0355
 3434SOL    HW210761   0.207   0.174   3.901 -1.2068 -1.6336  0.5047
 3435SOL     OW10762   0.464   2.180   0.756 -0.1406 -0.0516 -0.2925
 3435SOL    HW110763   0.480   2.241   0.828  2.0569 -1.1438  0.2604
 3435SOL    HW210764   0.529   2.204   0.689 -0.2187 -0.8383 -0.6735
 3436SOL     OW10765   0.354   5.505   5.860 -0.2266  0.1565  0.5674
 3436SOL    HW110766   0.436   5.550   5.879  0.3643 -1.1009  1.0824
 3436SOL    HW210767   0.344   5.441   5.931 -2.1267  0.9022  1.0315
 3437SOL     OW10768   3.556   1.083   4.891  0.5401  0.6270  0.3336
 3437SOL    HW110769   3.604   1.000   4.898  0.0000  0.2044 -0.7169
 3437SOL    HW210770   3.562   1.105   4.798 -0.2038  1.2317  0.4264
 3438SOL     OW10771   2.341   3.680   5.854  0.1658  0.2253  0.0710
 3438SOL    HW110772   2.316   3.772   5.849  1.6745  0.6453 -0.3223
 3438SOL    HW210773   2.366   3.667   5.946 -2.6027 -0.5441  0.7903
 3439SOL     OW10774   3.494   4.183   4.512 -0.0664  0.1420  0.1936
 3439SOL    HW110775   3.513   4.269   4.550  0.9666  0.2459 -0.5195
 3439SOL    HW210776   3.420   4.150   4.564  0.3377  0.9072  1.2974
 3440SOL     OW10777   0.277   4.507   1.761  0.0789  0.5208 -0.1605
 3440SOL    HW110778   0.256   4.598   1.740 -2.7483  0.7162  2.6927
 3440SOL    HW210779   0.294   4.507   1.855 -0.7544 -1.9467  0.0775
 3441SOL     OW10780   5.979   1.149   4.925  0.3599  0.2595 -0.0150
 3441SOL    HW110781   6.031   1.173   4.848  0.2473 -0.0304 -0.1814
 3441SOL    HW210782   6.027   1.186   4.999  0.0510  1.2598 -0.2866
 3442SOL     OW10783   2.123   3.606   3.022 -0.2536  0.2432  0.2702
 3442SOL    HW110784   2.072   3.528   2.999  0.9090 -0.2245 -0.8557
 3442SOL    HW210785   2.062   3.661   3.070 -1.8520 -0.2515 -1.0885
 3443SOL     OW10786   4.642   0.355   0.809  1.1045  0.2629  0.2868
 3443SOL    HW110787   4.645   0.386   0.900  0.7599  0.1514  0.3375
 3443SOL    HW210788   4.575   0.410   0.768  1.9588  0.9949 -0.1618
 3444SOL     OW10789   3.274   4.947   3.188 -0.0456 -0.3297  0.4341
 3444SOL    HW110790   3.188   4.990   3.182  1.0307  1.9671  0.3334
 3444SOL    HW210791   3.281   4.898   3.106 -0.6657  0.6731 -0.2456
 3445SOL     OW10792   1.426   4.308   0.343 -0.3559  0.1435  0.4152
 3445SOL    HW110793   1.423   4.226   0.294  1.2889  0.6529 -0.6038
 3445SOL    HW210794   1.387   4.287   0.428  0.7087 -1.8856  0.4554
 3446SOL     OW10795   6.169   3.091   4.277 -0.2596  0.0831  0.2965
 3446SOL    HW110796   6.201   3.056   4.194 -0.6192  1.4734 -0.4669
 3446SOL    HW210797   6.227   3.054   4.343 -0.1727 -1.3102 -0.5319
 3447SOL     OW10798   4.020   4.050   6.139  0.3916  0.0226  0.4664
 3447SOL    HW110799   4.089   4.012   6.193  1.0854 -0.7937 -0.9565
 3447SOL    HW210800   3.943   3.995   6.155  0.0266  0.9382  2.0588
 3448SOL     OW10801   2.390   2.438   1.833  0.1679 -0.5955  0.3671
 3448SOL    HW110802   2.461   2.482   1.786  1.7879 -3.5458 -0.2115
 3448SOL    HW210803   2.313   2.452   1.778  0.5043  1.7130  0.4092
 3449SOL     OW10804   5.950   0.132   1.612 -0.2517 -0.8070  0.3340
 3449SOL    HW110805   5.894   0.208   1.626  2.4997  1.5950 -0.6150
 3449SOL    HW210806   5.980   0.141   1.521  0.5964 -2.7305  0.3746
 3450SOL     OW10807   4.655   5.474   1.408  0.1007  0.4499 -0.1975
 3450SOL    HW110808   4.648   5.427   1.491 -1.4064 -0.1198 -0.6080
 3450SOL    HW210809   4.680   5.408   1.345 -0.5339  0.4925 -0.5053
 3451SOL     OW10810   4.957   2.132   4.558  0.1739  0.0518 -0.3334
 3451SOL    HW110811   4.887   2.187   4.522 -0.6748 -0.0381  1.1197
 3451SOL    HW210812   5.038   2.177   4.534 -0.4715  1.4438  0.0076
 3452SOL     OW10813   5.272   5.165   1.075 -0.2994 -0.5267 -0.1789
 3452SOL    HW110814   5.284   5.254   1.041 -1.2517  0.1420  1.1441
 3452SOL    HW210815   5.320   5.165   1.157  1.1207 -1.8002 -0.9713
 3453SOL     OW10816   0.785   4.800   1.322  0.3305  0.4990 -0.7717
 3453SOL    HW110817   0.708   4.834   1.277  0.1208  0.6060 -0.3452
 3453SOL    HW210818   0.847   4.873   1.321  0.9423 -0.0124 -2.2670
 3454SOL     OW10819   3.818   4.529   2.882 -0.1898 -0.6749 -0.4695
 3454SOL    HW110820   3.868   4.592   2.831  0.3352 -2.1165 -1.7953
 3454SOL    HW210821   3.880   4.496   2.947 -0.7564  0.8850  0.9441
 3455SOL     OW10822   4.792   2.667   5.679 -0.3969 -0.1695  0.5625
 3455SOL    HW110823   4.736   2.634   5.750 -0.2391 -1.0307  0.2878
 3455SOL    HW210824   4.739   2.656   5.600 -1.6955  3.2957  0.7843
 3456SOL     OW10825   0.797   4.968   5.690 -0.1009  0.4689  0.1147
 3456SOL    HW110826   0.767   5.048   5.646  1.8684  0.3980 -1.5264
 3456SOL    HW210827   0.858   4.999   5.757  1.1482  0.3832 -0.9345
 3457SOL     OW10828   5.508   0.365   5.347  0.2372  0.1846  0.1660
 3457SOL    HW110829   5.476   0.328   5.265 -2.0174  0.6036  0.7737
 3457SOL    HW210830   5.544   0.290   5.394  0.2479 -0.3228 -0.6226
 3458SOL     OW10831   3.408   1.682   0.784  0.2777  0.0086  0.2597
 3458SOL    HW110832   3.478   1.662   0.722 -0.6812  1.6406 -1.4595
 3458SOL    HW210833   3.356   1.750   0.741 -1.2728  0.2180  2.2819
 3459SOL     OW10834   5.688   0.940   0.450 -0.3820  0.2691  0.1150
 3459SOL    HW110835   5.620   0.981   0.504  0.1588 -0.8683  1.7377
 3459SOL    HW210836   5.749   1.010   0.430 -1.3324  1.0182 -0.2698
 3460SOL     OW10837   0.636   1.587   3.042 -0.1385  1.0976 -0.0201
 3460SOL    HW110838   0.591   1.622   2.965  0.1822  0.8931 -0.3033
 3460SOL    HW210839   0.668   1.502   3.014 -2.3597 -0.2200  1.1833
 3461SOL     OW10840   5.490   1.762   6.042  0.0944 -0.1239 -0.3441
 3461SOL    HW110841   5.405   1.745   6.001 -0.7085  1.2908  0.5968
 3461SOL    HW210842   5.480   1.849   6.081  1.6152 -0.3870  0.7331
 3462SOL     OW10843   1.414   1.693   3.346  0.0989 -0.1910  0.3120
 3462SOL    HW110844   1.475   1.629   3.383 -2.4661 -2.7814  0.5060
 3462SOL    HW210845   1.427   1.687   3.251  0.1871 -0.7346  0.3530
 3463SOL     OW10846   1.691   0.700   5.476  0.0219  0.3165 -0.4731
 3463SOL    HW110847   1.709   0.681   5.384  1.8750  1.3292 -0.3624
 3463SOL    HW210848   1.764   0.661   5.523 -0.3582  0.7352  0.4863
 3464SOL     OW10849   4.794   2.146   2.134 -0.3611 -0.0691 -0.1164
 3464SOL    HW110850   4.803   2.073   2.073  1.0485 -0.3193  0.3567
 3464SOL    HW210851   4.811   2.224   2.081  0.1058 -0.2326 -0.2151
 3465SOL     OW10852   3.083   4.147   1.654 -0.4945 -0.0641 -0.1090
 3465SOL    HW110853   3.033   4.147   1.735 -1.9950 -0.8186 -0.9885
 3465SOL    HW210854   3.167   4.106   1.677 -0.5066  0.6279  1.2478
 3466SOL     OW10855   5.043   0.020   3.003 -0.4781  0.0551  0.1340
 3466SOL    HW110856   5.064   0.112   2.992 -0.8770  0.2520  0.9569
 3466SOL    HW210857   4.979   0.002   2.933 -0.9478  0.5932  0.4121
 3467SOL     OW10858   0.819   6.303   0.774 -0.2710  0.0896  0.1845
 3467SOL    HW110859   0.813   6.397   0.758 -1.4527 -0.1551 -1.0570
 3467SOL    HW210860   0.871   6.269   0.701 -3.8520 -0.7626 -2.2436
 3468SOL     OW10861   4.531   3.146   5.905  0.1564  0.1268 -0.7394
 3468SOL    HW110862   4.521   3.238   5.928 -1.8703 -0.5552  1.4451
 3468SOL    HW210863   4.466   3.131   5.836 -2.2969 -0.4285  1.5511
 3469SOL     OW10864   1.398   1.026   0.357 -0.6352 -0.3085 -0.1349
 3469SOL    HW110865   1.395   0.972   0.436 -1.0786  0.1512  0.1695
 3469SOL    HW210866   1.400   0.963   0.285  2.9857 -0.8731  0.2426
 3470SOL     OW10867   3.786   4.075   4.564 -0.2652 -0.3969  0.0648
 3470SOL    HW110868   3.725   4.149   4.563 -2.0900 -1.7761  1.5427
 3470SOL    HW210869   3.828   4.079   4.650 -1.7967 -2.0676  0.9698
 3471SOL     OW10870   0.685   3.258   2.577 -0.0755  0.4298 -0.5657
 3471SOL    HW110871   0.692   3.347   2.543 -0.6995  0.0421 -1.7893
 3471SOL    HW210872   0.763   3.213   2.543  0.9973  0.8549  1.2462
 3472SOL     OW10873   2.829   0.423   3.016 -0.2637 -0.0617  0.2818
 3472SOL    HW110874   2.845   0.471   3.097  0.5072 -0.3682  0.3201
 3472SOL    HW210875   2.842   0.487   2.947  3.2448 -0.6509  0.1703
 3473SOL     OW10876   0.370   1.741   0.421 -0.3817 -0.1939 -0.3524
 3473SOL    HW110877   0.448   1.774   0.464 -1.3663 -0.4512  1.7773
 3473SOL    HW210878   0.396   1.727   0.330  1.5097  1.4156 -0.1116
 3474SOL     OW10879   4.023   3.992   0.133 -0.0984 -0.1381  0.0195
 3474SOL    HW110880   4.037   3.909   0.087 -0.8001  0.3968 -1.2070
 3474SOL    HW210881   3.966   4.042   0.075 -0.5572  0.7958  1.2296
 3475SOL     OW10882   5.645   4.203   3.208  0.5754  0.1163 -0.5372
 3475SOL    HW110883   5.569   4.145   3.199  0.9473 -0.7631  1.4323
 3475SOL    HW210884   5.613   4.276   3.261  0.6584  0.6796 -1.2444
 3476SOL     OW10885   2.771   3.060   4.106 -0.8116 -0.1770  0.1840
 3476SOL    HW110886   2.864   3.053   4.087 -1.2360 -1.8405 -1.6718
 3476SOL    HW210887   2.765   3.050   4.201  0.8490 -0.7284  0.2628
 3477SOL     OW10888   5.283   4.286   4.678  0.1376 -0.3279  0.0820
 3477SOL    HW110889   5.226   4.307   4.753  0.1155  0.1881 -0.0735
 3477SOL    HW210890   5.371   4.309   4.708  0.0159  0.8110 -0.3762
 3478SOL     OW10891   4.734   1.169   0.371 -0.3332  0.3014 -0.1098
 3478SOL    HW110892   4.689   1.234   0.425 -0.4059  0.5550 -0.4747
 3478SOL    HW210893   4.693   1.086   0.394  0.8995  0.1254  1.6053
 3479SOL     OW10894   3.250   4.396   3.047  0.5223 -0.0915  0.5687
 3479SOL    HW110895   3.203   4.315   3.023  1.7012 -0.5151 -0.3982
 3479SOL    HW210896   3.316   4.367   3.109  3.0896 -0.5197 -2.1598
 3480SOL     OW10897   5.832   2.478   0.829 -0.8726  0.8504 -0.2888
 3480SOL    HW110898   5.811   2.503   0.739 -0.7900 -2.2078 -1.3007
 3480SOL    HW210899   5.749   2.448   0.865 -0.2346 -1.9515 -0.9118
 3481SOL     OW10900   3.179   2.161   1.830 -0.1637  0.1191  0.3625
 3481SOL    HW110901   3.131   2.081   1.806  0.2817 -0.0074 -0.1257
 3481SOL    HW210902   3.267   2.130   1.852  0.5281  0.6397 -1.5041
 3482SOL     OW10903   1.408   2.058   1.699  0.3234 -0.7182  0.6857
 3482SOL    HW110904   1.489   2.011   1.679  1.2006  0.9854  0.1235
 3482SOL    HW210905   1.429   2.150   1.688 -1.8754 -0.2466 -0.1224
 3483SOL     OW10906   2.567   4.233   1.312 -0.0953  0.6394  0.3939
 3483SOL    HW110907   2.652   4.200   1.341 -0.0284 -0.4201 -0.9093
 3483SOL    HW210908   2.581   4.326   1.297  0.9797  0.3802 -0.2957
 3484SOL     OW10909   4.793   2.860   5.327  0.2626 -1.0875 -0.0246
 3484SOL    HW110910   4.786   2.764   5.322  0.3428 -1.0406 -1.4944
 3484SOL    HW210911   4.712   2.892   5.288  1.1578 -0.5884 -1.5962
 3485SOL     OW10912   0.872   4.804   0.578 -0.1001 -0.0411 -0.2358
 3485SOL    HW110913   0.854   4.745   0.652 -2.1396  0.8353  0.0228
 3485SOL    HW210914   0.790   4.852   0.565  0.5558  0.6085 -2.3832
 3486SOL     OW10915   0.782   3.984   0.409  0.2206  0.0529 -0.1189
 3486SOL    HW110916   0.842   4.039   0.460  0.9251  0.1491 -1.0099
 3486SOL    HW210917   0.798   4.011   0.318 -0.2431 -0.8443 -0.4715
 3487SOL     OW10918   1.230   0.766   4.087 -0.0275  0.1642 -0.4298
 3487SOL    HW110919   1.241   0.860   4.072  1.1844  0.1950  0.4659
 3487SOL    HW210920   1.136   0.754   4.095 -0.1654  1.4381  0.1456
 3488SOL     OW10921   2.483   5.954   2.155 -0.0943  0.1147  0.1933
 3488SOL    HW110922   2.440   6.030   2.194 -0.9220  1.0584 -2.3352
 3488SOL    HW210923   2.414   5.888   2.149  0.2112 -0.2791  0.9426
 3489SOL     OW10924   3.736   4.857   2.898  0.0242  0.1606 -0.3842
 3489SOL    HW110925   3.794   4.831   2.826 -0.1111 -2.5880  0.4173
 3489SOL    HW210926   3.648   4.839   2.865 -0.2147  1.3402 -0.4313
 3490SOL     OW10927   1.317   4.333   1.981 -0.2058  0.1927  0.2155
 3490SOL    HW110928   1.380   4.297   2.044 -0.3385 -0.2719  0.0842
 3490SOL    HW210929   1.328   4.428   1.988  1.8283  0.1101 -1.1162
 3491SOL     OW10930   1.236   5.113   1.374  0.2404  0.8652 -0.4413
 3491SOL    HW110931   1.231   5.189   1.315  1.5618  2.2161  1.1108
 3491SOL    HW210932   1.321   5.121   1.417 -0.3544 -0.5030  1.0890
 3492SOL     OW10933   5.789   3.576   0.129 -0.0070  0.6072 -0.3905
 3492SOL    HW110934   5.815   3.585   0.037  0.5022  0.0826 -0.2952
 3492SOL    HW210935   5.746   3.491   0.134 -1.9946  1.5398 -0.5976
 3493SOL     OW10936   0.796   6.357   5.246 -0.1885  0.6860 -0.0151
 3493SOL    HW110937   0.770   6.426   5.184 -0.4627  1.3437  0.8148
 3493SOL    HW210938   0.752   6.278   5.214 -1.0007  1.1981 -0.1907
 3494SOL     OW10939   6.153   4.705   2.957  0.2955  0.3988 -0.2740
 3494SOL    HW110940   6.112   4.674   2.877 -2.3794  0.5212  0.9477
 3494SOL    HW210941   6.247   4.692   2.942 -0.2787 -2.8514 -2.0635
 3495SOL     OW10942   1.587   1.535   3.004 -0.3804  0.6386 -0.0046
 3495SOL    HW110943   1.642   1.557   3.079  1.7951  0.4369 -1.4360
 3495SOL    HW210944   1.511   1.490   3.041 -0.0200  1.6967  2.1377
 3496SOL     OW10945   1.047   1.991   3.213  0.0797 -0.5038 -0.0748
 3496SOL    HW110946   1.106   2.062   3.234 -0.3773 -0.1550  0.0422
 3496SOL    HW210947   1.092   1.912   3.243 -0.4476 -0.0561  2.0563
 3497SOL     OW10948   3.639   5.196   1.752 -0.2511 -0.0740 -0.5076
 3497SOL    HW110949   3.648   5.278   1.801  0.8363  0.8684 -2.1844
 3497SOL    HW210950   3.685   5.212   1.670 -1.9938 -1.5833 -1.8705
 3498SOL     OW10951   0.860   3.881   6.030  0.0137 -0.0653  0.4003
 3498SOL    HW110952   0.838   3.871   5.937 -1.4628  0.7748  0.6271
 3498SOL    HW210953   0.776   3.892   6.073  0.7412  0.4702  1.7330
 3499SOL     OW10954   3.623   2.841   1.021 -0.4422 -0.1733  0.0909
 3499SOL    HW110955   3.694   2.900   0.996 -1.1041  1.8192  2.5144
 3499SOL    HW210956   3.667   2.763   1.054  0.4853 -0.4453 -1.6776
 3500SOL     OW10957   4.986   4.539   0.688  0.5548 -0.5063  0.4129
 3500SOL    HW110958   4.965   4.599   0.759 -0.2304  0.0020 -0.2318
 3500SOL    HW210959   4.938   4.573   0.612  0.4755 -1.6710 -0.0884
 3501SOL     OW10960   5.895   3.758   3.250 -0.6207  0.0847 -0.5700
 3501SOL    HW110961   5.935   3.675   3.226  1.8926  0.6565  1.2568
 3501SOL    HW210962   5.884   3.804   3.167 -0.1493 -1.2652 -1.4136
 3502SOL     OW10963   2.851   2.910   6.233 -0.4026 -0.4871 -0.3538
 3502SOL    HW110964   2.812   2.988   6.274 -1.4164 -0.8240 -0.6647
 3502SOL    HW210965   2.782   2.844   6.236  0.0700 -1.0271 -1.1220
 3503SOL     OW10966   6.005   4.579   4.096  0.0861  0.0913 -0.4822
 3503SOL    HW110967   5.925   4.535   4.124 -0.8688  1.5019 -0.8941
 3503SOL    HW210968   6.048   4.515   4.039 -1.4586 -0.1920 -1.3974
 3504SOL     OW10969   0.827   1.900   0.574  0.6318 -0.1184  0.1824
 3504SOL    HW110970   0.866   1.983   0.548 -1.3023  1.5042  2.0787
 3504SOL    HW210971   0.898   1.854   0.620  2.0838 -0.1501 -1.9296
 3505SOL     OW10972   4.120   3.152   6.239 -0.4358  0.1940  0.0011
 3505SOL    HW110973   4.024   3.147   6.233 -0.4233 -1.4404  0.5023
 3505SOL    HW210974   4.151   3.102   6.163 -0.0569 -1.7868  1.3701
 3506SOL     OW10975   0.420   4.330   5.973  0.6749  0.3499 -0.3874
 3506SOL    HW110976   0.406   4.304   5.882  3.8230 -1.6143 -0.4554
 3506SOL    HW210977   0.413   4.248   6.022  1.0144  1.0363  0.8455
 3507SOL     OW10978   3.921   5.933   2.995 -0.2816 -0.0395  0.2846
 3507SOL    HW110979   3.872   6.004   3.036  0.5421  0.3538  0.5921
 3507SOL    HW210980   3.942   5.873   3.067  1.2121  0.6795  0.4823
 3508SOL     OW10981   0.211   2.872   3.081 -0.4256 -0.2027  0.5026
 3508SOL    HW110982   0.143   2.853   3.016  0.5763  2.4006 -1.4597
 3508SOL    HW210983   0.282   2.811   3.059 -0.5490 -0.1346 -0.1035
 3509SOL     OW10984   6.057   4.036   2.252  0.0358  0.1345 -0.4779
 3509SOL    HW110985   6.030   3.965   2.194  0.8320 -0.5980  0.0118
 3509SOL    HW210986   6.030   4.007   2.339 -1.1623  1.2271 -0.4620
 3510SOL     OW10987   1.483   3.889   0.703  0.1850 -0.4510 -0.0240
 3510SOL    HW110988   1.440   3.855   0.781 -5.0741  0.0882 -2.2801
 3510SOL    HW210989   1.498   3.812   0.648 -0.5876 -0.3509 -0.3781
 3511SOL     OW10990   1.027   2.905   2.983 -0.0722 -0.0501 -0.2608
 3511SOL    HW110991   1.088   2.948   2.924  0.6477  0.2103  0.6557
 3511SOL    HW210992   0.990   2.834   2.931  2.3719 -1.3824 -0.3233
 3512SOL     OW10993   0.450   3.013   4.934  0.4602 -0.2977  0.4099
 3512SOL    HW110994   0.401   2.939   4.972 -1.8613  1.5698  1.2766
 3512SOL    HW210995   0.433   3.086   4.992  1.4028  1.3355 -1.2554
 3513SOL     OW10996   1.956   5.897   3.680  0.2665  0.0166  0.1986
 3513SOL    HW110997   2.045   5.895   3.717  0.5739  1.7541 -0.3807
 3513SOL    HW210998   1.916   5.974   3.720 -0.8914 -0.5603  0.1853
 3514SOL     OW10999   5.407   2.680   3.275 -0.2110 -0.3303 -0.1478
 3514SOL    HW111000   5.463   2.671   3.352  0.9360 -1.1116 -1.0378
 3514SOL    HW211001   5.445   2.754   3.226 -0.8496  0.0769 -0.0338
 3515SOL     OW11002   2.688   2.144   3.105 -0.7644  0.3425 -0.0780
 3515SOL    HW111003   2.703   2.100   3.189 -0.5160  0.7790  0.1072
 3515SOL    HW211004   2.596   2.124   3.085 -1.0377  0.8167  0.6436
 3516SOL     OW11005   6.161   0.412   3.650  0.0783 -0.6391  0.0007
 3516SOL    HW111006   6.114   0.493   3.671  1.4224  0.1369  0.0912
 3516SOL    HW211007   6.252   0.430   3.674  0.3234 -2.3555  0.4912
 3517SOL     OW11008   2.791   5.318   5.588  0.1266  0.2531 -0.0327
 3517SOL    HW111009   2.874   5.340   5.545 -0.3271  0.7399 -0.6867
 3517SOL    HW211010   2.816   5.280   5.672  0.9979  2.8174  0.9715
 3518SOL     OW11011   4.581   1.683   5.187  0.2080  0.2409  0.2952
 3518SOL    HW111012   4.540   1.635   5.259  0.5782 -0.0349  0.3277
 3518SOL    HW211013   4.509   1.704   5.128  0.1675 -1.3066 -0.2624
 3519SOL     OW11014   4.503   3.108   0.079  0.3789  0.2910  0.4173
 3519SOL    HW111015   4.425   3.056   0.058 -0.7232  2.7003 -1.9459
 3519SOL    HW211016   4.566   3.087   0.010  0.8480  0.2986  0.8368
 3520SOL     OW11017   2.957   1.282   4.203 -0.0806 -0.6663 -0.1939
 3520SOL    HW111018   2.956   1.187   4.214  1.6372 -0.6655  0.2412
 3520SOL    HW211019   2.971   1.316   4.291 -2.3657  0.1006 -0.0694
 3521SOL     OW11020   2.689   4.143   5.373  0.5726 -0.4316 -0.0056
 3521SOL    HW111021   2.661   4.059   5.336 -0.7797  0.5804 -1.3357
 3521SOL    HW211022   2.688   4.128   5.468  0.9936 -2.0937 -0.2212
 3522SOL     OW11023   1.150   6.179   5.681 -0.0056  0.1479 -0.1712
 3522SOL    HW111024   1.168   6.123   5.605  1.3660  0.2771  0.0386
 3522SOL    HW211025   1.089   6.245   5.649  1.3395  0.8189 -1.4583
 3523SOL     OW11026   4.058   4.881   3.425  0.1798  0.6622  0.2655
 3523SOL    HW111027   3.963   4.871   3.417  0.4864 -1.2973 -1.8449
 3523SOL    HW211028   4.082   4.936   3.350  0.9492 -0.9221 -0.6871
 3524SOL     OW11029   4.523   6.085   3.413 -0.5069 -0.0084 -0.2892
 3524SOL    HW111030   4.479   6.042   3.486 -0.2948  1.1492  0.5492
 3524SOL    HW211031   4.462   6.153   3.385 -0.2444  0.0717 -0.6797
 3525SOL     OW11032   5.192   2.324   4.825 -0.2305  0.4545 -0.1503
 3525SOL    HW111033   5.180   2.240   4.869  0.8182 -1.1608 -2.6611
 3525SOL    HW211034   5.106   2.367   4.830 -0.3924 -0.0287  2.4745
 3526SOL     OW11035   2.152   1.625   5.462 -0.3127  0.1722 -0.3968
 3526SOL    HW111036   2.208   1.658   5.532  0.1334 -0.7499 -0.3137
 3526SOL    HW211037   2.094   1.562   5.504 -0.0079 -0.4251 -0.8595
 3527SOL     OW11038   5.322   3.152   3.468 -0.4908 -0.5414 -0.2473
 3527SOL    HW111039   5.345   3.128   3.378 -1.0673 -1.2260 -0.2247
 3527SOL    HW211040   5.227   3.138   3.472 -0.6438  0.5311  0.1554
 3528SOL     OW11041   2.152   2.664   5.500  0.3223  0.0366 -0.0525
 3528SOL    HW111042   2.107   2.600   5.444  0.6667 -0.8469  0.6585
 3528SOL    HW211043   2.087   2.733   5.514 -0.1668 -0.3067 -0.5723
 3529SOL     OW11044   3.989   0.955   2.765 -0.0063  0.5689  0.5064
 3529SOL    HW111045   3.939   0.943   2.846 -0.4570  0.0617  0.1570
 3529SOL    HW211046   4.068   0.902   2.778 -0.2690  0.1640  0.4501
 3530SOL     OW11047   5.430   0.245   2.242 -0.7366  0.1487  0.4782
 3530SOL    HW111048   5.457   0.295   2.165  0.5207 -0.0521  0.7623
 3530SOL    HW211049   5.438   0.307   2.315 -0.1754 -0.1552  0.6854
 3531SOL     OW11050   2.218   2.487   1.294 -0.5405 -0.0665 -0.4155
 3531SOL    HW111051   2.297   2.461   1.340  0.2330  1.7934 -0.6100
 3531SOL    HW211052   2.190   2.567   1.337 -0.4518  1.0936 -2.3748
 3532SOL     OW11053   3.472   4.822   5.658 -0.3954 -0.0174 -0.3887
 3532SOL    HW111054   3.444   4.763   5.589  0.2747 -0.3827 -0.3558
 3532SOL    HW211055   3.552   4.862   5.625  1.5156 -2.2563  1.2327
 3533SOL     OW11056   2.328   2.506   2.533  0.2865 -0.1207 -0.0290
 3533SOL    HW111057   2.358   2.442   2.469  2.0069  0.1487  0.4569
 3533SOL    HW211058   2.342   2.591   2.491  0.2828  0.0209  0.2520
 3534SOL     OW11059   4.688   5.886   3.579  0.1523 -0.3488 -0.0826
 3534SOL    HW111060   4.602   5.904   3.615  0.8383  1.8949  0.5969
 3534SOL    HW211061   4.732   5.833   3.647 -0.3516 -0.6667 -0.0020
 3535SOL     OW11062   5.878   0.538   3.179 -0.2004 -0.3071  0.2617
 3535SOL    HW111063   5.842   0.602   3.118 -1.6299 -1.2497  0.0543
 3535SOL    HW211064   5.811   0.469   3.184  0.8750 -1.3437  1.1659
 3536SOL     OW11065   5.885   2.060   3.907  0.3890  0.4583 -0.2900
 3536SOL    HW111066   5.813   2.100   3.956  0.6626  0.2965  0.2643
 3536SOL    HW211067   5.961   2.070   3.965  1.3504  2.6987 -1.8115
 3537SOL     OW11068   3.581   4.035   5.906  0.0287  0.6662  0.4221
 3537SOL    HW111069   3.590   3.946   5.941 -1.4713  0.3854  0.1570
 3537SOL    HW211070   3.487   4.052   5.907  0.2196  1.9055 -0.4092
 3538SOL     OW11071   0.447   0.040   5.645  0.0164 -0.0543 -0.3945
 3538SOL    HW111072   0.512   0.047   5.575  1.7818 -0.7799  1.0835
 3538SOL    HW211073   0.375   0.097   5.617  1.0868  0.4412 -2.3097
 3539SOL     OW11074   3.397   5.980   2.101 -0.4927 -0.0828  0.1054
 3539SOL    HW111075   3.412   5.893   2.063 -0.3624 -0.3609  0.7775
 3539SOL    HW211076   3.382   6.037   2.026 -0.8725 -0.7435 -0.3328
 3540SOL     OW11077   3.324   3.549   2.413 -0.0129 -0.0177  0.2828
 3540SOL    HW111078   3.291   3.609   2.346  0.9991 -0.9323 -1.0659
 3540SOL    HW211079   3.321   3.600   2.494 -1.5792  0.9964 -0.3729
 3541SOL     OW11080   0.095   2.985   4.320 -0.3971 -0.1386 -0.1258
 3541SOL    HW111081   0.164   2.919   4.318 -1.1590 -1.0534  1.6233
 3541SOL    HW211082   0.089   3.012   4.411 -2.3934 -0.1572 -0.1963
 3542SOL     OW11083   3.939   3.365   2.472 -0.2418  0.2304 -0.1621
 3542SOL    HW111084   3.896   3.354   2.387 -2.2231 -0.2672  0.8370
 3542SOL    HW211085   3.946   3.276   2.507 -1.7264  0.5912  1.1962
 3543SOL     OW11086   0.296   5.471   3.937  0.5329 -0.7778 -0.2276
 3543SOL    HW111087   0.356   5.454   4.010  1.1781  0.4003 -0.4545
 3543SOL    HW211088   0.352   5.470   3.859  0.5721  1.7123 -0.3140
 3544SOL     OW11089   5.797   1.754   3.511 -0.6988 -0.4880 -0.2859
 3544SOL    HW111090   5.765   1.844   3.513 -0.0140 -0.2462  0.1870
 3544SOL    HW211091   5.837   1.741   3.596 -0.7321 -1.2235 -0.3768
 3545SOL     OW11092   0.132   1.509   5.968 -0.0650  0.2530 -0.0489
 3545SOL    HW111093   0.077   1.451   6.019 -0.0973  1.7199  1.6967
 3545SOL    HW211094   0.156   1.579   6.029 -0.4244  2.3334 -2.1458
 3546SOL     OW11095   0.082   4.125   2.552 -0.0435 -0.2529 -0.2277
 3546SOL    HW111096   0.171   4.115   2.518 -0.1349  0.7741 -0.7795
 3546SOL    HW211097   0.050   4.035   2.562  2.1395 -0.8706  2.9477
 3547SOL     OW11098   6.375   1.579   5.339  0.4933  0.0641  0.2359
 3547SOL    HW111099   6.324   1.610   5.414 -1.0529 -1.2034 -0.2133
 3547SOL    HW211100   6.458   1.550   5.376  2.0746  4.4412  0.6918
 3548SOL     OW11101   4.877   3.849   1.783  0.0353 -0.5068 -0.2301
 3548SOL    HW111102   4.810   3.807   1.836 -0.3335  0.6148  0.2254
 3548SOL    HW211103   4.866   3.810   1.696 -1.6354  0.0919 -0.3221
 3549SOL     OW11104   4.449   3.738   2.815  0.5003 -0.3818 -0.0594
 3549SOL    HW111105   4.508   3.772   2.883  0.7815  0.7466 -0.8279
 3549SOL    HW211106   4.389   3.811   2.798 -2.4617 -2.1113  2.0716
 3550SOL     OW11107   2.388   0.487   0.222  0.4931 -0.1219  0.2192
 3550SOL    HW111108   2.326   0.531   0.280  0.9409 -1.3961  1.7354
 3550SOL    HW211109   2.355   0.397   0.214  0.5817 -0.0556 -1.3355
 3551SOL     OW11110   4.531   0.107   0.120 -0.4837 -0.3570 -0.3473
 3551SOL    HW111111   4.494   0.143   0.040  1.4035  1.7407 -0.3525
 3551SOL    HW211112   4.465   0.125   0.187 -0.7738  0.6250 -0.8805
 3552SOL     OW11113   4.865   1.008   3.655 -0.2236  0.2843 -0.3010
 3552SOL    HW111114   4.818   0.935   3.613 -0.0381 -0.3457  0.5552
 3552SOL    HW211115   4.947   0.969   3.685  0.1305  0.9944 -0.3263
 3553SOL     OW11116   0.576   2.224   4.703  0.4705  0.2067  0.4292
 3553SOL    HW111117   0.561   2.274   4.623  0.4418 -0.5019 -0.0249
 3553SOL    HW211118   0.494   2.232   4.752  0.1856 -0.0205  0.0030
 3554SOL     OW11119   4.383   3.227   3.391 -0.4204  0.0058 -0.0389
 3554SOL    HW111120   4.460   3.174   3.411 -0.1746  0.5250  0.4267
 3554SOL    HW211121   4.316   3.196   3.451  0.1973  1.2869  1.3889
 3555SOL     OW11122   5.512   1.821   4.164 -0.1128  0.0222  0.0187
 3555SOL    HW111123   5.563   1.886   4.212  2.3336 -2.0591  0.4501
 3555SOL    HW211124   5.518   1.850   4.073  0.8131  0.5124  0.2166
 3556SOL     OW11125   4.017   5.169   2.750 -0.3225 -0.1238 -0.0001
 3556SOL    HW111126   3.990   5.231   2.682 -1.3068 -0.1765  0.3400
 3556SOL    HW211127   4.041   5.090   2.701  0.1488  0.2413 -0.3728
 3557SOL     OW11128   4.913   5.226   3.487  0.0892 -0.1300 -0.0711
 3557SOL    HW111129   4.915   5.319   3.465 -1.1824  0.2273  1.1906
 3557SOL    HW211130   4.964   5.220   3.568 -0.5927 -0.3835  0.3414
 3558SOL     OW11131   5.220   3.688   1.075 -0.6218 -0.2456  0.1076
 3558SOL    HW111132   5.246   3.658   1.162  3.0727  1.5211 -0.1795
 3558SOL    HW211133   5.273   3.636   1.015 -1.5740  0.0015 -0.9757
 3559SOL     OW11134   0.845   2.395   0.574  0.1029  0.3776  0.6144
 3559SOL    HW111135   0.885   2.414   0.489  0.8976 -0.5659  0.7661
 3559SOL    HW211136   0.911   2.345   0.622 -0.7709 -0.1064  1.3536
 3560SOL     OW11137   1.365   3.415   0.131  0.4019  0.6708  0.1307
 3560SOL    HW111138   1.299   3.485   0.137 -0.4711 -0.2276  4.1651
 3560SOL    HW211139   1.318   3.340   0.095 -0.5663  0.3995  1.8369
 3561SOL     OW11140   4.562   1.313   0.536  0.6554 -0.2711 -0.5259
 3561SOL    HW111141   4.528   1.379   0.475  0.6412  0.3250  0.1219
 3561SOL    HW211142   4.484   1.276   0.577  0.7317  0.4685  0.3071
 3562SOL     OW11143   0.148   4.810   3.764  0.4709  0.0364 -0.5178
 3562SOL    HW111144   0.090   4.757   3.711 -1.4177  1.6327 -0.1812
 3562SOL    HW211145   0.224   4.828   3.708 -0.5574  0.0366 -1.9476
 3563SOL     OW11146   1.112   4.048   3.038 -0.1435  0.1358  0.1547
 3563SOL    HW111147   1.119   3.954   3.054 -0.7169  0.2469  1.0855
 3563SOL    HW211148   1.020   4.068   3.052  0.2590  1.1157  1.5390
 3564SOL     OW11149   0.295   3.039   2.288 -0.1170  0.6737  0.3176
 3564SOL    HW111150   0.363   3.059   2.353  0.3525  0.8762 -0.2322
 3564SOL    HW211151   0.214   3.067   2.330  0.2236  1.1325  0.6817
 3565SOL     OW11152   1.166   2.822   0.203 -0.2659  0.0370  0.0843
 3565SOL    HW111153   1.171   2.771   0.122 -1.0548  0.1274 -0.0348
 3565SOL    HW211154   1.129   2.906   0.175 -1.5323 -0.2986  0.6933
 3566SOL     OW11155   1.023   5.044   3.061 -0.0230 -0.8530 -0.2923
 3566SOL    HW111156   0.938   5.089   3.066  0.4119 -0.1606  1.6591
 3566SOL    HW211157   1.000   4.952   3.053 -0.9564 -0.6097 -0.5898
 3567SOL     OW11158   5.082   5.723   5.870  0.3278  0.3867 -0.3800
 3567SOL    HW111159   5.027   5.650   5.898 -0.1364  1.3464  1.3820
 3567SOL    HW211160   5.063   5.734   5.777 -0.2229 -1.1834 -0.4682
 3568SOL     OW11161   5.240   6.147   4.049  0.1993  0.2037 -0.2118
 3568SOL    HW111162   5.262   6.170   4.140 -0.3170  2.3298 -0.5749
 3568SOL    HW211163   5.206   6.228   4.012 -1.3390 -1.1122 -1.7873
 3569SOL     OW11164   6.211   2.419   1.179 -1.1447 -0.0446  0.1705
 3569SOL    HW111165   6.216   2.328   1.208 -0.0677 -0.3568 -0.9017
 3569SOL    HW211166   6.118   2.441   1.184 -1.6807 -1.7590 -1.1643
 3570SOL     OW11167   4.454   3.483   3.136  0.5699 -0.5857 -0.0950
 3570SOL    HW111168   4.513   3.558   3.145 -0.7287  0.7960 -2.1188
 3570SOL    HW211169   4.399   3.486   3.214  2.4520 -1.3046  1.3230
 3571SOL     OW11170   3.548   5.442   1.914 -0.5677  0.2029  0.1841
 3571SOL    HW111171   3.507   5.383   1.977 -1.4872 -0.2688 -0.8283
 3571SOL    HW211172   3.494   5.434   1.835  0.9599  0.2333 -0.9091
 3572SOL     OW11173   4.315   6.220   2.644 -0.3314  0.2842  0.0122
 3572SOL    HW111174   4.351   6.146   2.692  0.5382  0.5204 -0.2602
 3572SOL    HW211175   4.291   6.184   2.559  0.3783  0.3674 -0.2321
 3573SOL     OW11176   2.067   6.293   0.910 -0.5848 -0.1858 -0.7761
 3573SOL    HW111177   2.123   6.299   0.987 -0.8779 -0.8115 -0.5034
 3573SOL    HW211178   2.072   6.201   0.883 -1.3645 -0.2200 -0.8285
 3574SOL     OW11179   0.556   3.204   3.183 -0.0028  0.4417 -0.1144
 3574SOL    HW111180   0.598   3.118   3.186 -1.2802 -0.1832  2.1607
 3574SOL    HW211181   0.467   3.187   3.153 -0.0668  1.0627 -0.2870
 3575SOL     OW11182   5.127   4.576   5.740 -0.3054  0.8497 -0.0232
 3575SOL    HW111183   5.202   4.565   5.799  0.8619  0.6491 -1.4763
 3575SOL    HW211184   5.051   4.558   5.795  0.8080 -0.9501  1.0481
 3576SOL     OW11185   1.924   1.158   4.322  0.1421 -0.0378 -0.5059
 3576SOL    HW111186   1.852   1.172   4.383  0.9721  0.3761  0.3985
 3576SOL    HW211187   1.923   1.063   4.305  0.0960 -0.2084  0.4007
 3577SOL     OW11188   5.652   2.601   0.020 -0.5818 -0.0398  0.3204
 3577SOL    HW111189   5.703   2.611  -0.060  0.0890  1.1787  0.8820
 3577SOL    HW211190   5.636   2.507   0.026  0.7867 -0.3364 -0.3661
 3578SOL     OW11191   3.376   1.016   4.646 -0.8347  0.3862  0.2460
 3578SOL    HW111192   3.443   1.076   4.613 -0.5671 -0.4247 -0.7435
 3578SOL    HW211193   3.301   1.029   4.588 -0.7194 -0.3346 -0.0720
 3579SOL     OW11194   5.034   3.787   1.528  0.3489  0.0813 -0.1954
 3579SOL    HW111195   5.090   3.715   1.556  0.2311 -0.4453 -1.2818
 3579SOL    HW211196   5.039   3.786   1.433 -1.1906  0.2928 -0.2976
 3580SOL     OW11197   1.206   4.450   2.660 -0.0022  0.0477  0.7315
 3580SOL    HW111198   1.275   4.505   2.623 -0.5308 -0.0849 -0.4978
 3580SOL    HW211199   1.253   4.377   2.700  0.5936  0.1804  0.2972
 3581SOL     OW11200   2.639   4.835   2.614  0.1009  0.3784  0.2897
 3581SOL    HW111201   2.686   4.755   2.638 -0.5868  0.2385  1.2418
 3581SOL    HW211202   2.707   4.900   2.598  0.6439 -0.1682  0.3631
 3582SOL     OW11203   5.513   4.100   6.010 -0.0331 -0.0140  0.3729
 3582SOL    HW111204   5.555   4.162   5.949  0.5891  1.2874  2.0601
 3582SOL    HW211205   5.421   4.100   5.983 -0.0400  1.6174  0.2626
 3583SOL     OW11206   1.998   1.846   2.077 -0.2335 -0.3904  0.4917
 3583SOL    HW111207   2.023   1.876   1.990  2.3380 -2.5249  0.3701
 3583SOL    HW211208   1.986   1.751   2.067 -0.2043 -0.6420  2.4060
 3584SOL     OW11209   3.618   6.152   2.816  0.1595 -0.4857  0.0954
 3584SOL    HW111210   3.625   6.245   2.794  0.3817  0.4068  3.4274
 3584SOL    HW211211   3.532   6.126   2.781 -0.3519  1.2370 -0.0320
 3585SOL     OW11212   0.211   1.948   0.058  0.5864  0.0059  0.0559
 3585SOL    HW111213   0.186   2.002  -0.017  0.7253  0.5828  0.4204
 3585SOL    HW211214   0.141   1.882   0.065 -0.9936  1.7110  1.1779
 3586SOL     OW11215   3.478   2.607   0.614  0.0598  0.1344 -0.4792
 3586SOL    HW111216   3.463   2.523   0.657 -0.4373 -0.3447 -1.5367
 3586SOL    HW211217   3.508   2.584   0.526 -0.4394  1.0453 -0.9061
 3587SOL     OW11218   5.361   1.314   2.852  0.0293  0.2089 -0.2642
 3587SOL    HW111219   5.351   1.237   2.797 -2.1141  0.2311 -0.0176
 3587SOL    HW211220   5.453   1.339   2.844  1.0837 -2.9771  0.5065
 3588SOL     OW11221   6.172   4.200   1.911 -0.0174  0.1986  0.6833
 3588SOL    HW111222   6.134   4.119   1.877 -0.7987  1.7263 -2.4893
 3588SOL    HW211223   6.110   4.269   1.885  1.4594  2.0106  1.6714
 3589SOL     OW11224   3.708   5.470   4.899 -0.3836 -0.7181  0.6888
 3589SOL    HW111225   3.638   5.535   4.893 -0.2102 -0.6086 -0.1745
 3589SOL    HW211226   3.782   5.509   4.854 -0.2195 -1.4356  0.3203
 3590SOL     OW11227   4.292   3.084   1.998 -0.2031  0.3331  0.4151
 3590SOL    HW111228   4.257   3.141   1.929 -1.0137  2.7743  2.6507
 3590SOL    HW211229   4.218   3.031   2.026 -0.4114  0.7695  0.7074
 3591SOL     OW11230   3.071   1.340   0.645  0.3200  0.1076  0.0233
 3591SOL    HW111231   3.153   1.389   0.636  0.7342 -0.4221  0.7983
 3591SOL    HW211232   3.003   1.407   0.652  0.7877  0.5653  0.2382
 3592SOL     OW11233   1.665   1.072   5.267  0.3284 -0.0612 -0.3011
 3592SOL    HW111234   1.714   0.989   5.267  1.9007  0.7778  1.9674
 3592SOL    HW211235   1.620   1.073   5.351 -2.8565 -0.2743 -1.8515
 3593SOL     OW11236   1.421   5.558   4.834  0.1043  0.2127 -0.4098
 3593SOL    HW111237   1.458   5.646   4.832  1.5527 -0.3690 -0.3172
 3593SOL    HW211238   1.366   5.554   4.756  1.2540  0.7130 -1.2875
 3594SOL     OW11239   1.365   2.786   5.845 -0.3180  0.3852  0.2581
 3594SOL    HW111240   1.353   2.692   5.827  1.0439  0.6025 -2.2419
 3594SOL    HW211241   1.415   2.788   5.927  0.6469 -1.1582 -0.2321
 3595SOL     OW11242   2.166   1.280   0.840  0.5862 -0.2525  0.0744
 3595SOL    HW111243   2.252   1.321   0.856 -0.3290  1.3351  1.2295
 3595SOL    HW211244   2.153   1.221   0.913  0.1674  0.4621  0.5891
 3596SOL     OW11245   6.119   1.753   1.683 -0.0515  0.2949  0.4301
 3596SOL    HW111246   6.208   1.786   1.670 -0.5337  2.8012  2.6155
 3596SOL    HW211247   6.089   1.796   1.763 -2.8097 -1.4477  0.4596
 3597SOL     OW11248   6.068   3.208   1.631  0.7166  0.3865 -0.1806
 3597SOL    HW111249   6.039   3.191   1.541  1.5373 -0.1388 -0.3496
 3597SOL    HW211250   6.000   3.168   1.686  2.9045 -4.4692 -0.5250
 3598SOL     OW11251   1.315   1.587   2.798 -0.0920  0.1808  0.1975
 3598SOL    HW111252   1.232   1.542   2.814  0.5402 -0.4918  1.7366
 3598SOL    HW211253   1.324   1.649   2.870  1.2911 -0.6126  0.7648
 3599SOL     OW11254   1.014   0.877   0.191  0.0134  0.4068 -0.5030
 3599SOL    HW111255   1.100   0.836   0.196  0.2604  0.5794 -2.5611
 3599SOL    HW211256   1.023   0.945   0.125 -2.2158 -1.0764 -2.5585
 3600SOL     OW11257   1.198   4.642   1.015 -0.4853 -0.1690 -0.3134
 3600SOL    HW111258   1.114   4.660   1.057 -1.0982 -0.2347 -1.4724
 3600SOL    HW211259   1.263   4.655   1.085 -1.4172  0.2278  0.5079
 3601SOL     OW11260   2.514   5.552   1.882  0.6249 -0.1050 -0.2109
 3601SOL    HW111261   2.501   5.464   1.846 -0.5858 -0.2405  0.5402
 3601SOL    HW211262   2.478   5.611   1.816  0.0540 -0.2624 -0.0464
 3602SOL     OW11263   5.016   1.409   4.934  0.1647 -0.0630 -0.3657
 3602SOL    HW111264   5.078   1.461   4.984  0.1789  0.5876 -1.0423
 3602SOL    HW211265   4.931   1.450   4.951 -0.1737 -1.1902  0.8798
 3603SOL     OW11266   0.124   2.700   5.452  0.4860 -0.2806 -0.7364
 3603SOL    HW111267   0.146   2.792   5.436  1.1226 -0.6295 -2.0208
 3603SOL    HW211268   0.132   2.690   5.547  1.8396  0.6429 -0.7142
 3604SOL     OW11269   5.594   2.920   0.463 -0.0007  0.6594  0.1187
 3604SOL    HW111270   5.501   2.907   0.480  0.2952  1.0224  2.3063
 3604SOL    HW211271   5.614   2.859   0.392 -1.6714 -0.2691  0.3900
 3605SOL     OW11272   3.841   5.261   5.006  0.3510  0.3461 -0.5419
 3605SOL    HW111273   3.778   5.315   4.959 -2.3851 -0.9635  1.3972
 3605SOL    HW211274   3.806   5.172   5.000  1.3577 -0.2550  1.6031
 3606SOL     OW11275   0.501   0.399   2.570  0.0036  0.3441  0.3041
 3606SOL    HW111276   0.560   0.380   2.643 -1.4266 -0.5931  1.2706
 3606SOL    HW211277   0.413   0.393   2.608 -0.7506  0.8112 -1.2860
 3607SOL     OW11278   3.826   5.609   3.593  0.2126  0.5826  0.3129
 3607SOL    HW111279   3.897   5.594   3.531  1.1369  1.7304  1.0643
 3607SOL    HW211280   3.818   5.704   3.599 -0.0992  0.4932  1.6753
 3608SOL     OW11281   2.866   5.081   1.688 -0.5585  0.1237  0.0324
 3608SOL    HW111282   2.832   5.062   1.776 -1.6805  2.6153  0.2444
 3608SOL    HW211283   2.925   5.156   1.701  1.4093 -1.1710 -1.0148
 3609SOL     OW11284   0.712   4.612   2.095  0.7095  0.6716  1.0025
 3609SOL    HW111285   0.730   4.538   2.153 -0.0579  0.7887  1.4087
 3609SOL    HW211286   0.775   4.679   2.122  1.5092  0.1178  0.5268
 3610SOL     OW11287   1.765   1.829   1.264 -0.0157 -0.9299 -1.0031
 3610SOL    HW111288   1.809   1.775   1.330 -1.0623 -2.1277 -1.2465
 3610SOL    HW211289   1.796   1.794   1.180 -0.5317 -1.0119 -1.1609
 3611SOL     OW11290   3.828   3.961   1.560 -0.1576 -0.0597  0.0790
 3611SOL    HW111291   3.757   4.022   1.541 -0.3544 -0.7029 -1.4081
 3611SOL    HW211292   3.785   3.886   1.600  0.1151  0.8337  2.1394
 3612SOL     OW11293   1.882   1.662   4.345  0.0213 -0.3941  0.3699
 3612SOL    HW111294   1.952   1.678   4.409  0.5005  1.0535 -0.4810
 3612SOL    HW211295   1.920   1.601   4.282  0.3336 -0.0133  0.1919
 3613SOL     OW11296   1.420   6.098   4.685  0.0908 -0.0607  0.1023
 3613SOL    HW111297   1.514   6.094   4.703 -0.0918 -0.9721  0.9087
 3613SOL    HW211298   1.378   6.089   4.770 -0.7361  1.6610 -0.0757
 3614SOL     OW11299   5.211   0.852   2.715  0.3057 -0.0789  0.0599
 3614SOL    HW111300   5.245   0.938   2.691  0.0777 -0.0770 -0.2621
 3614SOL    HW211301   5.124   0.870   2.751  0.0527 -0.2136 -0.4660
 3615SOL     OW11302   0.134   2.784   6.261 -0.0510 -0.2196  0.3668
 3615SOL    HW111303   0.042   2.765   6.275  0.4454 -2.0619  1.4303
 3615SOL    HW211304   0.162   2.828   6.341 -0.0116  0.4799 -0.0171
 3616SOL     OW11305   5.248   6.184   4.766  0.0571 -0.8708 -0.1787
 3616SOL    HW111306   5.233   6.137   4.684 -0.3960 -0.4905 -0.3187
 3616SOL    HW211307   5.267   6.115   4.830 -0.7946 -1.2680 -0.3388
 3617SOL     OW11308   4.395   1.137   3.939 -0.4040  0.2233 -0.0712
 3617SOL    HW111309   4.483   1.113   3.968  0.0826  1.5423 -0.3668
 3617SOL    HW211310   4.407   1.165   3.848 -1.3113 -0.5391 -0.4372
 3618SOL     OW11311   4.626   1.990   2.599  0.1351  0.3677  0.4215
 3618SOL    HW111312   4.583   1.919   2.552  0.2762 -0.5358  1.5844
 3618SOL    HW211313   4.618   1.965   2.692  1.2870  1.2413  0.7844
 3619SOL     OW11314   6.253   3.380   4.173 -0.0616  0.4024  0.2695
 3619SOL    HW111315   6.324   3.329   4.211  1.4589  2.2561  0.0823
 3619SOL    HW211316   6.225   3.330   4.096  1.6911  0.0566 -0.1906
 3620SOL     OW11317   3.928   0.153   1.213 -0.0926 -0.7116  0.2763
 3620SOL    HW111318   3.857   0.094   1.188 -0.6371  0.0821 -0.0888
 3620SOL    HW211319   3.928   0.150   1.309 -0.7833 -0.5464  0.2912
 3621SOL     OW11320   6.302   5.632   0.213 -0.3118  0.3613  0.0182
 3621SOL    HW111321   6.292   5.538   0.200 -0.2164  0.4133 -0.4316
 3621SOL    HW211322   6.219   5.659   0.252 -1.3093  0.4912 -2.0729
 3622SOL     OW11323   1.555   3.971   4.505  0.3570 -0.6931  0.0088
 3622SOL    HW111324   1.554   3.924   4.422 -0.9382  0.2111 -0.5306
 3622SOL    HW211325   1.557   4.064   4.480  0.9490 -0.4082  1.0130
 3623SOL     OW11326   5.170   0.601   2.335 -0.2408 -0.0410  0.0956
 3623SOL    HW111327   5.126   0.528   2.291 -0.4950 -0.4563  1.0231
 3623SOL    HW211328   5.101   0.665   2.352  0.0032  0.4932 -0.8309
 3624SOL     OW11329   0.132   0.275   4.986  0.3761  0.0197 -0.4649
 3624SOL    HW111330   0.084   0.310   5.061 -0.8274 -1.3386 -0.5561
 3624SOL    HW211331   0.214   0.242   5.023  0.9265  1.6584 -0.1766
 3625SOL     OW11332   3.786   5.258   3.771 -0.1003 -0.4944  0.3193
 3625SOL    HW111333   3.694   5.282   3.776 -0.1576 -0.5165 -0.4732
 3625SOL    HW211334   3.795   5.183   3.829 -0.0624  0.9796  2.3128
 3626SOL     OW11335   6.212   3.165   6.158 -0.0197  0.0540 -0.4189
 3626SOL    HW111336   6.172   3.181   6.244  1.5302 -0.6425  0.4695
 3626SOL    HW211337   6.138   3.147   6.100 -1.0608 -0.0658  0.9071
 3627SOL     OW11338   0.712   3.911   4.226  0.1476  0.3405 -0.1530
 3627SOL    HW111339   0.625   3.891   4.263 -0.2536 -0.4168 -1.4335
 3627SOL    HW211340   0.695   3.928   4.133  1.2800  0.9856 -0.2602
 3628SOL     OW11341   4.031   4.550   5.201  0.1931 -1.0388 -0.1178
 3628SOL    HW111342   4.049   4.466   5.159  0.1517 -0.6825 -0.8741
 3628SOL    HW211343   4.094   4.556   5.273  1.0458 -1.1621 -0.8337
 3629SOL     OW11344   0.578   3.885   5.197  0.0338  0.1043 -0.0281
 3629SOL    HW111345   0.612   3.832   5.125  0.5465 -0.9117  0.9494
 3629SOL    HW211346   0.484   3.866   5.198  0.5229 -2.8411  1.8906
 3630SOL     OW11347   1.869   3.014   3.018  0.0945  0.1112  0.4147
 3630SOL    HW111348   1.852   2.936   3.072  0.6467 -0.4434 -0.1881
 3630SOL    HW211349   1.894   3.082   3.081 -0.8472 -0.0588  0.9916
 3631SOL     OW11350   6.194   4.210   2.512  0.0757  0.1847  0.5034
 3631SOL    HW111351   6.285   4.191   2.538  0.9287  0.5910 -1.9253
 3631SOL    HW211352   6.183   4.165   2.428 -2.3704 -0.7253  1.2198
 3632SOL     OW11353   4.344   4.235   5.833 -0.1037 -0.2383 -0.4146
 3632SOL    HW111354   4.311   4.284   5.758 -1.3081 -2.6068 -1.5609
 3632SOL    HW211355   4.404   4.295   5.877  0.2772  1.4185 -2.9868
 3633SOL     OW11356   3.668   3.975   0.638  0.2736 -0.0473 -0.5407
 3633SOL    HW111357   3.674   3.891   0.591  0.4948  0.1844 -0.9341
 3633SOL    HW211358   3.734   4.030   0.595  1.5712 -0.2947  1.0334
 3634SOL     OW11359   5.034   3.072   5.688 -0.1851  0.1276 -0.4749
 3634SOL    HW111360   4.963   3.012   5.668  0.1943 -0.0944 -1.1857
 3634SOL    HW211361   5.020   3.096   5.779 -0.8799 -0.3048 -0.4610
 3635SOL     OW11362   2.440   3.291   5.799 -0.2193  0.1871  0.5201
 3635SOL    HW111363   2.448   3.229   5.727 -1.8325  0.6327 -0.0873
 3635SOL    HW211364   2.469   3.375   5.763  2.5412 -0.2304  1.5104
 3636SOL     OW11365   2.008   4.991   6.250 -0.1817  0.1396 -0.6968
 3636SOL    HW111366   1.929   5.024   6.208 -1.2896 -0.3847  0.8691
 3636SOL    HW211367   1.985   4.901   6.275  1.1196 -0.2138 -0.7001
 3637SOL     OW11368   3.858   1.683   5.618  0.0923  0.4459  0.6570
 3637SOL    HW111369   3.912   1.682   5.539  0.1610  0.4008  0.7041
 3637SOL    HW211370   3.889   1.608   5.669 -0.8950 -0.3640  0.1048
 3638SOL     OW11371   2.429   3.696   3.592 -0.1581 -0.1007 -0.1497
 3638SOL    HW111372   2.497   3.630   3.608 -1.1492 -1.2034 -0.3920
 3638SOL    HW211373   2.454   3.736   3.508  1.4383  1.1438  0.8457
 3639SOL     OW11374   3.728   1.286   4.312 -0.0150 -0.3379 -0.2116
 3639SOL    HW111375   3.791   1.240   4.367 -0.4348 -0.9691 -0.2522
 3639SOL    HW211376   3.771   1.369   4.290  0.1490 -0.0415  1.1177
 3640SOL     OW11377   3.852   0.404   5.040 -0.5294  0.0435 -0.2597
 3640SOL    HW111378   3.859   0.436   4.950 -2.1403 -2.9799 -1.6001
 3640SOL    HW211379   3.941   0.377   5.063  0.1003  1.7934 -0.4775
 3641SOL     OW11380   1.261   5.612   6.346  0.2933 -0.2516  0.4702
 3641SOL    HW111381   1.180   5.563   6.361  0.8419 -1.3407 -0.0235
 3641SOL    HW211382   1.324   5.546   6.318  1.1157  0.7206 -0.0209
 3642SOL     OW11383   1.776   2.407   6.144 -0.2923 -0.5724 -0.5550
 3642SOL    HW111384   1.829   2.329   6.155 -1.8090 -1.2876  3.0054
 3642SOL    HW211385   1.715   2.406   6.218 -0.3074  4.0485 -0.1722
 3643SOL     OW11386   4.896   4.110   5.787  0.2580  0.0001  0.3077
 3643SOL    HW111387   4.844   4.053   5.843  2.3259 -1.9211  0.4466
 3643SOL    HW211388   4.934   4.174   5.847  2.5622 -2.1157  1.3058
 3644SOL     OW11389   4.040   2.651   3.631 -0.3928 -0.0369  0.6530
 3644SOL    HW111390   3.950   2.632   3.607 -0.3312  0.9194 -0.4066
 3644SOL    HW211391   4.042   2.641   3.727 -1.6059 -0.0658  0.6892
 3645SOL     OW11392   4.617   1.668   6.122 -0.1230 -0.0897  0.3008
 3645SOL    HW111393   4.529   1.690   6.092  0.0797  2.1322  1.1463
 3645SOL    HW211394   4.656   1.752   6.146  1.7606 -1.1582  1.2125
 3646SOL     OW11395   0.695   2.992   3.107 -0.1779 -0.1610  0.5173
 3646SOL    HW111396   0.686   2.975   3.013 -1.5590  1.1591  0.3744
 3646SOL    HW211397   0.758   2.926   3.137 -1.2420 -1.9618 -0.9489
 3647SOL     OW11398   5.340   5.649   5.233 -0.4677 -0.2016 -0.2952
 3647SOL    HW111399   5.401   5.604   5.292 -0.1146 -0.9722 -1.2188
 3647SOL    HW211400   5.253   5.623   5.265 -0.3018 -2.9806 -1.7587
 3648SOL     OW11401   3.063   5.236   0.365  0.6679  0.0990 -0.2718
 3648SOL    HW111402   3.122   5.292   0.416  1.1546  0.4257 -1.1707
 3648SOL    HW211403   3.006   5.296   0.318 -1.2967 -0.2298  1.5838
 3649SOL     OW11404   4.114   2.492   4.747  0.3757 -0.1042  0.1498
 3649SOL    HW111405   4.122   2.467   4.655  0.5151 -2.6169  0.7808
 3649SOL    HW211406   4.041   2.554   4.748 -0.2592 -0.7492 -1.5549
 3650SOL     OW11407   0.892   2.585   3.658  0.4825 -0.4116  0.4380
 3650SOL    HW111408   0.804   2.585   3.622  0.6618  0.6423 -0.0247
 3650SOL    HW211409   0.883   2.621   3.746  0.3576 -0.9627  0.6554
 3651SOL     OW11410   5.866   4.371   4.816  0.3327 -0.0308  0.0670
 3651SOL    HW111411   5.854   4.382   4.910 -0.6042 -1.3878  0.1395
 3651SOL    HW211412   5.926   4.297   4.808  0.6110  0.2360 -0.4110
 3652SOL     OW11413   3.753   1.791   0.539  0.1398 -0.1173  0.0001
 3652SOL    HW111414   3.728   1.874   0.581 -0.1562  0.1741 -0.7249
 3652SOL    HW211415   3.809   1.818   0.466 -1.2660 -0.4091 -1.2397
 3653SOL     OW11416   2.543   5.922   1.854 -0.7623 -0.2816 -0.4594
 3653SOL    HW111417   2.532   5.932   1.948 -1.2791 -3.5176 -0.0761
 3653SOL    HW211418   2.604   5.992   1.829  0.0454  0.1465  2.4046
 3654SOL     OW11419   3.490   1.692   4.046 -0.1796  0.3997 -0.0595
 3654SOL    HW111420   3.476   1.787   4.051 -2.2789  0.0813  1.5758
 3654SOL    HW211421   3.497   1.665   4.137 -0.1034 -1.0859 -0.4883
 3655SOL     OW11422   1.342   2.842   3.702 -0.1094  0.2510  0.5381
 3655SOL    HW111423   1.427   2.870   3.667  0.6028 -1.0690  1.1455
 3655SOL    HW211424   1.354   2.750   3.723 -1.8594 -0.0824  0.1886
 3656SOL     OW11425   1.503   1.956   6.242  0.1419 -0.0678 -1.3404
 3656SOL    HW111426   1.578   1.896   6.252 -0.1837 -0.1727  1.2904
 3656SOL    HW211427   1.507   2.012   6.320 -1.9017  0.6500 -1.6906
 3657SOL     OW11428   3.093   5.797   5.123  0.4196 -0.1761  0.4884
 3657SOL    HW111429   3.185   5.788   5.148  1.3150  2.4292 -1.4328
 3657SOL    HW211430   3.083   5.735   5.050  0.8098 -0.1544  0.4108
 3658SOL     OW11431   4.306   1.492   4.702  0.1134 -0.4519 -0.7970
 3658SOL    HW111432   4.374   1.545   4.660  0.8355 -1.1959 -0.5918
 3658SOL    HW211433   4.313   1.515   4.795  0.5914 -1.0645 -0.6731
 3659SOL     OW11434   2.638   6.023   4.863 -0.1654 -0.5387 -0.5159
 3659SOL    HW111435   2.711   6.009   4.924  0.3453 -0.4368 -1.0924
 3659SOL    HW211436   2.578   6.080   4.911  1.1200  1.1281 -0.7802
 3660SOL     OW11437   6.234   2.721   2.049  0.3749  0.2299 -0.1507
 3660SOL    HW111438   6.142   2.734   2.026  0.1418 -0.6994  0.2393
 3660SOL    HW211439   6.277   2.708   1.964  0.3132  1.5631 -0.4089
 3661SOL     OW11440   0.498   4.408   2.786  0.0669  0.3096 -0.4357
 3661SOL    HW111441   0.537   4.351   2.852  0.2284  0.2345 -0.5947
 3661SOL    HW211442   0.555   4.398   2.710 -0.7770 -0.4802 -0.9732
 3662SOL     OW11443   3.751   2.422   4.739  0.0375 -0.1308 -0.2018
 3662SOL    HW111444   3.836   2.458   4.714 -0.0950  1.0068  0.8668
 3662SOL    HW211445   3.705   2.410   4.656  0.2317  1.9041 -0.6752
 3663SOL     OW11446   0.759   3.340   5.607  0.4049  0.4254  0.7713
 3663SOL    HW111447   0.711   3.265   5.572 -0.3683 -0.3193  3.2461
 3663SOL    HW211448   0.780   3.315   5.697  1.9801  2.3653  1.0029
 3664SOL     OW11449   4.210   5.469   0.498  0.1122  0.3904  0.0628
 3664SOL    HW111450   4.162   5.388   0.516 -1.5894  1.0107 -1.3195
 3664SOL    HW211451   4.214   5.474   0.402 -0.0678  2.0376  0.0978
 3665SOL     OW11452   3.776   2.151   4.453  0.3709 -0.6907 -0.2072
 3665SOL    HW111453   3.720   2.104   4.515  0.5559 -0.1994  0.3367
 3665SOL    HW211454   3.865   2.137   4.486  0.4773 -0.5013 -0.4138
 3666SOL     OW11455   1.134   3.816   0.567  0.3357 -0.2065 -0.1489
 3666SOL    HW111456   1.208   3.776   0.520  0.5762  0.5116 -0.3960
 3666SOL    HW211457   1.081   3.857   0.498 -0.1091 -0.4224  0.0623
 3667SOL     OW11458   4.185   2.016   1.443  0.3209  0.0834  0.5857
 3667SOL    HW111459   4.196   2.094   1.389 -0.9043  0.2743  0.5816
 3667SOL    HW211460   4.113   2.038   1.503 -0.4762 -1.2427  0.1617
 3668SOL     OW11461   4.128   2.484   6.354 -0.1808  0.1370 -0.2411
 3668SOL    HW111462   4.081   2.411   6.314 -0.2286  0.0020  0.0669
 3668SOL    HW211463   4.104   2.481   6.446  0.1226  0.3054 -0.1566
 3669SOL     OW11464   2.778   5.379   3.475 -0.0838 -0.4896  0.1552
 3669SOL    HW111465   2.845   5.379   3.407 -0.4351  1.8584 -0.2815
 3669SOL    HW211466   2.827   5.376   3.557  0.6626  1.5027 -0.1515
 3670SOL     OW11467   5.079   5.302   4.070 -0.1114  0.3390  0.2320
 3670SOL    HW111468   5.078   5.392   4.102 -0.7217  0.4867 -0.1674
 3670SOL    HW211469   5.169   5.272   4.082  0.2338  1.1920 -0.1398
 3671SOL     OW11470   1.427   3.450   0.553  0.1254  0.2929  0.5219
 3671SOL    HW111471   1.339   3.464   0.516 -0.2277  0.9499  1.5745
 3671SOL    HW211472   1.469   3.535   0.549  0.9668 -0.1545 -0.5527
 3672SOL     OW11473   4.352   2.757   2.013 -0.0736  0.1946 -0.6117
 3672SOL    HW111474   4.427   2.784   2.066  1.5002 -2.3563 -1.3993
 3672SOL    HW211475   4.286   2.824   2.030  1.9100  1.8498  1.1053
 3673SOL     OW11476   3.312   2.667   4.748  0.1317 -0.3239  1.0718
 3673SOL    HW111477   3.369   2.615   4.691 -0.5193 -0.2621  0.3394
 3673SOL    HW211478   3.371   2.708   4.811  1.2977  1.9165 -1.3058
 3674SOL     OW11479   3.060   0.610   0.641  0.0106  0.3775  0.2424
 3674SOL    HW111480   2.983   0.581   0.592 -0.1942 -0.9252  1.2923
 3674SOL    HW211481   3.134   0.567   0.599 -0.0575  0.0362  0.4712
 3675SOL     OW11482   0.272   0.426   3.531  0.7895  0.1282 -0.2322
 3675SOL    HW111483   0.367   0.423   3.524  0.8686 -0.3183  0.8710
 3675SOL    HW211484   0.241   0.426   3.441  1.7993 -0.8414 -0.5983
 3676SOL     OW11485   4.676   4.349   2.645  0.2042  0.2652 -0.4099
 3676SOL    HW111486   4.592   4.316   2.611 -0.4282  2.1747 -0.8012
 3676SOL    HW211487   4.670   4.335   2.740 -0.9024  1.0482 -0.3395
 3677SOL     OW11488   0.299   0.990   5.937 -0.3895 -0.4409 -0.2360
 3677SOL    HW111489   0.309   0.996   6.032 -2.5302 -1.9077  0.1612
 3677SOL    HW211490   0.245   1.066   5.914  1.3356  0.7441 -0.5602
 3678SOL     OW11491   5.344   2.168   1.175 -0.3466 -0.7969 -0.8433
 3678SOL    HW111492   5.426   2.215   1.162 -1.1106  0.3918 -1.4896
 3678SOL    HW211493   5.310   2.201   1.258 -0.8188 -0.2794 -1.2331
 3679SOL     OW11494   5.188   2.153   2.535  0.1560  0.3536 -0.2485
 3679SOL    HW111495   5.278   2.172   2.564  0.2342 -1.6918  1.0917
 3679SOL    HW211496   5.177   2.204   2.455  2.5197  0.6857 -0.4336
 3680SOL     OW11497   5.998   2.148   0.705 -0.1224 -0.5076 -0.2191
 3680SOL    HW111498   5.990   2.101   0.788  0.3238 -0.5664 -0.2062
 3680SOL    HW211499   5.938   2.103   0.646 -0.5957 -0.3378  0.1275
 3681SOL     OW11500   1.828   0.910   2.710  0.2850 -0.2243 -0.0500
 3681SOL    HW111501   1.852   0.907   2.617 -1.7337 -0.5543 -0.6110
 3681SOL    HW211502   1.817   0.818   2.734  1.8294 -0.2023  0.8414
 3682SOL     OW11503   5.247   3.886   6.192 -0.4968  0.3217  0.8501
 3682SOL    HW111504   5.334   3.916   6.166 -1.5932  0.1547 -3.8207
 3682SOL    HW211505   5.264   3.815   6.255  2.6142  1.2642  1.2238
 3683SOL     OW11506   5.105   0.931   2.426 -0.0504 -0.0996 -0.4463
 3683SOL    HW111507   5.028   0.874   2.431  0.4747 -0.8598 -0.8343
 3683SOL    HW211508   5.077   1.013   2.467 -0.1804 -1.3234  2.1193
 3684SOL     OW11509   6.356   5.070   0.461  0.0857  0.0567  0.3993
 3684SOL    HW111510   6.380   5.162   0.449  2.3348 -0.4804  0.4076
 3684SOL    HW211511   6.403   5.024   0.392 -0.8251 -1.1362  0.5528
 3685SOL     OW11512   1.003   1.653   1.085  0.4327 -0.1963  0.0352
 3685SOL    HW111513   1.058   1.576   1.101 -0.4690 -0.6980  0.8076
 3685SOL    HW211514   1.045   1.723   1.134  1.1148 -0.2429 -0.4616
 3686SOL     OW11515   6.039   1.845   1.426 -0.6329  0.6677  0.3433
 3686SOL    HW111516   5.948   1.829   1.403 -0.2279 -0.7779 -0.4318
 3686SOL    HW211517   6.049   1.806   1.513 -0.3801 -0.7250 -0.2794
 3687SOL     OW11518   0.869   2.042   4.729  0.0899 -0.4443  0.3344
 3687SOL    HW111519   0.804   1.977   4.702  0.3997 -0.3394 -0.7365
 3687SOL    HW211520   0.818   2.117   4.757 -0.2841 -1.2517  1.9377
 3688SOL     OW11521   1.690   6.037   3.504 -0.6229  0.1020  0.3750
 3688SOL    HW111522   1.645   5.975   3.561  0.2390 -1.7631 -0.8690
 3688SOL    HW211523   1.730   6.100   3.564 -1.7809 -0.3450  1.6688
 3689SOL     OW11524   0.582   0.904   2.608 -0.0350 -0.0042 -0.1533
 3689SOL    HW111525   0.489   0.925   2.622 -0.1022 -0.0844 -0.4581
 3689SOL    HW211526   0.586   0.809   2.616 -0.0449 -0.0346 -0.4940
 3690SOL     OW11527   1.665   4.496   5.025 -0.0306 -0.3793 -0.2852
 3690SOL    HW111528   1.654   4.576   4.973 -0.2120 -0.1910  0.0378
 3690SOL    HW211529   1.665   4.425   4.960 -1.8626 -0.2959 -0.4416
 3691SOL     OW11530   5.530   2.145   1.905  0.3231  0.0649 -0.1946
 3691SOL    HW111531   5.577   2.172   1.826 -1.3656  1.8472 -0.6685
 3691SOL    HW211532   5.573   2.194   1.976 -1.4666  2.7345 -0.7944
 3692SOL     OW11533   4.048   5.838   1.343  0.0583  0.0336 -0.3363
 3692SOL    HW111534   4.026   5.901   1.274 -1.4585  1.5434  1.4116
 3692SOL    HW211535   4.130   5.798   1.313 -0.5276  0.5820 -2.9904
 3693SOL     OW11536   1.983   4.927   0.214 -0.4081 -1.1490 -0.1600
 3693SOL    HW111537   1.930   5.006   0.204 -0.8661 -1.1129  1.9590
 3693SOL    HW211538   1.961   4.872   0.139 -0.2250  0.6252 -1.5669
 3694SOL     OW11539   1.549   5.466   6.330 -0.1760  0.4265 -0.1960
 3694SOL    HW111540   1.616   5.423   6.382  1.3989  1.2958 -1.3952
 3694SOL    HW211541   1.496   5.395   6.295  0.7505 -0.3727 -0.0194
 3695SOL     OW11542   2.021   1.795   5.940  0.7221  0.4531 -0.2565
 3695SOL    HW111543   2.061   1.864   5.992  0.3844 -1.3889  2.6383
 3695SOL    HW211544   1.928   1.818   5.936  0.7151  0.4932  0.1440
 3696SOL     OW11545   5.935   4.418   0.086  0.4493  0.2531 -0.0915
 3696SOL    HW111546   5.893   4.347   0.135  1.7216  0.0011  0.6829
 3696SOL    HW211547   5.920   4.496   0.138 -1.4412  0.7172 -1.2235
 3697SOL     OW11548   5.259   1.654   2.111  0.2430  0.2670  0.1990
 3697SOL    HW111549   5.285   1.680   2.199  0.6485  1.4878 -0.2661
 3697SOL    HW211550   5.169   1.687   2.102  0.3988  0.6239 -0.0408
 3698SOL     OW11551   0.434   4.803   2.559 -0.8167 -0.3682 -0.9545
 3698SOL    HW111552   0.394   4.759   2.484 -0.2665  0.1794 -1.5878
 3698SOL    HW211553   0.505   4.745   2.586 -1.7287 -1.1291 -0.1029
 3699SOL     OW11554   3.993   4.886   5.380  0.4620 -0.1004 -0.0673
 3699SOL    HW111555   3.984   4.803   5.427 -0.0940 -0.2596 -0.4496
 3699SOL    HW211556   4.039   4.943   5.442  0.0820 -0.4251  0.5280
 3700SOL     OW11557   5.587   1.688   4.559 -0.8696  0.1611  0.3351
 3700SOL    HW111558   5.610   1.596   4.575 -2.4923 -0.2760  0.3286
 3700SOL    HW211559   5.511   1.684   4.501 -0.3604  1.5491 -0.4867
 3701SOL     OW11560   2.669   5.981   2.788 -0.4763  0.0530  0.1396
 3701SOL    HW111561   2.598   6.045   2.778 -1.7257 -1.5057 -1.5885
 3701SOL    HW211562   2.735   6.008   2.725 -0.7823 -0.0506 -0.2306
 3702SOL     OW11563   2.910   4.267   1.021 -0.8436 -0.1274  0.4774
 3702SOL    HW111564   2.971   4.196   1.042  0.6736  0.8294 -0.5663
 3702SOL    HW211565   2.829   4.221   0.996 -0.0940 -1.4641  0.3976
 3703SOL     OW11566   1.686   0.585   3.693 -0.6233 -0.2133 -0.3222
 3703SOL    HW111567   1.624   0.598   3.621 -0.9651  0.1049  0.0242
 3703SOL    HW211568   1.700   0.490   3.695 -0.8839 -0.2623 -0.5823
 3704SOL     OW11569   5.205   5.357   0.703 -0.1419 -0.7540 -0.2888
 3704SOL    HW111570   5.195   5.342   0.797  0.0008 -2.0591 -0.4537
 3704SOL    HW211571   5.294   5.326   0.683  0.5697  1.2885 -0.5470
 3705SOL     OW11572   5.158   2.248   3.253  0.6812 -0.3571  0.5595
 3705SOL    HW111573   5.251   2.243   3.272  0.9520  1.0733 -0.2252
 3705SOL    HW211574   5.115   2.221   3.335  1.8049  1.1813  1.7233
 3706SOL     OW11575   1.705   0.817   1.553 -0.1665 -0.0510  0.2365
 3706SOL    HW111576   1.665   0.792   1.636  0.1137 -1.1963  0.0315
 3706SOL    HW211577   1.799   0.810   1.568  0.1134  3.5184  1.0098
 3707SOL     OW11578   1.296   4.497   0.211 -0.0975  0.3845  0.5338
 3707SOL    HW111579   1.208   4.475   0.240  0.2085  0.5889  1.6680
 3707SOL    HW211580   1.352   4.431   0.252  0.3200  0.4924  0.1475
 3708SOL     OW11581   2.682   2.943   3.062 -0.7251 -0.2158 -0.0769
 3708SOL    HW111582   2.739   3.017   3.083 -0.0887 -1.2491  2.1099
 3708SOL    HW211583   2.596   2.969   3.097 -1.0173  0.2681 -1.0935
 3709SOL     OW11584   3.616   5.774   6.069 -0.0786 -0.3460 -0.5577
 3709SOL    HW111585   3.683   5.706   6.061  0.0781 -0.0309 -2.3727
 3709SOL    HW211586   3.665   5.856   6.078 -0.2608 -0.3379  0.5034
 3710SOL     OW11587   1.243   6.018   4.130  0.1410 -0.2525  0.3700
 3710SOL    HW111588   1.252   5.923   4.120  1.0523 -0.2712  1.2917
 3710SOL    HW211589   1.274   6.036   4.218 -1.0512  0.7829  0.6080
 3711SOL     OW11590   5.172   2.922   6.060  0.5807 -0.1644 -0.4576
 3711SOL    HW111591   5.123   2.848   6.024 -1.1905  1.1791 -0.8913
 3711SOL    HW211592   5.172   2.988   5.991  1.3590  0.6145  0.2504
 3712SOL     OW11593   4.594   1.117   5.210 -0.2747  0.2866 -0.4139
 3712SOL    HW111594   4.559   1.119   5.300 -1.9316  0.2211 -1.0138
 3712SOL    HW211595   4.532   1.170   5.160  0.6118  0.2890 -1.5377
 3713SOL     OW11596   0.266   3.925   1.575 -0.2525 -0.2200 -0.3812
 3713SOL    HW111597   0.298   3.835   1.583  2.7840  0.8466  1.6619
 3713SOL    HW211598   0.286   3.950   1.485 -0.4716 -1.3746 -0.7591
 3714SOL     OW11599   4.288   2.970   0.028 -0.4281  0.5075 -0.8351
 3714SOL    HW111600   4.289   2.881  -0.007 -1.1832 -0.3127  1.0533
 3714SOL    HW211601   4.216   3.014  -0.019 -0.2598  0.0280 -1.5518
 3715SOL     OW11602   6.096   0.529   3.895  0.1736 -0.0007 -0.6061
 3715SOL    HW111603   6.049   0.613   3.889 -0.8185 -0.4790  0.1166
 3715SOL    HW211604   6.172   0.548   3.951  0.9909  0.8294 -1.9523
 3716SOL     OW11605   3.474   5.295   5.618 -0.3230 -0.0727 -0.8394
 3716SOL    HW111606   3.390   5.339   5.630 -0.3128 -0.0477 -0.8591
 3716SOL    HW211607   3.467   5.253   5.532 -0.8775 -1.3345 -0.1985
 3717SOL     OW11608   0.956   0.752   3.476 -0.2349  0.5127  0.3176
 3717SOL    HW111609   0.933   0.809   3.402  2.4357  0.0215 -1.0331
 3717SOL    HW211610   1.019   0.803   3.527 -0.3371 -0.0104  0.9882
 3718SOL     OW11611   1.171   6.313   2.098 -0.0211 -0.1240  0.3983
 3718SOL    HW111612   1.156   6.407   2.109  0.2459 -0.1881  1.4239
 3718SOL    HW211613   1.160   6.297   2.004 -1.1755  0.7367  0.3712
 3719SOL     OW11614   4.554   0.817   3.787 -0.4765  0.1876  0.0796
 3719SOL    HW111615   4.619   0.818   3.716 -0.8861 -0.8151 -0.3369
 3719SOL    HW211616   4.576   0.893   3.841  1.4237 -0.4518  0.2960
 3720SOL     OW11617   1.588   3.029   1.808  0.4416 -0.2130 -0.5914
 3720SOL    HW111618   1.677   3.027   1.841  1.3801 -0.1011 -2.9682
 3720SOL    HW211619   1.594   3.072   1.723 -1.9765  0.3211 -0.5785
 3721SOL     OW11620   4.069   5.035   3.194  0.0696 -0.3375 -1.3938
 3721SOL    HW111621   4.002   5.054   3.129  0.8832  2.4934 -1.5514
 3721SOL    HW211622   4.148   5.015   3.144 -0.2203 -2.1467 -1.2046
 3722SOL     OW11623   4.832   5.087   5.254 -0.3475  0.0327 -0.1110
 3722SOL    HW111624   4.830   4.996   5.281 -0.4964 -0.4367 -1.6254
 3722SOL    HW211625   4.878   5.132   5.325 -0.9769 -1.0666  1.0267
 3723SOL     OW11626   2.160   3.961   3.275  0.0124 -0.4039  0.0363
 3723SOL    HW111627   2.244   3.928   3.244 -0.6275 -0.0232 -2.3242
 3723SOL    HW211628   2.117   3.886   3.315  1.3823 -0.6397  1.1113
 3724SOL     OW11629   3.300   0.357   4.701  0.6774  0.0857 -0.0048
 3724SOL    HW111630   3.337   0.433   4.656  0.4067  0.1972 -0.0370
 3724SOL    HW211631   3.366   0.335   4.768  0.2639  1.0291  0.7333
 3725SOL     OW11632   2.023   6.052   3.122 -0.0331 -0.4847  0.3595
 3725SOL    HW111633   2.082   5.981   3.099  1.3510  1.2248 -1.8277
 3725SOL    HW211634   1.945   6.037   3.069 -1.0131 -1.9137  2.1162
 3726SOL     OW11635   1.808   2.495   2.400  0.9663  0.0327 -0.0830
 3726SOL    HW111636   1.831   2.547   2.476 -1.1620 -0.4379  0.9514
 3726SOL    HW211637   1.875   2.426   2.396  0.2208 -0.9129  2.3750
 3727SOL     OW11638   6.169   4.038   4.502 -0.2868 -0.4918 -0.0520
 3727SOL    HW111639   6.146   4.086   4.582 -1.4431 -0.3236 -0.4693
 3727SOL    HW211640   6.265   4.035   4.503 -0.2583 -1.6476  2.0214
 3728SOL     OW11641   3.779   0.875   6.152 -0.5248  0.0260 -0.4493
 3728SOL    HW111642   3.824   0.793   6.133 -0.8204 -0.1199 -0.5215
 3728SOL    HW211643   3.846   0.943   6.141 -0.7177 -0.0234 -2.1837
 3729SOL     OW11644   6.339   5.137   1.419  0.4546  0.7193 -0.6495
 3729SOL    HW111645   6.309   5.088   1.496  1.3293 -0.3717 -0.9689
 3729SOL    HW211646   6.273   5.205   1.407  1.0209  1.8566  1.9166
 3730SOL     OW11647   6.284   5.593   2.355 -0.0157  0.0599  0.3642
 3730SOL    HW111648   6.208   5.599   2.298  1.6774  0.6498 -1.9599
 3730SOL    HW211649   6.359   5.611   2.298  1.8713 -0.2428  2.5917
 3731SOL     OW11650   6.220   0.549   0.833 -0.4780  0.1128  0.6924
 3731SOL    HW111651   6.201   0.599   0.913 -0.6239 -0.2926  0.9141
 3731SOL    HW211652   6.148   0.487   0.826 -1.4253  1.3225 -0.7462
 3732SOL     OW11653   2.822   4.602   5.894 -0.0614  0.0334  0.3877
 3732SOL    HW111654   2.744   4.547   5.906 -0.2115 -0.1611 -1.2513
 3732SOL    HW211655   2.849   4.585   5.804  0.4185  1.9993  0.1234
 3733SOL     OW11656   5.173   5.341   2.698 -0.2925 -0.1115 -0.3268
 3733SOL    HW111657   5.188   5.311   2.609  1.7066  0.4083 -0.2114
 3733SOL    HW211658   5.089   5.303   2.722 -0.1879 -1.4628 -1.9061
 3734SOL     OW11659   3.586   0.770   0.366 -0.2683  0.0644 -0.5327
 3734SOL    HW111660   3.653   0.790   0.432 -0.1723 -1.3051 -0.1936
 3734SOL    HW211661   3.585   0.675   0.361 -2.6182  0.0014 -0.0868
 3735SOL     OW11662   2.737   5.925   3.819  0.0790 -0.6075 -0.1130
 3735SOL    HW111663   2.808   5.983   3.846 -0.2810 -1.1789  2.3342
 3735SOL    HW211664   2.757   5.902   3.729  2.3284  0.2012  0.1208
 3736SOL     OW11665   0.432   4.217   0.483  0.6006 -0.4296 -0.3594
 3736SOL    HW111666   0.362   4.255   0.536 -0.1047 -0.3752 -1.3006
 3736SOL    HW211667   0.478   4.157   0.543  0.5582  0.4909  0.6149
 3737SOL     OW11668   0.956   5.865   2.367  0.2449  0.0232  0.4700
 3737SOL    HW111669   0.865   5.896   2.371  0.7594  1.6254  0.4542
 3737SOL    HW211670   0.952   5.785   2.314 -1.0730  0.3394  0.0511
 3738SOL     OW11671   0.406   6.252   5.020 -0.4041  0.2997 -0.1583
 3738SOL    HW111672   0.396   6.226   4.928 -0.2654  0.1151 -0.1240
 3738SOL    HW211673   0.479   6.314   5.020 -0.2206  0.0852 -0.1365
 3739SOL     OW11674   0.000   0.173   4.779 -0.4311 -0.4932 -0.1922
 3739SOL    HW111675   0.035   0.216   4.857 -2.0112 -1.6420  1.2135
 3739SOL    HW211676   0.027   0.081   4.788 -1.5551 -0.8579 -0.4086
 3740SOL     OW11677   0.949   4.402   0.841 -0.4802  0.3516  0.1293
 3740SOL    HW111678   1.012   4.375   0.908  0.1135  1.3594 -0.0088
 3740SOL    HW211679   0.905   4.321   0.816  0.9325 -0.4208  0.0528
 3741SOL     OW11680   3.442   2.471   2.243 -0.8064  0.6908 -0.8226
 3741SOL    HW111681   3.396   2.523   2.309 -0.7655  2.3007 -2.0117
 3741SOL    HW211682   3.535   2.482   2.264 -0.7600  1.7701 -1.5214
 3742SOL     OW11683   3.086   2.548   3.661  0.5816 -0.3249 -0.0625
 3742SOL    HW111684   3.085   2.453   3.665 -2.4360 -0.3842  0.3684
 3742SOL    HW211685   2.998   2.572   3.630  2.0099  2.2770 -2.6204
 3743SOL     OW11686   1.437   1.707   1.668 -0.3720 -0.0805 -0.1120
 3743SOL    HW111687   1.510   1.710   1.730 -0.0521  0.0252 -0.4879
 3743SOL    HW211688   1.473   1.742   1.586 -0.2074 -2.0887 -0.9559
 3744SOL     OW11689   3.926   1.211   5.093  0.8746  0.3367 -0.1892
 3744SOL    HW111690   4.022   1.220   5.098  1.3023 -2.3096 -1.6045
 3744SOL    HW211691   3.906   1.140   5.154 -0.2759  1.2241  0.4839
 3745SOL     OW11692   4.169   6.035   5.342  0.1201  0.3841 -0.1598
 3745SOL    HW111693   4.200   5.966   5.400  0.8337  0.6582 -0.2031
 3745SOL    HW211694   4.244   6.053   5.284 -0.5048  0.2612 -1.0261
 3746SOL     OW11695   0.118   2.823   3.970  0.0121  0.1092  0.1022
 3746SOL    HW111696   0.160   2.860   3.892 -0.0072 -1.1747 -0.5437
 3746SOL    HW211697   0.042   2.880   3.985  0.2366  0.6070 -0.5735
 3747SOL     OW11698   6.104   4.056   1.126 -0.4489  0.1065  0.1655
 3747SOL    HW111699   6.160   4.123   1.086  0.3191 -0.9348 -0.5688
 3747SOL    HW211700   6.036   4.039   1.061 -1.7358  1.4695  1.1160
 3748SOL     OW11701   0.852   3.919   5.292  0.2656 -0.2209 -0.4890
 3748SOL    HW111702   0.767   3.920   5.249 -1.4294 -0.3177  2.5406
 3748SOL    HW211703   0.905   3.981   5.242 -2.5462  2.1660 -0.7944
 3749SOL     OW11704   2.433   0.709   4.100  0.2910  0.6270  0.4368
 3749SOL    HW111705   2.393   0.765   4.166  1.5960  1.4633  0.5577
 3749SOL    HW211706   2.503   0.763   4.062  1.4742 -0.8466  0.4288
 3750SOL     OW11707   2.147   6.103   0.037 -0.0535  0.0561 -0.6650
 3750SOL    HW111708   2.154   6.022   0.088  1.1813 -0.0944 -1.0542
 3750SOL    HW211709   2.071   6.147   0.074  1.2999  0.3926  1.9473
 3751SOL     OW11710   3.063   6.346   3.994  0.2525 -0.3498 -0.1053
 3751SOL    HW111711   3.070   6.251   4.005  0.3470 -0.3743 -0.3656
 3751SOL    HW211712   2.995   6.372   4.056 -1.1607 -0.8462 -1.3746
 3752SOL     OW11713   3.748   0.779   3.871 -0.0081 -0.1573  0.4481
 3752SOL    HW111714   3.699   0.846   3.919 -1.5824  0.0452 -1.3259
 3752SOL    HW211715   3.760   0.708   3.934 -1.1648  0.4595  1.4133
 3753SOL     OW11716   3.296   3.766   1.051  0.3769  0.2499  0.1999
 3753SOL    HW111717   3.254   3.783   1.135  1.2931 -1.9674  1.1828
 3753SOL    HW211718   3.314   3.672   1.052  0.3797  0.1626 -2.5214
 3754SOL     OW11719   2.283   1.883   1.615  0.2226 -0.2152  0.3643
 3754SOL    HW111720   2.289   1.799   1.570 -0.8960 -0.3540  0.4481
 3754SOL    HW211721   2.190   1.907   1.610  0.5982  1.2493 -0.0832
 3755SOL     OW11722   1.323   2.638   1.261  0.1146  0.0686  0.2460
 3755SOL    HW111723   1.273   2.649   1.180 -0.3296 -1.7211  0.2378
 3755SOL    HW211724   1.309   2.719   1.309 -1.1222  0.4210 -0.6603
 3756SOL     OW11725   5.686   5.248   2.499  0.5905  0.4491 -0.9637
 3756SOL    HW111726   5.609   5.253   2.442  0.1794  3.1705 -0.2989
 3756SOL    HW211727   5.750   5.304   2.456  1.2785  0.3006 -0.1493
 3757SOL     OW11728   4.304   3.485   3.791 -0.1080 -0.1907 -0.2241
 3757SOL    HW111729   4.314   3.471   3.885 -0.5676  0.1370 -0.1253
 3757SOL    HW211730   4.376   3.434   3.752 -0.2397 -0.7753  0.2700
 3758SOL     OW11731   1.951   5.141   4.328 -0.1011 -0.1228  0.2571
 3758SOL    HW111732   1.957   5.219   4.271 -0.1247 -1.0582 -1.0746
 3758SOL    HW211733   1.913   5.074   4.272 -1.4469 -0.7208  1.8157
 3759SOL     OW11734   4.380   4.056   4.412 -0.2604  0.0371  0.5064
 3759SOL    HW111735   4.379   3.976   4.359  0.4325 -0.4158  1.1488
 3759SOL    HW211736   4.471   4.064   4.441 -0.2313  1.3008  0.1029
 3760SOL     OW11737   1.413   4.593   2.581 -0.2639  0.1437  1.0918
 3760SOL    HW111738   1.343   4.650   2.547  0.2205  0.4390  0.5685
 3760SOL    HW211739   1.494   4.634   2.549  0.1361 -0.3131  1.5166
 3761SOL     OW11740   3.309   5.380   3.463 -0.1376  0.5055 -0.1037
 3761SOL    HW111741   3.362   5.343   3.393  2.6750 -0.3716  2.2484
 3761SOL    HW211742   3.271   5.303   3.506  0.3190  0.7911  0.8428
 3762SOL     OW11743   4.481   4.608   5.234  0.3179  0.2977 -0.2218
 3762SOL    HW111744   4.560   4.576   5.190  0.9087  0.7404  0.4860
 3762SOL    HW211745   4.426   4.530   5.245  1.6904 -0.5192  1.3949
 3763SOL     OW11746   4.369   4.825   2.349  0.2977  0.3762  0.0265
 3763SOL    HW111747   4.308   4.874   2.294 -0.7646  0.4096  1.1888
 3763SOL    HW211748   4.337   4.735   2.347 -0.3468  0.5555  1.3427
 3764SOL     OW11749   5.707   4.560   0.479 -0.0302  0.3899  0.1559
 3764SOL    HW111750   5.760   4.501   0.533  1.7951  0.7500 -1.1559
 3764SOL    HW211751   5.617   4.530   0.492  0.3892 -0.0209  2.7470
 3765SOL     OW11752   4.099   2.913   2.063 -0.4237 -0.2648  0.0308
 3765SOL    HW111753   4.089   2.818   2.062 -0.9330 -0.2267 -1.6842
 3765SOL    HW211754   4.032   2.943   2.125 -0.6679 -0.9815  0.1268
 3766SOL     OW11755   0.523   5.447   3.184  0.5308 -0.0890 -0.3300
 3766SOL    HW111756   0.429   5.428   3.196  0.4031  0.4368 -0.4859
 3766SOL    HW211757   0.539   5.524   3.239  0.1662  1.7430 -2.6234
 3767SOL     OW11758   6.218   2.917   0.110  0.0218  0.0071 -0.7454
 3767SOL    HW111759   6.240   2.839   0.058  1.4827  1.4182 -2.3885
 3767SOL    HW211760   6.129   2.939   0.083 -0.2791 -0.9116 -0.5143
 3768SOL     OW11761   5.043   5.080   1.203 -0.2576 -0.5738  0.4746
 3768SOL    HW111762   4.994   5.150   1.247  0.9308  0.6739 -0.1258
 3768SOL    HW211763   5.124   5.122   1.174  0.4955 -2.2134  0.0982
 3769SOL     OW11764   3.508   0.363   3.153  0.3560  0.1610 -0.3701
 3769SOL    HW111765   3.481   0.402   3.236  2.5528  0.1828  0.4092
 3769SOL    HW211766   3.574   0.423   3.118 -0.0536 -0.1824 -1.8175
 3770SOL     OW11767   4.029   3.501   0.951 -0.0756 -0.0955 -0.3019
 3770SOL    HW111768   4.060   3.435   0.889  0.4201  0.3281 -0.5148
 3770SOL    HW211769   3.998   3.573   0.896  2.3833  1.2255 -0.1106
 3771SOL     OW11770   0.916   1.657   3.746 -0.0388  0.0609 -0.3413
 3771SOL    HW111771   0.872   1.690   3.667  0.3882  1.8618  0.1144
 3771SOL    HW211772   1.008   1.652   3.722  0.0440  0.2814 -0.0781
 3772SOL     OW11773   3.385   4.211   3.249 -0.3670  0.0451  0.1100
 3772SOL    HW111774   3.396   4.123   3.212 -1.3612  0.0476 -0.2070
 3772SOL    HW211775   3.348   4.197   3.336 -0.4505  0.1488  0.0915
 3773SOL     OW11776   2.558   4.882   2.964  0.1781 -0.2718  0.5822
 3773SOL    HW111777   2.596   4.803   2.925 -0.2595 -0.4935  0.6016
 3773SOL    HW211778   2.481   4.851   3.011  0.6547 -0.0052  1.5714
 3774SOL     OW11779   1.301   4.234   3.085 -0.2740  0.2519 -0.9039
 3774SOL    HW111780   1.261   4.159   3.040  0.7395  0.0698 -1.5280
 3774SOL    HW211781   1.391   4.237   3.052 -0.1690  1.4837 -0.5533
 3775SOL     OW11782   3.944   5.778   1.005  0.5103  0.3638 -0.1901
 3775SOL    HW111783   4.038   5.778   1.022  0.3187  1.3395  0.9518
 3775SOL    HW211784   3.931   5.707   0.942  2.3744  1.8464 -2.4379
 3776SOL     OW11785   1.994   2.794   2.004 -0.4012  0.2388  0.2663
 3776SOL    HW111786   1.973   2.888   2.006  0.6032  0.4758  0.1930
 3776SOL    HW211787   1.983   2.765   2.095 -2.2668  0.0503  0.0188
 3777SOL     OW11788   3.528   2.604   0.316 -0.2815 -0.0231  0.0043
 3777SOL    HW111789   3.623   2.611   0.318 -0.1365 -1.3684 -1.1315
 3777SOL    HW211790   3.499   2.677   0.261  0.4443 -1.9432 -3.1617
 3778SOL     OW11791   1.954   0.229   6.319  0.2540 -0.4195  0.0667
 3778SOL    HW111792   2.037   0.265   6.287 -0.4363  0.0950 -1.2385
 3778SOL    HW211793   1.969   0.134   6.323  1.6049 -0.1916  2.0742
 3779SOL     OW11794   5.727   5.011   2.222  0.0094  0.6202  0.4446
 3779SOL    HW111795   5.667   4.938   2.236  1.7565 -0.8988  0.5216
 3779SOL    HW211796   5.756   5.001   2.132  1.8956 -0.1711  1.0696
 3780SOL     OW11797   5.078   2.689   5.964 -0.4220 -0.3595 -0.5364
 3780SOL    HW111798   5.031   2.630   6.023 -0.4475 -0.1307 -0.3271
 3780SOL    HW211799   5.113   2.631   5.896 -1.6803 -0.4337 -1.1509
 3781SOL     OW11800   5.851   0.447   1.514 -0.1110 -0.0017 -0.0197
 3781SOL    HW111801   5.940   0.479   1.533 -0.1479  1.0160 -1.4159
 3781SOL    HW211802   5.795   0.494   1.575  0.2426 -0.2894  0.5400
 3782SOL     OW11803   3.083   3.295   4.350  0.0770 -0.1726 -0.5252
 3782SOL    HW111804   3.076   3.206   4.386  0.6299 -0.3697 -0.8827
 3782SOL    HW211805   3.039   3.350   4.414  1.5068 -0.4435  0.7446
 3783SOL     OW11806   5.029   0.292   1.274  0.6765 -0.3657 -0.0830
 3783SOL    HW111807   4.973   0.355   1.320  1.3732  0.1116  0.1271
 3783SOL    HW211808   4.970   0.249   1.213  0.0613  0.0855  0.1741
 3784SOL     OW11809   5.044   0.848   4.535  0.5328 -0.0804  0.3942
 3784SOL    HW111810   4.985   0.822   4.464  0.9285 -0.1907  0.1063
 3784SOL    HW211811   5.022   0.940   4.551  0.9012  0.1455 -0.3311
 3785SOL     OW11812   0.834   2.702   0.097 -0.0354  0.1700  0.2559
 3785SOL    HW111813   0.795   2.733   0.179  0.4995 -1.8397  1.3128
 3785SOL    HW211814   0.878   2.779   0.061 -0.2885  1.0962  1.8441
 3786SOL     OW11815   0.103   0.652   6.195  0.1874 -0.3790  0.4736
 3786SOL    HW111816   0.032   0.658   6.258 -0.1433  1.4329 -0.0166
 3786SOL    HW211817   0.064   0.680   6.112  1.3241  0.1464  0.0933
 3787SOL     OW11818   2.110   3.144   0.473 -0.2632  0.2000  0.0451
 3787SOL    HW111819   2.104   3.225   0.523 -0.1014 -0.5392  1.3218
 3787SOL    HW211820   2.144   3.171   0.387  1.2211  1.3193  0.9216
 3788SOL     OW11821   0.028   5.706   4.617 -0.2444  0.0238 -0.2364
 3788SOL    HW111822   0.012   5.624   4.663  2.3668 -0.6481 -0.3610
 3788SOL    HW211823   0.091   5.752   4.672 -0.2705  1.1308 -1.0946
 3789SOL     OW11824   0.179   2.416   4.768 -0.4937 -0.0778 -0.2594
 3789SOL    HW111825   0.091   2.453   4.770 -0.3115  0.4787 -1.4742
 3789SOL    HW211826   0.236   2.492   4.756  0.1713 -0.4250  0.6173
 3790SOL     OW11827   4.810   1.358   2.395  0.2712 -0.3385  0.6427
 3790SOL    HW111828   4.750   1.426   2.428 -0.2120 -1.0998  1.4052
 3790SOL    HW211829   4.778   1.277   2.436  1.5742 -0.8343  0.7208
 3791SOL     OW11830   4.226   1.028   3.669 -0.2648  0.1677  0.3273
 3791SOL    HW111831   4.198   1.055   3.756 -0.3124  0.0103  0.3619
 3791SOL    HW211832   4.243   0.934   3.677 -1.3451 -0.0780 -0.1010
 3792SOL     OW11833   6.052   2.564   5.687  0.2937  0.6644  0.0654
 3792SOL    HW111834   6.036   2.489   5.745  1.4560  0.3570  0.0108
 3792SOL    HW211835   6.045   2.641   5.744 -0.0858  0.4653  0.2918
 3793SOL     OW11836   5.387   0.359   0.185  0.0950 -0.2751 -0.1346
 3793SOL    HW111837   5.438   0.279   0.176 -0.2665 -0.5341  0.1261
 3793SOL    HW211838   5.428   0.405   0.258 -0.0788 -0.5050  0.1050
 3794SOL     OW11839   5.128   1.500   0.332 -0.0942 -0.2608 -0.0819
 3794SOL    HW111840   5.055   1.485   0.393 -0.5527  0.0494 -0.5476
 3794SOL    HW211841   5.110   1.443   0.258 -0.1528  0.2173 -0.4414
 3795SOL     OW11842   2.376   1.136   3.349  0.0473 -0.0965  0.2391
 3795SOL    HW111843   2.322   1.085   3.290 -0.0123  0.1951  0.0414
 3795SOL    HW211844   2.433   1.187   3.292  0.1699 -0.0098  0.4369
 3796SOL     OW11845   4.663   1.396   4.009 -0.1511  0.2519  0.0042
 3796SOL    HW111846   4.652   1.418   3.917  1.0471  1.9786  0.2450
 3796SOL    HW211847   4.704   1.309   4.008  0.6313  0.6143 -1.1011
 3797SOL     OW11848   4.993   3.029   2.093 -0.1290  0.3376 -0.0762
 3797SOL    HW111849   5.022   3.041   2.184 -0.5739  0.0738  0.1051
 3797SOL    HW211850   5.073   3.008   2.045 -0.0516 -0.7109  0.4741
 3798SOL     OW11851   6.238   3.237   0.567  0.3014 -0.6594 -0.0702
 3798SOL    HW111852   6.289   3.177   0.512 -1.5445 -1.5778 -0.8341
 3798SOL    HW211853   6.149   3.203   0.565 -0.2941  0.6328  1.6230
 3799SOL     OW11854   3.099   1.527   5.415  0.0547  0.4026 -0.0671
 3799SOL    HW111855   3.082   1.618   5.436 -2.9772 -0.5845  2.4062
 3799SOL    HW211856   3.164   1.499   5.480  2.3368  1.1096 -1.9103
 3800SOL     OW11857   5.614   6.239   0.922  0.0165  0.1474  0.1609
 3800SOL    HW111858   5.571   6.304   0.866 -1.1588  0.7671  1.7091
 3800SOL    HW211859   5.704   6.235   0.889 -0.4568  0.9255 -1.3545
 3801SOL     OW11860   5.198   2.395   1.754  0.3313  0.5755 -0.2562
 3801SOL    HW111861   5.262   2.464   1.743  0.8034  0.2530  0.4296
 3801SOL    HW211862   5.245   2.324   1.796 -0.9104  1.0611  2.1352
 3802SOL     OW11863   5.073   4.264   4.107 -0.4283 -0.0542  0.2765
 3802SOL    HW111864   5.036   4.244   4.194 -4.2625 -1.9691 -1.5238
 3802SOL    HW211865   5.001   4.308   4.061  1.8228  1.7967 -1.6955
 3803SOL     OW11866   2.288   2.186   1.905  0.3096  0.1375  0.1220
 3803SOL    HW111867   2.318   2.274   1.880  1.5088 -0.5599 -1.0513
 3803SOL    HW211868   2.367   2.132   1.900 -0.6187 -1.2288 -0.2734
 3804SOL     OW11869   0.353   3.140   0.870 -0.1429 -0.2901  0.0860
 3804SOL    HW111870   0.397   3.223   0.850  0.4136 -0.6435 -0.1538
 3804SOL    HW211871   0.418   3.089   0.919  0.3990 -1.5490 -1.8652
 3805SOL     OW11872   0.337   3.302   0.458 -0.5833 -0.0860  0.0366
 3805SOL    HW111873   0.382   3.218   0.447  1.2430  1.0086 -1.3857
 3805SOL    HW211874   0.307   3.325   0.371  1.7366  2.1630 -0.2996
 3806SOL     OW11875   5.891   5.505   4.698 -0.9401  0.0340 -0.3595
 3806SOL    HW111876   5.901   5.410   4.709  1.0484  0.4383  2.2203
 3806SOL    HW211877   5.926   5.522   4.610  0.9217 -1.4050  0.0360
 3807SOL     OW11878   4.419   3.239   2.514 -0.2414  0.6104  0.1049
 3807SOL    HW111879   4.327   3.216   2.526  0.3821 -2.1967  0.1133
 3807SOL    HW211880   4.439   3.297   2.587 -2.1953  2.0348 -0.4159
 3808SOL     OW11881   1.680   2.884   2.397  0.1610 -0.1826  0.2133
 3808SOL    HW111882   1.596   2.840   2.383 -0.1739  0.4726  0.1269
 3808SOL    HW211883   1.725   2.879   2.312  0.1737 -0.4658  0.2384
 3809SOL     OW11884   0.117   1.265   5.481 -0.2739 -0.2204 -0.0971
 3809SOL    HW111885   0.191   1.212   5.511  0.6248  0.2356 -1.4352
 3809SOL    HW211886   0.092   1.317   5.557  1.2984  0.1941  0.1549
 3810SOL     OW11887   6.004   4.013   0.805  0.3647 -0.5404  0.7976
 3810SOL    HW111888   6.017   3.936   0.751  1.0252 -0.1665  0.4063
 3810SOL    HW211889   5.966   3.980   0.886  1.1689 -1.3506  0.8550
 3811SOL     OW11890   5.276   1.766   6.296 -0.1563 -0.6487 -0.1072
 3811SOL    HW111891   5.194   1.815   6.305  0.6301  0.4756  1.1387
 3811SOL    HW211892   5.310   1.793   6.211 -0.4570 -0.1638 -0.0757
 3812SOL     OW11893   6.011   6.176   5.480  0.0777 -0.3723 -0.0085
 3812SOL    HW111894   6.002   6.184   5.575 -0.0948  2.1710 -0.1676
 3812SOL    HW211895   5.928   6.208   5.445  0.2798 -0.9212 -1.0353
 3813SOL     OW11896   3.786   1.652   1.148 -0.0736  0.7030 -0.3980
 3813SOL    HW111897   3.697   1.687   1.146  0.2379  1.7156  1.3040
 3813SOL    HW211898   3.822   1.683   1.232  1.3455 -0.9999 -0.3258
 3814SOL     OW11899   3.704   1.593   4.473  0.0712  0.0531 -0.2715
 3814SOL    HW111900   3.778   1.598   4.413  0.7283 -0.7803  0.4478
 3814SOL    HW211901   3.741   1.560   4.555 -1.1565 -0.7788 -0.0246
 3815SOL     OW11902   5.534   0.899   1.899  0.6459  0.1843  0.0112
 3815SOL    HW111903   5.457   0.863   1.856 -0.4663  1.0028  1.2120
 3815SOL    HW211904   5.559   0.833   1.964  0.6502  0.1352 -0.0409
 3816SOL     OW11905   5.638   5.205   4.893 -0.6557  0.1767 -0.3337
 3816SOL    HW111906   5.579   5.267   4.937  0.0893 -0.3878  1.5561
 3816SOL    HW211907   5.596   5.120   4.903 -1.4699  0.2493 -2.5630
 3817SOL     OW11908   5.410   4.663   3.648 -0.1781 -0.1321 -0.3575
 3817SOL    HW111909   5.458   4.683   3.567  2.6469  0.6567  1.3945
 3817SOL    HW211910   5.443   4.577   3.674 -3.8382 -2.2116 -1.8431
 3818SOL     OW11911   1.987   3.599   4.685  0.9285 -0.5125 -0.0985
 3818SOL    HW111912   1.986   3.546   4.605  1.1305  0.6175 -0.8577
 3818SOL    HW211913   2.064   3.568   4.733  0.3559 -1.7575  0.0683
 3819SOL     OW11914   1.853   5.754   5.129  0.2827  0.4779  0.2546
 3819SOL    HW111915   1.842   5.849   5.123 -0.8338  0.3824  0.5280
 3819SOL    HW211916   1.938   5.742   5.170  0.5888  1.3527 -0.0912
 3820SOL     OW11917   1.226   2.674   4.367 -0.3165  0.1232  0.4119
 3820SOL    HW111918   1.276   2.730   4.308 -0.8381 -0.3457 -0.5089
 3820SOL    HW211919   1.168   2.734   4.414  0.1012  0.5058  0.4438
 3821SOL     OW11920   3.657   2.538   2.823 -0.2183 -0.1540  0.2667
 3821SOL    HW111921   3.697   2.607   2.875 -0.9855  0.0808  0.5589
 3821SOL    HW211922   3.731   2.482   2.797  0.0923 -0.9645  2.6103
 3822SOL     OW11923   0.318   2.613   2.971  0.4138 -0.0327  0.3002
 3822SOL    HW111924   0.279   2.529   2.945 -0.6972  0.4607  0.2851
 3822SOL    HW211925   0.399   2.619   2.921 -1.8617  1.1475 -3.7481
 3823SOL     OW11926   0.375   4.867   1.450 -0.1464  0.0490 -0.1436
 3823SOL    HW111927   0.460   4.892   1.413 -0.2474  0.7233  0.0618
 3823SOL    HW211928   0.312   4.925   1.407 -0.2080  1.1827  1.4102
 3824SOL     OW11929   5.382   4.527   2.989 -0.0649  0.4954  0.0204
 3824SOL    HW111930   5.359   4.484   2.906  1.1783 -0.0345 -0.0797
 3824SOL    HW211931   5.344   4.470   3.056  1.7646 -0.9696 -0.1036
 3825SOL     OW11932   1.777   3.391   2.761 -0.1652 -0.0765 -0.6361
 3825SOL    HW111933   1.719   3.415   2.690 -0.8136  0.8997  0.1984
 3825SOL    HW211934   1.745   3.305   2.790 -0.2919 -0.1865 -1.0902
 3826SOL     OW11935   4.362   4.544   6.092 -0.0157  0.2249 -0.7596
 3826SOL    HW111936   4.302   4.469   6.089 -0.1381  0.2936 -0.1243
 3826SOL    HW211937   4.359   4.580   6.003 -0.7966  0.1357 -0.7745
 3827SOL     OW11938   0.319   4.208   2.901  0.3528 -0.4098  0.3354
 3827SOL    HW111939   0.366   4.129   2.874 -0.8298 -1.2522  0.6535
 3827SOL    HW211940   0.378   4.280   2.879  0.0936 -1.0832 -3.2709
 3828SOL     OW11941   4.428   3.937   1.382  0.4258 -0.3179  0.2969
 3828SOL    HW111942   4.491   3.999   1.344 -1.4405  1.7446  0.3558
 3828SOL    HW211943   4.473   3.900   1.457  1.4761  1.3380  0.5355
 3829SOL     OW11944   5.937   3.372   0.797 -0.2249 -0.1078 -0.3124
 3829SOL    HW111945   5.945   3.295   0.853 -0.5365 -0.5541 -0.8745
 3829SOL    HW211946   6.024   3.413   0.801 -0.8321  1.1663  2.3029
 3830SOL     OW11947   4.716   5.788   5.719  0.1815 -0.3840  0.3042
 3830SOL    HW111948   4.714   5.780   5.814 -1.0007  0.3082  0.3514
 3830SOL    HW211949   4.650   5.725   5.688  0.7150 -0.7657 -0.0813
 3831SOL     OW11950   2.981   1.628   1.399 -0.5237  0.2964  0.4190
 3831SOL    HW111951   3.066   1.636   1.357 -0.1637  2.0247  1.4047
 3831SOL    HW211952   3.000   1.589   1.485 -1.0421 -1.5122 -0.2314
 3832SOL     OW11953   6.296   4.542   6.263 -0.2710 -0.0122 -0.0033
 3832SOL    HW111954   6.264   4.621   6.306  1.2840  0.4412  0.4009
 3832SOL    HW211955   6.344   4.574   6.187  0.0516 -0.5889 -0.0455
 3833SOL     OW11956   0.396   1.568   3.225 -0.6810  0.6100  0.1949
 3833SOL    HW111957   0.322   1.549   3.168 -0.8379  0.8093  0.3311
 3833SOL    HW211958   0.473   1.540   3.175 -0.8924 -0.1787  0.3088
 3834SOL     OW11959   2.343   6.051   2.427 -0.0714 -0.1459 -0.2157
 3834SOL    HW111960   2.401   5.982   2.458  1.1744  0.6031 -0.8020
 3834SOL    HW211961   2.283   6.067   2.501  0.4638 -0.9419  0.4053
 3835SOL     OW11962   3.089   2.014   6.054 -0.0327 -0.3977 -0.2238
 3835SOL    HW111963   3.039   1.933   6.055 -0.4858 -0.1411 -0.9321
 3835SOL    HW211964   3.148   2.005   5.979  0.4295 -0.3704  0.1321
 3836SOL     OW11965   1.868   1.320   3.156 -0.0416  0.2143  0.8123
 3836SOL    HW111966   1.838   1.404   3.122 -1.4839  0.2761  2.1137
 3836SOL    HW211967   1.896   1.339   3.246 -2.7090 -1.0148  2.0322
 3837SOL     OW11968   4.843   4.081   4.792  0.1125  0.3381  0.4530
 3837SOL    HW111969   4.816   3.989   4.791 -1.7095  0.8034  2.1918
 3837SOL    HW211970   4.820   4.113   4.705 -1.4603 -0.2881  0.5982
 3838SOL     OW11971   1.098   6.195   5.055  0.3636 -0.3265 -0.1351
 3838SOL    HW111972   1.063   6.220   5.140  0.6782 -1.2083  0.2745
 3838SOL    HW211973   1.088   6.273   5.001 -0.3293  0.0810  0.5524
 3839SOL     OW11974   3.863   1.149   0.788 -0.2435 -0.5451  0.3093
 3839SOL    HW111975   3.868   1.237   0.825  1.6239 -0.4799  0.0140
 3839SOL    HW211976   3.836   1.094   0.861  0.2369  0.0363  0.9406
 3840SOL     OW11977   3.661   5.763   5.699 -0.5412  0.4231  0.2968
 3840SOL    HW111978   3.740   5.712   5.684  0.8129  1.8951  1.9846
 3840SOL    HW211979   3.606   5.745   5.623  1.3508 -0.7453 -0.8718
 3841SOL     OW11980   4.782   5.813   2.209 -0.2650  0.0355 -0.5652
 3841SOL    HW111981   4.714   5.784   2.270 -1.9982  0.6653 -2.0937
 3841SOL    HW211982   4.781   5.908   2.215 -0.3994  0.1026 -1.4947
 3842SOL     OW11983   6.066   3.070   1.140  0.3748  0.6600  0.1624
 3842SOL    HW111984   6.137   3.106   1.088  0.0331 -2.2574 -2.7112
 3842SOL    HW211985   5.988   3.082   1.086 -1.1535  2.3354  2.5183
 3843SOL     OW11986   5.459   0.487   0.440 -0.1487 -0.0455 -0.5705
 3843SOL    HW111987   5.514   0.566   0.445  1.0907 -0.9590  1.2658
 3843SOL    HW211988   5.386   0.506   0.499  1.1906 -0.9525  1.5142
 3844SOL     OW11989   1.044   3.412   2.481  0.1249 -0.0641  0.7182
 3844SOL    HW111990   1.091   3.490   2.452  0.9520 -1.1985 -1.1784
 3844SOL    HW211991   0.968   3.405   2.423  0.5257 -1.1105  0.2885
 3845SOL     OW11992   4.188   3.121   2.916  0.0684  0.2211  0.6490
 3845SOL    HW111993   4.203   3.170   2.834 -0.5185 -0.9317 -0.1671
 3845SOL    HW211994   4.271   3.078   2.933 -0.0472 -0.1856  0.2066
 3846SOL     OW11995   0.687   5.555   3.846  0.3806  0.4683  0.0351
 3846SOL    HW111996   0.761   5.541   3.786  0.2725 -1.5454  0.3049
 3846SOL    HW211997   0.723   5.535   3.933 -0.5715 -1.0937  0.1153
 3847SOL     OW11998   5.432   4.080   1.322  0.5732 -0.0720 -0.2626
 3847SOL    HW111999   5.359   4.117   1.271  0.0723 -1.9598 -0.9934
 3847SOL    HW212000   5.398   4.073   1.411  0.4031  0.4850 -0.2811
 3848SOL     OW12001   3.438   4.769   2.476  0.1988  0.3267  0.5189
 3848SOL    HW112002   3.398   4.694   2.432 -0.6930  1.7529 -1.2239
 3848SOL    HW212003   3.503   4.801   2.414  2.1719 -0.2815  2.1759
 3849SOL     OW12004   4.672   5.394   0.742  0.1411 -0.0973 -0.2724
 3849SOL    HW112005   4.605   5.379   0.808  2.0877 -1.3237  1.5271
 3849SOL    HW212006   4.654   5.483   0.709 -1.9970 -0.1917  0.5027
 3850SOL     OW12007   6.374   2.571   3.914  0.1959  0.0265 -0.5407
 3850SOL    HW112008   6.422   2.653   3.904  0.6029 -0.1227  0.1280
 3850SOL    HW212009   6.339   2.553   3.827 -1.1292  1.6543 -0.3846
 3851SOL     OW12010   2.914   1.311   1.275 -0.3521  0.0461 -0.5155
 3851SOL    HW112011   2.995   1.356   1.301  0.3585 -1.6043  0.2957
 3851SOL    HW212012   2.884   1.359   1.198  0.4086  1.8023  0.2071
 3852SOL     OW12013   0.036   2.124   3.595  0.1970  0.5326  0.3918
 3852SOL    HW112014   0.038   2.052   3.532 -0.1881 -0.5443  1.5720
 3852SOL    HW212015   0.122   2.122   3.637 -0.2269 -0.0222  1.2590
 3853SOL     OW12016   6.097   1.034   3.889 -0.3081 -0.2881  0.0214
 3853SOL    HW112017   6.018   1.087   3.897 -1.3882 -1.9229  0.7653
 3853SOL    HW212018   6.106   0.990   3.973  1.2395 -0.3720 -0.1529
 3854SOL     OW12019   3.763   2.770   3.344 -0.3558 -0.2444 -0.0266
 3854SOL    HW112020   3.725   2.848   3.304  1.8162  1.4337  0.9827
 3854SOL    HW212021   3.711   2.757   3.424  0.4715  1.4054  0.8264
 3855SOL     OW12022   1.644   4.548   5.289 -0.0035  0.4229 -0.7071
 3855SOL    HW112023   1.569   4.606   5.301 -0.2637  0.0594 -0.5310
 3855SOL    HW212024   1.634   4.515   5.199  0.0447  0.5126 -0.7456
 3856SOL     OW12025   1.325   6.162   5.877 -0.8020 -0.0628  0.2854
 3856SOL    HW112026   1.259   6.179   5.810 -0.3739 -2.1115 -0.7330
 3856SOL    HW212027   1.325   6.067   5.888  2.0054 -0.1748  0.1721
 3857SOL     OW12028   3.737   3.556   3.402 -0.3005  0.2213  0.2233
 3857SOL    HW112029   3.651   3.550   3.360 -0.7641  0.2437  1.1491
 3857SOL    HW212030   3.736   3.639   3.450 -1.2462 -1.4467  3.3557
 3858SOL     OW12031   4.185   5.992   3.280 -0.0539 -0.8035 -0.3319
 3858SOL    HW112032   4.200   5.898   3.275  1.4642 -0.6063 -0.0055
 3858SOL    HW212033   4.255   6.030   3.227  0.2555  0.1852  0.7453
 3859SOL     OW12034   4.925   1.187   4.312 -0.5873 -0.0948  0.4207
 3859SOL    HW112035   5.010   1.215   4.344 -0.0065 -0.1685 -0.9996
 3859SOL    HW212036   4.922   1.093   4.329 -0.6228  0.0059  0.9781
 3860SOL     OW12037   3.688   4.280   2.822 -0.3089  0.2355 -0.5636
 3860SOL    HW112038   3.626   4.282   2.895 -1.3464  1.4936 -1.4521
 3860SOL    HW212039   3.744   4.356   2.836 -1.5302  1.4261 -1.9088
 3861SOL     OW12040   4.662   5.160   5.599  0.2372  0.1619 -0.3460
 3861SOL    HW112041   4.630   5.164   5.689 -0.1751  0.4247 -0.5042
 3861SOL    HW212042   4.655   5.250   5.567  2.2683  0.4924  0.0064
 3862SOL     OW12043   6.048   3.252   2.652  0.3027 -0.0320  0.3398
 3862SOL    HW112044   5.994   3.290   2.582  0.4874 -1.5981 -0.6959
 3862SOL    HW212045   6.129   3.303   2.649  0.8927 -0.9878 -1.6131
 3863SOL     OW12046   3.147   0.685   4.196 -0.4715 -0.1736 -0.3377
 3863SOL    HW112047   3.181   0.771   4.171 -1.5488 -0.2958 -2.4184
 3863SOL    HW212048   3.224   0.637   4.227  0.4403  0.9843 -0.7401
 3864SOL     OW12049   4.941   5.046   2.572  0.4449 -0.4021 -0.2236
 3864SOL    HW112050   4.960   5.113   2.506  1.2099 -1.7494 -1.4273
 3864SOL    HW212051   4.845   5.039   2.571  0.4017  0.1255 -0.6515
 3865SOL     OW12052   1.478   1.595   4.048  0.1420 -0.2688 -0.2880
 3865SOL    HW112053   1.423   1.618   4.123  0.4052 -1.1608  0.1945
 3865SOL    HW212054   1.551   1.546   4.086 -0.3874 -1.8764 -1.2486
 3866SOL     OW12055   3.788   3.610   4.319 -0.3157 -0.5390 -0.3625
 3866SOL    HW112056   3.810   3.694   4.360  0.4460 -0.0949 -1.6521
 3866SOL    HW212057   3.703   3.586   4.358 -0.7790  1.0563 -0.3255
 3867SOL     OW12058   2.018   5.664   0.823  0.3489  0.2138  0.7918
 3867SOL    HW112059   1.931   5.698   0.844  0.0944 -0.5026  0.9265
 3867SOL    HW212060   2.005   5.570   0.809  1.1115  0.0779  0.9072
 3868SOL     OW12061   0.040   4.982   0.878 -0.1934  0.8263  0.0640
 3868SOL    HW112062  -0.037   5.012   0.927  0.9991  1.3108  1.7076
 3868SOL    HW212063   0.097   5.059   0.874  0.1500  0.5263 -1.3035
 3869SOL     OW12064   4.203   0.301   1.702  0.4646 -0.1297 -0.2386
 3869SOL    HW112065   4.117   0.261   1.711  0.4485 -0.0398  0.0157
 3869SOL    HW212066   4.236   0.269   1.618  0.3924 -0.5641 -0.1035
 3870SOL     OW12067   2.178   3.687   1.823  0.4970  0.3995 -0.1637
 3870SOL    HW112068   2.090   3.649   1.819  0.2506  0.8532  0.7895
 3870SOL    HW212069   2.197   3.712   1.732  1.1599 -3.0306 -1.0961
 3871SOL     OW12070   5.416   3.918   5.322 -0.5254  0.1831  0.2749
 3871SOL    HW112071   5.385   3.928   5.411 -1.8752  0.7880 -0.2491
 3871SOL    HW212072   5.341   3.939   5.267  1.0822  2.9751 -1.0826
 3872SOL     OW12073   5.835   4.309   2.594 -0.1754  0.3552 -0.3846
 3872SOL    HW112074   5.918   4.292   2.639 -0.0025  0.4927 -0.6504
 3872SOL    HW212075   5.799   4.386   2.639 -0.4379 -0.0459  0.1071
 3873SOL     OW12076   4.712   2.902   4.070 -0.4978  0.1172 -0.2356
 3873SOL    HW112077   4.752   2.962   4.133 -0.1129 -0.7803  0.3935
 3873SOL    HW212078   4.787   2.855   4.032 -0.7471  0.4656 -1.1765
 3874SOL     OW12079   1.626   4.724   0.827  0.1021  0.7471 -0.2264
 3874SOL    HW112080   1.641   4.748   0.919  1.1764 -0.7899  0.0306
 3874SOL    HW212081   1.700   4.763   0.781  1.5896 -1.4986  0.1251
 3875SOL     OW12082   1.968   4.090   3.011 -0.1240 -1.1046  0.1168
 3875SOL    HW112083   1.921   4.006   3.006 -1.0661 -0.5854  0.0104
 3875SOL    HW212084   1.954   4.120   3.101 -2.0405  0.1780 -0.5522
 3876SOL     OW12085   0.972   0.764   5.259  0.2898  0.8170 -0.1037
 3876SOL    HW112086   1.025   0.747   5.337  0.7444  0.2999 -0.5223
 3876SOL    HW212087   0.968   0.860   5.254  0.2134  0.8536  0.5800
 3877SOL     OW12088   1.560   0.117   2.564  0.4092  0.6442  0.1323
 3877SOL    HW112089   1.529   0.193   2.613 -0.1116  0.1963  0.5109
 3877SOL    HW212090   1.543   0.043   2.622  0.7245  0.2130 -0.3175
 3878SOL     OW12091   1.465   5.750   0.883  0.0398  0.1333  0.0676
 3878SOL    HW112092   1.481   5.663   0.922 -1.7621  0.4014  1.5904
 3878SOL    HW212093   1.459   5.733   0.789 -0.9515 -1.5650  0.3724
 3879SOL     OW12094   6.192   1.903   3.426  0.3912 -0.1353 -0.1178
 3879SOL    HW112095   6.157   1.910   3.515  0.0516 -0.7537 -0.1973
 3879SOL    HW212096   6.126   1.944   3.371  0.0354 -0.8081 -0.2067
 3880SOL     OW12097   3.131   2.484   2.523  0.6992 -0.6068 -0.3612
 3880SOL    HW112098   3.040   2.456   2.521 -0.4836  2.4632  2.4433
 3880SOL    HW212099   3.149   2.511   2.433 -1.5440 -0.2170 -0.7511
 3881SOL     OW12100   6.265   5.043   1.668  0.1740  0.8570 -0.1600
 3881SOL    HW112101   6.283   4.998   1.750  4.1959  0.4533 -1.0557
 3881SOL    HW212102   6.258   5.136   1.691 -0.5250  0.5829  0.7818
 3882SOL     OW12103   1.557   0.973   4.680 -0.2775 -0.8130 -0.0680
 3882SOL    HW112104   1.481   0.916   4.687 -1.4729  0.5756 -1.1855
 3882SOL    HW212105   1.594   0.954   4.593  2.1838 -3.1949  1.3197
 3883SOL     OW12106   5.072   0.734   6.034 -0.6269 -0.3500  0.0472
 3883SOL    HW112107   5.082   0.642   6.012 -1.2493 -0.4672  0.2492
 3883SOL    HW212108   5.048   0.735   6.127  1.2229  0.1093  0.5802
 3884SOL     OW12109   4.762   4.822   4.365 -0.3752  0.0585  0.5801
 3884SOL    HW112110   4.775   4.842   4.458 -1.0237  1.4731  0.3999
 3884SOL    HW212111   4.849   4.827   4.327  0.0728 -1.6683  1.2839
 3885SOL     OW12112   0.107   2.886   5.989  0.0176  0.4466 -0.7595
 3885SOL    HW112113   0.137   2.877   6.079  0.4974 -0.8528 -1.0275
 3885SOL    HW212114   0.176   2.938   5.946 -0.1279  0.9196 -0.4319
 3886SOL     OW12115   5.524   5.646   1.693 -0.0404  0.3903  0.6575
 3886SOL    HW112116   5.562   5.623   1.608  2.0221  0.1437  1.5911
 3886SOL    HW212117   5.509   5.561   1.736 -0.2990  0.5467  0.8828
 3887SOL     OW12118   0.413   5.122   1.118 -0.6228 -0.0676 -0.5240
 3887SOL    HW112119   0.442   5.123   1.027 -0.3576  0.1194 -0.4403
 3887SOL    HW212120   0.476   5.177   1.164 -1.2015  0.4908 -0.3670
 3888SOL     OW12121   0.389   5.994   6.293  0.0198  0.1440  0.1875
 3888SOL    HW112122   0.480   6.021   6.288  0.5152 -1.6073 -0.8833
 3888SOL    HW212123   0.384   5.939   6.371 -0.8696  2.6498  2.0451
 3889SOL     OW12124   2.977   5.814   2.944  0.7051 -0.4714  0.4388
 3889SOL    HW112125   3.066   5.836   2.973  0.3893  0.2750  0.8784
 3889SOL    HW212126   2.921   5.879   2.987  0.0125 -0.5432 -0.3298
 3890SOL     OW12127   1.224   3.578   3.375 -0.7253 -0.2430  0.5634
 3890SOL    HW112128   1.296   3.624   3.332 -0.9439 -0.0219  0.4285
 3890SOL    HW212129   1.254   3.566   3.465 -0.9447  0.8124  0.7986
 3891SOL     OW12130   2.164   2.506   3.572  0.6222  0.2270  0.4196
 3891SOL    HW112131   2.157   2.522   3.478 -2.0863 -0.4967  0.4017
 3891SOL    HW212132   2.132   2.587   3.612  2.6713  0.8995  0.8030
 3892SOL     OW12133   5.440   2.680   5.424  0.2168  0.2128  0.4177
 3892SOL    HW112134   5.511   2.724   5.378  1.4492 -1.1316  0.9523
 3892SOL    HW212135   5.474   2.593   5.442 -1.9449 -0.7985 -0.1290
 3893SOL     OW12136   3.699   2.203   1.631  0.0846 -0.0891 -0.1816
 3893SOL    HW112137   3.732   2.179   1.718  1.7266 -1.3470 -1.0761
 3893SOL    HW212138   3.636   2.273   1.648 -0.3278 -0.9008  2.0826
 3894SOL     OW12139   0.624   3.403   1.536 -0.5719  0.7234  0.3484
 3894SOL    HW112140   0.558   3.334   1.536  0.0244  0.1242 -0.7284
 3894SOL    HW212141   0.634   3.426   1.443 -0.5913  2.1007  0.6658
 3895SOL     OW12142   0.561   3.072   4.401  0.2997 -0.4066  0.4640
 3895SOL    HW112143   0.475   3.087   4.440  0.4154 -0.2935  0.6818
 3895SOL    HW212144   0.543   3.043   4.312  0.0650  2.6150 -0.5976
 3896SOL     OW12145   2.372   4.885   2.083 -0.3526 -0.1571  0.3202
 3896SOL    HW112146   2.445   4.842   2.037 -0.8496 -0.1705 -0.4686
 3896SOL    HW212147   2.398   4.883   2.175  1.2861  1.0520 -0.0692
 3897SOL     OW12148   3.517   4.156   5.438  0.1648  0.2150  0.4177
 3897SOL    HW112149   3.505   4.183   5.529  0.3404  0.8269  0.2618
 3897SOL    HW212150   3.520   4.060   5.442  0.5857  0.2481  1.1049
 3898SOL     OW12151   6.290   5.143   4.171 -0.2126  0.2289 -0.2352
 3898SOL    HW112152   6.276   5.198   4.249  1.8509 -0.4658  0.6961
 3898SOL    HW212153   6.337   5.200   4.110 -1.1964  0.5544 -0.6988
 3899SOL     OW12154   4.949   4.259   6.023 -0.1847 -0.1532 -0.4892
 3899SOL    HW112155   4.869   4.249   6.073  0.6312 -1.7731  0.6051
 3899SOL    HW212156   5.019   4.243   6.086  1.1990  3.7256 -0.7741
 3900SOL     OW12157   0.299   1.214   6.344  0.1817  0.0408 -0.3202
 3900SOL    HW112158   0.309   1.132   6.294  2.6775 -0.3174  0.6308
 3900SOL    HW212159   0.351   1.200   6.423 -0.8020  1.9279  0.7156
 3901SOL     OW12160   1.793   0.998   2.976  0.7105  0.4002  0.4044
 3901SOL    HW112161   1.722   1.060   2.985  0.8263  0.6537 -0.3087
 3901SOL    HW212162   1.788   0.969   2.884  0.6966 -0.5873  0.7043
 3902SOL     OW12163   3.065   0.381   2.075 -0.1443 -0.1927 -0.4968
 3902SOL    HW112164   3.061   0.405   2.168  0.8105 -0.2793 -0.4192
 3902SOL    HW212165   3.149   0.416   2.045  0.6502 -2.1279 -0.7263
 3903SOL     OW12166   4.999   1.030   2.741 -0.1746 -0.2177 -0.2760
 3903SOL    HW112167   4.931   1.024   2.673  0.9160  0.4672 -1.4786
 3903SOL    HW212168   5.014   1.124   2.751 -0.0805 -0.3308  0.6867
 3904SOL     OW12169   3.308   1.320   5.310 -0.4071 -0.7788 -0.3477
 3904SOL    HW112170   3.352   1.340   5.392  0.7948 -0.5485 -1.0163
 3904SOL    HW212171   3.311   1.225   5.303 -0.2116 -0.7772 -0.2768
 3905SOL     OW12172   4.456   0.246   4.317 -0.1261  0.4161  0.4513
 3905SOL    HW112173   4.400   0.320   4.291 -0.4717 -0.1679 -0.5375
 3905SOL    HW212174   4.432   0.176   4.256  0.6120 -0.3287  1.0001
 3906SOL     OW12175   2.649   0.057   5.520 -0.2826  0.3555 -0.0526
 3906SOL    HW112176   2.732   0.080   5.478 -0.9533  1.6411 -0.7435
 3906SOL    HW212177   2.604   0.141   5.530 -0.8429 -0.1231  1.7741
 3907SOL     OW12178   3.226   0.239   3.602 -0.0666 -0.4681  0.1722
 3907SOL    HW112179   3.237   0.322   3.648  0.0606 -0.4771  0.1586
 3907SOL    HW212180   3.162   0.257   3.533  1.0727 -0.0080 -0.7791
 3908SOL     OW12181   0.307   4.005   1.312  0.4956 -0.0419  0.1992
 3908SOL    HW112182   0.350   3.934   1.265 -0.6843 -0.2373 -0.6489
 3908SOL    HW212183   0.295   4.074   1.247 -1.1380 -0.3059  0.1650
 3909SOL     OW12184   4.427   0.260   1.159  0.5221  0.2063 -0.1939
 3909SOL    HW112185   4.399   0.296   1.075 -0.9524  0.3194  0.3256
 3909SOL    HW212186   4.449   0.169   1.139 -3.4112 -0.9317 -0.1139
 3910SOL     OW12187   4.684   5.782   5.127 -0.2827  0.4608 -0.5904
 3910SOL    HW112188   4.780   5.789   5.120 -0.2566  2.0455  0.7140
 3910SOL    HW212189   4.666   5.793   5.220 -1.7655  0.4588 -0.8555
 3911SOL     OW12190   4.523   0.110   6.057  0.1457  0.3960  0.6100
 3911SOL    HW112191   4.483   0.032   6.096 -0.1574  0.2058 -0.0567
 3911SOL    HW212192   4.449   0.162   6.025  0.3449  0.9932  1.0980
 3912SOL     OW12193   1.331   2.023   3.733 -0.0482 -0.2257  0.5674
 3912SOL    HW112194   1.366   1.956   3.675  0.5309  0.5831 -0.0464
 3912SOL    HW212195   1.293   1.975   3.806  2.8491 -1.1451  1.5807
 3913SOL     OW12196   6.168   2.483   0.108 -0.4923  0.1760  0.0455
 3913SOL    HW112197   6.081   2.519   0.090 -0.6882 -0.5703 -0.5196
 3913SOL    HW212198   6.224   2.561   0.114 -1.2281  0.6836  0.6673
 3914SOL     OW12199   1.811   2.249   4.521 -0.3368 -0.3518  0.7768
 3914SOL    HW112200   1.817   2.270   4.428  1.4796 -0.3278  0.8571
 3914SOL    HW212201   1.790   2.155   4.523 -0.4807 -0.3278  0.3361
 3915SOL     OW12202   5.416   5.898   5.784 -0.3714 -0.4481 -0.4350
 3915SOL    HW112203   5.331   5.935   5.808 -0.8580 -1.2400 -0.9099
 3915SOL    HW212204   5.411   5.887   5.689  0.5451  0.1841 -0.5674
 3916SOL     OW12205   1.456   1.998   5.793  0.7436  0.4830  0.2249
 3916SOL    HW112206   1.471   2.076   5.740 -2.1138  0.1494 -1.2871
 3916SOL    HW212207   1.374   2.015   5.839  1.7288 -0.3945  2.4400
 3917SOL     OW12208   0.340   4.553   0.107  0.6576 -0.6708 -0.1401
 3917SOL    HW112209   0.246   4.537   0.116 -0.1481  2.3387 -1.8751
 3917SOL    HW212210   0.375   4.539   0.195 -1.5589 -0.9199  0.7672
 3918SOL     OW12211   3.720   3.341   3.628 -0.0713 -0.1134 -0.0478
 3918SOL    HW112212   3.780   3.268   3.639  1.1961  1.0056  0.7465
 3918SOL    HW212213   3.732   3.369   3.537 -0.0223 -0.4143 -0.1352
 3919SOL     OW12214   4.283   4.461   3.712 -0.1123 -0.4626  0.0992
 3919SOL    HW112215   4.347   4.437   3.780 -0.3879  2.0080  1.3378
 3919SOL    HW212216   4.218   4.391   3.715  0.3660 -0.8971  1.7595
 3920SOL     OW12217   0.691   2.654   1.422  0.2481  0.5181 -0.2633
 3920SOL    HW112218   0.775   2.665   1.379  0.7158 -0.2600  0.4229
 3920SOL    HW212219   0.651   2.741   1.419  0.7820  0.7424 -1.1768
 3921SOL     OW12220   2.693   4.824   2.174  0.7722  0.0100  0.7201
 3921SOL    HW112221   2.682   4.896   2.237  0.5494  0.8760 -0.2809
 3921SOL    HW212222   2.772   4.847   2.125 -0.5810  0.8394 -1.1963
 3922SOL     OW12223   3.113   4.527   1.031 -0.0319 -0.3667 -0.0341
 3922SOL    HW112224   3.103   4.609   0.982  2.0948 -0.7083 -1.1402
 3922SOL    HW212225   3.078   4.460   0.972 -0.4629 -0.4338  0.2896
 3923SOL     OW12226   4.496   6.113   3.874  0.9590 -0.1664  0.0497
 3923SOL    HW112227   4.530   6.199   3.847  0.4168  0.4169  1.1765
 3923SOL    HW212228   4.462   6.074   3.793  0.1757  1.1632 -0.2874
 3924SOL     OW12229   3.638   1.317   0.231  0.1749 -0.1720  0.9244
 3924SOL    HW112230   3.714   1.279   0.187 -0.6302  0.1388 -0.8137
 3924SOL    HW212231   3.564   1.265   0.199 -1.0012  2.7654 -1.6561
 3925SOL     OW12232   1.831   4.045   1.557  0.2897  0.0247  0.0408
 3925SOL    HW112233   1.888   4.099   1.612  1.1368 -1.5541  0.7817
 3925SOL    HW212234   1.744   4.084   1.567  0.0719 -1.0056  3.7608
 3926SOL     OW12235   4.401   3.455   5.808  0.2776  0.7039 -0.0620
 3926SOL    HW112236   4.467   3.451   5.877 -0.1894 -0.0388  0.3463
 3926SOL    HW212237   4.388   3.549   5.794 -1.1582  0.9530  2.3545
 3927SOL     OW12238   3.625   5.299   4.354  0.3668 -0.1498  0.1436
 3927SOL    HW112239   3.652   5.208   4.361  0.3213 -0.0724  1.9222
 3927SOL    HW212240   3.534   5.300   4.384  0.2347  0.4234 -0.2477
 3928SOL     OW12241   0.748   0.573   4.255  0.1036  0.2124 -0.2638
 3928SOL    HW112242   0.662   0.601   4.223 -1.3997 -0.5824  2.6332
 3928SOL    HW212243   0.799   0.653   4.261 -1.6162  1.2959  1.0245
 3929SOL     OW12244   0.210   2.009   5.402  0.0961  0.7291 -0.2234
 3929SOL    HW112245   0.140   1.989   5.464  1.1097 -0.2093  0.6546
 3929SOL    HW212246   0.166   2.058   5.332 -1.1994  1.2041  0.8757
 3930SOL     OW12247   4.890   5.587   2.107  0.1984 -0.1340 -0.6837
 3930SOL    HW112248   4.848   5.669   2.133  0.9292 -0.0620  0.3638
 3930SOL    HW212249   4.924   5.603   2.019  0.9193  0.9246 -0.2255
 3931SOL     OW12250   2.444   2.190   5.220  0.1689 -0.4504 -0.4677
 3931SOL    HW112251   2.373   2.194   5.284 -1.1043  1.3001 -1.8913
 3931SOL    HW212252   2.523   2.176   5.272 -1.0348 -1.0719  1.2824
 3932SOL     OW12253   5.744   2.324   2.181  0.4367 -0.6548 -0.0218
 3932SOL    HW112254   5.770   2.405   2.139  0.5759  0.2610  1.7302
 3932SOL    HW212255   5.713   2.351   2.268 -0.9736 -2.3125  0.0410
 3933SOL     OW12256   6.365   0.005   1.827 -0.4447  0.5277 -0.1714
 3933SOL    HW112257   6.425   0.014   1.754  0.2102 -1.7802  0.0292
 3933SOL    HW212258   6.282  -0.021   1.787 -0.8157  1.7357 -0.2578
 3934SOL     OW12259   2.014   5.142   3.350 -0.7071 -0.7743 -0.3799
 3934SOL    HW112260   2.076   5.083   3.393 -0.5133 -1.2116 -1.2183
 3934SOL    HW212261   1.957   5.173   3.420  0.4996 -0.3059  0.4274
 3935SOL     OW12262   1.262   0.807   0.709 -0.1810 -0.4886  0.5089
 3935SOL    HW112263   1.189   0.850   0.753  0.4791  1.7078 -0.4211
 3935SOL    HW212264   1.278   0.728   0.761 -2.4560 -0.4626  1.3725
 3936SOL     OW12265   4.914   3.547   4.965  0.2955 -0.3990  0.3168
 3936SOL    HW112266   5.001   3.586   4.967  0.0107  0.2815 -0.1841
 3936SOL    HW212267   4.880   3.562   5.053  0.1975  0.4869  0.1388
 3937SOL     OW12268   5.948   4.193   1.307 -0.5069  0.0412 -0.2395
 3937SOL    HW112269   6.006   4.134   1.258 -0.0955  1.7879 -1.9866
 3937SOL    HW212270   5.861   4.158   1.292 -0.3383  0.2584 -1.8958
 3938SOL     OW12271   3.667   1.420   5.700 -0.0263 -0.3149 -0.1945
 3938SOL    HW112272   3.683   1.434   5.794 -1.9184 -0.3750  0.1830
 3938SOL    HW212273   3.629   1.503   5.670  1.6887  0.1309 -1.2131
 3939SOL     OW12274   3.628   3.777   0.051 -0.8068  0.1584 -0.3762
 3939SOL    HW112275   3.720   3.759   0.067 -0.8336 -0.0498 -0.4602
 3939SOL    HW212276   3.600   3.710  -0.011 -0.5564  1.2861 -1.7500
 3940SOL     OW12277   2.114   4.753   3.669 -0.3495 -0.7608 -0.1266
 3940SOL    HW112278   2.072   4.704   3.739 -1.1388 -0.8635 -0.6606
 3940SOL    HW212279   2.049   4.817   3.641 -0.0377 -0.6961 -0.7390
 3941SOL     OW12280   0.787   5.540   5.982 -0.2167 -0.2446 -0.4724
 3941SOL    HW112281   0.750   5.457   5.952  0.0455 -0.5238 -0.0393
 3941SOL    HW212282   0.861   5.556   5.923  0.2678 -0.7655 -0.0111
 3942SOL     OW12283   4.611   0.687   3.173  0.0225 -0.3876  0.3409
 3942SOL    HW112284   4.665   0.670   3.095 -0.3097 -1.6627  0.3654
 3942SOL    HW212285   4.674   0.706   3.242  0.2986  1.7689 -0.4328
 3943SOL     OW12286   0.728   5.553   4.451 -0.8435 -0.3636  0.1636
 3943SOL    HW112287   0.636   5.536   4.431 -1.3034  1.2148  0.7867
 3943SOL    HW212288   0.728   5.578   4.543  0.1765 -0.0897  0.0975
 3944SOL     OW12289   0.962   5.576   0.253  0.0710  0.0737 -0.2763
 3944SOL    HW112290   0.970   5.632   0.330 -0.3652 -0.3772  0.1082
 3944SOL    HW212291   0.894   5.513   0.277 -0.3570  0.1799 -1.1869
 3945SOL     OW12292   4.708   3.848   4.761 -0.1301 -0.0124  0.2170
 3945SOL    HW112293   4.699   3.915   4.693  1.0449  0.0070  0.0546
 3945SOL    HW212294   4.764   3.781   4.721 -1.3774 -1.1657  0.3287
 3946SOL     OW12295   3.535   6.167   4.836  0.1643 -0.2895  0.2099
 3946SOL    HW112296   3.619   6.205   4.812 -0.5891  0.7131 -0.9901
 3946SOL    HW212297   3.474   6.199   4.769 -1.0379 -1.5466  0.6461
 3947SOL     OW12298   3.859   2.576   5.526 -0.0957 -0.1542  0.0320
 3947SOL    HW112299   3.881   2.632   5.600 -2.6824 -1.5882  2.0738
 3947SOL    HW212300   3.943   2.561   5.481  1.5761  0.8484  2.5966
 3948SOL     OW12301   0.962   4.791   2.133 -0.2509 -0.1494 -0.3567
 3948SOL    HW112302   1.024   4.720   2.146 -0.5328 -0.2344  0.6116
 3948SOL    HW212303   0.957   4.802   2.038  0.7134 -0.5984 -0.4722
 3949SOL     OW12304   0.146   0.641   1.388 -0.1220  0.1974  0.0360
 3949SOL    HW112305   0.100   0.682   1.315 -0.6335  1.0928  0.8263
 3949SOL    HW212306   0.083   0.579   1.425 -0.5262  1.0363  0.7911
 3950SOL     OW12307   2.989   5.318   1.138 -0.0462  0.0101 -0.0021
 3950SOL    HW112308   2.959   5.273   1.059 -1.8377 -1.0675  1.2138
 3950SOL    HW212309   2.908   5.338   1.186  1.0121  0.0857  1.8454
 3951SOL     OW12310   0.188   6.270   2.097 -0.1996 -0.5589  0.3520
 3951SOL    HW112311   0.106   6.267   2.145  0.2011 -1.1897  1.0341
 3951SOL    HW212312   0.178   6.205   2.028 -0.8512  0.4888 -0.5582
 3952SOL     OW12313   5.382   0.853   5.906 -0.1157 -0.1142  0.3476
 3952SOL    HW112314   5.446   0.855   5.977  0.8262 -0.4361 -0.4607
 3952SOL    HW212315   5.298   0.863   5.949  0.4151 -0.5755  1.5361
 3953SOL     OW12316   3.343   5.443   5.994  0.2812 -0.5467 -0.1124
 3953SOL    HW112317   3.287   5.480   5.926  0.4175  1.0165  0.5811
 3953SOL    HW212318   3.283   5.391   6.049 -0.7729  1.9198  1.2157
 3954SOL     OW12319   2.337   4.624   5.455 -0.1321  0.5597  0.0067
 3954SOL    HW112320   2.293   4.552   5.409 -0.3752  1.2840 -0.9173
 3954SOL    HW212321   2.286   4.702   5.432  0.1661  1.0488  0.9472
 3955SOL     OW12322   0.938   2.213   3.782  0.5346  0.0613 -0.3084
 3955SOL    HW112323   0.902   2.127   3.806  2.3485 -1.3495 -2.2939
 3955SOL    HW212324   0.980   2.199   3.698  3.4100  2.1926  0.6181
 3956SOL     OW12325   4.496   1.401   3.518 -0.3489  0.2712 -0.7283
 3956SOL    HW112326   4.420   1.457   3.533 -1.1089  0.0433 -3.2721
 3956SOL    HW212327   4.492   1.337   3.589 -0.4464  2.3355  1.2424
 3957SOL     OW12328   6.312   2.522   0.935 -0.1830  0.3783 -0.2839
 3957SOL    HW112329   6.248   2.487   0.873  0.2474  0.4833 -0.8018
 3957SOL    HW212330   6.306   2.465   1.011 -0.2062 -0.2104 -0.7163
 3958SOL     OW12331   3.808   2.837   0.655 -0.2661 -0.0879 -0.2105
 3958SOL    HW112332   3.853   2.886   0.723  1.6907 -0.4861 -1.1277
 3958SOL    HW212333   3.800   2.899   0.582 -0.2162 -0.3243 -0.4213
 3959SOL     OW12334   0.455   2.491   5.261 -0.0185  0.6079  0.1900
 3959SOL    HW112335   0.371   2.500   5.216 -0.5006  0.1429  0.9801
 3959SOL    HW212336   0.432   2.457   5.348  1.0225  0.1043  0.2737
 3960SOL     OW12337   2.440   1.803   4.883 -0.1105  0.0616 -0.0944
 3960SOL    HW112338   2.513   1.800   4.820  1.2868 -0.2127  1.4703
 3960SOL    HW212339   2.417   1.711   4.897  0.0575  0.0790  0.3059
 3961SOL     OW12340   6.304   5.262   2.569  0.5146  0.1150 -0.0617
 3961SOL    HW112341   6.311   5.169   2.547  1.9541  0.8452 -3.4333
 3961SOL    HW212342   6.395   5.293   2.569  0.0803  1.5008  1.2163
 3962SOL     OW12343   4.555   4.695   5.688  0.5547 -0.5754 -0.0397
 3962SOL    HW112344   4.640   4.736   5.672  0.8625 -0.6034  1.4045
 3962SOL    HW212345   4.573   4.601   5.690  0.4414 -0.5973 -0.0321
 3963SOL     OW12346   2.869   1.935   5.702 -0.0086  0.4968  0.0647
 3963SOL    HW112347   2.956   1.974   5.699 -0.4299  1.4104 -2.3967
 3963SOL    HW212348   2.834   1.961   5.788  2.0401  0.2191  1.0399
 3964SOL     OW12349   4.537   1.730   3.796  0.2857 -0.3340 -0.2273
 3964SOL    HW112350   4.624   1.691   3.786  0.0840 -0.9171  0.2667
 3964SOL    HW212351   4.482   1.658   3.825 -0.1701  0.2427  0.3447
 3965SOL     OW12352   2.168   3.901   4.586  0.2794 -0.0170 -0.5254
 3965SOL    HW112353   2.231   3.883   4.516  0.3866 -0.2520 -0.3713
 3965SOL    HW212354   2.095   3.944   4.542  0.4436  0.0369 -0.7458
 3966SOL     OW12355   1.531   3.044   4.296 -0.1404  0.3972  0.0108
 3966SOL    HW112356   1.596   3.044   4.226  1.3065 -0.4136  1.2852
 3966SOL    HW212357   1.536   3.132   4.333 -0.2718  0.5566 -0.3545
 3967SOL     OW12358   5.014   5.066   0.717 -0.2068  0.1857 -0.9231
 3967SOL    HW112359   4.959   5.118   0.776 -0.1723 -0.4875 -0.2823
 3967SOL    HW212360   4.967   5.069   0.633 -0.6511  0.5256 -0.6723
 3968SOL     OW12361   0.161   0.678   0.896  0.3958 -0.1478  0.6920
 3968SOL    HW112362   0.149   0.594   0.852 -3.1966 -0.1219  1.3450
 3968SOL    HW212363   0.116   0.741   0.840 -0.1926  0.6784  2.0489
 3969SOL     OW12364   5.139   4.668   3.655  0.0688  0.2054  0.1896
 3969SOL    HW112365   5.231   4.645   3.669  0.0631 -1.0313 -1.5484
 3969SOL    HW212366   5.127   4.661   3.561 -1.5809  1.3216  0.2874
 3970SOL     OW12367   3.010   3.885   6.110 -0.1957 -0.0862 -0.0295
 3970SOL    HW112368   2.937   3.930   6.153  0.4414 -0.1381  1.1587
 3970SOL    HW212369   2.969   3.811   6.065 -1.0003  0.5076 -0.3018
 3971SOL     OW12370   6.046   1.110   4.309 -0.1074  0.2848  0.3522
 3971SOL    HW112371   6.010   1.193   4.280  1.6719  1.1494  0.5000
 3971SOL    HW212372   6.126   1.133   4.357 -0.5305 -1.3828  1.9951
 3972SOL     OW12373   3.796   2.030   0.239 -0.0609  0.2144  0.2512
 3972SOL    HW112374   3.808   2.116   0.199  0.1023  0.5868  1.0775
 3972SOL    HW212375   3.721   2.040   0.298 -1.0556 -0.6503 -0.8273
 3973SOL     OW12376   4.466   5.096   1.823  0.1389  0.6202  0.0669
 3973SOL    HW112377   4.421   5.035   1.881  0.1097  2.5345  2.1909
 3973SOL    HW212378   4.523   5.146   1.881  0.7173  2.1015 -1.7047
 3974SOL     OW12379   5.138   6.003   5.223  0.0044 -0.5056 -0.6160
 3974SOL    HW112380   5.089   5.932   5.182 -1.3305  0.6638 -1.1518
 3974SOL    HW212381   5.222   5.964   5.247  0.1628 -1.7186 -2.8478
 3975SOL     OW12382   5.182   2.029   5.415  0.5048  0.2920 -0.0400
 3975SOL    HW112383   5.273   2.049   5.439  1.0179 -0.5355 -1.1930
 3975SOL    HW212384   5.161   2.092   5.346  0.4369  0.0462 -0.2448
 3976SOL     OW12385   6.171   3.336   4.857 -0.1428 -0.1199 -0.2751
 3976SOL    HW112386   6.206   3.397   4.792  0.4168  0.8093  0.8648
 3976SOL    HW212387   6.213   3.252   4.838  0.1821  0.1975 -0.9667
 3977SOL     OW12388   4.404   5.212   6.112 -0.0658  0.6675  0.0259
 3977SOL    HW112389   4.493   5.216   6.146 -0.6509  2.6995  1.5351
 3977SOL    HW212390   4.398   5.286   6.051 -0.6633  0.4640 -0.1719
 3978SOL     OW12391   5.692   1.791   5.480 -0.1472 -0.2022 -0.7665
 3978SOL    HW112392   5.693   1.698   5.456 -1.3198 -1.0402  1.9972
 3978SOL    HW212393   5.600   1.809   5.499  0.2634  1.0954  0.1164
 3979SOL     OW12394   3.972   4.768   2.744 -0.1525 -0.4357  0.2049
 3979SOL    HW112395   4.066   4.752   2.753  0.2720  0.3001 -2.1553
 3979SOL    HW212396   3.962   4.802   2.655 -2.7402 -0.9743  0.2125
 3980SOL     OW12397   4.140   5.405   6.151 -0.1235  0.2595  0.0151
 3980SOL    HW112398   4.208   5.403   6.084 -1.2781  0.4613 -1.1940
 3980SOL    HW212399   4.127   5.498   6.169 -0.3065  0.2289  0.0338
 3981SOL     OW12400   2.337   2.562   6.047 -0.7581  0.2101 -0.0852
 3981SOL    HW112401   2.304   2.650   6.029 -0.5772  0.3409  0.2063
 3981SOL    HW212402   2.342   2.558   6.143  0.0200  0.1757 -0.1261
 3982SOL     OW12403   2.572   1.605   5.483  0.4239 -0.0454  0.6269
 3982SOL    HW112404   2.646   1.665   5.478  1.7952 -1.4251  2.8296
 3982SOL    HW212405   2.586   1.543   5.411  0.1177  1.0201 -0.3728
 3983SOL     OW12406   2.669   2.178   6.377  0.1776 -0.2665 -0.2688
 3983SOL    HW112407   2.665   2.105   6.315 -0.4016  0.1972 -0.7833
 3983SOL    HW212408   2.698   2.252   6.324  0.9676 -0.1589  0.2952
 3984SOL     OW12409   3.935   1.779   4.049 -0.3699 -0.8750  0.0208
 3984SOL    HW112410   3.908   1.779   3.957 -0.0854 -0.3853 -0.0648
 3984SOL    HW212411   3.879   1.844   4.091 -1.0238 -1.6331  0.3601
 3985SOL     OW12412   2.162   3.611   5.673 -0.4779  0.1402  0.3189
 3985SOL    HW112413   2.136   3.520   5.692 -1.0719  0.2517  0.0750
 3985SOL    HW212414   2.204   3.641   5.753  1.0736 -0.8228 -0.0997
 3986SOL     OW12415   0.467   5.208   4.375  0.1368 -0.5604 -0.2272
 3986SOL    HW112416   0.534   5.150   4.410 -0.4233 -1.0747 -0.0088
 3986SOL    HW212417   0.492   5.221   4.283 -0.3591 -2.0679 -0.5995
 3987SOL     OW12418   5.523   5.174   1.715 -0.4430  0.5092  0.4883
 3987SOL    HW112419   5.488   5.099   1.668  2.9764  0.6922 -2.8116
 3987SOL    HW212420   5.612   5.148   1.739  0.1181  2.7622  1.0904
 3988SOL     OW12421   0.605   3.412   2.215 -0.5091  0.2594  0.5165
 3988SOL    HW112422   0.553   3.331   2.214  0.8955 -0.7463 -2.4756
 3988SOL    HW212423   0.610   3.438   2.123  1.5261  2.1306  1.0792
 3989SOL     OW12424   2.240   3.871   6.293 -0.1820  0.0877  0.3370
 3989SOL    HW112425   2.303   3.941   6.304  0.5672 -0.5335  0.0726
 3989SOL    HW212426   2.291   3.798   6.258 -1.2488 -0.0653 -0.9847
 3990SOL     OW12427   3.290   0.613   6.261  0.2430  0.1540 -0.7521
 3990SOL    HW112428   3.214   0.578   6.306  0.6497  0.0582 -0.1308
 3990SOL    HW212429   3.254   0.679   6.201 -0.4290 -0.6287 -1.2322
 3991SOL     OW12430   0.889   1.400   1.332  0.3226  0.0857 -0.9023
 3991SOL    HW112431   0.940   1.403   1.252 -0.9324 -0.8262 -1.7682
 3991SOL    HW212432   0.941   1.449   1.396  0.5309  2.3803 -2.7106
 3992SOL     OW12433   2.671   0.468   0.889 -0.8580 -0.1002  0.5237
 3992SOL    HW112434   2.586   0.475   0.931 -2.5707 -3.3851 -1.9068
 3992SOL    HW212435   2.704   0.382   0.915  2.7787  1.7676  2.8807
 3993SOL     OW12436   3.097   4.462   4.097  0.2779  1.0541  0.0878
 3993SOL    HW112437   3.147   4.380   4.088 -2.4712 -0.6158 -0.9859
 3993SOL    HW212438   3.110   4.487   4.189  3.0617  0.7746 -0.1429
 3994SOL     OW12439   2.281   1.933   2.116 -0.6788 -0.4936 -0.2764
 3994SOL    HW112440   2.283   2.012   2.171  0.4343 -0.9849  0.4267
 3994SOL    HW212441   2.192   1.929   2.083 -0.8652  0.8379  0.0130
 3995SOL     OW12442   4.028   3.967   3.486  0.0296 -0.1555  0.0007
 3995SOL    HW112443   4.018   4.026   3.412 -0.9582 -1.1512 -0.6979
 3995SOL    HW212444   4.122   3.950   3.492  0.1808  0.4387 -0.6104
 3996SOL     OW12445   5.169   2.408   4.108 -0.8792  0.5168  1.1097
 3996SOL    HW112446   5.159   2.503   4.104 -0.5677  0.5210 -0.6856
 3996SOL    HW212447   5.097   2.378   4.163 -1.5616  1.7217  0.8983
 3997SOL     OW12448   1.219   3.789   1.720  0.1623  0.0413 -0.5386
 3997SOL    HW112449   1.183   3.748   1.798  1.7978  0.3227  0.4085
 3997SOL    HW212450   1.142   3.813   1.667 -0.9052 -1.8099  0.0964
 3998SOL     OW12451   0.343   3.045   1.974  0.3462  0.2702  0.3831
 3998SOL    HW112452   0.325   2.956   1.944  2.3185 -0.0211 -0.1067
 3998SOL    HW212453   0.358   3.036   2.068 -0.2696  0.2270  0.4782
 3999SOL     OW12454   3.286   3.720   5.521  0.2831 -0.3941 -0.3865
 3999SOL    HW112455   3.361   3.774   5.496 -0.8466  0.5118 -1.9407
 3999SOL    HW212456   3.242   3.700   5.439 -2.1619  0.5891  0.6031
 4000SOL     OW12457   5.440   2.197   3.367 -1.1834  0.2779  0.4801
 4000SOL    HW112458   5.442   2.110   3.328  0.2293  0.6339 -0.3314
 4000SOL    HW212459   5.461   2.183   3.459 -3.4523 -0.4611  0.9494
 4001SOL     OW12460   1.001   2.476   2.072 -0.1041 -0.2473 -0.2616
 4001SOL    HW112461   1.008   2.544   2.006 -1.5827  1.1856  0.9756
 4001SOL    HW212462   1.081   2.485   2.124 -0.9527  1.6421  0.8218
 4002SOL     OW12463   6.310   5.947   0.070 -0.2458  0.1855 -0.0037
 4002SOL    HW112464   6.380   5.983   0.016 -0.8850  0.4166 -0.7037
 4002SOL    HW212465   6.283   6.019   0.127  1.1964 -0.3785  1.4692
 4003SOL     OW12466   0.761   3.149   5.360 -0.0523  0.1939  0.1128
 4003SOL    HW112467   0.694   3.083   5.376 -1.5268  1.4348 -0.7089
 4003SOL    HW212468   0.713   3.227   5.331  1.7119  1.2366 -0.1994
 4004SOL     OW12469   1.976   2.743   6.114 -0.3084 -0.6964 -0.2525
 4004SOL    HW112470   2.050   2.770   6.060 -0.2269  0.8103  0.5357
 4004SOL    HW212471   2.017   2.704   6.192 -0.3327 -0.3167 -0.0428
 4005SOL     OW12472   1.578   1.084   3.244 -0.1993  0.4949  0.1343
 4005SOL    HW112473   1.630   1.112   3.319  0.5877  0.2211 -0.2998
 4005SOL    HW212474   1.610   0.996   3.224 -1.6156 -0.1380  0.5496
 4006SOL     OW12475   3.601   4.760   0.313  0.4626  0.2379 -0.3938
 4006SOL    HW112476   3.553   4.731   0.391  1.2556  0.4658  0.1906
 4006SOL    HW212477   3.555   4.839   0.285 -0.3919 -0.3483 -0.7247
 4007SOL     OW12478   0.880   3.134   2.445 -0.0357 -0.1678  0.1132
 4007SOL    HW112479   0.934   3.147   2.367 -1.6614 -1.9603 -1.4147
 4007SOL    HW212480   0.861   3.040   2.445 -1.1760  0.0312  1.9296
 4008SOL     OW12481   4.701   0.826   2.858  0.3610  0.3152 -0.3038
 4008SOL    HW112482   4.764   0.771   2.904  1.0328  1.0690 -0.2927
 4008SOL    HW212483   4.687   0.782   2.774  1.1604  0.3086 -0.4395
 4009SOL     OW12484   2.819   0.520   2.777  0.0180 -0.4303 -0.9457
 4009SOL    HW112485   2.764   0.591   2.808  2.4836  1.2428 -0.1112
 4009SOL    HW212486   2.810   0.523   2.682 -2.1955 -1.0310 -0.8196
 4010SOL     OW12487   2.354   4.002   2.276 -0.0393 -0.1153 -0.4418
 4010SOL    HW112488   2.312   4.074   2.228 -0.6057 -1.6714 -2.4094
 4010SOL    HW212489   2.311   3.923   2.244  2.0851 -1.5340 -0.0382
 4011SOL     OW12490   0.029   4.080   1.516  0.6423  0.2561 -0.0072
 4011SOL    HW112491   0.092   4.021   1.557  0.5716  0.6697  0.7065
 4011SOL    HW212492   0.012   4.147   1.582 -0.6448  0.0851 -0.1347
 4012SOL     OW12493   4.898   4.459   2.120  0.3897  0.1267  1.0266
 4012SOL    HW112494   4.926   4.398   2.188 -0.8958 -0.8422  0.7150
 4012SOL    HW212495   4.827   4.415   2.075 -0.0310  1.5249  0.2457
 4013SOL     OW12496   3.699   3.221   1.838  0.0348  0.1846  0.1894
 4013SOL    HW112497   3.627   3.217   1.900  0.1127  0.2616  0.2874
 4013SOL    HW212498   3.678   3.157   1.770  0.4075 -0.5895  0.7893
 4014SOL     OW12499   2.926   1.827   2.962 -0.6203  0.2742  0.2840
 4014SOL    HW112500   2.863   1.760   2.986  0.0917 -0.0845  1.2026
 4014SOL    HW212501   2.874   1.907   2.956 -1.3167 -0.1857  0.0940
 4015SOL     OW12502   5.043   4.434   2.713  0.4129 -0.1187  0.1373
 4015SOL    HW112503   5.000   4.520   2.715  1.4455  0.3893  0.9908
 4015SOL    HW212504   5.009   4.388   2.790  0.1687 -0.3360 -0.0960
 4016SOL     OW12505   3.230   4.479   3.372 -0.0414  0.4946  0.3416
 4016SOL    HW112506   3.309   4.448   3.329 -0.8208  1.0009 -1.5511
 4016SOL    HW212507   3.242   4.574   3.379 -0.0132  0.4429  1.0698
 4017SOL     OW12508   3.725   3.442   3.874  0.3579 -0.3442  0.1513
 4017SOL    HW112509   3.712   3.408   3.786 -0.3707  0.8175 -0.2101
 4017SOL    HW212510   3.769   3.526   3.861  3.3962 -1.6512  1.0862
 4018SOL     OW12511   5.810   5.239   1.901 -0.4793  0.0142  0.1160
 4018SOL    HW112512   5.747   5.179   1.942 -0.4540  0.6106  1.0728
 4018SOL    HW212513   5.891   5.189   1.895 -0.0338  0.3501  2.2705
 4019SOL     OW12514   2.880   1.765   0.010 -0.1874 -0.3967 -0.3699
 4019SOL    HW112515   2.814   1.778  -0.058  0.1671 -0.9281 -0.8194
 4019SOL    HW212516   2.848   1.691   0.061 -0.2828 -0.2110 -0.1536
 4020SOL     OW12517   5.118   0.595   1.981  0.3225  0.0602 -0.1384
 4020SOL    HW112518   5.116   0.638   1.895  1.7962  1.7254  0.6172
 4020SOL    HW212519   5.037   0.544   1.983 -1.1638  2.1979 -1.4142
 4021SOL     OW12520   4.124   1.329   3.195 -0.6007 -0.3970  0.6930
 4021SOL    HW112521   4.105   1.326   3.289 -1.8342  0.4871  0.4961
 4021SOL    HW212522   4.145   1.421   3.178 -0.5224 -0.5247  0.0784
 4022SOL     OW12523   3.363   4.847   4.942 -0.0709  0.3765 -0.0648
 4022SOL    HW112524   3.423   4.893   5.002 -1.9416  1.3346  1.1599
 4022SOL    HW212525   3.370   4.896   4.860  0.2202  0.9991  0.3191
 4023SOL     OW12526   2.421   2.288   0.864 -0.1794 -0.2697 -0.2679
 4023SOL    HW112527   2.444   2.351   0.796  0.4419 -1.0966 -0.8475
 4023SOL    HW212528   2.336   2.253   0.838 -1.2178  1.3124  0.8002
 4024SOL     OW12529   2.744   3.020   4.388  0.1782 -0.3295 -0.1837
 4024SOL    HW112530   2.676   3.014   4.454 -0.8340  0.0398 -1.1590
 4024SOL    HW212531   2.798   2.943   4.402  0.5062  0.1768  1.6081
 4025SOL     OW12532   5.366   2.772   5.759  0.3972 -1.0420  0.2074
 4025SOL    HW112533   5.291   2.814   5.718  0.3155  1.0885  2.3093
 4025SOL    HW212534   5.423   2.747   5.686 -0.5902  0.7951 -1.2751
 4026SOL     OW12535   1.704   2.155   4.832  0.1544  0.8916  0.3741
 4026SOL    HW112536   1.634   2.098   4.864 -1.2342  0.7875 -2.4725
 4026SOL    HW212537   1.781   2.099   4.828 -0.7989 -0.3986 -0.8704
 4027SOL     OW12538   4.160   5.832   3.978  0.0299 -0.8313  0.3868
 4027SOL    HW112539   4.097   5.894   3.941 -0.3678 -0.6700  1.2970
 4027SOL    HW212540   4.178   5.771   3.907 -0.8946 -0.6755  0.0064
 4028SOL     OW12541   1.193   2.215   2.864 -0.3494 -0.0991  0.4441
 4028SOL    HW112542   1.167   2.127   2.891 -0.5905  0.2440  1.3578
 4028SOL    HW212543   1.272   2.234   2.915  0.0711 -0.0264 -0.2212
 4029SOL     OW12544   3.789   2.748   2.988  0.1062 -0.7852  0.1336
 4029SOL    HW112545   3.871   2.698   2.986  0.9014  0.3691  1.4032
 4029SOL    HW212546   3.812   2.832   2.949 -0.5548 -0.5551  0.2317
 4030SOL     OW12547   4.033   3.795   2.975 -0.1120 -0.3417 -0.6879
 4030SOL    HW112548   4.042   3.716   2.921  0.5530 -0.5606 -0.2694
 4030SOL    HW212549   3.976   3.768   3.047 -1.9667  0.2658 -1.8452
 4031SOL     OW12550   4.221   1.833   4.773 -0.0163 -0.0204 -0.8853
 4031SOL    HW112551   4.256   1.759   4.823 -1.0676 -0.1508 -0.3111
 4031SOL    HW212552   4.154   1.871   4.830  1.1590  1.9876 -0.7522
 4032SOL     OW12553   3.072   5.125   2.314  0.1283  0.7670 -0.3443
 4032SOL    HW112554   3.132   5.173   2.257 -1.2063  1.1626 -1.4570
 4032SOL    HW212555   3.033   5.192   2.370 -2.9438  1.4038 -2.9670
 4033SOL     OW12556   5.878   4.844   1.423  0.4106 -0.3824  0.7434
 4033SOL    HW112557   5.937   4.798   1.483  0.2675 -0.4955  0.8009
 4033SOL    HW212558   5.839   4.774   1.370  2.4313 -0.0948 -1.2537
 4034SOL     OW12559   5.975   1.394   6.257  0.2681  0.0761  0.4697
 4034SOL    HW112560   5.917   1.467   6.279  0.3083  0.1595  0.2952
 4034SOL    HW212561   5.925   1.316   6.283  0.0251  0.1416  0.2007
 4035SOL     OW12562   1.894   3.059   5.383 -0.5509  0.1075  0.2044
 4035SOL    HW112563   1.866   2.971   5.357  0.7714 -0.6319  1.1797
 4035SOL    HW212564   1.942   3.092   5.307  0.1341 -0.5792  0.3244
 4036SOL     OW12565   0.275   4.269   0.694 -0.0045  0.2522 -0.6803
 4036SOL    HW112566   0.322   4.298   0.772 -0.0865 -0.4036 -0.3790
 4036SOL    HW212567   0.182   4.281   0.716 -0.1826 -2.2337  0.3292
 4037SOL     OW12568   5.777   5.078   5.451  0.9109 -0.3166  0.2491
 4037SOL    HW112569   5.824   5.128   5.518  0.5855 -1.2757  1.2375
 4037SOL    HW212570   5.761   4.993   5.492  0.0143 -0.6665 -0.7713
 4038SOL     OW12571   0.552   2.034   3.761  0.0997 -0.2266  0.2288
 4038SOL    HW112572   0.594   2.052   3.845  0.3863  1.0180 -0.1602
 4038SOL    HW212573   0.622   2.041   3.697 -0.6745  2.2651 -0.4817
 4039SOL     OW12574   0.907   5.358   3.658  0.3052  0.1800  0.1169
 4039SOL    HW112575   0.955   5.282   3.625 -0.7076 -1.3524  1.9549
 4039SOL    HW212576   0.819   5.349   3.621  0.3005  0.7098 -0.0093
 4040SOL     OW12577   4.758   3.304   2.035  0.0620 -0.3676  0.0812
 4040SOL    HW112578   4.852   3.287   2.026  0.1181  0.2995 -0.7303
 4040SOL    HW212579   4.720   3.218   2.054  0.9386 -0.4943  1.4223
 4041SOL     OW12580   4.950   3.487   1.143  0.0447  0.0293  0.0874
 4041SOL    HW112581   4.999   3.533   1.075 -0.5697  0.8247  0.1742
 4041SOL    HW212582   4.887   3.434   1.095 -1.9740  2.3204 -0.0014
 4042SOL     OW12583   0.782   5.260   0.531  0.5177 -0.3340 -0.1173
 4042SOL    HW112584   0.782   5.353   0.557  2.5082 -0.2054 -0.4042
 4042SOL    HW212585   0.740   5.260   0.445  0.0520  0.2261  0.0992
 4043SOL     OW12586   2.297   0.311   5.060 -0.4405 -0.0193 -0.1505
 4043SOL    HW112587   2.358   0.312   5.133 -0.0700 -1.4043 -0.4090
 4043SOL    HW212588   2.216   0.276   5.097 -0.0922 -1.2332 -0.4921
 4044SOL     OW12589   6.365   0.176   2.849  0.6697 -0.3068 -0.0116
 4044SOL    HW112590   6.314   0.203   2.772 -0.6193  0.1478  0.9744
 4044SOL    HW212591   6.309   0.114   2.895  2.8165 -3.3988 -1.2179
 4045SOL     OW12592   0.048   4.513   3.789  0.1931  0.5936  0.1683
 4045SOL    HW112593   0.141   4.532   3.776  0.5255 -1.0417 -0.0329
 4045SOL    HW212594   0.014   4.504   3.700 -0.0268  0.5819  0.2542
 4046SOL     OW12595   3.749   4.631   5.352  0.0975 -0.1512 -0.1872
 4046SOL    HW112596   3.728   4.539   5.340  0.0903 -0.4825  2.0548
 4046SOL    HW212597   3.772   4.662   5.264 -0.0078 -2.2393 -0.9959
 4047SOL     OW12598   1.816   0.644   0.002  0.4866 -0.1344 -0.2151
 4047SOL    HW112599   1.722   0.635   0.019  0.3444  0.4510 -0.6544
 4047SOL    HW212600   1.832   0.587  -0.073  0.5137 -0.3543 -0.0429
 4048SOL     OW12601   4.256   0.295   4.736  0.6255 -0.3639  0.7185
 4048SOL    HW112602   4.209   0.218   4.770 -1.7622  0.4423 -0.5132
 4048SOL    HW212603   4.300   0.263   4.658 -1.3342 -0.3219 -0.4775
 4049SOL     OW12604   2.583   2.734   4.411  0.0063 -0.3192 -0.5999
 4049SOL    HW112605   2.622   2.686   4.339  1.5280 -0.5917  0.3522
 4049SOL    HW212606   2.650   2.732   4.480 -1.3037  0.1044  0.7363
 4050SOL     OW12607   6.222   6.019   2.627  0.0681 -0.2624 -0.2139
 4050SOL    HW112608   6.264   5.950   2.677  0.6990 -0.0414 -0.4342
 4050SOL    HW212609   6.180   5.974   2.553  1.4160 -0.3082 -0.9824
 4051SOL     OW12610   1.372   2.566   2.003 -0.1260 -0.0693  0.2684
 4051SOL    HW112611   1.361   2.608   1.917 -1.0792  0.3984  0.5983
 4051SOL    HW212612   1.462   2.585   2.028 -0.3759  1.3663  0.1728
 4052SOL     OW12613   2.026   1.285   5.581 -0.1167 -0.0341 -0.0295
 4052SOL    HW112614   2.117   1.317   5.577 -0.0826  0.0152  0.8913
 4052SOL    HW212615   1.986   1.320   5.502  0.2214  1.4188  0.3904
 4053SOL     OW12616   2.931   3.720   1.120 -0.2548  1.0295  0.0251
 4053SOL    HW112617   2.864   3.683   1.176 -0.3055 -3.4083 -2.5473
 4053SOL    HW212618   3.003   3.741   1.179 -1.6356  0.1154  2.1257
 4054SOL     OW12619   4.171   3.861   6.318  0.4726  0.2280  0.1088
 4054SOL    HW112620   4.249   3.915   6.316 -0.1063  1.0756 -0.0214
 4054SOL    HW212621   4.203   3.772   6.300  1.1937  0.8046 -1.7030
 4055SOL     OW12622   1.472   4.504   5.655  0.9090 -0.0889  0.6679
 4055SOL    HW112623   1.556   4.466   5.682 -0.1317 -2.6465  0.5903
 4055SOL    HW212624   1.467   4.484   5.561  1.1585  2.0659  0.1451
 4056SOL     OW12625   0.179   1.000   1.875 -0.0934  0.3639  0.4595
 4056SOL    HW112626   0.213   1.086   1.853 -0.1871  1.0625  2.8434
 4056SOL    HW212627   0.200   0.946   1.798 -1.3057  2.7739 -1.7436
 4057SOL     OW12628   0.860   1.510   4.685 -0.1005 -0.0758 -0.0277
 4057SOL    HW112629   0.824   1.503   4.774 -0.1382  0.0639 -0.0325
 4057SOL    HW212630   0.904   1.595   4.684 -1.9791  0.9479 -0.8296
 4058SOL     OW12631   3.953   0.506   2.653 -0.3591 -0.2050 -0.2230
 4058SOL    HW112632   3.879   0.528   2.709 -1.4265 -2.4831 -0.6078
 4058SOL    HW212633   3.981   0.419   2.683  1.2894  0.0142 -0.9851
 4059SOL     OW12634   3.439   0.434   2.092  0.5088  0.1619  0.6778
 4059SOL    HW112635   3.465   0.356   2.043 -2.2138  0.2548 -1.0908
 4059SOL    HW212636   3.422   0.403   2.181  5.5527 -0.0150  1.8832
 4060SOL     OW12637   4.094   5.232   0.556 -0.3065  0.0481 -0.3998
 4060SOL    HW112638   4.162   5.168   0.578  0.1291  0.2747 -1.0512
 4060SOL    HW212639   4.053   5.197   0.477 -2.8583 -1.5266  1.4502
 4061SOL     OW12640   0.627   4.897   0.936 -0.0499  0.5432  0.1666
 4061SOL    HW112641   0.695   4.958   0.966 -0.6431  0.5925  1.4780
 4061SOL    HW212642   0.628   4.904   0.841  0.2046  2.2624  0.2789
 4062SOL     OW12643   4.779   4.882   1.671 -0.3933  0.1516 -0.1926
 4062SOL    HW112644   4.717   4.880   1.598 -0.4554 -3.2942 -0.1973
 4062SOL    HW212645   4.739   4.826   1.738  2.7886 -2.7675 -0.4347
 4063SOL     OW12646   5.422   3.082   4.562  0.7716 -0.6373  0.3428
 4063SOL    HW112647   5.434   3.174   4.588  0.7749 -0.0471 -1.5810
 4063SOL    HW212648   5.497   3.064   4.505 -0.5440 -1.0031 -1.3407
 4064SOL     OW12649   5.236   6.227   1.463  0.4499  0.1586 -0.3752
 4064SOL    HW112650   5.249   6.259   1.374 -1.2721 -0.1358 -0.7714
 4064SOL    HW212651   5.202   6.139   1.452  0.1950  0.1290  0.5633
 4065SOL     OW12652   0.939   6.229   0.539  0.1761 -0.1209  0.1998
 4065SOL    HW112653   0.995   6.152   0.527  0.2151 -0.0294 -0.1969
 4065SOL    HW212654   0.978   6.296   0.484  1.1622  0.7297  1.8412
 4066SOL     OW12655   4.750   6.282   0.551 -0.2483  0.1012 -0.3733
 4066SOL    HW112656   4.738   6.191   0.522 -0.3716 -0.3612  1.0356
 4066SOL    HW212657   4.787   6.273   0.639  1.0545  1.4350 -0.7432
 4067SOL     OW12658   4.981   1.492   5.735  0.3295  0.0921  0.8208
 4067SOL    HW112659   5.012   1.482   5.825  1.3408 -0.3740  0.4299
 4067SOL    HW212660   4.889   1.465   5.738 -0.1335  1.6918  2.0329
 4068SOL     OW12661   5.414   1.931   3.127  0.0054  0.4125  0.1666
 4068SOL    HW112662   5.411   2.013   3.078 -0.9964 -0.3332 -1.0987
 4068SOL    HW212663   5.430   1.864   3.060  0.4569 -0.4628  1.1245
 4069SOL     OW12664   3.409   4.707   4.507 -0.1218  0.2178 -0.1535
 4069SOL    HW112665   3.378   4.796   4.523  0.6564  0.4290  0.2192
 4069SOL    HW212666   3.360   4.653   4.568 -0.6618  0.3699 -0.4419
 4070SOL     OW12667   1.840   4.599   5.931 -0.7160 -0.0426 -0.5905
 4070SOL    HW112668   1.805   4.574   6.017 -0.0322  1.5119  0.1706
 4070SOL    HW212669   1.926   4.635   5.949  0.1062 -1.1177 -2.1326
 4071SOL     OW12670   4.663   4.410   4.629 -0.0410 -0.3227  0.5984
 4071SOL    HW112671   4.664   4.412   4.725  2.0182  0.6229  0.6156
 4071SOL    HW212672   4.695   4.323   4.607 -0.8324 -0.6623  0.7400
 4072SOL     OW12673   4.089   5.675   6.253 -0.8266 -0.3594  0.0999
 4072SOL    HW112674   4.005   5.709   6.285 -1.0807  0.7430 -1.6268
 4072SOL    HW212675   4.088   5.693   6.159  0.8134 -1.4990 -0.1758
 4073SOL     OW12676   3.192   1.366   1.366  0.3360 -0.9098 -0.3168
 4073SOL    HW112677   3.215   1.456   1.389  1.7127 -1.1142 -0.7842
 4073SOL    HW212678   3.193   1.318   1.449 -3.2815  0.0050  0.4208
 4074SOL     OW12679   3.685   0.139   4.726  0.3022  0.3463  0.2001
 4074SOL    HW112680   3.709   0.086   4.650 -0.0607  3.4990 -2.3578
 4074SOL    HW212681   3.593   0.120   4.741  0.7865 -1.5855  1.1105
 4075SOL     OW12682   4.976   3.539   6.291  0.1043 -0.6885  0.2631
 4075SOL    HW112683   4.898   3.521   6.343 -0.0598  2.4292  1.3181
 4075SOL    HW212684   5.046   3.549   6.355  0.4119  0.8350 -0.2702
 4076SOL     OW12685   3.769   2.717   0.278  0.1218  0.2672  0.1388
 4076SOL    HW112686   3.820   2.719   0.359  0.6108  1.6001 -0.1790
 4076SOL    HW212687   3.833   2.731   0.208 -0.6279  1.9883 -0.2622
 4077SOL     OW12688   4.881   5.310   1.012 -0.5059 -0.1297  0.0585
 4077SOL    HW112689   4.866   5.237   0.952  1.8597  0.2590 -1.1370
 4077SOL    HW212690   4.807   5.307   1.073 -1.9439 -1.7708 -1.6539
 4078SOL     OW12691   0.007   2.085   4.779  0.6011 -0.3932  0.2872
 4078SOL    HW112692   0.061   2.052   4.708 -1.9744 -2.6821 -0.8248
 4078SOL    HW212693  -0.051   2.150   4.737 -1.7697 -2.6357 -0.1805
 4079SOL     OW12694   0.985   6.073   2.126  0.1794 -0.1001  0.2281
 4079SOL    HW112695   1.042   6.150   2.122  2.5626 -1.8040 -1.8096
 4079SOL    HW212696   1.031   6.012   2.183  1.2283 -2.0388 -2.5362
 4080SOL     OW12697   4.838   2.763   6.064 -0.1772 -0.3088 -0.2233
 4080SOL    HW112698   4.797   2.842   6.031  2.0413  1.2329  0.4578
 4080SOL    HW212699   4.916   2.751   6.009 -0.5108 -2.1210 -0.3887
 4081SOL     OW12700   0.729   5.328   1.066 -0.0859  0.3855  0.4884
 4081SOL    HW112701   0.760   5.415   1.042 -0.4608  0.7014  1.1221
 4081SOL    HW212702   0.671   5.302   0.994  0.0982  0.6123  0.2549
 4082SOL     OW12703   1.192   2.756   5.368 -0.1049 -0.0290  0.9096
 4082SOL    HW112704   1.144   2.730   5.290  2.2595 -0.3209 -0.5472
 4082SOL    HW212705   1.194   2.852   5.364  1.0620 -0.0708 -0.1266
 4083SOL     OW12706   2.478   6.060   3.821 -0.8330 -0.3688  0.1037
 4083SOL    HW112707   2.555   6.006   3.805 -1.6836 -1.1745 -1.6651
 4083SOL    HW212708   2.504   6.149   3.796 -0.3187 -0.5245  0.0882
 4084SOL     OW12709   6.276   6.310   2.350 -0.6798  0.0425 -0.2573
 4084SOL    HW112710   6.274   6.323   2.255  1.7653  2.0565 -0.1351
 4084SOL    HW212711   6.291   6.216   2.361  0.8383  0.0189 -1.9856
 4085SOL     OW12712   3.514   5.409   5.206  0.3953  0.3948 -0.5246
 4085SOL    HW112713   3.468   5.346   5.262 -0.7582  1.9478  0.3446
 4085SOL    HW212714   3.604   5.407   5.237  0.2631 -0.4474 -0.1719
 4086SOL     OW12715   1.611   2.110   1.116 -0.5042  0.4667  0.1797
 4086SOL    HW112716   1.659   2.027   1.113 -0.8274  0.2775  0.2175
 4086SOL    HW212717   1.660   2.163   1.179 -0.7826 -0.0087  0.8149
 4087SOL     OW12718   5.017   2.746   4.315  0.0396  0.4321  0.1281
 4087SOL    HW112719   5.086   2.733   4.251 -0.9233 -1.2720 -0.6216
 4087SOL    HW212720   5.060   2.791   4.388  1.6796  0.3187 -0.7249
 4088SOL     OW12721   2.011   1.584   0.316 -0.5485 -0.3963 -0.1863
 4088SOL    HW112722   2.038   1.596   0.224  1.1612 -0.6954  0.2411
 4088SOL    HW212723   2.041   1.496   0.339 -1.2911 -0.4645  0.5639
 4089SOL     OW12724   0.776   0.819   5.954 -0.2481  0.0232 -0.2495
 4089SOL    HW112725   0.831   0.897   5.959 -0.7313  0.5449 -2.2690
 4089SOL    HW212726   0.691   0.847   5.989  0.3564 -0.4512  1.7356
 4090SOL     OW12727   5.254   4.193   1.570  0.5836  0.1739  0.4571
 4090SOL    HW112728   5.262   4.264   1.634 -2.2209 -0.6166  1.8426
 4090SOL    HW212729   5.242   4.238   1.486 -1.3981  1.4410  1.3417
 4091SOL     OW12730   0.273   1.923   4.712 -0.4349  0.0754  0.3048
 4091SOL    HW112731   0.248   1.839   4.750  1.5511 -0.8543 -0.2852
 4091SOL    HW212732   0.290   1.903   4.619  0.6843  0.9639  0.3027
 4092SOL     OW12733   2.103   4.922   5.165  0.0489  0.1991 -0.6124
 4092SOL    HW112734   2.075   4.834   5.140  0.6429  0.0497 -0.7846
 4092SOL    HW212735   2.153   4.910   5.245  0.8931  0.2517 -1.1160
 4093SOL     OW12736   5.472   2.088   0.352  0.6034  0.2295  0.1073
 4093SOL    HW112737   5.410   2.153   0.317 -0.8267 -1.3051 -0.3444
 4093SOL    HW212738   5.428   2.004   0.340  2.4175 -0.8536  0.6336
 4094SOL     OW12739   1.528   0.510   3.490 -0.3799 -0.0096 -0.1299
 4094SOL    HW112740   1.477   0.557   3.425 -1.2311 -0.0795  0.4643
 4094SOL    HW212741   1.581   0.449   3.440 -0.3606  0.5595 -0.8082
 4095SOL     OW12742   6.261   2.699   4.187 -0.4418  0.3536  0.4580
 4095SOL    HW112743   6.246   2.788   4.156  1.0702  0.9031  1.2322
 4095SOL    HW212744   6.346   2.675   4.150 -0.6019 -0.5977  0.6730
 4096SOL     OW12745   0.037   0.480   3.699 -0.1068  0.3218  0.0235
 4096SOL    HW112746   0.124   0.459   3.664 -0.9640  1.3034 -3.0203
 4096SOL    HW212747   0.045   0.465   3.793  2.8956 -1.0905 -0.3310
 4097SOL     OW12748   1.402   3.209   4.059 -0.0179 -0.6200 -0.1435
 4097SOL    HW112749   1.483   3.252   4.032  0.2067 -1.1475 -0.3123
 4097SOL    HW212750   1.394   3.133   4.002 -0.5676 -0.6425 -0.0435
 4098SOL     OW12751   3.581   2.092   5.080  0.5067  0.1251 -0.0620
 4098SOL    HW112752   3.649   2.143   5.036  0.0038  1.0093  0.1617
 4098SOL    HW212753   3.602   2.099   5.173 -0.5051  1.3449  0.0973
 4099SOL     OW12754   1.844   5.460   3.548  0.2182  0.2403 -0.7308
 4099SOL    HW112755   1.771   5.478   3.489  0.7778  0.5892 -1.3236
 4099SOL    HW212756   1.895   5.542   3.548  1.2568 -0.3912 -1.2480
 4100SOL     OW12757   2.438   5.146   4.919  0.3011  0.1305  0.3678
 4100SOL    HW112758   2.362   5.088   4.916 -0.6910  1.4257  0.0330
 4100SOL    HW212759   2.512   5.087   4.934 -0.8574 -1.0641  1.6022
 4101SOL     OW12760   0.774   0.236   1.642  0.1535  0.7486  0.3749
 4101SOL    HW112761   0.717   0.208   1.714  1.3468  1.4700  1.6370
 4101SOL    HW212762   0.839   0.293   1.683  1.6423  0.1603 -1.0592
 4102SOL     OW12763   2.902   2.757   2.971  0.6811 -0.1953  0.6684
 4102SOL    HW112764   2.941   2.831   2.924  1.0011  0.0781  1.3388
 4102SOL    HW212765   2.811   2.782   2.984  0.7360 -0.0087  0.7047
 4103SOL     OW12766   4.792   0.219   1.126  0.1770 -0.1442 -0.1546
 4103SOL    HW112767   4.732   0.167   1.073  1.2178 -0.6149 -0.8981
 4103SOL    HW212768   4.759   0.309   1.118 -0.9304 -0.4995  0.1696
 4104SOL     OW12769   5.571   0.415   6.316 -0.4986 -0.1348 -0.1114
 4104SOL    HW112770   5.498   0.461   6.357 -1.0623  0.9597 -2.1608
 4104SOL    HW212771   5.530   0.360   6.249  0.5071  2.0592 -2.7488
 4105SOL     OW12772   4.510   0.496   5.337  0.3253  0.5557  0.4732
 4105SOL    HW112773   4.541   0.577   5.379  1.2120  0.3285  0.2706
 4105SOL    HW212774   4.517   0.514   5.243 -1.2805  0.9200  0.3985
 4106SOL     OW12775   3.853   0.396   1.068 -0.4947 -0.2686 -0.5710
 4106SOL    HW112776   3.894   0.325   1.115  1.0518  0.6912 -0.3905
 4106SOL    HW212777   3.799   0.441   1.133 -0.5921 -0.6107 -0.4157
 4107SOL     OW12778   1.724   1.421   4.655 -0.0092  0.6178  0.1060
 4107SOL    HW112779   1.736   1.343   4.709 -1.3520  0.8165  0.7458
 4107SOL    HW212780   1.743   1.494   4.714  1.2469  0.7998 -0.4916
 4108SOL     OW12781   1.391   5.925   3.285 -0.6011  0.2644  0.1260
 4108SOL    HW112782   1.327   5.891   3.223  0.3945  1.5607 -1.6973
 4108SOL    HW212783   1.434   5.847   3.321 -1.3244 -0.5156 -0.6742
 4109SOL     OW12784   5.047   2.632   2.345 -0.5441 -1.1421  0.1566
 4109SOL    HW112785   5.088   2.595   2.422  2.3277  2.1241  0.4117
 4109SOL    HW212786   5.101   2.601   2.272  0.0567  0.0306  0.0802
 4110SOL     OW12787   0.761   0.321   6.344  0.9615  0.2394 -0.0840
 4110SOL    HW112788   0.843   0.307   6.392  1.1738 -1.1661 -0.7926
 4110SOL    HW212789   0.780   0.290   6.255  0.0378  1.1129 -0.6078
 4111SOL     OW12790   4.782   1.475   4.350 -0.5850  0.3809  0.1063
 4111SOL    HW112791   4.806   1.382   4.349 -2.1391 -0.0575  0.5862
 4111SOL    HW212792   4.750   1.493   4.262  0.8563  0.8055 -0.3525
 4112SOL     OW12793   1.237   0.115   2.978  0.5271  0.5855  0.4830
 4112SOL    HW112794   1.254   0.203   2.943  0.9117 -0.9259 -3.5734
 4112SOL    HW212795   1.142   0.106   2.975  0.6146 -0.3698 -2.9067
 4113SOL     OW12796   2.851   6.181   2.032 -0.8865  0.8667  0.3250
 4113SOL    HW112797   2.845   6.230   1.950  0.5458  0.8988  0.2082
 4113SOL    HW212798   2.765   6.190   2.072 -1.5528  1.0162 -1.0816
 4114SOL     OW12799   4.656   1.802   0.113  0.6044 -0.1719 -0.5739
 4114SOL    HW112800   4.730   1.742   0.120  1.4385  0.7317 -1.3590
 4114SOL    HW212801   4.581   1.745   0.096  1.4338 -0.9950 -1.6714
 4115SOL     OW12802   2.645   3.048   1.240  0.0326 -0.2722 -0.1701
 4115SOL    HW112803   2.616   3.125   1.289  0.4203 -1.5400  2.2588
 4115SOL    HW212804   2.567   3.018   1.194 -1.0807 -0.3656  1.6617
 4116SOL     OW12805   3.130   1.764   3.570 -0.0855  0.9728  0.0847
 4116SOL    HW112806   3.220   1.777   3.601  0.4808 -0.2125 -1.0025
 4116SOL    HW212807   3.090   1.707   3.636 -0.1151  1.6301  0.6541
 4117SOL     OW12808   0.479   0.214   1.560  0.0056 -0.4219 -0.2812
 4117SOL    HW112809   0.548   0.212   1.493  0.6522 -1.3896  0.3894
 4117SOL    HW212810   0.524   0.238   1.640 -0.5754 -0.3664  0.0319
 4118SOL     OW12811   6.185   2.899   4.675  0.3964  0.1237 -0.0080
 4118SOL    HW112812   6.258   2.871   4.620  0.9404  0.6554  0.4272
 4118SOL    HW212813   6.124   2.826   4.673  1.6079 -0.9555  0.8190
 4119SOL     OW12814   2.633   5.104   2.281 -0.3037  0.0428 -0.3990
 4119SOL    HW112815   2.676   5.117   2.366 -0.7783 -0.3616 -0.0933
 4119SOL    HW212816   2.671   5.171   2.225  2.1942 -1.5016 -0.7050
 4120SOL     OW12817   5.284   0.373   1.325 -0.5579  0.3067 -0.2865
 4120SOL    HW112818   5.314   0.440   1.263 -0.4611 -0.1737 -0.7695
 4120SOL    HW212819   5.200   0.344   1.289  0.1876 -1.0427 -1.0520
 4121SOL     OW12820   3.178   4.653   4.991 -0.0570 -0.0097  0.2883
 4121SOL    HW112821   3.249   4.715   4.971 -0.9951  1.2373  0.6874
 4121SOL    HW212822   3.121   4.701   5.050  1.2253 -2.5813  4.0065
 4122SOL     OW12823   1.489   1.450   5.683  0.0894  0.2810 -0.1159
 4122SOL    HW112824   1.497   1.442   5.779 -1.1828 -0.0326 -0.0252
 4122SOL    HW212825   1.442   1.531   5.669  1.3168  0.9421 -0.5463
 4123SOL     OW12826   5.746   4.842   5.614 -0.0836  0.1110 -0.1684
 4123SOL    HW112827   5.690   4.769   5.640 -0.3559  0.0315 -0.9319
 4123SOL    HW212828   5.827   4.801   5.583  0.3786  0.2214  0.8569
 4124SOL     OW12829   2.994   2.709   5.989  0.4269 -0.1370  0.5709
 4124SOL    HW112830   2.970   2.641   6.052  0.4586 -0.8299 -0.1378
 4124SOL    HW212831   3.036   2.777   6.041  0.5498 -0.7415  1.2756
 4125SOL     OW12832   5.501   2.636   4.374 -0.1047 -0.2209 -0.4443
 4125SOL    HW112833   5.498   2.637   4.469  0.0547 -0.6510 -0.4323
 4125SOL    HW212834   5.460   2.553   4.349  3.3295 -2.0585 -0.5844
 4126SOL     OW12835   2.464   6.126   2.723  0.2284  0.2221 -0.2299
 4126SOL    HW112836   2.396   6.188   2.698  0.7759  0.1673 -2.0538
 4126SOL    HW212837   2.419   6.042   2.731  0.0958  0.1250 -1.7392
 4127SOL     OW12838   5.782   0.187   0.203  0.0634  0.3893  0.3688
 4127SOL    HW112839   5.779   0.279   0.228  0.5182  0.3664  0.5040
 4127SOL    HW212840   5.691   0.158   0.209 -0.1124  0.8812  0.1292
 4128SOL     OW12841   3.784   2.407   0.971 -0.4502 -0.3049  0.1289
 4128SOL    HW112842   3.697   2.369   0.959  0.2096 -1.9772  0.4233
 4128SOL    HW212843   3.793   2.470   0.899 -1.6845 -0.5056 -0.2204
 4129SOL     OW12844   4.835   4.898   1.156 -0.3570  0.0069  0.2607
 4129SOL    HW112845   4.899   4.966   1.174  0.3221  0.0730 -2.0087
 4129SOL    HW212846   4.885   4.817   1.157 -0.7080 -0.2110  0.7060
 4130SOL     OW12847   6.120   1.517   0.806 -0.7305  0.1955  0.7917
 4130SOL    HW112848   6.132   1.559   0.892 -0.6632  3.0360 -0.4888
 4130SOL    HW212849   6.050   1.454   0.820 -1.5328  1.4212  2.7170
 4131SOL     OW12850   4.007   3.354   4.956 -0.1569  0.3872  0.2220
 4131SOL    HW112851   4.074   3.347   5.024 -0.8300  0.2760  0.8839
 4131SOL    HW212852   3.940   3.290   4.981  0.1364 -0.5257 -1.2039
 4132SOL     OW12853   2.253   6.359   2.822  0.4132 -0.2094  0.0893
 4132SOL    HW112854   2.236   6.312   2.904 -1.9773 -2.1275 -1.3802
 4132SOL    HW212855   2.193   6.434   2.825 -0.4304 -0.8520 -0.3113
 4133SOL     OW12856   0.996   5.134   4.739  0.4381 -0.0697 -0.3438
 4133SOL    HW112857   1.028   5.059   4.688  0.6263  0.2305 -0.6733
 4133SOL    HW212858   1.076   5.179   4.767  0.3793 -0.8322  1.1473
 4134SOL     OW12859   4.844   1.145   1.513 -0.6012  0.0678 -0.1616
 4134SOL    HW112860   4.928   1.116   1.476 -0.8676 -0.2139 -0.5560
 4134SOL    HW212861   4.864   1.162   1.605 -0.2218 -0.4981 -0.1278
 4135SOL     OW12862   5.111   1.580   4.582 -0.3439 -0.5182 -0.3831
 4135SOL    HW112863   5.153   1.648   4.634 -0.8236 -1.4162  1.2283
 4135SOL    HW212864   5.017   1.601   4.587 -0.4355 -0.8985 -0.4584
 4136SOL     OW12865   3.361   2.115   2.910 -0.0483  0.4076  0.4119
 4136SOL    HW112866   3.339   2.168   2.834  2.4581  0.2346 -0.5210
 4136SOL    HW212867   3.281   2.116   2.964 -2.8265 -1.4399 -3.2319
 4137SOL     OW12868   0.787   1.956   2.393  0.0516 -0.1903 -0.0545
 4137SOL    HW112869   0.795   2.024   2.460  0.0125  0.4280 -0.6631
 4137SOL    HW212870   0.877   1.928   2.376 -0.1158 -2.6857  2.5586
 4138SOL     OW12871   2.160   2.599   4.138  0.3326 -0.0363  0.4739
 4138SOL    HW112872   2.160   2.693   4.117 -0.1171  0.4468  2.4194
 4138SOL    HW212873   2.070   2.581   4.165  0.5195 -0.9464  0.5096
 4139SOL     OW12874   3.483   2.283   0.337 -0.3363 -0.3417 -0.1259
 4139SOL    HW112875   3.499   2.362   0.285 -1.5363 -0.3457 -0.5285
 4139SOL    HW212876   3.410   2.307   0.394  0.1619 -0.7392  0.7049
 4140SOL     OW12877   4.372   1.771   2.098 -0.0723 -0.1692 -0.7276
 4140SOL    HW112878   4.355   1.843   2.037 -0.0120  0.4711 -0.0063
 4140SOL    HW212879   4.463   1.786   2.127 -0.1190 -0.4332 -0.4457
 4141SOL     OW12880   4.275   1.590   4.940  0.1016  0.4329 -0.1393
 4141SOL    HW112881   4.183   1.567   4.950  0.2368  0.4514  1.4465
 4141SOL    HW212882   4.292   1.653   5.011  2.0517 -1.9068  1.6336
 4142SOL     OW12883   3.013   4.695   3.417 -0.4920 -0.0177  0.0086
 4142SOL    HW112884   2.934   4.685   3.470 -0.6409  0.0244 -0.2064
 4142SOL    HW212885   2.982   4.692   3.327 -0.3003  0.4144 -0.0752
 4143SOL     OW12886   2.921   1.978   5.365 -0.2718  0.3299 -0.0309
 4143SOL    HW112887   2.980   1.954   5.294 -1.4428 -0.8727 -0.6534
 4143SOL    HW212888   2.967   1.955   5.445  0.7268  0.9092 -0.4280
 4144SOL     OW12889   2.965   1.251   3.062 -0.4161 -0.4151 -0.0699
 4144SOL    HW112890   2.923   1.240   2.976 -0.2777 -0.3507 -0.1463
 4144SOL    HW212891   3.057   1.267   3.041 -0.7316  1.7225 -0.0091
 4145SOL     OW12892   2.044   0.304   5.141  0.3838  0.6392 -0.2513
 4145SOL    HW112893   1.987   0.339   5.072  1.1123  1.7282 -0.3291
 4145SOL    HW212894   2.007   0.218   5.161 -1.3980  1.3880 -0.1480
 4146SOL     OW12895   2.096   4.937   2.112 -0.3837 -0.3162  0.0878
 4146SOL    HW112896   2.190   4.952   2.116 -0.7003  1.8272  1.1310
 4146SOL    HW212897   2.084   4.847   2.144  1.4557 -1.6945 -2.7922
 4147SOL     OW12898   3.810   2.821   5.983  0.1531 -0.5768 -0.5219
 4147SOL    HW112899   3.731   2.849   5.938  0.2057 -0.4746 -0.5515
 4147SOL    HW212900   3.854   2.762   5.922 -0.9663 -2.3704  0.3141
 4148SOL     OW12901   5.552   2.973   5.853 -0.9098  0.0536  0.9218
 4148SOL    HW112902   5.535   3.058   5.812 -0.4186  0.3242  1.2689
 4148SOL    HW212903   5.488   2.914   5.813  0.7223 -0.1446 -1.6371
 4149SOL     OW12904   3.503   1.190   4.200 -0.3332 -0.5348  0.3408
 4149SOL    HW112905   3.439   1.243   4.248 -0.7021  0.5496 -1.2617
 4149SOL    HW212906   3.588   1.218   4.236 -0.6387 -0.3579  0.9446
 4150SOL     OW12907   1.962   5.291   1.919  0.2326 -0.3646 -0.0215
 4150SOL    HW112908   1.889   5.228   1.920 -1.1423  1.1727 -0.0745
 4150SOL    HW212909   2.036   5.240   1.887 -0.9351 -1.8486 -0.5050
 4151SOL     OW12910   3.502   2.367   4.169  0.2745  0.0995 -0.0929
 4151SOL    HW112911   3.428   2.376   4.229  0.8429 -0.1873  0.6597
 4151SOL    HW212912   3.579   2.370   4.225  0.7736 -1.5296 -0.6428
 4152SOL     OW12913   2.445   5.991   5.549 -0.0334 -0.0923 -0.4472
 4152SOL    HW112914   2.382   6.028   5.488  1.4836 -0.3931 -2.2916
 4152SOL    HW212915   2.484   5.917   5.502  1.3736 -0.1836  0.7786
 4153SOL     OW12916   5.310   3.010   1.951 -0.2223  0.2513 -0.1285
 4153SOL    HW112917   5.391   2.976   1.915 -1.9730 -1.3391 -2.9605
 4153SOL    HW212918   5.337   3.075   2.016  3.2468 -0.3954 -0.7650
 4154SOL     OW12919   2.876   0.983   6.161  0.0925 -0.0223 -0.2049
 4154SOL    HW112920   2.942   1.051   6.144 -2.2588  2.1252 -1.4191
 4154SOL    HW212921   2.897   0.952   6.249  1.6421  1.8894  0.1907
 4155SOL     OW12922   2.408   1.682   2.874 -0.0742 -0.3029  0.2585
 4155SOL    HW112923   2.455   1.702   2.793 -1.0165 -1.4967 -0.6090
 4155SOL    HW212924   2.457   1.729   2.942  2.6175 -1.7948 -0.5306
 4156SOL     OW12925   1.881   2.406   1.138  0.4027 -0.3903 -0.3040
 4156SOL    HW112926   1.852   2.318   1.164  1.1334 -0.4885  0.2178
 4156SOL    HW212927   1.911   2.446   1.220  1.4098 -0.1808 -0.7688
 4157SOL     OW12928   0.785   2.499   4.891  0.4712 -0.4004  0.3312
 4157SOL    HW112929   0.799   2.584   4.849 -0.8450  0.0513  0.7687
 4157SOL    HW212930   0.750   2.520   4.977  1.2921 -1.3738  0.9299
 4158SOL     OW12931   4.708   1.389   0.745  0.1744 -0.0525 -0.2773
 4158SOL    HW112932   4.671   1.341   0.671  3.0889 -0.6116 -1.5183
 4158SOL    HW212933   4.707   1.326   0.817  0.5548 -0.7603 -0.8668
 4159SOL     OW12934   5.350   3.487   4.152  0.1127  0.3162  0.4801
 4159SOL    HW112935   5.310   3.569   4.124  0.0408  0.6057  1.4106
 4159SOL    HW212936   5.444   3.507   4.159 -0.0838  0.7451  2.1437
 4160SOL     OW12937   3.740   0.458   3.828  0.1381  1.0404 -0.1047
 4160SOL    HW112938   3.647   0.476   3.818 -0.1578 -0.4327 -0.1429
 4160SOL    HW212939   3.782   0.515   3.763 -0.7532  1.3591 -0.4188
 4161SOL     OW12940   4.834   1.709   4.824  0.0081  0.0016 -0.1354
 4161SOL    HW112941   4.837   1.667   4.738  1.4923  1.6287 -0.9284
 4161SOL    HW212942   4.825   1.802   4.805  0.2807  0.3878  1.4936
 4162SOL     OW12943   1.328   5.277   4.351 -0.6731  0.0125  0.0458
 4162SOL    HW112944   1.250   5.307   4.399 -2.0475 -1.5964 -1.0447
 4162SOL    HW212945   1.318   5.315   4.264 -0.5324 -0.6503 -0.2612
 4163SOL     OW12946   1.792   1.292   3.880  0.4023  0.1182  0.0643
 4163SOL    HW112947   1.766   1.202   3.897 -2.3198  0.9606  0.8045
 4163SOL    HW212948   1.884   1.296   3.906  0.7131 -2.5221 -0.4180
 4164SOL     OW12949   2.432   0.971   5.684  0.6405 -0.0305  0.2408
 4164SOL    HW112950   2.410   1.033   5.614  0.4602 -0.5889 -0.1980
 4164SOL    HW212951   2.519   0.999   5.713  0.2532  0.8927  0.5593
 4165SOL     OW12952   4.166   3.170   5.128 -0.1630  0.3547 -0.3515
 4165SOL    HW112953   4.251   3.196   5.164 -0.0775  0.2180 -0.4547
 4165SOL    HW212954   4.157   3.078   5.154 -0.4323  0.4657 -0.0510
 4166SOL     OW12955   5.508   0.063   0.769  0.3853 -0.2615  0.0556
 4166SOL    HW112956   5.566   0.092   0.699 -0.6738  1.7312 -0.0612
 4166SOL    HW212957   5.478   0.144   0.810 -1.2554 -1.2835  0.9598
 4167SOL     OW12958   1.129   4.267   5.703 -0.5279 -0.0003  0.6464
 4167SOL    HW112959   1.165   4.266   5.614 -2.0227 -0.0482  0.0108
 4167SOL    HW212960   1.194   4.313   5.754  2.4029 -3.5354  0.4746
 4168SOL     OW12961   2.056   2.032   6.084  0.3108  0.0175  0.0074
 4168SOL    HW112962   1.979   2.081   6.109  1.1031  0.0335  2.7135
 4168SOL    HW212963   2.116   2.097   6.048 -0.3679  0.2347 -0.7497
 4169SOL     OW12964   5.139   2.021   6.260  0.1486 -1.2433 -0.3079
 4169SOL    HW112965   5.136   2.106   6.216  0.8248 -0.7517  0.5547
 4169SOL    HW212966   5.047   1.994   6.265 -0.0151 -0.8900 -1.1925
 4170SOL     OW12967   4.036   5.647   2.861  0.7974  0.3281  0.1475
 4170SOL    HW112968   3.971   5.605   2.918 -0.0044  0.4873 -0.6387
 4170SOL    HW212969   4.108   5.584   2.856  0.4691 -0.0883  0.5823
 4171SOL     OW12970   0.042   3.163   5.693  0.2918  0.9345  0.7604
 4171SOL    HW112971   0.040   3.073   5.726 -1.3971  0.6985  0.1058
 4171SOL    HW212972   0.030   3.218   5.770  0.0167  0.5461  0.9945
 4172SOL     OW12973   3.316   5.459   0.010  0.5566  0.5212 -0.1888
 4172SOL    HW112974   3.391   5.517  -0.005  0.2045  1.0878  0.1779
 4172SOL    HW212975   3.320   5.395  -0.060  1.1950  0.7481 -0.3632
 4173SOL     OW12976   3.640   6.217   1.003  0.2725  0.2661  0.3208
 4173SOL    HW112977   3.628   6.312   1.001  0.4734  0.2895  0.1420
 4173SOL    HW212978   3.680   6.199   1.088  1.7065  0.5269 -0.2705
 4174SOL     OW12979   2.819   3.171   3.775 -0.1778 -0.3548  0.3257
 4174SOL    HW112980   2.897   3.128   3.811  3.3486  2.6152 -2.9242
 4174SOL    HW212981   2.806   3.129   3.690 -0.5451  0.8639 -0.2407
 4175SOL     OW12982   4.580   6.298   2.426  0.7225  0.2266  0.0633
 4175SOL    HW112983   4.509   6.309   2.490  0.3346 -0.9284 -0.1564
 4175SOL    HW212984   4.550   6.347   2.349 -0.9216 -2.0724 -0.8520
 4176SOL     OW12985   5.692   2.011   5.292 -0.2601  0.0805 -0.3013
 4176SOL    HW112986   5.726   1.938   5.344  0.1921 -0.1042 -0.8535
 4176SOL    HW212987   5.708   1.986   5.201 -0.5270  0.6585 -0.5139
 4177SOL     OW12988   3.390   2.985   3.951 -0.7636  1.1541  0.2100
 4177SOL    HW112989   3.321   2.988   3.884  0.1088  1.2545 -0.7000
 4177SOL    HW212990   3.438   2.905   3.932 -1.1629  0.6109  1.4022
 4178SOL     OW12991   4.641   6.300   1.758  0.2388 -0.0017  0.0296
 4178SOL    HW112992   4.721   6.351   1.772 -0.4715  1.0526  0.3522
 4178SOL    HW212993   4.624   6.260   1.843 -0.0869  0.5379  0.2228
 4179SOL     OW12994   4.169   5.231   2.977 -0.3383 -0.5068 -0.2876
 4179SOL    HW112995   4.105   5.278   3.030  0.1391  0.6457 -0.7192
 4179SOL    HW212996   4.119   5.195   2.904 -0.5969 -0.1032 -0.3105
 4180SOL     OW12997   0.762   0.895   2.121 -0.1723 -0.1997 -0.4244
 4180SOL    HW112998   0.674   0.913   2.154 -0.8608 -3.2192 -0.3569
 4180SOL    HW212999   0.748   0.845   2.041  1.4346 -2.0351  0.3690
 4181SOL     OW13000   0.883   2.616   5.830 -0.4514 -0.1884  0.0553
 4181SOL    HW113001   0.945   2.608   5.903 -0.4285  1.3486  0.2369
 4181SOL    HW213002   0.932   2.587   5.753 -0.1770 -0.9190  0.4923
 4182SOL     OW13003   4.280   5.444   1.793  0.0324  0.1058  0.5075
 4182SOL    HW113004   4.276   5.428   1.887 -0.4251 -0.4883  0.3898
 4182SOL    HW213005   4.368   5.415   1.767 -0.7028 -2.1405  0.3307
 4183SOL     OW13006   4.219   4.607   1.060 -0.0098 -0.0853 -0.1375
 4183SOL    HW113007   4.289   4.627   0.999  0.4452  0.1555  0.4454
 4183SOL    HW213008   4.193   4.517   1.040  0.4013 -0.1413 -0.4150
 4184SOL     OW13009   0.634   1.923   4.998 -0.1277 -0.1770 -0.4746
 4184SOL    HW113010   0.648   2.017   5.007  1.6946 -0.3106 -1.3808
 4184SOL    HW213011   0.653   1.905   4.906 -1.6016 -1.2788 -0.5999
 4185SOL     OW13012   1.189   1.372   4.040 -0.4926  0.3787  0.4611
 4185SOL    HW113013   1.265   1.357   4.095 -1.6788  0.7873  2.3109
 4185SOL    HW213014   1.141   1.442   4.084 -2.6509 -0.8161  0.1670
 4186SOL     OW13015   3.399   1.530   5.830 -0.2875  0.3470 -0.0117
 4186SOL    HW113016   3.442   1.612   5.806 -1.9369  0.8661 -1.3844
 4186SOL    HW213017   3.334   1.556   5.896  0.3349 -0.1635  0.8278
 4187SOL     OW13018   2.765   3.577   5.555  0.8622 -0.4538 -0.2824
 4187SOL    HW113019   2.794   3.650   5.500  3.2718  0.5170  2.0671
 4187SOL    HW213020   2.839   3.560   5.614 -0.9957 -2.3700  1.6887
 4188SOL     OW13021   5.352   1.942   5.021 -0.3155 -0.0700 -0.1294
 4188SOL    HW113022   5.409   1.964   5.095 -1.4977 -0.7562  1.0225
 4188SOL    HW213023   5.391   1.863   4.983  0.2249  0.2140 -0.1751
 4189SOL     OW13024   3.996   2.182   0.415  0.3272 -0.3837 -0.0732
 4189SOL    HW113025   3.905   2.204   0.437  1.1826 -0.0071  3.8242
 4189SOL    HW213026   4.038   2.267   0.400 -0.0101 -0.5919 -2.7550
 4190SOL     OW13027   2.231   3.118   2.301 -0.1730  0.3370  0.4709
 4190SOL    HW113028   2.270   3.158   2.224  0.4289 -0.1557  0.5144
 4190SOL    HW213029   2.285   3.148   2.374  0.3603 -0.6419  0.4886
 4191SOL     OW13030   4.099   6.322   0.024  0.8726  0.0587 -0.1549
 4191SOL    HW113031   4.070   6.268   0.097  0.5914 -0.6829 -0.8069
 4191SOL    HW213032   4.088   6.267  -0.053  1.2607  0.7952 -0.7508
 4192SOL     OW13033   4.768   4.595   2.559 -0.4125 -0.3770  0.2325
 4192SOL    HW113034   4.736   4.511   2.591  0.5722 -0.8872 -0.0537
 4192SOL    HW213035   4.692   4.638   2.521 -1.3780 -0.2158  2.2641
 4193SOL     OW13036   4.423   2.185   2.705  0.2318 -0.5561  0.4832
 4193SOL    HW113037   4.494   2.140   2.660 -0.7227 -3.0666  1.3134
 4193SOL    HW213038   4.458   2.204   2.792  0.7162  0.5856  0.0542
 4194SOL     OW13039   3.386   6.264   4.336 -0.4353 -0.0063 -0.3686
 4194SOL    HW113040   3.399   6.264   4.241 -2.4205 -1.0999 -0.6800
 4194SOL    HW213041   3.292   6.257   4.348 -0.1251 -1.9418  1.6947
 4195SOL     OW13042   2.431   1.252   3.587  0.4903  0.4147 -0.2065
 4195SOL    HW113043   2.387   1.221   3.508 -0.2505 -0.3295  0.4715
 4195SOL    HW213044   2.418   1.347   3.587 -0.7561  0.2551 -0.2407
 4196SOL     OW13045   3.204   4.450   0.329 -0.3395 -0.0212 -0.1539
 4196SOL    HW113046   3.191   4.390   0.256  0.3078 -1.2318  0.6992
 4196SOL    HW213047   3.120   4.451   0.375 -1.1062  1.5945 -1.4854
 4197SOL     OW13048   0.382   3.229   4.576 -0.3074 -0.0711 -0.1303
 4197SOL    HW113049   0.382   3.324   4.563 -0.5521  0.0869  0.8844
 4197SOL    HW213050   0.425   3.217   4.661  0.7239 -0.9574 -0.7592
 4198SOL     OW13051   5.531   0.157   5.548  0.3453  0.6175  0.1376
 4198SOL    HW113052   5.542   0.065   5.573  0.3645  0.6121  0.1087
 4198SOL    HW213053   5.531   0.204   5.632 -1.1898  0.4372  0.2654
 4199SOL     OW13054   0.926   6.148   1.704  0.3297  0.2191 -1.0776
 4199SOL    HW113055   0.862   6.218   1.696  0.3083  0.1371 -1.7041
 4199SOL    HW213056   0.883   6.072   1.666  0.9305  0.2638 -1.9029
 4200SOL     OW13057   2.141   1.783   4.784 -0.6216  0.2865 -0.0730
 4200SOL    HW113058   2.163   1.808   4.874  0.1591 -0.2997 -0.0919
 4200SOL    HW213059   2.132   1.688   4.787 -1.7088  0.3712 -0.3895
 4201SOL     OW13060   1.937   1.419   4.509  0.0875  0.1655  0.0862
 4201SOL    HW113061   1.906   1.426   4.418  0.3766  0.8938  0.0317
 4201SOL    HW213062   1.858   1.423   4.562 -0.0257  0.5676 -0.1077
 4202SOL     OW13063   1.253   5.397   4.085  0.5363  0.1469 -0.2750
 4202SOL    HW113064   1.331   5.451   4.076  0.0207  1.0357  0.3234
 4202SOL    HW213065   1.225   5.380   3.995  1.3071 -0.0286 -0.4908
 4203SOL     OW13066   5.670   6.329   0.482 -0.3135  0.1800 -0.2604
 4203SOL    HW113067   5.635   6.418   0.472 -3.5637 -0.5986  2.1292
 4203SOL    HW213068   5.612   6.275   0.428 -0.0394 -0.7331  0.3426
 4204SOL     OW13069   5.997   0.748   5.550  0.1590 -0.4524  0.1076
 4204SOL    HW113070   6.011   0.840   5.574 -1.2998 -0.0490 -0.4803
 4204SOL    HW213071   5.907   0.730   5.577 -0.0349 -1.2905 -1.0387
 4205SOL     OW13072   5.032   2.547   4.562  0.0893  0.4512 -0.2353
 4205SOL    HW113073   5.034   2.632   4.605  1.3878 -0.4120  1.5187
 4205SOL    HW213074   4.972   2.494   4.615  2.1243 -0.7930  0.9135
 4206SOL     OW13075   1.776   2.816   4.075  0.2417  0.5172 -0.1064
 4206SOL    HW113076   1.801   2.774   4.157 -1.4297 -1.0706 -0.3479
 4206SOL    HW213077   1.827   2.770   4.008 -1.2739 -0.9301 -0.3247
 4207SOL     OW13078   6.214   3.550   1.924  0.4632  0.3300  0.1062
 4207SOL    HW113079   6.214   3.460   1.890  1.8633  0.0259  0.8692
 4207SOL    HW213080   6.188   3.603   1.848  0.4959 -0.6217 -0.5995
 4208SOL     OW13081   5.529   1.108   2.489 -0.3863  1.0154  0.2918
 4208SOL    HW113082   5.544   1.201   2.473  0.5495  0.5689 -1.6571
 4208SOL    HW213083   5.615   1.075   2.518 -0.6022  0.6661  0.5437
 4209SOL     OW13084   6.127   0.135   3.213  0.1280  0.3884  0.7692
 4209SOL    HW113085   6.093   0.119   3.301  2.0827  1.2138  1.7367
 4209SOL    HW213086   6.156   0.226   3.214  0.4349  0.3424 -0.6495
 4210SOL     OW13087   0.657   3.220   0.420  0.1359 -0.0600  0.4578
 4210SOL    HW113088   0.612   3.293   0.462 -0.6611  0.3557 -1.0286
 4210SOL    HW213089   0.598   3.146   0.432 -0.5868  0.2869 -0.7271
 4211SOL     OW13090   1.361   6.358   4.760 -0.2740  0.2378  0.0939
 4211SOL    HW113091   1.411   6.379   4.838 -1.6450 -0.7057  1.2709
 4211SOL    HW213092   1.399   6.277   4.727  1.2219  1.3621 -1.0858
 4212SOL     OW13093   5.598   2.822   4.981 -0.1375 -0.1145  0.0139
 4212SOL    HW113094   5.626   2.911   4.959  0.1770 -0.3788 -0.6998
 4212SOL    HW213095   5.507   2.817   4.950 -0.0418 -0.1493 -0.2648
 4213SOL     OW13096   5.078   0.665   1.370  0.1096  0.7122 -0.1794
 4213SOL    HW113097   5.039   0.747   1.340 -0.1237  0.3583 -0.8570
 4213SOL    HW213098   5.160   0.658   1.322 -0.2147  0.1964 -0.6736
 4214SOL     OW13099   4.867   3.350   2.445  0.1496 -0.2332 -0.1112
 4214SOL    HW113100   4.844   3.443   2.440 -0.8119 -0.3014  1.9312
 4214SOL    HW213101   4.800   3.305   2.394  0.2659  0.1473 -0.6025
 4215SOL     OW13102   3.873   0.381   1.973  0.1878 -0.9087 -0.1232
 4215SOL    HW113103   3.954   0.430   1.959 -0.4860  0.4173  0.4401
 4215SOL    HW213104   3.884   0.301   1.922  1.4237 -0.2837 -0.8772
 4216SOL     OW13105   3.115   5.775   4.659  0.7342 -0.3131 -0.1728
 4216SOL    HW113106   3.111   5.725   4.740 -0.1169 -1.0159 -0.6325
 4216SOL    HW213107   3.050   5.734   4.602  0.9617  0.4847 -1.0346
 4217SOL     OW13108   1.238   5.411   3.264 -0.0694 -0.0181  0.2873
 4217SOL    HW113109   1.287   5.464   3.201 -0.6753 -0.9255 -1.0014
 4217SOL    HW213110   1.201   5.475   3.325  1.5215  0.7926  0.4757
 4218SOL     OW13111   1.995   6.010   5.542 -0.5530  0.4612  0.1561
 4218SOL    HW113112   1.904   5.979   5.548  0.0236 -1.1569  1.0316
 4218SOL    HW213113   2.046   5.931   5.528  0.7362  1.3769 -0.5554
 4219SOL     OW13114   0.079   2.686   1.563  0.6942 -0.0249 -0.0504
 4219SOL    HW113115   0.141   2.727   1.502  0.5624  0.1075 -0.0963
 4219SOL    HW213116   0.002   2.666   1.509  0.8841 -0.6312 -0.0972
 4220SOL     OW13117   1.825   4.168   3.609  0.1072  1.0457 -0.1166
 4220SOL    HW113118   1.898   4.106   3.614 -0.8928 -0.0979  2.7518
 4220SOL    HW213119   1.840   4.229   3.680 -1.7974  0.6305  0.7139
 4221SOL     OW13120   2.798   3.130   0.012  0.1802  0.1768 -0.3290
 4221SOL    HW113121   2.848   3.191  -0.042 -1.3564  1.8834  0.0732
 4221SOL    HW213122   2.835   3.140   0.100  0.0586  0.3784 -0.3013
 4222SOL     OW13123   0.053   6.320   4.300 -0.4761 -1.0213  0.3465
 4222SOL    HW113124  -0.033   6.361   4.298 -0.2871 -0.6336  0.0997
 4222SOL    HW213125   0.065   6.293   4.392 -0.7494 -0.8505  0.4328
 4223SOL     OW13126   2.030   1.081   4.662 -0.1173  0.4348  0.3712
 4223SOL    HW113127   2.055   1.160   4.613  0.2120  0.0638 -0.0719
 4223SOL    HW213128   2.104   1.064   4.720  2.0921 -2.2105 -2.8237
 4224SOL     OW13129   0.223   2.495   1.267 -0.1626  0.2330 -0.1834
 4224SOL    HW113130   0.192   2.406   1.255  0.0056  0.1744 -0.1787
 4224SOL    HW213131   0.288   2.490   1.337 -0.4435  0.4239  0.0974
 4225SOL     OW13132   2.385   4.222   5.706 -0.2390  0.6424  0.3518
 4225SOL    HW113133   2.315   4.222   5.640 -0.9336 -0.2575  1.0714
 4225SOL    HW213134   2.355   4.285   5.772 -0.6505 -0.1407  0.9292
 4226SOL     OW13135   6.277   3.693   5.189 -0.6791  0.6579 -0.7110
 4226SOL    HW113136   6.357   3.641   5.182 -0.7604 -0.1196  2.6045
 4226SOL    HW213137   6.215   3.649   5.130  0.5522 -0.2697 -1.3620
 4227SOL     OW13138   4.219   0.611   1.115  0.6626 -0.4856 -0.0002
 4227SOL    HW113139   4.176   0.554   1.179  2.3676 -0.1546  1.5153
 4227SOL    HW213140   4.250   0.551   1.047 -0.8524 -0.8870 -0.3736
 4228SOL     OW13141   3.009   4.645   1.516  0.2508  0.2059  0.4041
 4228SOL    HW113142   2.999   4.739   1.533 -0.5277 -0.0244  1.3132
 4228SOL    HW213143   2.968   4.603   1.591 -0.2191 -0.8665 -0.4282
 4229SOL     OW13144   6.297   3.085   0.329  0.1564 -0.1128 -0.0087
 4229SOL    HW113145   6.268   3.017   0.268  0.4789 -0.6925  0.4684
 4229SOL    HW213146   6.389   3.100   0.306 -0.2113  0.9930 -0.8560
 4230SOL     OW13147   4.046   1.196   2.973  0.5135  0.1417  0.1156
 4230SOL    HW113148   4.086   1.227   3.055 -0.9892  3.9197 -0.3821
 4230SOL    HW213149   4.112   1.213   2.906 -0.3160  2.7336 -0.1625
 4231SOL     OW13150   2.647   2.913   0.859 -0.0653 -0.6165  0.3547
 4231SOL    HW113151   2.575   2.879   0.804 -0.3015  0.2720  0.1038
 4231SOL    HW213152   2.725   2.870   0.824  0.0277  1.0804 -1.7559
 4232SOL     OW13153   2.348   2.686   3.141  0.2263 -0.7803  0.2769
 4232SOL    HW113154   2.414   2.729   3.196 -0.2820 -0.7074  0.8361
 4232SOL    HW213155   2.318   2.754   3.081  0.8122 -0.8699 -0.1240
 4233SOL     OW13156   3.790   4.679   5.736  0.1110 -0.6200  0.6155
 4233SOL    HW113157   3.797   4.761   5.686  0.9291 -1.8557 -1.4131
 4233SOL    HW213158   3.809   4.705   5.826  2.0686  1.1804 -0.2069
 4234SOL     OW13159   3.648   1.366   6.268  0.1508 -0.2565 -0.0396
 4234SOL    HW113160   3.717   1.347   6.331  1.8425  2.1376 -1.0260
 4234SOL    HW213161   3.570   1.379   6.321  1.1811  0.1401  1.4271
 4235SOL     OW13162   5.293   5.135   3.328 -0.1230  0.6247 -0.5337
 4235SOL    HW113163   5.372   5.127   3.381 -0.1941  2.5110 -0.0783
 4235SOL    HW213164   5.300   5.222   3.287 -1.1064  0.0936 -1.9108
 4236SOL     OW13165   5.830   5.612   0.569 -0.1932  0.3962  0.4602
 4236SOL    HW113166   5.742   5.609   0.607 -0.1304  0.0145  0.5806
 4236SOL    HW213167   5.818   5.654   0.483 -0.5954 -0.2281  0.2059
 4237SOL     OW13168   6.194   1.450   1.828  0.0350 -0.1342 -0.0598
 4237SOL    HW113169   6.137   1.509   1.878  0.2632  0.4876 -0.5270
 4237SOL    HW213170   6.185   1.479   1.738 -0.0517 -0.9892 -0.3341
 4238SOL     OW13171   0.972   5.243   2.625  0.2108 -0.3262  0.4226
 4238SOL    HW113172   0.942   5.230   2.715  1.2699  1.0903  1.0175
 4238SOL    HW213173   1.035   5.315   2.631 -0.9097  0.9224 -1.6929
 4239SOL     OW13174   5.924   0.752   2.685 -0.2627  0.0114 -0.4837
 4239SOL    HW113175   6.012   0.786   2.698 -0.6366  0.3890  1.3178
 4239SOL    HW213176   5.881   0.817   2.630 -0.0563  0.9707  0.4487
 4240SOL     OW13177   0.066   5.513   5.442  0.0339  0.1077  0.0962
 4240SOL    HW113178   0.100   5.536   5.529 -1.2388  1.4242  0.2876
 4240SOL    HW213179   0.111   5.573   5.382  0.9096 -0.7981 -0.1971
 4241SOL     OW13180   5.089   4.277   5.232  0.0545  0.0066 -0.2433
 4241SOL    HW113181   5.052   4.355   5.272  0.2742 -0.1896  0.3483
 4241SOL    HW213182   5.045   4.270   5.147 -0.4541  0.3893 -0.0124
 4242SOL     OW13183   1.445   2.318   2.576 -0.0170  0.1154 -0.0376
 4242SOL    HW113184   1.436   2.245   2.636 -2.3888  2.1018  2.2829
 4242SOL    HW213185   1.415   2.284   2.492 -1.3238 -1.5178  1.0420
 4243SOL     OW13186   3.115   4.723   2.800  0.2083  0.4639  0.0069
 4243SOL    HW113187   3.172   4.747   2.873 -0.3333 -1.5302  1.1378
 4243SOL    HW213188   3.151   4.641   2.767  1.0571  1.7807 -2.7183
 4244SOL     OW13189   0.572   0.053   4.073  0.0404  0.4473 -0.2275
 4244SOL    HW113190   0.668   0.044   4.074 -0.0153 -0.3988 -1.5281
 4244SOL    HW213191   0.552   0.089   4.159  1.3320 -1.3480  0.9037
 4245SOL     OW13192   1.456   0.842   3.424  0.0385 -0.0411 -0.2297
 4245SOL    HW113193   1.479   0.889   3.344  1.2525 -1.8281 -1.0124
 4245SOL    HW213194   1.410   0.764   3.393 -1.1662  0.1748  0.9610
 4246SOL     OW13195   1.662   1.212   2.822  0.5111  0.0770  0.0246
 4246SOL    HW113196   1.675   1.303   2.850  0.0460  0.5897 -1.3375
 4246SOL    HW213197   1.681   1.213   2.728 -0.7941 -0.9497 -0.2824
 4247SOL     OW13198   4.258   0.846   2.450 -0.1183  0.1849 -0.3665
 4247SOL    HW113199   4.226   0.775   2.506  0.3329 -0.3973 -0.8296
 4247SOL    HW213200   4.198   0.845   2.375  1.0512 -1.0592 -1.3479
 4248SOL     OW13201   6.197   4.211   4.789  0.0833 -0.1718 -0.4268
 4248SOL    HW113202   6.206   4.305   4.775  0.6639 -0.3370 -1.2159
 4248SOL    HW213203   6.102   4.196   4.789 -0.0345  0.5003  0.3657
 4249SOL     OW13204   3.449   6.023   3.977 -0.7969 -0.1084  0.0641
 4249SOL    HW113205   3.486   6.077   4.047  0.6810 -3.0265  1.7626
 4249SOL    HW213206   3.501   6.044   3.900  1.1829 -0.5682  1.2083
 4250SOL     OW13207   3.785   2.752   2.325 -0.3098  0.7531  0.2277
 4250SOL    HW113208   3.872   2.786   2.350 -0.2656  1.0459 -0.3237
 4250SOL    HW213209   3.760   2.695   2.398  1.5746 -1.5851 -0.7835
 4251SOL     OW13210   2.681   1.155   5.552  0.4880 -0.0661  0.3417
 4251SOL    HW113211   2.605   1.140   5.495  0.2341  1.5846  0.1852
 4251SOL    HW213212   2.736   1.216   5.502  1.3189 -0.2769  0.9798
 4252SOL     OW13213   1.485   0.997   1.177 -0.0130 -0.2576  0.2333
 4252SOL    HW113214   1.528   0.920   1.139  1.1839  0.8987 -0.8503
 4252SOL    HW213215   1.446   1.042   1.103 -1.0920 -0.0393  0.9158
 4253SOL     OW13216   5.876   0.488   3.463  0.0419  0.1173  0.1014
 4253SOL    HW113217   5.936   0.519   3.531  2.6516 -1.0384 -1.5435
 4253SOL    HW213218   5.910   0.526   3.382 -1.8280 -0.1076 -0.8381
 4254SOL     OW13219   4.216   1.791   3.136 -0.4404 -0.7251  0.2499
 4254SOL    HW113220   4.160   1.755   3.205  0.6541  0.2684  1.7104
 4254SOL    HW213221   4.195   1.885   3.135  1.3028 -0.2902  0.9741
 4255SOL     OW13222   4.094   0.064   5.821  0.0661 -0.2663 -0.0192
 4255SOL    HW113223   4.010   0.048   5.865  0.8015  0.6445  1.8412
 4255SOL    HW213224   4.069   0.106   5.739 -1.3264  2.4574  1.6287
 4256SOL     OW13225   4.754   1.472   6.259 -0.1672  0.1651  0.0145
 4256SOL    HW113226   4.828   1.494   6.202 -0.1636 -2.0471 -0.9188
 4256SOL    HW213227   4.684   1.530   6.229  0.6251  0.9633 -0.3713
 4257SOL     OW13228   3.022   4.146   2.129 -0.2222 -0.5164 -0.5232
 4257SOL    HW113229   2.947   4.197   2.101 -0.9107 -0.4143  1.3783
 4257SOL    HW213230   3.091   4.168   2.067 -0.9882  1.4256 -0.7461
 4258SOL     OW13231   0.034   2.839   2.889 -0.1868  0.0325 -0.4886
 4258SOL    HW113232   0.049   2.777   2.818  0.2894 -0.0428 -0.3254
 4258SOL    HW213233   0.015   2.922   2.845 -0.0046 -0.0395 -0.7043
 4259SOL     OW13234   0.739   3.437   0.986  0.3033 -0.1195  0.0743
 4259SOL    HW113235   0.728   3.401   0.898 -1.0946  1.2450 -0.3742
 4259SOL    HW213236   0.818   3.491   0.981  0.2271 -0.0458 -0.3566
 4260SOL     OW13237   1.427   3.608   6.199  0.3322 -0.4648 -0.2626
 4260SOL    HW113238   1.355   3.546   6.203  0.3663 -0.7302 -2.5570
 4260SOL    HW213239   1.504   3.556   6.224  0.1647 -1.0072 -0.8453
 4261SOL     OW13240   0.607   3.623   0.133  0.4269  0.2282 -0.6019
 4261SOL    HW113241   0.666   3.619   0.208  0.0964 -0.0032 -0.3522
 4261SOL    HW213242   0.664   3.639   0.058  0.7174  0.8790 -0.2452
 4262SOL     OW13243   0.866   0.680   6.247  0.2989 -0.3806  0.4799
 4262SOL    HW113244   0.800   0.622   6.211  0.3950 -3.3680  4.4558
 4262SOL    HW213245   0.942   0.668   6.190 -0.5397 -2.1825 -0.3342
 4263SOL     OW13246   1.188   5.963   1.866 -0.3715 -0.2431 -0.4993
 4263SOL    HW113247   1.176   6.033   1.802  1.2638 -0.0546 -0.6552
 4263SOL    HW213248   1.122   5.980   1.933  1.9847  3.4635  1.1865
 4264SOL     OW13249   4.044   0.280   2.763 -0.1471 -0.4970  0.1071
 4264SOL    HW113250   4.108   0.255   2.829 -0.6390 -1.0414  0.3902
 4264SOL    HW213251   4.058   0.218   2.691 -0.3630 -0.6282  0.1768
 4265SOL     OW13252   0.050   3.075   0.878 -0.1504 -0.1984  0.9289
 4265SOL    HW113253   0.106   3.012   0.833  1.0298  0.5915  1.2571
 4265SOL    HW213254   0.064   3.158   0.833  0.5410  0.4589  2.2906
 4266SOL     OW13255   2.106   1.017   2.368  0.2392 -0.6210  0.1302
 4266SOL    HW113256   2.097   0.992   2.277 -0.9779 -1.3565  0.4297
 4266SOL    HW213257   2.164   0.951   2.406 -0.5111 -1.2424  0.2245
 4267SOL     OW13258   1.591   3.211   0.943 -0.2351 -0.1486  0.1674
 4267SOL    HW113259   1.560   3.211   0.853  0.5114  1.7690 -0.1288
 4267SOL    HW213260   1.656   3.141   0.946 -1.3025 -1.1903 -0.3778
 4268SOL     OW13261   3.629   4.069   3.402 -0.2286  0.2452 -0.6474
 4268SOL    HW113262   3.642   4.159   3.371 -0.1452 -0.2489 -2.0834
 4268SOL    HW213263   3.631   4.077   3.498 -2.5605  2.1235 -0.6636
 4269SOL     OW13264   5.578   6.250   5.536  0.1514  0.4037 -0.2371
 4269SOL    HW113265   5.552   6.193   5.463  1.9593  0.2343 -0.7997
 4269SOL    HW213266   5.571   6.195   5.613  0.2815 -0.0859 -0.5687
 4270SOL     OW13267   0.712   2.611   2.588 -0.2781 -0.3312  0.2937
 4270SOL    HW113268   0.734   2.704   2.596  0.5830 -0.5222  0.2534
 4270SOL    HW213269   0.797   2.567   2.584 -0.6773 -1.1764  0.9760
 4271SOL     OW13270   2.836   3.199   5.325 -0.2666 -0.1659 -0.0274
 4271SOL    HW113271   2.802   3.197   5.415  0.8420 -1.1911  0.3997
 4271SOL    HW213272   2.783   3.134   5.278 -0.5005 -0.0051  0.0114
 4272SOL     OW13273   0.852   5.955   3.038 -0.3440 -0.2226  0.3280
 4272SOL    HW113274   0.934   5.977   3.080  0.1133 -1.1020 -0.0768
 4272SOL    HW213275   0.794   5.928   3.110 -1.0839  2.5661  0.9068
 4273SOL     OW13276   1.252   5.757   5.667  0.1911 -0.0265 -0.4756
 4273SOL    HW113277   1.252   5.662   5.673  0.0968  0.0264  0.5909
 4273SOL    HW213278   1.343   5.782   5.681 -0.0016  0.1010  0.5940
 4274SOL     OW13279   0.273   5.097   6.002 -0.1195  0.2472 -0.5344
 4274SOL    HW113280   0.271   5.177   6.053  0.3004  0.0378 -0.1766
 4274SOL    HW213281   0.348   5.048   6.037 -1.1475 -0.8908  0.1607
 4275SOL     OW13282   2.420   2.845   0.718  0.3163 -0.0097  0.0288
 4275SOL    HW113283   2.341   2.881   0.678 -0.7854 -1.5333  0.7244
 4275SOL    HW213284   2.470   2.810   0.645  0.8081  1.7197 -0.5172
 4276SOL     OW13285   5.442   1.432   1.459  0.3758 -0.3361 -0.1365
 4276SOL    HW113286   5.426   1.526   1.450 -0.1352 -0.2628  1.2573
 4276SOL    HW213287   5.468   1.421   1.550  1.6745 -1.3967 -0.6144
 4277SOL     OW13288   0.696   1.468   3.757 -0.2316 -0.4593 -0.2620
 4277SOL    HW113289   0.651   1.551   3.777 -0.2529  0.0674 -2.3059
 4277SOL    HW213290   0.785   1.482   3.788 -0.0855  0.5610 -1.0979
 4278SOL     OW13291   1.708   3.383   0.536 -0.1517  0.3625 -0.3754
 4278SOL    HW113292   1.729   3.341   0.452  0.0627  0.4105 -0.3474
 4278SOL    HW213293   1.616   3.364   0.550  0.1436 -0.8615  0.0655
 4279SOL     OW13294   5.018   1.889   4.415  0.8583  0.4652 -0.2204
 4279SOL    HW113295   5.089   1.923   4.360  0.1886  0.6047 -1.0257
 4279SOL    HW213296   4.993   1.963   4.470  1.7063  0.2507  0.4702
 4280SOL     OW13297   0.515   3.487   5.399 -0.4681  0.2888  0.4790
 4280SOL    HW113298   0.504   3.406   5.449 -0.9197  0.8716  1.3403
 4280SOL    HW213299   0.539   3.553   5.464  0.4928  0.7366 -0.2926
 4281SOL     OW13300   5.112   0.303   2.265 -0.4785 -0.0613  0.3959
 4281SOL    HW113301   5.193   0.264   2.299 -0.9869 -0.9735  0.5601
 4281SOL    HW213302   5.088   0.249   2.190 -1.3907 -0.3066  0.8531
 4282SOL     OW13303   2.876   4.532   1.739 -0.5457 -0.0005 -0.3725
 4282SOL    HW113304   2.824   4.551   1.817  0.0770  2.5765 -0.5042
 4282SOL    HW213305   2.955   4.489   1.772  0.0889  1.7965  0.5511
 4283SOL     OW13306   5.580   5.821   2.938 -0.5106  0.0685  0.1872
 4283SOL    HW113307   5.492   5.843   2.966 -0.3241  1.0065  0.0766
 4283SOL    HW213308   5.633   5.897   2.963  0.0766 -0.0575 -0.6331
 4284SOL     OW13309   0.330   5.837   0.167  0.1925 -0.4677  0.3984
 4284SOL    HW113310   0.270   5.867   0.236 -0.2456  0.1189 -0.2240
 4284SOL    HW213311   0.273   5.795   0.102 -0.0602  2.8657 -1.7681
 4285SOL     OW13312   2.917   0.870   5.565 -0.6173  0.3148 -0.0792
 4285SOL    HW113313   2.857   0.923   5.619 -0.9690 -1.8596  1.7983
 4285SOL    HW213314   3.003   0.910   5.579 -0.6343 -0.3579  2.4544
 4286SOL     OW13315   1.612   4.707   3.550  0.0042 -0.5088  0.3723
 4286SOL    HW113316   1.584   4.634   3.606  1.9927  0.1398  2.3571
 4286SOL    HW213317   1.539   4.768   3.553 -0.0193 -0.5456  2.2720
 4287SOL     OW13318   2.313   0.754   1.023  0.1093 -0.0542 -0.6491
 4287SOL    HW113319   2.252   0.813   0.978 -0.2836  0.7737  0.9197
 4287SOL    HW213320   2.394   0.805   1.029 -0.1331  0.2138  0.4234
 4288SOL     OW13321   6.280   0.907   3.438  0.5231 -0.6892  0.2598
 4288SOL    HW113322   6.189   0.882   3.427  0.1799 -0.8409  2.7729
 4288SOL    HW213323   6.292   0.981   3.378 -1.2100 -0.7398 -0.2089
 4289SOL     OW13324   1.118   5.645   3.366 -0.1948  0.0189 -0.1036
 4289SOL    HW113325   1.101   5.718   3.426 -1.8463 -0.1351 -0.3362
 4289SOL    HW213326   1.089   5.677   3.281  1.2064 -0.1230 -0.6684
 4290SOL     OW13327   1.738   5.761   4.381  0.1060  0.0214  0.2605
 4290SOL    HW113328   1.822   5.740   4.421 -0.2252 -0.1290  0.8935
 4290SOL    HW213329   1.681   5.782   4.455  0.0107  1.6859 -0.2578
 4291SOL     OW13330   2.201   3.858   3.666  0.3206 -0.2921 -0.1110
 4291SOL    HW113331   2.192   3.855   3.761 -0.6057  2.3074 -0.0402
 4291SOL    HW213332   2.293   3.836   3.650  0.3695 -1.2921  1.3179
 4292SOL     OW13333   4.609   0.348   0.495  0.4958 -0.2394  0.4238
 4292SOL    HW113334   4.594   0.268   0.545 -0.2303  0.5121  1.4629
 4292SOL    HW213335   4.644   0.319   0.411  1.7455 -1.5555  1.3673
 4293SOL     OW13336   6.089   0.824   2.102 -0.0985  0.0608  0.1579
 4293SOL    HW113337   6.148   0.890   2.065 -0.4767  0.4510  0.2360
 4293SOL    HW213338   6.092   0.840   2.196 -1.4542  1.0662  0.0613
 4294SOL     OW13339   2.038   5.340   2.336 -0.4248 -0.4610  0.1137
 4294SOL    HW113340   1.988   5.396   2.396  0.9216  0.0520  0.8224
 4294SOL    HW213341   2.080   5.402   2.276  0.5372 -0.7377  0.4821
 4295SOL     OW13342   3.050   0.727   3.586 -0.0283  0.0127 -0.1347
 4295SOL    HW113343   3.059   0.808   3.637  0.4759  0.7982 -1.4327
 4295SOL    HW213344   3.138   0.711   3.551 -0.3279 -0.6070 -0.6095
 4296SOL     OW13345   4.654   5.980   3.163  0.0848  0.4743  0.1374
 4296SOL    HW113346   4.629   5.968   3.254  1.2473  0.4959  0.4802
 4296SOL    HW213347   4.608   6.058   3.135  1.5174  1.8459  1.4322
 4297SOL     OW13348   5.681   1.285   0.202 -0.3174 -0.1648 -0.2966
 4297SOL    HW113349   5.613   1.218   0.212  0.2545 -0.7058  0.0095
 4297SOL    HW213350   5.723   1.289   0.288 -1.7653  2.1647  0.3883
 4298SOL     OW13351   2.536   5.141   5.768 -0.2615  0.1825 -0.3388
 4298SOL    HW113352   2.604   5.089   5.725 -0.3463 -0.2442  0.0276
 4298SOL    HW213353   2.572   5.230   5.771 -0.0780  0.1302 -0.8959
 4299SOL     OW13354   0.355   4.439   4.002 -0.2167  0.3747  0.3517
 4299SOL    HW113355   0.274   4.388   3.999  0.3847 -0.5872 -0.2196
 4299SOL    HW213356   0.370   4.466   3.912  2.2013 -2.9754 -0.4467
 4300SOL     OW13357   4.843   4.821   4.665  0.0358  0.2694 -0.2491
 4300SOL    HW113358   4.925   4.869   4.679  0.9359 -1.1754 -0.3480
 4300SOL    HW213359   4.858   4.735   4.706 -1.6014  0.1326  0.1318
 4301SOL     OW13360   1.079   4.323   1.083 -0.3281 -0.3712  0.3239
 4301SOL    HW113361   1.135   4.250   1.055  0.9858  1.1902 -1.3628
 4301SOL    HW213362   1.139   4.389   1.115 -1.4503  0.3033  1.1073
 4302SOL     OW13363   5.067   4.300   0.888  0.1206  0.5207  0.6343
 4302SOL    HW113364   5.118   4.360   0.833 -1.0236  2.5029  1.6301
 4302SOL    HW213365   5.067   4.218   0.840  0.0489  1.8609 -1.8110
 4303SOL     OW13366   0.357   0.273   1.855 -0.1201 -0.2836 -0.2111
 4303SOL    HW113367   0.352   0.368   1.856 -0.0528 -0.2277  2.4145
 4303SOL    HW213368   0.289   0.244   1.916  0.3782 -1.8612 -0.3388
 4304SOL     OW13369   3.541   3.302   2.988  0.0006 -0.2611  0.3074
 4304SOL    HW113370   3.470   3.239   2.986  0.5384 -0.8746 -0.0933
 4304SOL    HW213371   3.524   3.356   3.065 -0.8134 -0.4890  0.2935
 4305SOL     OW13372   2.056   2.864   2.736  0.2028 -0.5681  0.1641
 4305SOL    HW113373   1.990   2.900   2.677  0.0655 -0.6949  0.2381
 4305SOL    HW213374   2.140   2.889   2.697  0.1324 -1.5099 -0.6208
 4306SOL     OW13375   1.441   5.010   6.192 -0.1816  0.0240  0.2045
 4306SOL    HW113376   1.488   4.935   6.155 -0.8029  0.5005 -1.6489
 4306SOL    HW213377   1.390   4.973   6.264  1.2564 -0.9002  0.7930
 4307SOL     OW13378   0.945   1.067   2.981 -0.1638  0.4807  0.1641
 4307SOL    HW113379   0.856   1.064   2.947  0.4567  1.0846 -1.6212
 4307SOL    HW213380   0.944   1.138   3.045 -0.9707  0.4386  0.2100
 4308SOL     OW13381   2.985   5.824   6.032 -0.0618 -0.3933  0.0791
 4308SOL    HW113382   2.923   5.802   5.962 -1.6616  0.9157  1.0244
 4308SOL    HW213383   2.963   5.914   6.056  2.0071 -0.0073  0.7089
 4309SOL     OW13384   3.058   2.919   2.667  0.2210 -0.1588 -0.0310
 4309SOL    HW113385   3.134   2.963   2.628 -0.2268 -0.2440 -1.0397
 4309SOL    HW213386   3.042   2.967   2.748 -0.9161  2.3469 -1.5931
 4310SOL     OW13387   4.856   3.576   4.687  0.3865 -0.4252 -0.1587
 4310SOL    HW113388   4.887   3.581   4.777 -0.7366 -1.4012  0.3166
 4310SOL    HW213389   4.931   3.543   4.637  0.3427 -2.1643  0.8496
 4311SOL     OW13390   4.357   0.385   0.902 -0.0059 -0.0273 -0.0139
 4311SOL    HW113391   4.353   0.471   0.860 -0.8011  0.1927  0.4885
 4311SOL    HW213392   4.369   0.324   0.829 -0.8783  0.3959 -0.5353
 4312SOL     OW13393   3.788   4.524   4.988  0.3734 -0.5337  0.2225
 4312SOL    HW113394   3.720   4.591   4.978  0.6522 -0.2783  0.0079
 4312SOL    HW213395   3.831   4.547   5.071  1.0831  0.1243 -0.3118
 4313SOL     OW13396   1.981   2.275   2.414 -0.2490 -0.0673  0.2795
 4313SOL    HW113397   2.047   2.223   2.460  0.1039  1.6090  1.7730
 4313SOL    HW213398   1.899   2.254   2.457 -0.3924 -0.6280 -0.2458
 4314SOL     OW13399   2.820   5.896   1.611 -0.4306  0.8974  0.2264
 4314SOL    HW113400   2.773   5.980   1.613  1.6167  2.1268 -0.3748
 4314SOL    HW213401   2.895   5.909   1.669 -1.3044 -1.3753  2.0213
 4315SOL     OW13402   1.275   1.427   4.575  0.1699  0.1222 -0.1631
 4315SOL    HW113403   1.256   1.497   4.637 -0.5872  1.4935 -1.8656
 4315SOL    HW213404   1.366   1.441   4.548  0.5836 -0.6304  0.7909
 4316SOL     OW13405   0.404   2.179   0.360  0.3446  0.9243 -0.4594
 4316SOL    HW113406   0.445   2.140   0.283 -0.8280 -4.0179  1.0092
 4316SOL    HW213407   0.476   2.189   0.423  0.6299  0.4367 -0.6976
 4317SOL     OW13408   2.929   1.721   2.285  0.2307  0.1395  0.0765
 4317SOL    HW113409   2.858   1.657   2.286 -0.2466  0.5307 -2.5268
 4317SOL    HW213410   2.920   1.766   2.201  3.0096  0.8557  0.0610
 4318SOL     OW13411   1.534   3.691   1.205 -0.5736  0.3311  0.2782
 4318SOL    HW113412   1.452   3.737   1.224 -0.1303  1.1411  0.3078
 4318SOL    HW213413   1.514   3.598   1.217 -1.4822  0.5241  0.2830
 4319SOL     OW13414   5.650   2.367   4.277  0.2753 -0.3474 -0.0393
 4319SOL    HW113415   5.556   2.379   4.283  0.4898  1.9126 -0.4566
 4319SOL    HW213416   5.683   2.384   4.365  0.4586  1.0045 -0.3469
 4320SOL     OW13417   0.928   3.776   3.278 -0.3719  0.9083  0.3812
 4320SOL    HW113418   0.909   3.702   3.336 -0.1917  1.5604  1.2799
 4320SOL    HW213419   0.998   3.743   3.220 -2.2725 -0.5997 -1.2015
 4321SOL     OW13420   4.771   5.470   5.656 -0.6679  0.0963  0.0704
 4321SOL    HW113421   4.799   5.455   5.747  0.1491  0.1742 -0.1542
 4321SOL    HW213422   4.683   5.505   5.663 -0.8951 -0.5827  0.8039
 4322SOL     OW13423   4.737   3.933   5.937 -0.5755  0.2340  0.1503
 4322SOL    HW113424   4.812   3.931   5.997  0.1238 -0.3268 -0.7046
 4322SOL    HW213425   4.661   3.940   5.994  0.1145  0.5970  1.0557
 4323SOL     OW13426   5.440   2.119   5.884 -0.1148 -0.5649 -0.7110
 4323SOL    HW113427   5.456   2.067   5.963  2.3169 -1.7956 -1.9092
 4323SOL    HW213428   5.481   2.203   5.901 -0.8977 -0.2780 -0.1483
 4324SOL     OW13429   0.932   4.184   1.501 -0.5114  0.0384 -0.7017
 4324SOL    HW113430   1.010   4.209   1.551 -0.3400 -1.3621 -0.2338
 4324SOL    HW213431   0.904   4.265   1.460  0.1648  0.9532  0.5482
 4325SOL     OW13432   3.758   2.031   3.859  0.6305 -0.2089  0.7097
 4325SOL    HW113433   3.843   2.006   3.824  1.6138  1.5313  1.7326
 4325SOL    HW213434   3.701   1.957   3.837  2.3949 -1.4539  0.0546
 4326SOL     OW13435   3.002   5.786   5.397  0.4272  0.5114 -0.3389
 4326SOL    HW113436   2.937   5.854   5.378  0.5090  1.2663  1.7485
 4326SOL    HW213437   3.068   5.795   5.329  0.1623  2.1828 -0.4135
 4327SOL     OW13438   1.536   5.519   2.443  0.2807 -0.6293 -0.3025
 4327SOL    HW113439   1.523   5.428   2.469  1.5665 -0.6338  0.4227
 4327SOL    HW213440   1.587   5.514   2.363 -0.5211 -0.5503 -0.8276
 4328SOL     OW13441   5.969   5.879   5.649 -0.6122 -0.5461  0.3362
 4328SOL    HW113442   6.030   5.843   5.714  0.4104  0.3168 -0.1179
 4328SOL    HW213443   5.970   5.973   5.666  2.6731  0.3104 -3.2671
 4329SOL     OW13444   0.466   0.786   5.877  0.8538  0.3321 -0.3349
 4329SOL    HW113445   0.421   0.848   5.934  0.9616  0.9956 -0.9556
 4329SOL    HW213446   0.403   0.716   5.862  0.0920  1.1463 -1.0206
 4330SOL     OW13447   3.985   3.674   1.459  0.1240  0.5664  0.0254
 4330SOL    HW113448   4.061   3.725   1.487  1.0089 -0.3812 -0.5522
 4330SOL    HW213449   3.939   3.730   1.396 -0.3404  1.6112  1.2666
 4331SOL     OW13450   0.692   1.000   6.206 -0.0468  0.1590  0.0926
 4331SOL    HW113451   0.695   1.058   6.282  0.1704  0.5762 -0.2272
 4331SOL    HW213452   0.666   0.915   6.242  0.7045  0.1802  0.7391
 4332SOL     OW13453   2.765   1.640   0.492  0.2864  0.0074 -0.1945
 4332SOL    HW113454   2.716   1.687   0.425  1.9461 -0.5353 -1.9033
 4332SOL    HW213455   2.698   1.599   0.547 -1.1433  1.0568 -1.0941
 4333SOL     OW13456   0.480   1.445   4.064  0.5429  0.1507  0.1379
 4333SOL    HW113457   0.448   1.516   4.119  2.2214  0.1613  1.1729
 4333SOL    HW213458   0.556   1.482   4.019 -0.0337 -0.2647 -1.2177
 4334SOL     OW13459   3.891   2.099   2.393 -0.6101 -0.1795  0.2094
 4334SOL    HW113460   3.910   2.040   2.465  0.8759 -1.0918 -0.8866
 4334SOL    HW213461   3.974   2.144   2.376 -0.7243 -0.4975 -1.3640
 4335SOL     OW13462   2.493   5.310   1.774  0.0404 -0.0398  1.0516
 4335SOL    HW113463   2.461   5.241   1.832 -1.3793 -0.0548  0.2942
 4335SOL    HW213464   2.464   5.284   1.687  0.4292  0.9639  0.6038
 4336SOL     OW13465   2.120   5.251   4.030  0.2643 -0.3755 -0.2850
 4336SOL    HW113466   2.204   5.221   3.994 -0.0877 -1.3078 -0.3720
 4336SOL    HW213467   2.078   5.170   4.060 -0.9479 -0.0248 -0.9848
 4337SOL     OW13468   1.239   2.289   0.578 -0.4836 -0.2138  0.1340
 4337SOL    HW113469   1.202   2.242   0.504 -0.5726 -0.7557  0.5216
 4337SOL    HW213470   1.163   2.320   0.627 -0.5335  2.5378 -1.4303
 4338SOL     OW13471   2.938   5.244   2.986 -0.5040  0.0709 -0.0206
 4338SOL    HW113472   2.862   5.186   2.980 -1.5956  1.4845 -0.2287
 4338SOL    HW213473   3.010   5.186   3.010 -1.3629 -1.5219 -1.0982
 4339SOL     OW13474   3.116   5.065   5.623 -0.0463 -0.3731 -0.1536
 4339SOL    HW113475   3.103   5.153   5.658  1.0463 -1.0569  2.1614
 4339SOL    HW213476   3.200   5.069   5.578  0.5401 -0.4682  0.9053
 4340SOL     OW13477   5.052   2.534   1.009 -0.0992 -0.1427  0.3437
 4340SOL    HW113478   5.041   2.480   1.087  0.9621 -1.7442 -0.5697
 4340SOL    HW213479   4.973   2.521   0.958  0.7606 -2.0987 -0.5763
 4341SOL     OW13480   3.831   3.702   3.779  0.2371 -0.1766 -0.1826
 4341SOL    HW113481   3.919   3.711   3.742  0.6010 -0.6764  0.5444
 4341SOL    HW213482   3.774   3.691   3.702  0.5343  1.9644 -0.7914
 4342SOL     OW13483   3.007   3.323   0.744  0.2490 -0.1897  0.0767
 4342SOL    HW113484   3.068   3.251   0.726 -1.5244 -1.5766 -0.7285
 4342SOL    HW213485   2.921   3.282   0.745 -0.7513  1.7798  0.6696
 4343SOL     OW13486   3.155   6.312   5.632  0.0867 -0.2912 -0.3564
 4343SOL    HW113487   3.193   6.293   5.718  1.2429  1.9456 -0.3022
 4343SOL    HW213488   3.184   6.239   5.577  2.0287 -0.1502  0.3996
 4344SOL     OW13489   5.544   1.998   1.087 -0.3123 -0.0379 -0.2062
 4344SOL    HW113490   5.467   2.054   1.097 -2.8162 -3.4846  2.1934
 4344SOL    HW213491   5.594   2.011   1.168 -0.2872 -0.3573 -0.1676
 4345SOL     OW13492   2.163   6.073   2.002  0.5797 -0.7162 -1.0617
 4345SOL    HW113493   2.093   6.072   2.067  0.6772 -0.9096 -0.9589
 4345SOL    HW213494   2.158   6.159   1.962  0.2653 -0.7414 -1.0720
 4346SOL     OW13495   5.325   1.495   0.954 -0.7307  0.2876 -0.2845
 4346SOL    HW113496   5.375   1.431   1.005  0.2230  1.2489  0.0213
 4346SOL    HW213497   5.351   1.580   0.990 -1.7024  0.8690 -0.9201
 4347SOL     OW13498   3.971   5.359   5.459  0.2356  0.3687 -0.7096
 4347SOL    HW113499   3.913   5.434   5.473  1.6348  1.4363 -0.3395
 4347SOL    HW213500   3.913   5.288   5.430 -1.2895  1.2467  0.0739
 4348SOL     OW13501   0.049   1.983   1.959  0.0066  0.0186  0.3532
 4348SOL    HW113502   0.052   2.079   1.957 -2.9738  0.2814 -3.1958
 4348SOL    HW213503  -0.011   1.962   2.031 -1.5329  1.0781 -0.5585
 4349SOL     OW13504   2.910   4.884   2.873  0.2176 -0.2133  0.3781
 4349SOL    HW113505   2.877   4.925   2.793  1.7136  1.2042  0.4383
 4349SOL    HW213506   2.972   4.819   2.842 -1.6989 -2.1303  0.3107
 4350SOL     OW13507   3.798   3.831   4.471 -0.3271  0.4163 -0.1189
 4350SOL    HW113508   3.835   3.915   4.497 -2.3553  1.0408  0.9509
 4350SOL    HW213509   3.715   3.826   4.518 -1.1097 -1.3714 -1.5822
 4351SOL     OW13510   0.672   3.540   2.564  0.4410 -0.4807  0.2169
 4351SOL    HW113511   0.758   3.572   2.592  1.5958 -3.4674  0.3695
 4351SOL    HW213512   0.672   3.553   2.470  1.5327 -1.4084  0.0672
 4352SOL     OW13513   4.704   1.693   1.907 -0.5864  0.2720 -0.4067
 4352SOL    HW113514   4.706   1.646   1.990 -0.8916 -0.8248 -1.0013
 4352SOL    HW213515   4.632   1.652   1.858 -0.1456  0.6194 -1.3628
 4353SOL     OW13516   3.424   4.691   0.561 -0.3161  0.2399  0.0871
 4353SOL    HW113517   3.380   4.776   0.564 -0.6465  0.1041 -0.7033
 4353SOL    HW213518   3.359   4.629   0.593 -0.4710  0.1332 -0.4254
 4354SOL     OW13519   5.596   2.362   0.943 -0.2880  0.8924 -0.2974
 4354SOL    HW113520   5.618   2.346   1.035 -0.8304  0.6298 -0.2111
 4354SOL    HW213521   5.611   2.278   0.900 -1.0943  0.7166 -0.2416
 4355SOL     OW13522   2.073   0.435   3.792  0.1201 -0.2723 -0.4452
 4355SOL    HW113523   1.998   0.488   3.764 -1.3188 -1.2522  1.2538
 4355SOL    HW213524   2.105   0.479   3.871 -0.0693 -1.0149  0.0613
 4356SOL     OW13525   0.037   5.736   5.875  0.4458 -0.4950 -0.0075
 4356SOL    HW113526  -0.028   5.687   5.926 -0.2299 -0.5908 -0.9302
 4356SOL    HW213527   0.090   5.781   5.941 -1.6576  0.9980  0.7885
 4357SOL     OW13528   2.026   5.372   6.059 -0.0063 -0.0264 -0.2083
 4357SOL    HW113529   1.963   5.443   6.054 -0.0962 -0.1442 -0.7997
 4357SOL    HW213530   2.020   5.328   5.974  0.0124 -0.7689  0.1626
 4358SOL     OW13531   1.085   3.086   0.208  0.2509  0.5646 -0.0926
 4358SOL    HW113532   1.031   3.160   0.233 -1.0007  0.5740 -2.5939
 4358SOL    HW213533   1.175   3.114   0.227 -0.2890  2.2358  0.1247
 4359SOL     OW13534   4.366   2.952   0.313 -0.0631 -0.1470  0.3893
 4359SOL    HW113535   4.346   2.945   0.219 -0.2888  0.2334  0.4043
 4359SOL    HW213536   4.452   2.911   0.323  0.8318  1.4656 -0.3111
 4360SOL     OW13537   4.736   6.209   5.810 -0.0940 -0.7251  0.0316
 4360SOL    HW113538   4.743   6.167   5.725  1.0173 -0.8107  0.1515
 4360SOL    HW213539   4.750   6.302   5.792 -0.2548 -0.6912  0.0742
 4361SOL     OW13540   5.186   3.346   0.200  0.1803  0.5345 -0.1188
 4361SOL    HW113541   5.167   3.429   0.157  0.9708  0.1402 -1.3156
 4361SOL    HW213542   5.240   3.369   0.275 -1.4562  1.2700  0.8728
 4362SOL     OW13543   4.733   5.111   3.270 -0.4632 -0.8128 -0.3995
 4362SOL    HW113544   4.809   5.086   3.322 -0.4064 -0.6292 -0.3977
 4362SOL    HW213545   4.685   5.173   3.325 -0.6874 -1.0320 -0.3427
 4363SOL     OW13546   4.874   3.682   2.892  0.1147 -0.3289  0.2740
 4363SOL    HW113547   4.823   3.754   2.930 -1.4511 -1.4181  0.3119
 4363SOL    HW213548   4.906   3.632   2.967  1.1190  0.2372  0.2442
 4364SOL     OW13549   1.152   2.402   5.753  0.5628  0.0545  0.1166
 4364SOL    HW113550   1.239   2.440   5.745  0.5076  0.3314  0.7557
 4364SOL    HW213551   1.168   2.310   5.776  0.7010  0.4347  1.6695
 4365SOL     OW13552   3.260   2.133   2.422  0.2185  0.2190  0.1978
 4365SOL    HW113553   3.235   2.045   2.450  2.0461 -0.1480  0.8478
 4365SOL    HW213554   3.268   2.182   2.504  0.6931  0.5492 -0.0412
 4366SOL     OW13555   5.132   3.713   0.729  0.5561  0.1331 -0.5484
 4366SOL    HW113556   5.217   3.673   0.749  0.2582 -0.0327  0.4405
 4366SOL    HW213557   5.068   3.643   0.745  0.0003  1.0363  1.4904
 4367SOL     OW13558   1.538   1.504   1.203 -0.0898 -0.0546 -0.6241
 4367SOL    HW113559   1.550   1.422   1.252 -0.4233 -0.1178 -0.6505
 4367SOL    HW213560   1.627   1.534   1.186  0.0624  0.7413  1.3082
 4368SOL     OW13561   0.887   0.303   3.396  0.4323 -0.4779 -0.1870
 4368SOL    HW113562   0.935   0.221   3.409 -0.3859 -0.7861  1.0391
 4368SOL    HW213563   0.865   0.303   3.303  0.8620 -1.4078 -0.3027
 4369SOL     OW13564   2.408   0.647   6.347  0.3472  0.1686  0.0533
 4369SOL    HW113565   2.315   0.664   6.362  0.8502  1.7764  1.7452
 4369SOL    HW213566   2.440   0.613   6.430  1.9665  3.2308  0.8446
 4370SOL     OW13567   2.644   2.932   5.991  0.3555  0.0511  0.1237
 4370SOL    HW113568   2.663   2.863   6.055 -2.4265 -1.1157 -0.1610
 4370SOL    HW213569   2.582   2.891   5.930 -0.4768  2.4701 -0.7514
 4371SOL     OW13570   1.948   4.657   3.235  0.0717  0.2134 -0.5298
 4371SOL    HW113571   1.898   4.726   3.281 -0.0113  0.5912 -1.1735
 4371SOL    HW213572   1.904   4.576   3.261 -0.6615  0.5108 -0.7935
 4372SOL     OW13573   3.349   3.651   3.518 -0.3618 -0.1553  0.5764
 4372SOL    HW113574   3.408   3.589   3.561  0.2258 -0.1493 -0.2044
 4372SOL    HW213575   3.272   3.599   3.496  0.5145 -0.9012 -0.9609
 4373SOL     OW13576   5.941   1.503   5.156 -0.1302  0.0419 -0.1869
 4373SOL    HW113577   5.938   1.488   5.250  0.3163 -0.8140 -0.2888
 4373SOL    HW213578   6.025   1.545   5.141 -0.1736  0.1212 -0.2060
 4374SOL     OW13579   3.314   1.192   1.189 -0.0373 -0.2883 -0.5145
 4374SOL    HW113580   3.283   1.275   1.224 -0.6167  0.0153 -1.6978
 4374SOL    HW213581   3.235   1.139   1.179 -0.1900  0.2765 -2.9849
 4375SOL     OW13582   0.826   0.609   5.072 -0.3989  0.7229 -0.7216
 4375SOL    HW113583   0.887   0.653   5.131  0.5024 -1.0297 -0.2961
 4375SOL    HW213584   0.859   0.629   4.984  0.4217  0.3173 -0.5134
 4376SOL     OW13585   4.660   4.407   1.534 -0.5000 -0.5192  0.1835
 4376SOL    HW113586   4.652   4.312   1.526  0.1976 -0.5751  0.0707
 4376SOL    HW213587   4.673   4.422   1.628 -0.6451 -0.5385  0.2054
 4377SOL     OW13588   3.803   4.461   1.634 -0.0242  0.0366  0.1611
 4377SOL    HW113589   3.782   4.380   1.588 -0.2101  0.4767 -0.5379
 4377SOL    HW213590   3.728   4.518   1.618 -2.1693 -1.1399  4.3995
 4378SOL     OW13591   2.578   5.492   5.435 -0.3304  0.1408  0.9943
 4378SOL    HW113592   2.638   5.436   5.485 -1.3464 -2.9458 -0.9122
 4378SOL    HW213593   2.492   5.473   5.472 -0.5428  1.8049  1.3965
 4379SOL     OW13594   5.638   5.740   3.716 -0.1692  1.0126  0.2731
 4379SOL    HW113595   5.654   5.712   3.626 -0.6101  2.1652 -0.1822
 4379SOL    HW213596   5.584   5.819   3.708  0.5830  1.6917  1.5163
 4380SOL     OW13597   0.011   3.958   3.252 -0.5085 -0.3370  0.4709
 4380SOL    HW113598   0.012   4.032   3.312  1.7560 -0.0695  0.2252
 4380SOL    HW213599   0.104   3.943   3.232 -1.0905 -1.2657 -1.8955
 4381SOL     OW13600   4.380   2.838   1.739 -0.1074  0.0775 -0.2835
 4381SOL    HW113601   4.436   2.772   1.698  1.1735  0.9618  0.0020
 4381SOL    HW213602   4.374   2.812   1.831 -2.0062 -1.2367 -0.7189
 4382SOL     OW13603   0.107   2.293   5.594  0.4787 -0.1800  0.0710
 4382SOL    HW113604   0.039   2.267   5.532  1.8826  0.1209 -1.6897
 4382SOL    HW213605   0.089   2.385   5.613  0.0392 -0.2758  0.1130
 4383SOL     OW13606   3.371   4.572   1.646  0.3550 -0.5646  0.0235
 4383SOL    HW113607   3.300   4.557   1.585 -0.3810  0.5887  0.5534
 4383SOL    HW213608   3.373   4.494   1.701 -0.4209 -0.6601 -0.0807
 4384SOL     OW13609   0.668   6.122   0.910 -0.1920 -0.4034 -0.2373
 4384SOL    HW113610   0.720   6.054   0.952 -0.7671 -0.3171  0.6478
 4384SOL    HW213611   0.732   6.175   0.862  0.3579 -1.0847 -0.2608
 4385SOL     OW13612   4.293   3.486   3.359 -0.4207  0.0765  0.1227
 4385SOL    HW113613   4.197   3.477   3.360 -0.3895 -0.7597  2.8222
 4385SOL    HW213614   4.325   3.397   3.373  0.8585  0.1394 -1.9953
 4386SOL     OW13615   0.886   0.212   5.757 -0.1651  0.6859  0.7875
 4386SOL    HW113616   0.973   0.251   5.766 -0.2632  1.3990 -0.9299
 4386SOL    HW213617   0.886   0.137   5.816  2.1831 -0.2754 -0.3350
 4387SOL     OW13618   4.643   5.461   2.262 -0.0889  0.2200  0.4978
 4387SOL    HW113619   4.619   5.527   2.327  0.6960  0.0147  0.9972
 4387SOL    HW213620   4.736   5.476   2.244 -0.2679  0.2216 -0.5203
 4388SOL     OW13621   4.723   4.864   4.981 -0.5156  0.7015 -0.3295
 4388SOL    HW113622   4.817   4.855   4.963 -0.4574  1.2913 -0.3246
 4388SOL    HW213623   4.715   4.844   5.075 -0.4961 -0.0429 -0.4804
 4389SOL     OW13624   3.679   3.057   3.199  0.6141 -0.5087 -0.4083
 4389SOL    HW113625   3.692   3.125   3.134  2.3008 -0.0306  0.3667
 4389SOL    HW213626   3.614   2.998   3.160  0.0780  0.8410 -1.6250
 4390SOL     OW13627   1.068   5.120   3.614 -0.8030 -0.4899  0.0301
 4390SOL    HW113628   1.136   5.121   3.548 -2.8417 -0.2818 -2.2083
 4390SOL    HW213629   1.110   5.082   3.692  1.8490 -0.1640 -1.1525
 4391SOL     OW13630   0.309   5.745   0.798  0.1812 -0.1191  0.0054
 4391SOL    HW113631   0.404   5.734   0.793  0.4541  1.4285  1.1241
 4391SOL    HW213632   0.278   5.670   0.849  0.8581 -0.3645  0.0594
 4392SOL     OW13633   4.225   6.205   1.630 -0.6125  0.4577 -0.5553
 4392SOL    HW113634   4.271   6.259   1.566 -0.5881  0.7955 -0.2502
 4392SOL    HW213635   4.253   6.237   1.715 -2.6437  1.7975 -0.3145
 4393SOL     OW13636   0.340   4.006   2.554  0.2363 -0.3144  0.4647
 4393SOL    HW113637   0.271   3.944   2.575 -0.7211  1.0822  1.6667
 4393SOL    HW213638   0.385   4.022   2.637 -0.5421  1.7242  0.5543
 4394SOL     OW13639   0.181   3.621   2.118 -0.0350 -0.5710 -0.1376
 4394SOL    HW113640   0.189   3.558   2.046 -1.4170  0.0435 -0.8822
 4394SOL    HW213641   0.230   3.581   2.190  0.3370 -1.8057 -1.0239
 4395SOL     OW13642   3.826   0.367   5.416  0.3842 -0.1598  0.4308
 4395SOL    HW113643   3.868   0.411   5.490 -0.3398 -0.5997  1.1216
 4395SOL    HW213644   3.760   0.311   5.457 -0.5554  0.1712 -0.6004
 4396SOL     OW13645   4.024   2.717   4.351  0.2570 -0.2714 -0.4484
 4396SOL    HW113646   3.969   2.784   4.312 -0.5621 -1.4453 -1.3644
 4396SOL    HW213647   3.977   2.691   4.431  0.0102 -0.5343 -0.6782
 4397SOL     OW13648   4.436   3.710   1.606 -0.8025 -0.1739 -0.6185
 4397SOL    HW113649   4.429   3.625   1.562 -0.2902 -1.7692  2.1963
 4397SOL    HW213650   4.429   3.691   1.699  1.1467  2.6618  0.2597
 4398SOL     OW13651   3.968   4.619   5.515  0.7106 -0.2110 -0.3321
 4398SOL    HW113652   3.905   4.600   5.584 -0.1742  2.5795 -0.2519
 4398SOL    HW213653   3.915   4.624   5.435  1.3898 -1.2146 -0.8653
 4399SOL     OW13654   4.247   1.641   2.917 -0.0640  0.1842  0.3989
 4399SOL    HW113655   4.235   1.691   2.998  3.3476  2.4026 -0.2312
 4399SOL    HW213656   4.227   1.704   2.847  0.8598 -0.4473 -0.4582
 4400SOL     OW13657   2.543   5.537   2.668 -0.8219 -0.4774  0.0242
 4400SOL    HW113658   2.571   5.604   2.730 -0.7911 -1.9213  1.6593
 4400SOL    HW213659   2.570   5.570   2.582 -0.2653  1.2808  0.8392
 4401SOL     OW13660   5.619   2.297   0.634 -0.0380 -0.6466  0.4739
 4401SOL    HW113661   5.676   2.371   0.610  1.5154 -1.8021  0.4392
 4401SOL    HW213662   5.674   2.242   0.690 -0.4053 -2.8578 -1.2170
 4402SOL     OW13663   0.663   6.336   1.596  0.3552  0.2739  0.6307
 4402SOL    HW113664   0.722   6.411   1.609 -0.9253  1.1901  1.4395
 4402SOL    HW213665   0.643   6.336   1.503 -0.2969  1.5025  0.7475
 4403SOL     OW13666   2.020   0.237   3.347  0.2676 -0.1762  0.7797
 4403SOL    HW113667   2.098   0.229   3.402  0.4360  3.3626  1.2927
 4403SOL    HW213668   2.051   0.216   3.259  1.0146 -1.8213  1.4010
 4404SOL     OW13669   4.384   0.154   3.105 -0.1164 -0.5678 -0.1014
 4404SOL    HW113670   4.445   0.203   3.160  0.2412 -0.8615 -0.2269
 4404SOL    HW213671   4.337   0.221   3.055  0.0961 -0.3376  0.0062
 4405SOL     OW13672   1.402   4.871   4.503  0.3297  0.0685 -0.1477
 4405SOL    HW113673   1.379   4.840   4.415 -0.1329  0.8561 -0.3033
 4405SOL    HW213674   1.492   4.903   4.493  1.2080 -2.0509  0.2321
 4406SOL     OW13675   0.143   3.830   2.962  0.3929 -0.7408  0.3031
 4406SOL    HW113676   0.188   3.815   2.879  2.3995  1.4981  0.8544
 4406SOL    HW213677   0.193   3.780   3.026  1.1367  0.4557  0.6790
 4407SOL     OW13678   3.052   3.612   0.593 -0.0803 -0.0270 -0.4622
 4407SOL    HW113679   3.027   3.522   0.613  0.1220 -0.0717 -0.4150
 4407SOL    HW213680   3.059   3.614   0.497 -0.5871  0.0687 -0.5006
 4408SOL     OW13681   5.158   3.241   1.200  0.5888 -0.1355 -0.5073
 4408SOL    HW113682   5.085   3.270   1.254 -1.4841 -3.3619 -1.2432
 4408SOL    HW213683   5.144   3.285   1.116  1.3076  1.5609  0.2242
 4409SOL     OW13684   1.180   1.038   3.194 -0.1663 -0.0076 -0.1400
 4409SOL    HW113685   1.244   1.000   3.134  0.7724 -0.3032  1.0108
 4409SOL    HW213686   1.221   1.119   3.225 -1.7649  1.5726 -1.8772
 4410SOL     OW13687   5.407   1.459   0.691  0.1330  0.6986  0.3839
 4410SOL    HW113688   5.366   1.510   0.762 -0.9988  1.4268 -0.7597
 4410SOL    HW213689   5.354   1.380   0.684 -0.7903  1.4028 -0.7526
 4411SOL     OW13690   6.009   2.641   4.280 -0.0644  0.3297 -0.1538
 4411SOL    HW113691   5.989   2.595   4.198  0.7485 -1.4995  0.5998
 4411SOL    HW213692   6.103   2.658   4.275  0.7330 -2.7113  1.6428
 4412SOL     OW13693   4.093   2.448   5.979  0.5527  0.1961  0.1117
 4412SOL    HW113694   4.067   2.371   6.029 -0.7433  2.3172  2.9740
 4412SOL    HW213695   4.187   2.437   5.966  0.3794 -1.9039  0.3008
 4413SOL     OW13696   6.127   1.699   4.759  0.3809  0.4450  0.5043
 4413SOL    HW113697   6.194   1.744   4.810 -0.3813 -0.2437  2.1746
 4413SOL    HW213698   6.045   1.737   4.790 -0.0877  0.3069 -0.5313
 4414SOL     OW13699   2.767   4.383   4.532  0.3419 -0.0416 -0.3371
 4414SOL    HW113700   2.778   4.367   4.626 -0.8484  0.4336 -0.0952
 4414SOL    HW213701   2.856   4.384   4.497  0.7992 -0.2426  0.7844
 4415SOL     OW13702   3.335   5.625   2.946  0.3992 -0.2541  0.2610
 4415SOL    HW113703   3.276   5.556   2.974  1.7661 -1.8439 -0.5854
 4415SOL    HW213704   3.357   5.603   2.855 -1.3319  2.8987 -1.1090
 4416SOL     OW13705   5.944   5.742   3.767 -0.3271 -0.3629  0.1338
 4416SOL    HW113706   5.918   5.832   3.749 -2.4846 -0.8038  0.8625
 4416SOL    HW213707   5.865   5.690   3.755  0.5453 -2.0061  1.0394
 4417SOL     OW13708   6.129   0.781   4.671 -0.0671 -0.9581 -0.2341
 4417SOL    HW113709   6.121   0.688   4.650 -0.3546 -0.8098 -0.8167
 4417SOL    HW213710   6.189   0.815   4.604 -2.0247 -0.2077 -1.7369
 4418SOL     OW13711   4.343   0.971   1.080 -0.1387  0.1517 -0.1359
 4418SOL    HW113712   4.408   0.990   1.148 -0.2445  1.7313 -0.4165
 4418SOL    HW213713   4.378   1.014   1.002 -2.7094  3.5297  0.3193
 4419SOL     OW13714   5.856   6.219   2.530  0.1377 -0.1004  0.0695
 4419SOL    HW113715   5.894   6.163   2.462 -3.4967 -2.3748 -0.3973
 4419SOL    HW213716   5.808   6.286   2.481  0.6323  0.5807  0.5120
 4420SOL     OW13717   3.033   2.295   4.759  0.0016  0.1593  0.2042
 4420SOL    HW113718   2.965   2.242   4.802 -0.5413  0.0131 -0.8158
 4420SOL    HW213719   3.094   2.316   4.830 -1.8548  1.5295  1.4819
 4421SOL     OW13720   2.284   3.710   5.458  0.1956  0.0640  0.1871
 4421SOL    HW113721   2.233   3.659   5.521 -0.2086 -0.9680 -0.9331
 4421SOL    HW213722   2.346   3.759   5.511 -0.8103  0.0124  1.4568
 4422SOL     OW13723   0.836   4.668   0.802  0.3601 -0.1870  0.7727
 4422SOL    HW113724   0.888   4.594   0.833 -1.5255 -1.5642  0.8094
 4422SOL    HW213725   0.785   4.696   0.878 -0.1007  0.1147  0.3652
 4423SOL     OW13726   4.091   5.992   0.016  0.1726 -0.1634  0.4102
 4423SOL    HW113727   4.077   5.997  -0.079 -0.2755  1.0596  0.5216
 4423SOL    HW213728   4.174   6.037   0.030  1.7779 -2.9047  0.3155
 4424SOL     OW13729   5.078   1.958   2.243  0.3214 -0.6052  0.8676
 4424SOL    HW113730   5.031   2.040   2.256 -0.6790 -0.8403 -0.8876
 4424SOL    HW213731   5.011   1.891   2.250  0.6549 -1.0660 -0.1503
 4425SOL     OW13732   0.152   4.193   2.255 -0.0668 -0.0324 -0.5395
 4425SOL    HW113733   0.060   4.195   2.230 -0.4041 -0.9614  0.5419
 4425SOL    HW213734   0.181   4.105   2.234 -0.0849 -0.5056  1.2765
 4426SOL     OW13735   3.430   5.745   4.068  0.6620 -0.0831  0.4020
 4426SOL    HW113736   3.472   5.828   4.046  2.0691 -1.3045 -1.8957
 4426SOL    HW213737   3.496   5.697   4.118  1.1447 -1.0516 -1.1053
 4427SOL     OW13738   4.571   1.506   1.485 -0.0070 -0.2483  0.0183
 4427SOL    HW113739   4.562   1.557   1.405  0.8257 -0.5373 -0.2726
 4427SOL    HW213740   4.661   1.475   1.483 -0.6110 -2.1355 -0.0791
 4428SOL     OW13741   5.321   5.135   0.026 -0.3840  0.4477 -0.0022
 4428SOL    HW113742   5.276   5.220   0.023 -0.2714  0.5204  0.2898
 4428SOL    HW213743   5.319   5.111   0.119  0.2866  0.5100  0.0299
 4429SOL     OW13744   0.826   4.496   2.782 -0.1500 -0.2617  0.4450
 4429SOL    HW113745   0.907   4.451   2.756  0.5551  0.4532  1.3268
 4429SOL    HW213746   0.825   4.487   2.877  0.1308  1.7622  0.6707
 4430SOL     OW13747   0.675   0.031   2.922  0.9718 -0.5599  0.4199
 4430SOL    HW113748   0.623  -0.041   2.960 -1.4623  1.2323  0.7417
 4430SOL    HW213749   0.758   0.028   2.969  0.2276 -2.0178  1.7486
 4431SOL     OW13750   2.541   5.879   2.514  0.6005  0.1431 -0.2443
 4431SOL    HW113751   2.575   5.802   2.469 -0.6918 -0.6249  0.0209
 4431SOL    HW213752   2.617   5.935   2.529  1.0310  0.7063 -3.8050
 4432SOL     OW13753   3.260   3.110   3.251 -0.6211  0.2871 -0.3298
 4432SOL    HW113754   3.241   3.204   3.248  2.0022  0.9405  0.6619
 4432SOL    HW213755   3.298   3.091   3.166 -2.4337 -0.2795 -1.0753
 4433SOL     OW13756   0.251   2.962   5.296  0.2056  0.0651  0.8492
 4433SOL    HW113757   0.185   2.997   5.355  1.8270  3.6494  0.7964
 4433SOL    HW213758   0.213   2.974   5.209  0.1871  0.4605  0.9074
 4434SOL     OW13759   0.749   4.391   2.260  0.3044 -0.1472  0.0247
 4434SOL    HW113760   0.719   4.311   2.217  0.4334  0.3162 -0.9546
 4434SOL    HW213761   0.836   4.369   2.293  0.5361 -0.2745 -0.6537
 4435SOL     OW13762   3.818   3.539   0.294 -0.1219  0.0283 -0.2002
 4435SOL    HW113763   3.888   3.547   0.359 -1.2808  0.6394  1.0263
 4435SOL    HW213764   3.815   3.446   0.273  0.9552 -0.0242 -0.1655
 4436SOL     OW13765   4.288   4.169   1.809  0.3512  0.2949 -0.2368
 4436SOL    HW113766   4.276   4.202   1.898  0.3690  1.5617 -0.6815
 4436SOL    HW213767   4.213   4.111   1.794 -0.2650  0.9572  0.2120
 4437SOL     OW13768   0.369   5.486   5.333  0.5353  0.1600 -0.4817
 4437SOL    HW113769   0.384   5.579   5.344  0.7470  0.0310  0.3797
 4437SOL    HW213770   0.416   5.445   5.405 -1.1935 -0.4734  0.3546
 4438SOL     OW13771   4.994   3.741   1.278  0.1033  0.5246 -0.1329
 4438SOL    HW113772   4.966   3.654   1.252  1.2626  0.0721  0.0803
 4438SOL    HW213773   5.044   3.774   1.203 -1.7471  1.7236 -0.9156
 4439SOL     OW13774   5.615   3.079   4.142  0.0891 -0.4237 -0.0750
 4439SOL    HW113775   5.679   3.147   4.120  0.7472 -1.7222 -2.5096
 4439SOL    HW213776   5.623   3.015   4.072 -1.3808 -2.4299  1.4700
 4440SOL     OW13777   0.591   4.393   2.519 -0.3012 -0.2871 -0.1754
 4440SOL    HW113778   0.503   4.371   2.488 -1.0636 -0.2320  1.8517
 4440SOL    HW213779   0.648   4.373   2.444 -1.8099 -1.9977 -0.9364
 4441SOL     OW13780   5.588   1.370   2.446 -0.3258 -0.1247  0.4420
 4441SOL    HW113781   5.613   1.448   2.494 -3.0270  0.9110  0.3300
 4441SOL    HW213782   5.557   1.402   2.362 -2.5391 -1.1130  0.8024
 4442SOL     OW13783   0.738   5.564   4.123  0.4860  0.3150  0.2161
 4442SOL    HW113784   0.832   5.578   4.117  0.7292 -1.4713 -0.7851
 4442SOL    HW213785   0.700   5.652   4.120  2.0761  1.0137 -0.1459
 4443SOL     OW13786   5.419   0.432   4.526 -0.4338  0.1609 -0.2474
 4443SOL    HW113787   5.473   0.480   4.462 -1.5835  1.6502 -0.1642
 4443SOL    HW213788   5.456   0.456   4.611 -1.1667  1.1539 -0.1919
 4444SOL     OW13789   1.816   0.169   2.473 -0.0460 -0.2033 -0.4073
 4444SOL    HW113790   1.731   0.139   2.505  0.3796 -0.4589  0.5087
 4444SOL    HW213791   1.795   0.230   2.403 -0.9648 -1.7612 -1.5648
 4445SOL     OW13792   1.430   4.746   0.185 -0.1609  0.4834 -0.5292
 4445SOL    HW113793   1.522   4.749   0.213 -0.4308  0.3373  0.4246
 4445SOL    HW213794   1.405   4.655   0.198 -0.2007  0.3180 -1.6478
 4446SOL     OW13795   5.662   3.924   2.099 -0.0051 -0.0271  0.0570
 4446SOL    HW113796   5.755   3.914   2.118 -0.3367 -2.1044  0.9125
 4446SOL    HW213797   5.648   3.870   2.020 -0.5549 -0.1411  0.2267
 4447SOL     OW13798   0.702   3.184   5.057 -0.6005  0.3945 -0.4332
 4447SOL    HW113799   0.775   3.142   5.104 -0.1728 -0.4342 -1.7797
 4447SOL    HW213800   0.738   3.204   4.971 -1.7007  0.8567 -0.7984
 4448SOL     OW13801   4.321   1.488   5.656  0.1837  0.2475  0.2037
 4448SOL    HW113802   4.304   1.456   5.568 -1.4335  0.5238  0.3904
 4448SOL    HW213803   4.385   1.559   5.644  0.8867 -0.5049 -0.5998
 4449SOL     OW13804   1.405   3.004   3.909 -0.4980  0.4721  0.1694
 4449SOL    HW113805   1.370   2.961   3.831 -1.7753  0.0729  0.9222
 4449SOL    HW213806   1.466   2.941   3.946  0.5110  0.8701 -0.7607
 4450SOL     OW13807   0.067   1.240   3.639  0.3408  0.3360 -0.1853
 4450SOL    HW113808   0.084   1.263   3.548  0.6811 -0.3555 -0.3108
 4450SOL    HW213809   0.087   1.146   3.644 -2.2247 -0.2656 -0.0281
 4451SOL     OW13810   0.325   4.540   3.759  0.3750  0.2283  0.4389
 4451SOL    HW113811   0.325   4.484   3.681 -0.8891 -0.1219  0.6699
 4451SOL    HW213812   0.370   4.620   3.731  0.8399 -0.2905 -0.3407
 4452SOL     OW13813   2.657   0.436   0.117  0.1165  0.3535  0.5574
 4452SOL    HW113814   2.578   0.480   0.147  0.1050  0.6270  0.1230
 4452SOL    HW213815   2.698   0.498   0.057 -1.7013 -1.4947 -2.8969
 4453SOL     OW13816   4.734   3.268   1.675 -0.4080 -0.3783  0.3795
 4453SOL    HW113817   4.700   3.307   1.595 -0.8465 -1.0745  0.2148
 4453SOL    HW213818   4.674   3.196   1.694  0.0150 -0.5711  1.0242
 4454SOL     OW13819   1.684   4.344   1.889  0.8009  0.0694  0.3000
 4454SOL    HW113820   1.763   4.294   1.911 -0.8722 -1.5523  3.2533
 4454SOL    HW213821   1.616   4.278   1.881 -0.7423  1.6148  0.1511
 4455SOL     OW13822   3.389   1.346   6.339 -0.2187  0.3709  0.1704
 4455SOL    HW113823   3.318   1.372   6.398  1.1728  0.7939  1.7224
 4455SOL    HW213824   3.346   1.293   6.272 -1.7360 -1.1359  2.1945
 4456SOL     OW13825   4.218   3.269   5.773 -0.3592 -0.1085 -0.3614
 4456SOL    HW113826   4.263   3.350   5.798  1.2598 -0.2187 -2.5894
 4456SOL    HW213827   4.128   3.297   5.753 -0.6287  0.5955  1.5902
 4457SOL     OW13828   5.166   4.131   1.999 -0.1852  0.0507 -0.3586
 4457SOL    HW113829   5.235   4.091   1.945 -0.2326  0.3180 -0.6207
 4457SOL    HW213830   5.152   4.217   1.959 -0.3713  0.1646 -0.0454
 4458SOL     OW13831   0.778   4.482   4.087 -0.1532 -0.1312 -0.3448
 4458SOL    HW113832   0.749   4.562   4.130 -1.7159 -1.4310  1.1761
 4458SOL    HW213833   0.702   4.423   4.091  1.1207 -1.9167 -0.8240
 4459SOL     OW13834   0.991   2.330   4.846  0.3130 -0.2187  0.0511
 4459SOL    HW113835   1.057   2.355   4.910 -0.7718 -0.8283  1.4440
 4459SOL    HW213836   0.920   2.393   4.858 -0.0809 -0.5927 -0.2737
 4460SOL     OW13837   2.553   6.379   3.762  0.3782  0.6216  0.7838
 4460SOL    HW113838   2.508   6.398   3.844 -0.8426  2.4420 -0.2163
 4460SOL    HW213839   2.483   6.377   3.697  1.1993 -1.7100 -0.1311
 4461SOL     OW13840   1.963   4.289   6.177 -0.0705 -0.1120  0.2871
 4461SOL    HW113841   2.052   4.320   6.160  0.9701 -3.2681 -0.8077
 4461SOL    HW213842   1.911   4.369   6.186  2.2386  1.9344 -2.4034
 4462SOL     OW13843   2.482   4.666   5.015  0.2477  0.5717  0.7348
 4462SOL    HW113844   2.511   4.681   5.105  0.0874 -0.3611  0.9539
 4462SOL    HW213845   2.522   4.737   4.965  2.8779 -0.5641  1.0279
 4463SOL     OW13846   4.237   3.561   5.525  0.8431 -0.1898  0.1344
 4463SOL    HW113847   4.317   3.514   5.500 -0.1395 -2.3356  0.8291
 4463SOL    HW213848   4.247   3.578   5.618  1.1246  0.9334 -0.0798
 4464SOL     OW13849   2.969   0.254   2.771  0.1864 -0.0264 -0.3263
 4464SOL    HW113850   2.895   0.193   2.765  0.5495 -0.5381  0.2070
 4464SOL    HW213851   2.931   0.333   2.810 -0.6111  0.6808 -2.3908
 4465SOL     OW13852   6.287   1.244   0.802 -0.0312 -0.2232 -0.0063
 4465SOL    HW113853   6.322   1.211   0.885 -1.1731 -1.2000  0.1142
 4465SOL    HW213854   6.235   1.320   0.827  0.0616 -0.1953  0.1050
 4466SOL     OW13855   3.797   2.198   4.910 -0.5620  0.0296  0.4355
 4466SOL    HW113856   3.811   2.278   4.859 -1.7656  1.1992  1.8291
 4466SOL    HW213857   3.866   2.199   4.976  0.3268 -0.9049 -0.4454
 4467SOL     OW13858   3.942   4.950   3.889  0.2091 -0.1396  0.1135
 4467SOL    HW113859   3.915   4.973   3.978  0.0021 -1.2192  0.3561
 4467SOL    HW213860   4.036   4.965   3.887 -0.0564  1.7620 -0.1182
 4468SOL     OW13861   3.142   2.157   0.464  0.4901 -0.2686  0.2709
 4468SOL    HW113862   3.160   2.137   0.372  0.0518 -2.1713  0.5552
 4468SOL    HW213863   3.111   2.074   0.500 -3.2681  1.3359  1.1654
 4469SOL     OW13864   5.299   4.239   4.407  0.2570  0.3354 -0.1521
 4469SOL    HW113865   5.289   4.240   4.502  3.3276 -1.7217  0.3675
 4469SOL    HW213866   5.315   4.330   4.384 -1.7975  1.0652  1.0507
 4470SOL     OW13867   6.093   5.354   3.577 -0.7920  0.3828 -0.0651
 4470SOL    HW113868   6.018   5.315   3.622  0.5388 -1.2210  0.8836
 4470SOL    HW213869   6.094   5.445   3.604 -0.9798 -0.1705  1.9138
 4471SOL     OW13870   2.783   0.819   4.401 -0.7426  0.4739 -0.3401
 4471SOL    HW113871   2.817   0.869   4.476 -1.1043  1.3346 -0.7382
 4471SOL    HW213872   2.694   0.795   4.427 -0.6382  0.2034 -0.2296
 4472SOL     OW13873   1.885   3.911   2.785  0.2637 -0.6565  0.5897
 4472SOL    HW113874   1.843   3.886   2.703  0.0860  0.0584  0.4546
 4472SOL    HW213875   1.976   3.880   2.775  0.3236 -0.3165 -0.0060
 4473SOL     OW13876   1.885   2.874   4.994  0.7170  0.2182  0.6844
 4473SOL    HW113877   1.869   2.919   5.076 -1.1066  2.6646 -0.8765
 4473SOL    HW213878   1.973   2.902   4.968  2.1924 -2.1827  2.6257
 4474SOL     OW13879   2.350   1.286   5.901  0.1481 -0.1632 -0.5094
 4474SOL    HW113880   2.373   1.358   5.842 -0.5022  0.1825 -0.3512
 4474SOL    HW213881   2.433   1.259   5.940  0.1446  2.0665  1.2191
 4475SOL     OW13882   4.494   2.409   5.464 -0.3528 -0.2044 -0.2652
 4475SOL    HW113883   4.565   2.380   5.520  0.0997 -1.3868 -1.3873
 4475SOL    HW213884   4.420   2.421   5.523  0.3882 -0.3407  0.7224
 4476SOL     OW13885   3.449   2.032   0.774  0.6894 -0.1471  0.0612
 4476SOL    HW113886   3.459   2.011   0.681 -0.5416  0.0309 -0.1288
 4476SOL    HW213887   3.517   1.980   0.818 -0.1500 -2.0155 -0.7189
 4477SOL     OW13888   2.226   2.535   3.869 -0.1326  1.2116 -0.2047
 4477SOL    HW113889   2.295   2.471   3.882 -2.9565 -1.7547  1.6116
 4477SOL    HW213890   2.212   2.574   3.955 -0.4091  2.1460 -0.6537
 4478SOL     OW13891   2.465   4.748   1.345  0.1481  0.5629  0.5681
 4478SOL    HW113892   2.401   4.753   1.274  0.0166  1.0933  0.7177
 4478SOL    HW213893   2.416   4.777   1.422 -0.1847 -1.5319  1.2097
 4479SOL     OW13894   0.555   2.619   6.009 -0.2327 -0.5121 -0.0362
 4479SOL    HW113895   0.576   2.554   6.076 -0.0156 -0.8106 -0.3858
 4479SOL    HW213896   0.608   2.593   5.933  0.3541  0.4469  0.0252
 4480SOL     OW13897   6.288   5.898   5.571 -0.3637 -0.0375  0.9092
 4480SOL    HW113898   6.383   5.894   5.580 -0.0932  1.3575 -0.8521
 4480SOL    HW213899   6.267   5.832   5.505 -0.5284  0.1860  0.7369
 4481SOL     OW13900   1.805   3.653   4.146  0.4187  0.0244  0.1341
 4481SOL    HW113901   1.756   3.735   4.154 -0.6891 -0.1317 -3.4248
 4481SOL    HW213902   1.892   3.674   4.179  0.6283  3.1780 -1.9689
 4482SOL     OW13903   6.242   5.093   5.400  0.5438  0.0881 -1.2252
 4482SOL    HW113904   6.308   5.124   5.462 -1.6397 -0.3836  1.5529
 4482SOL    HW213905   6.237   5.161   5.334  1.0885  2.0636  0.6419
 4483SOL     OW13906   2.217   5.750   6.086 -0.4694  0.6545 -0.6002
 4483SOL    HW113907   2.182   5.828   6.128 -1.4608  0.2700 -0.6842
 4483SOL    HW213908   2.219   5.684   6.156  0.9715  0.9212 -0.3691
 4484SOL     OW13909   6.037   3.240   6.333 -0.1495 -0.1731  0.2039
 4484SOL    HW113910   5.944   3.215   6.333 -0.7582  1.8517 -0.7062
 4484SOL    HW213911   6.059   3.250   6.426 -2.0926  3.1783  0.4920
 4485SOL     OW13912   2.754   5.123   0.745  0.0199  0.4081 -0.2027
 4485SOL    HW113913   2.659   5.110   0.742  0.0648  0.1688 -0.6487
 4485SOL    HW213914   2.779   5.139   0.655  0.3029  1.2712  0.0190
 4486SOL     OW13915   1.511   3.326   6.118  0.0182 -0.4119 -0.3741
 4486SOL    HW113916   1.604   3.348   6.121  0.3624 -1.8205  0.1925
 4486SOL    HW213917   1.506   3.241   6.162 -1.9675  1.0391  2.5292
 4487SOL     OW13918   1.428   4.573   4.822 -0.0011 -0.4516 -0.1435
 4487SOL    HW113919   1.520   4.600   4.816 -0.2437  0.2286 -0.8889
 4487SOL    HW213920   1.405   4.589   4.913  0.4251  0.0192 -0.1103
 4488SOL     OW13921   3.306   0.589   5.407  0.1004 -0.4555 -0.0879
 4488SOL    HW113922   3.316   0.550   5.493  0.9571  0.8782  0.4509
 4488SOL    HW213923   3.375   0.548   5.354  0.3273 -0.4218  0.1825
 4489SOL     OW13924   6.254   6.382   6.358  0.3337  0.2457  0.1750
 4489SOL    HW113925   6.240   6.306   6.415  0.0832 -0.6299 -1.0218
 4489SOL    HW213926   6.348   6.398   6.362  0.4975 -0.5809 -0.1070
 4490SOL     OW13927   2.549   1.474   1.446  0.2537 -0.1828  0.0295
 4490SOL    HW113928   2.622   1.532   1.426  0.2538 -0.0834  0.3049
 4490SOL    HW213929   2.490   1.481   1.371 -0.7162  1.7111  0.8977
 4491SOL     OW13930   3.567   1.675   1.478  0.1291  0.3305 -0.1965
 4491SOL    HW113931   3.661   1.690   1.489  0.1218 -0.2079  0.6314
 4491SOL    HW213932   3.555   1.669   1.383  1.0660 -0.4324 -0.2815
 4492SOL     OW13933   1.569   1.054   3.632  0.0811 -0.7621 -0.0251
 4492SOL    HW113934   1.612   1.030   3.714  0.5893  2.3334  0.7337
 4492SOL    HW213935   1.506   0.984   3.616  0.4078 -1.7666  2.6755
 4493SOL     OW13936   0.197   4.522   5.772 -0.3364  0.1185 -0.2638
 4493SOL    HW113937   0.127   4.458   5.764  0.3534 -1.0905  2.3703
 4493SOL    HW213938   0.277   4.470   5.780  0.3987  1.3232  0.7066
 4494SOL     OW13939   1.721   6.367   0.270  0.2855 -0.8762 -0.2654
 4494SOL    HW113940   1.718   6.377   0.365 -1.3553  1.1489 -0.4511
 4494SOL    HW213941   1.731   6.456   0.236 -2.2085 -1.1270 -1.9971
 4495SOL     OW13942   1.084   4.739   3.696  0.2873  0.3664 -0.0518
 4495SOL    HW113943   1.167   4.697   3.675 -0.2138 -1.6140  1.6159
 4495SOL    HW213944   1.109   4.820   3.741  1.3315 -0.5898  1.1316
 4496SOL     OW13945   2.022   5.729   5.508 -0.3642  0.2623  0.2771
 4496SOL    HW113946   1.939   5.722   5.461 -0.7447 -0.2199  1.0020
 4496SOL    HW213947   2.088   5.701   5.444 -0.5432  2.2776 -0.8559
 4497SOL     OW13948   3.144   2.794   4.575  0.0264  0.4504  0.3282
 4497SOL    HW113949   3.212   2.758   4.631 -0.4259 -1.1703 -0.1117
 4497SOL    HW213950   3.078   2.725   4.571 -0.4045  0.9294 -1.3991
 4498SOL     OW13951   4.100   2.764   2.384  0.8046  0.4096  0.0591
 4498SOL    HW113952   4.190   2.793   2.368  1.1553  0.3119  1.7049
 4498SOL    HW213953   4.096   2.748   2.478 -0.6043 -0.7561 -0.1655
 4499SOL     OW13954   1.364   4.576   0.812  0.4555 -0.3930  0.3292
 4499SOL    HW113955   1.303   4.617   0.872  0.1467  0.6786 -0.6793
 4499SOL    HW213956   1.443   4.630   0.817  0.7358 -0.7999  0.3946
 4500SOL     OW13957   2.400   4.722   0.001 -0.0504 -0.5821 -0.4033
 4500SOL    HW113958   2.332   4.728   0.068  2.9297  1.1609  2.7610
 4500SOL    HW213959   2.413   4.812  -0.029 -2.1975 -1.4086 -4.6395
 4501SOL     OW13960   3.132   1.712   0.051 -0.1159  0.5470 -0.3360
 4501SOL    HW113961   3.176   1.797   0.062  1.0016  0.2795 -2.4315
 4501SOL    HW213962   3.042   1.735   0.028 -0.5602  1.1058  1.7475
 4502SOL     OW13963   5.943   3.000   3.611 -0.4726  0.0227 -0.3220
 4502SOL    HW113964   6.035   3.004   3.584 -0.4027 -1.6385 -0.4629
 4502SOL    HW213965   5.911   3.089   3.600  0.0584 -0.0822 -4.0998
 4503SOL     OW13966   2.246   2.799   2.202 -0.3280 -0.1083 -0.7527
 4503SOL    HW113967   2.272   2.856   2.130  1.2009 -0.4376 -0.4882
 4503SOL    HW213968   2.221   2.717   2.160 -2.8964  0.7771 -1.1716
 4504SOL     OW13969   3.511   1.040   6.354  0.8424  0.3958  0.4222
 4504SOL    HW113970   3.421   1.021   6.328  1.2932 -0.1691 -0.7946
 4504SOL    HW213971   3.533   1.121   6.308  1.5598 -0.4679 -0.8118
 4505SOL     OW13972   0.747   2.208   5.512  0.1343  0.3134  0.2170
 4505SOL    HW113973   0.733   2.113   5.511 -1.9064  0.5204  2.1348
 4505SOL    HW213974   0.842   2.218   5.522  0.2086 -1.6076  2.2719
 4506SOL     OW13975   6.364   1.243   1.793  0.3938  0.0327 -0.6153
 4506SOL    HW113976   6.392   1.229   1.884 -0.7662  0.2306 -0.2110
 4506SOL    HW213977   6.303   1.316   1.798  0.2263 -0.0348 -1.5443
 4507SOL     OW13978   5.982   5.389   2.049  0.3224  0.2236 -0.7950
 4507SOL    HW113979   5.902   5.345   2.021  1.4459 -1.5301 -1.4051
 4507SOL    HW213980   6.043   5.318   2.068  1.8036  1.5086 -0.5478
 4508SOL     OW13981   3.755   6.169   3.044 -0.6732 -0.0710  0.2934
 4508SOL    HW113982   3.794   6.256   3.045 -1.9175  0.5717 -1.3893
 4508SOL    HW213983   3.719   6.160   2.956 -0.5349 -2.3246  0.4109
 4509SOL     OW13984   0.836   5.351   4.310  0.2911  0.1242 -0.0732
 4509SOL    HW113985   0.781   5.362   4.232  1.6191  2.2840 -0.7920
 4509SOL    HW213986   0.816   5.427   4.364  0.2270 -0.7638  1.1940
 4510SOL     OW13987   2.419   2.422   3.519 -0.0410 -0.2652  0.0929
 4510SOL    HW113988   2.338   2.455   3.557  0.2749 -0.6619  1.1428
 4510SOL    HW213989   2.401   2.416   3.425 -1.0831  0.0351  0.2624
 4511SOL     OW13990   4.685   3.585   0.503  0.4066  0.1892  0.0202
 4511SOL    HW113991   4.641   3.567   0.420  0.5243  0.7540 -0.1684
 4511SOL    HW213992   4.746   3.656   0.483  1.1446 -0.3352  0.3673
 4512SOL     OW13993   1.502   0.906   4.987 -0.3406 -0.5478  0.7368
 4512SOL    HW113994   1.481   0.989   5.029 -2.6455  0.0461 -1.3520
 4512SOL    HW213995   1.537   0.931   4.901  0.4206 -1.7353  0.6801
 4513SOL     OW13996   1.040   3.190   2.183 -0.2217 -0.1098  0.3547
 4513SOL    HW113997   1.037   3.109   2.131 -0.5890 -0.2252  0.5551
 4513SOL    HW213998   1.006   3.257   2.125 -2.4098 -0.5650  1.0492
 4514SOL     OW13999   2.320   5.250   3.823 -0.4097 -0.7966 -0.1869
 4514SOL    HW114000   2.331   5.157   3.804 -2.5645 -1.0747 -0.2621
 4514SOL    HW214001   2.241   5.275   3.776  0.6458  1.3434 -0.9749
 4515SOL     OW14002   2.923   3.867   4.962  0.3652 -0.4815 -0.0575
 4515SOL    HW114003   2.998   3.866   5.021 -0.2985 -0.3729  0.8048
 4515SOL    HW214004   2.914   3.777   4.932 -1.0443 -1.1959  2.2921
 4516SOL     OW14005   4.058   5.663   1.931  0.2642 -0.6549  0.0061
 4516SOL    HW114006   4.008   5.614   1.996 -1.0532 -0.4725 -0.8289
 4516SOL    HW214007   4.148   5.658   1.961 -0.3851  0.0680  2.2632
 4517SOL     OW14008   3.289   0.287   1.746 -0.1404  0.0879  0.2566
 4517SOL    HW114009   3.307   0.380   1.759  0.4720  0.0570 -0.3172
 4517SOL    HW214010   3.310   0.246   1.829  0.8527  0.2873  0.1111
 4518SOL     OW14011   4.603   1.737   1.003 -0.0028  0.7239 -0.5106
 4518SOL    HW114012   4.690   1.759   0.970 -0.1714  1.7401 -0.3323
 4518SOL    HW214013   4.561   1.690   0.931  0.2905  1.2594 -1.0444
 4519SOL     OW14014   1.328   1.097   2.032 -0.5778 -0.6502 -0.0884
 4519SOL    HW114015   1.299   1.059   2.115 -0.5708 -1.2933 -0.3746
 4519SOL    HW214016   1.272   1.057   1.966 -2.4442  1.8524 -0.1701
 4520SOL     OW14017   2.707   5.509   0.938  0.8136 -0.7279 -0.5750
 4520SOL    HW114018   2.613   5.516   0.919  0.6556  2.4218  0.6951
 4520SOL    HW214019   2.744   5.589   0.901  2.9551 -1.6376 -0.5411
 4521SOL     OW14020   4.336   3.509   1.443  0.0046 -0.0461 -0.3353
 4521SOL    HW114021   4.281   3.505   1.366 -0.3545  0.7762 -0.1317
 4521SOL    HW214022   4.295   3.450   1.506 -1.4657  1.5648  0.3059
 4522SOL     OW14023   3.935   4.053   3.023  0.4666 -0.2987 -0.2258
 4522SOL    HW114024   3.969   3.966   3.006  0.4534 -0.1060 -1.3210
 4522SOL    HW214025   3.847   4.039   3.059  0.7977 -0.7460  0.4088
 4523SOL     OW14026   4.461   0.793   2.146  0.0304 -0.6817 -0.3696
 4523SOL    HW114027   4.467   0.783   2.051  1.9098 -1.0820 -0.2482
 4523SOL    HW214028   4.419   0.713   2.176  0.4244 -1.0560 -0.7842
 4524SOL     OW14029   4.190   1.165   0.144  0.2704 -0.0090 -0.4152
 4524SOL    HW114030   4.144   1.128   0.069 -1.5018  0.8581  0.2055
 4524SOL    HW214031   4.269   1.111   0.152 -0.2072 -1.0131 -2.0183
 4525SOL     OW14032   1.002   2.019   2.069  0.0890  0.0619 -0.2000
 4525SOL    HW114033   0.923   1.996   2.020  0.1220  0.1526 -0.2971
 4525SOL    HW214034   1.061   2.057   2.003  0.2909 -0.1865 -0.1661
 4526SOL     OW14035   2.744   0.198   1.137  0.6254  0.4046  0.1735
 4526SOL    HW114036   2.792   0.218   1.057  1.2712 -1.9762 -0.1137
 4526SOL    HW214037   2.682   0.130   1.112 -1.2780  1.7093  1.0933
 4527SOL     OW14038   4.438   1.160   1.305 -0.1052 -0.1799 -0.0962
 4527SOL    HW114039   4.391   1.134   1.384 -0.6947 -2.9054 -1.1965
 4527SOL    HW214040   4.372   1.199   1.249  0.3731  2.0349  0.7875
 4528SOL     OW14041   1.082   0.448   1.357  0.3487  0.8783  0.0343
 4528SOL    HW114042   1.151   0.410   1.412  0.1515  1.4536  0.7075
 4528SOL    HW214043   1.003   0.399   1.381  0.4103  0.6104 -0.3078
 4529SOL     OW14044   0.631   0.835   5.623 -0.3160  0.8790 -0.2039
 4529SOL    HW114045   0.614   0.784   5.703 -1.5873 -0.4287 -1.2619
 4529SOL    HW214046   0.681   0.776   5.567  1.4807  2.1587 -0.0123
 4530SOL     OW14047   2.648   0.376   5.596  0.4556  0.6154 -0.1239
 4530SOL    HW114048   2.708   0.420   5.655  0.5277 -0.4787  0.6373
 4530SOL    HW214049   2.567   0.367   5.646  0.4269 -0.0595 -0.2803
 4531SOL     OW14050   4.241   0.953   3.101 -0.5006  0.0567  0.8585
 4531SOL    HW114051   4.224   1.026   3.041 -2.6268 -0.4718  0.7233
 4531SOL    HW214052   4.312   0.905   3.059 -0.1597  1.1499  0.1199
 4532SOL     OW14053   4.919   6.268   1.431  0.5263 -0.5673 -0.0135
 4532SOL    HW114054   4.877   6.195   1.475  0.2834  0.0050  0.7345
 4532SOL    HW214055   4.880   6.271   1.344 -0.7142 -0.2919  0.5267
 4533SOL     OW14056   3.429   1.693   6.295 -0.4388  0.6635  0.5706
 4533SOL    HW114057   3.484   1.666   6.368 -1.4637 -0.1384  1.0841
 4533SOL    HW214058   3.339   1.685   6.329 -0.8711  2.6683  0.0204
 4534SOL     OW14059   0.704   2.165   3.313  0.0889 -0.0426 -0.3470
 4534SOL    HW114060   0.711   2.181   3.219  0.7399 -1.4587 -0.5596
 4534SOL    HW214061   0.614   2.137   3.326 -0.1713  0.7227 -0.4437
 4535SOL     OW14062   5.938   1.928   4.495  0.2828  0.0579 -0.1029
 4535SOL    HW114063   5.975   1.999   4.548 -2.1013  0.9969  0.4479
 4535SOL    HW214064   5.931   1.966   4.407  0.0830  0.1047 -0.0676
 4536SOL     OW14065   1.285   4.927   0.305 -0.0023  0.3480  0.4209
 4536SOL    HW114066   1.337   4.853   0.272 -1.1578  0.5856 -2.2743
 4536SOL    HW214067   1.209   4.886   0.346  0.3143  0.0312  0.6958
 4537SOL     OW14068   6.260   1.955   0.372  0.2323 -0.5887  0.1608
 4537SOL    HW114069   6.267   1.862   0.347  1.7830 -0.2692 -0.7190
 4537SOL    HW214070   6.172   1.980   0.343 -0.4240 -1.8987  0.9007
 4538SOL     OW14071   1.835   1.037   6.060 -0.0606  0.1297  0.0599
 4538SOL    HW114072   1.927   1.061   6.053 -0.1071 -0.0863 -1.8950
 4538SOL    HW214073   1.828   0.954   6.012 -1.0214 -0.6698  1.4750
 4539SOL     OW14074   3.447   0.078   4.600 -0.0578 -0.1428 -0.7115
 4539SOL    HW114075   3.434  -0.016   4.585  0.3617 -0.8695  2.6417
 4539SOL    HW214076   3.360   0.111   4.625 -0.0663  0.2304 -1.2136
 4540SOL     OW14077   5.872   4.476   5.079 -0.2644 -0.4855 -0.1797
 4540SOL    HW114078   5.847   4.563   5.047  1.1285  0.1927  0.4998
 4540SOL    HW214079   5.968   4.478   5.080 -0.2042 -2.1442 -0.4325
 4541SOL     OW14080   4.211   3.620   4.099 -0.0654 -0.1416 -0.7061
 4541SOL    HW114081   4.155   3.645   4.025 -0.8383 -0.1455 -0.1337
 4541SOL    HW214082   4.151   3.612   4.173  0.6308 -0.6053 -0.1787
 4542SOL     OW14083   2.498   5.753   1.456 -0.2603 -0.3486  0.4715
 4542SOL    HW114084   2.457   5.754   1.542  1.2859 -1.8689  1.3013
 4542SOL    HW214085   2.588   5.784   1.472  0.0077 -0.5022 -0.6134
 4543SOL     OW14086   5.840   0.659   0.228  0.0762  0.2047 -0.6472
 4543SOL    HW114087   5.875   0.640   0.141  1.9642  0.0504  0.1023
 4543SOL    HW214088   5.916   0.659   0.286 -0.8783  2.1202  0.7400
 4544SOL     OW14089   3.079   3.615   0.330  0.1147  0.3434 -0.3204
 4544SOL    HW114090   3.097   3.571   0.247 -0.0046  0.5113 -0.4369
 4544SOL    HW214091   3.157   3.670   0.345 -0.5465  1.5635 -1.1498
 4545SOL     OW14092   0.761   5.547   1.373 -0.8808  0.3710  0.6246
 4545SOL    HW114093   0.711   5.627   1.386 -0.8553  0.6719 -0.9499
 4545SOL    HW214094   0.701   5.489   1.326 -0.8458 -0.4957  1.6157
 4546SOL     OW14095   5.595   4.395   3.974  0.6128  0.0916 -0.1186
 4546SOL    HW114096   5.645   4.428   4.047 -1.6292 -1.9699  2.5768
 4546SOL    HW214097   5.506   4.383   4.009 -0.2126 -2.4754 -2.6806
 4547SOL     OW14098   3.073   0.991   4.038 -0.3802  0.1966  0.1298
 4547SOL    HW114099   3.134   0.978   4.110  1.1327 -1.5372 -1.3393
 4547SOL    HW214100   2.991   1.017   4.079  1.2619  2.5184  2.2034
 4548SOL     OW14101   5.580   6.000   3.212  0.1314  0.2993  0.0377
 4548SOL    HW114102   5.589   6.036   3.300  0.0704 -0.3811  0.3283
 4548SOL    HW214103   5.586   6.076   3.154 -0.2124  0.8003  0.6457
 4549SOL     OW14104   0.079   5.838   0.330  0.3738 -0.3404  0.8647
 4549SOL    HW114105   0.031   5.768   0.285  1.7151 -1.0653  0.4982
 4549SOL    HW214106   0.011   5.892   0.369 -0.7196 -1.7390  0.9838
 4550SOL     OW14107   2.822   2.145   3.793  0.2493 -0.0980  0.0786
 4550SOL    HW114108   2.748   2.177   3.741  0.1594 -0.2930  0.0853
 4550SOL    HW214109   2.856   2.071   3.744 -0.2094 -0.6576  0.5828
 4551SOL     OW14110   1.895   4.936   3.599  0.6773 -0.0256 -0.1211
 4551SOL    HW114111   1.886   5.007   3.536  0.3221 -0.6839 -0.8222
 4551SOL    HW214112   1.806   4.918   3.628  0.5085 -1.4684 -1.4018
 4552SOL     OW14113   1.896   2.673   3.869 -0.2598  0.8311  0.2334
 4552SOL    HW114114   1.967   2.660   3.807 -0.5301 -0.9460  0.2509
 4552SOL    HW214115   1.819   2.692   3.814 -0.0549  1.4480  0.1524
 4553SOL     OW14116   2.655   5.647   2.437 -0.2266  0.0021 -0.0319
 4553SOL    HW114117   2.736   5.652   2.387 -0.1915 -1.8236 -0.2333
 4553SOL    HW214118   2.593   5.605   2.378 -0.4793 -1.2539  1.0828
 4554SOL     OW14119   1.576   0.201   5.313 -0.3624  0.5894  0.1732
 4554SOL    HW114120   1.553   0.191   5.221  0.8777  0.2029 -0.1118
 4554SOL    HW214121   1.501   0.247   5.352 -1.0667  0.4124 -0.9346
 4555SOL     OW14122   5.721   3.951   2.495  0.5441 -0.3594 -0.0402
 4555SOL    HW114123   5.701   4.005   2.418  1.0738  0.3628  0.3049
 4555SOL    HW214124   5.815   3.964   2.508  0.0443  1.5985  2.2295
 4556SOL     OW14125   2.454   5.841   5.829  0.3047  0.6301 -0.7214
 4556SOL    HW114126   2.372   5.886   5.847  0.3505  0.3621  0.2715
 4556SOL    HW214127   2.487   5.881   5.749 -0.4616  1.2052 -0.7634
 4557SOL     OW14128   1.516   1.993   0.561 -0.1673  0.5685  0.0002
 4557SOL    HW114129   1.430   1.968   0.595  0.6342  0.5927  2.2366
 4557SOL    HW214130   1.549   1.915   0.517  0.6766 -1.2187  3.4843
 4558SOL     OW14131   6.119   0.212   0.118 -0.3267  0.3304  0.0658
 4558SOL    HW114132   6.160   0.166   0.045 -2.7568 -2.0389  0.0186
 4558SOL    HW214133   6.185   0.209   0.188  0.2401 -1.9448 -0.4540
 4559SOL     OW14134   4.417   5.944   3.648 -0.8280  0.0525 -0.1200
 4559SOL    HW114135   4.403   5.849   3.652  0.5635 -0.1837 -0.4444
 4559SOL    HW214136   4.329   5.980   3.639 -1.5266 -1.0973  1.6210
 4560SOL     OW14137   1.715   1.875   0.735  0.0749  0.0571 -0.5714
 4560SOL    HW114138   1.639   1.926   0.705  0.6682  0.5386 -1.2973
 4560SOL    HW214139   1.791   1.924   0.704  0.7735  0.7638  2.0453
 4561SOL     OW14140   4.840   0.779   5.878 -0.3240 -0.4124  0.1133
 4561SOL    HW114141   4.818   0.696   5.836  1.6388 -0.4098 -1.0425
 4561SOL    HW214142   4.906   0.757   5.943 -1.5615 -0.0592  1.5356
 4562SOL     OW14143   5.550   5.178   3.467  0.0874  0.5748  0.6733
 4562SOL    HW114144   5.554   5.106   3.530 -0.6598  0.1469  0.2454
 4562SOL    HW214145   5.506   5.249   3.515 -1.9895 -0.2952  0.1708
 4563SOL     OW14146   2.894   1.029   4.242  0.1708 -0.6811  0.2029
 4563SOL    HW114147   2.970   1.045   4.299 -1.9086  1.6128  2.5941
 4563SOL    HW214148   2.843   0.963   4.287 -0.0169 -1.1114 -0.6227
 4564SOL     OW14149   2.650   0.230   1.528 -0.1551  0.0030  0.0821
 4564SOL    HW114150   2.676   0.321   1.512  2.4648 -0.9792 -2.0605
 4564SOL    HW214151   2.586   0.211   1.459 -0.1920  0.0423  0.1059
 4565SOL     OW14152   5.940   4.266   4.320  0.4513  0.6410 -0.5191
 4565SOL    HW114153   5.939   4.328   4.393  2.0406 -0.1685  0.2426
 4565SOL    HW214154   6.024   4.281   4.277  0.1161  0.1691 -1.3563
 4566SOL     OW14155   2.079   0.234   4.258  0.2938  0.1206  0.2522
 4566SOL    HW114156   2.085   0.144   4.290  1.5018 -0.5336 -1.6309
 4566SOL    HW214157   2.156   0.277   4.295 -0.8775  0.7843  2.0973
 4567SOL     OW14158   4.241   0.727   3.776  0.3813 -0.2506  0.0226
 4567SOL    HW114159   4.163   0.670   3.778 -0.2165  0.5221 -0.5498
 4567SOL    HW214160   4.313   0.667   3.759 -0.3961 -0.7266 -1.9015
 4568SOL     OW14161   3.951   0.508   0.860  0.4989  0.3310 -0.0333
 4568SOL    HW114162   3.924   0.600   0.862  2.0244  0.8031  1.6905
 4568SOL    HW214163   3.907   0.469   0.936  1.1250  0.0409  0.1817
 4569SOL     OW14164   6.162   5.029   6.053 -0.5538  0.2813 -0.6913
 4569SOL    HW114165   6.130   4.939   6.045 -0.5206  0.3371 -1.4660
 4569SOL    HW214166   6.256   5.023   6.035 -0.2760  0.2701  0.6210
 4570SOL     OW14167   0.452   4.030   3.646 -0.9540 -0.4213  0.0456
 4570SOL    HW114168   0.496   3.974   3.711 -1.3647  0.1445  0.8349
 4570SOL    HW214169   0.523   4.063   3.592 -0.5049 -0.3066  0.6897
 4571SOL     OW14170   4.394   2.917   4.286 -0.3225 -0.6395 -0.2554
 4571SOL    HW114171   4.478   2.872   4.285 -1.0438 -2.0491  0.4716
 4571SOL    HW214172   4.331   2.851   4.258 -1.1244  0.5840 -1.4717
 4572SOL     OW14173   4.414   1.437   3.003  0.3341  0.2102  0.1721
 4572SOL    HW114174   4.426   1.456   3.096 -1.9745  0.9034  0.3822
 4572SOL    HW214175   4.338   1.489   2.977 -0.2955 -1.4842 -1.6237
 4573SOL     OW14176   1.500   2.160   4.139  0.0580 -0.2672 -0.4701
 4573SOL    HW114177   1.458   2.241   4.168 -1.1278 -1.2555  0.7443
 4573SOL    HW214178   1.578   2.153   4.195 -0.3787 -0.4402  0.1352
 4574SOL     OW14179   5.550   1.111   0.683  0.7241 -0.3777  0.0331
 4574SOL    HW114180   5.590   1.085   0.765 -0.0298  0.2654  0.6243
 4574SOL    HW214181   5.584   1.199   0.666 -0.3878  0.1712  0.5358
 4575SOL     OW14182   2.940   0.367   5.460 -0.6666  0.0975 -0.2046
 4575SOL    HW114183   2.917   0.344   5.550 -1.2714 -0.1211 -0.4061
 4575SOL    HW214184   2.970   0.458   5.465  0.5217 -0.3147  0.4094
 4576SOL     OW14185   1.361   3.024   3.425  0.7912  0.0155  0.3632
 4576SOL    HW114186   1.426   3.000   3.359  2.8067 -0.4633  2.3933
 4576SOL    HW214187   1.296   2.955   3.420  1.9036 -1.0517  0.1187
 4577SOL     OW14188   4.344   2.083   0.014 -0.3717  0.0610  0.4827
 4577SOL    HW114189   4.430   2.104   0.051  0.4022 -1.7841 -0.1372
 4577SOL    HW214190   4.293   2.053   0.089 -0.9685  2.3507  1.0857
 4578SOL     OW14191   6.094   2.453   4.005  0.3047  0.0736  0.0593
 4578SOL    HW114192   6.081   2.418   3.917  1.8078  0.5125 -0.3714
 4578SOL    HW214193   6.177   2.501   3.999  1.7941 -1.9482  2.3016
 4579SOL     OW14194   2.097   1.113   5.983 -0.3350  0.4416 -0.2523
 4579SOL    HW114195   2.168   1.178   5.987 -1.1765  1.3669  0.1768
 4579SOL    HW214196   2.024   1.160   5.943 -0.4789 -0.7416 -1.4330
 4580SOL     OW14197   1.152   2.821   1.474 -0.0653 -0.1678 -0.3835
 4580SOL    HW114198   1.216   2.834   1.545 -0.0241  0.6344 -0.5526
 4580SOL    HW214199   1.133   2.727   1.476  0.1198 -0.2018  0.5285
 4581SOL     OW14200   3.001   3.829   0.736  0.0152  0.0269 -0.3712
 4581SOL    HW114201   3.033   3.750   0.693 -1.1397  0.6594 -2.5365
 4581SOL    HW214202   3.079   3.883   0.748  0.1740  0.8419 -4.0117
 4582SOL     OW14203   3.202   2.300   3.914  0.0111 -0.5211 -0.1774
 4582SOL    HW114204   3.283   2.252   3.931 -0.0156 -1.4778 -2.4341
 4582SOL    HW214205   3.172   2.268   3.829 -0.6744  2.6066 -1.2531
 4583SOL     OW14206   2.092   0.983   4.098  0.4363  0.4322 -0.0859
 4583SOL    HW114207   2.165   0.963   4.039  1.2570  0.7960  0.7930
 4583SOL    HW214208   2.115   1.067   4.136 -0.3057  0.4048  0.4276
 4584SOL     OW14209   2.902   6.144   6.302 -0.2064 -0.5032 -0.4588
 4584SOL    HW114210   2.993   6.115   6.291 -0.2427 -0.4856 -0.8304
 4584SOL    HW214211   2.904   6.203   6.377 -0.0244 -0.9994 -0.0716
 4585SOL     OW14212   4.053   3.452   3.693  0.2591 -0.1324 -0.5976
 4585SOL    HW114213   4.135   3.467   3.740  0.5982 -1.6892 -0.6477
 4585SOL    HW214214   4.011   3.380   3.740 -1.2160  0.7900 -0.4281
 4586SOL     OW14215   2.222   1.302   1.459 -0.3575 -0.1150  0.2643
 4586SOL    HW114216   2.287   1.312   1.528 -1.1832 -0.4744  1.1195
 4586SOL    HW214217   2.254   1.357   1.387  1.2210 -0.7951  0.4027
 4587SOL     OW14218   0.312   1.171   4.916  0.2468  0.3850 -0.1202
 4587SOL    HW114219   0.357   1.148   4.835  0.7466 -2.1412  0.7834
 4587SOL    HW214220   0.380   1.163   4.984 -0.5423  0.8662  0.7523
 4588SOL     OW14221   4.210   5.638   5.569  0.2548  0.4504 -0.0566
 4588SOL    HW114222   4.156   5.668   5.496  1.4250  0.2243 -1.0509
 4588SOL    HW214223   4.166   5.673   5.647 -1.3639  0.1807 -0.8038
 4589SOL     OW14224   1.770   3.281   1.389  0.0854  0.2517  0.1570
 4589SOL    HW114225   1.732   3.357   1.434 -0.5592 -0.0787  0.1828
 4589SOL    HW214226   1.803   3.316   1.306 -1.7942  0.2659 -0.6235
 4590SOL     OW14227   4.644   5.650   4.774  0.0276  0.1390  0.2660
 4590SOL    HW114228   4.555   5.617   4.786  0.7347 -1.7389  0.6882
 4590SOL    HW214229   4.663   5.699   4.854  0.0723 -1.2116  1.1123
 4591SOL     OW14230   1.845   3.448   3.942 -0.1823 -0.3632  0.3360
 4591SOL    HW114231   1.815   3.515   4.004 -0.6984  0.1917 -0.4950
 4591SOL    HW214232   1.940   3.449   3.950 -0.1481  0.8507 -0.0431
 4592SOL     OW14233   2.178   2.140   5.284  0.5298 -0.7178  0.4894
 4592SOL    HW114234   2.087   2.139   5.313  0.0923  0.4633 -0.7630
 4592SOL    HW214235   2.197   2.048   5.262 -1.2937 -0.6308 -1.9007
 4593SOL     OW14236   1.706   4.431   5.764 -0.0729 -0.4785  0.1588
 4593SOL    HW114237   1.752   4.352   5.793  1.1947 -0.3456 -1.3672
 4593SOL    HW214238   1.748   4.502   5.813 -0.6599 -0.6509  0.9277
 4594SOL     OW14239   4.782   6.121   3.490  0.4922  0.5060 -0.0625
 4594SOL    HW114240   4.690   6.141   3.472  0.1555  0.4638  1.4833
 4594SOL    HW214241   4.783   6.029   3.515  1.2500 -0.0068 -1.8112
 4595SOL     OW14242   5.378   5.436   0.379  0.2021 -0.4123 -0.1121
 4595SOL    HW114243   5.380   5.389   0.296  0.0112  1.1408 -1.0221
 4595SOL    HW214244   5.383   5.367   0.445  0.1210 -1.6941 -1.3949
 4596SOL     OW14245   1.974   5.946   1.472  0.0005  0.0776  0.5230
 4596SOL    HW114246   1.996   5.853   1.472  1.8852  0.4010 -2.0150
 4596SOL    HW214247   1.914   5.957   1.399 -0.4422  0.8119  0.9859
 4597SOL     OW14248   0.323   4.399   2.381 -0.0556 -0.2547  0.1390
 4597SOL    HW114249   0.266   4.406   2.458 -2.6173  0.5048 -1.7136
 4597SOL    HW214250   0.287   4.327   2.330  1.4582 -0.5885 -0.5270
 4598SOL     OW14251   5.590   1.796   1.944  0.4136  0.5582  0.3758
 4598SOL    HW114252   5.617   1.766   1.857  0.0300  0.9727  0.1099
 4598SOL    HW214253   5.495   1.805   1.937  0.1877 -0.7868  1.2720
 4599SOL     OW14254   4.960   1.555   1.032  0.4742  0.1523  0.3122
 4599SOL    HW114255   5.039   1.604   1.011 -0.3942  1.1115 -0.8888
 4599SOL    HW214256   4.928   1.592   1.114  0.8452  0.2933  0.3910
 4600SOL     OW14257   1.420   5.656   1.674  0.0433  0.7385 -0.0514
 4600SOL    HW114258   1.398   5.698   1.591  1.1039  1.2460 -0.1012
 4600SOL    HW214259   1.336   5.641   1.717 -0.5266  0.4038 -1.2374
 4601SOL     OW14260   2.371   2.309   3.918 -0.8337 -0.0987  0.3887
 4601SOL    HW114261   2.335   2.324   4.005  0.2022 -1.8134  1.1687
 4601SOL    HW214262   2.397   2.216   3.918  1.7126  0.5029 -0.7642
 4602SOL     OW14263   2.636   4.933   4.329 -0.1121 -0.6069  0.6509
 4602SOL    HW114264   2.687   4.859   4.295  0.0915  0.4115 -1.4107
 4602SOL    HW214265   2.556   4.934   4.276  0.3181  1.1927 -0.0337
 4603SOL     OW14266   1.947   5.273   4.559  0.3305  0.0356 -0.0193
 4603SOL    HW114267   1.987   5.353   4.525  3.5829 -1.3454  0.2454
 4603SOL    HW214268   1.943   5.214   4.483 -1.9021  0.2700 -0.1758
 4604SOL     OW14269   0.940   2.947   4.227 -0.4495  0.0034 -0.7245
 4604SOL    HW114270   1.005   2.992   4.173  1.2702 -0.4533  0.8596
 4604SOL    HW214271   0.991   2.899   4.292 -2.4135  0.8300  1.5840
 4605SOL     OW14272   2.632   2.203   4.572  0.2052 -0.0646 -0.8883
 4605SOL    HW114273   2.553   2.255   4.558  0.6711  0.9145 -0.0159
 4605SOL    HW214274   2.600   2.114   4.585 -0.8422  0.4503  0.2847
 4606SOL     OW14275   0.660   5.382   5.749 -0.1837  0.0840  0.3229
 4606SOL    HW114276   0.752   5.356   5.749  0.1539  1.2095 -0.3430
 4606SOL    HW214277   0.621   5.334   5.822  0.7611 -0.9717  0.1493
 4607SOL     OW14278   1.798   2.687   3.584 -0.0006 -0.0881 -0.0682
 4607SOL    HW114279   1.815   2.645   3.500  1.1267 -2.0002  1.0406
 4607SOL    HW214280   1.702   2.691   3.590 -0.3372 -4.3970  0.5054
 4608SOL     OW14281   4.391   0.235   6.301 -0.1602  1.1434  0.1022
 4608SOL    HW114282   4.301   0.205   6.290  0.7483 -1.6058 -0.6317
 4608SOL    HW214283   4.409   0.285   6.221 -0.3735 -0.2168 -0.8349
 4609SOL     OW14284   6.236   1.887   3.754 -0.3983 -0.0161  0.6092
 4609SOL    HW114285   6.318   1.932   3.777 -0.7502  0.7386  0.4121
 4609SOL    HW214286   6.259   1.794   3.756  0.8351  0.2118 -0.8090
 4610SOL     OW14287   3.400   3.585   5.154  0.1519 -0.2526  0.0512
 4610SOL    HW114288   3.492   3.592   5.178 -0.1283  1.1595  0.8473
 4610SOL    HW214289   3.398   3.610   5.061  0.5679 -0.2262  0.0473
 4611SOL     OW14290   3.795   2.002   2.726 -0.0045 -0.0562 -0.2849
 4611SOL    HW114291   3.779   1.955   2.808 -0.6519  0.1249 -0.3025
 4611SOL    HW214292   3.888   1.986   2.707  0.6482  1.3347  1.4048
 4612SOL     OW14293   2.431   1.887   5.395 -0.2554 -0.0087 -0.0594
 4612SOL    HW114294   2.385   1.950   5.450  1.5419  1.4889 -0.1471
 4612SOL    HW214295   2.524   1.901   5.415  0.4966  0.4964 -3.2310
 4613SOL     OW14296   5.171   1.749   1.038 -0.1787 -0.2319  0.2102
 4613SOL    HW114297   5.197   1.792   0.956 -0.6347 -0.8566 -0.2697
 4613SOL    HW214298   5.218   1.798   1.106  1.0156 -0.3512 -0.5015
 4614SOL     OW14299   0.674   3.754   4.946  0.3313  0.1780 -0.3624
 4614SOL    HW114300   0.642   3.812   4.877 -1.7009 -0.0967  0.2691
 4614SOL    HW214301   0.769   3.764   4.944  0.2013  1.5395 -1.9809
 4615SOL     OW14302   3.226   0.313   2.824 -0.3269 -0.1075 -0.0803
 4615SOL    HW114303   3.142   0.271   2.804 -0.4649 -0.1548  0.5532
 4615SOL    HW214304   3.211   0.357   2.908  0.0097  0.6759 -0.4194
 4616SOL     OW14305   1.960   1.710   2.464  0.8118 -0.3426  0.3457
 4616SOL    HW114306   1.989   1.789   2.510  1.0063 -0.3295  0.2006
 4616SOL    HW214307   1.888   1.739   2.408  0.9132 -0.2592  0.2583
 4617SOL     OW14308   5.832   1.133   3.214  0.6585 -0.0142  0.1961
 4617SOL    HW114309   5.774   1.112   3.141 -0.8940  1.4238  0.9600
 4617SOL    HW214310   5.826   1.056   3.272 -1.2396  0.4329  0.6821
 4618SOL     OW14311   1.359   6.289   3.500 -0.2235 -0.3105 -0.3609
 4618SOL    HW114312   1.382   6.381   3.485 -2.3937  0.1521 -1.3282
 4618SOL    HW214313   1.385   6.244   3.420  1.0022 -0.6010  0.1831
 4619SOL     OW14314   5.320   6.026   2.220 -0.2298  0.1620 -0.0781
 4619SOL    HW114315   5.333   6.051   2.312 -2.2910 -0.6909  0.4916
 4619SOL    HW214316   5.355   6.100   2.170  3.7275 -0.6063  1.2183
 4620SOL     OW14317   5.437   0.493   3.746 -0.3567 -0.5277 -0.3626
 4620SOL    HW114318   5.353   0.537   3.739 -0.5605 -0.8911 -0.2198
 4620SOL    HW214319   5.486   0.523   3.669  0.2079  1.3960  0.6839
 4621SOL     OW14320   4.429   4.255   2.515 -0.1849  0.6184  0.7539
 4621SOL    HW114321   4.351   4.235   2.566 -0.8454  0.7194 -0.1910
 4621SOL    HW214322   4.477   4.172   2.510  0.7242  0.9463  2.8630
 4622SOL     OW14323   0.289   4.913   4.196 -0.1654 -0.9489 -0.3171
 4622SOL    HW114324   0.248   4.840   4.151 -1.0525 -1.4879  1.2901
 4622SOL    HW214325   0.383   4.893   4.194 -0.1561 -0.8092 -2.1214
 4623SOL     OW14326   6.272   3.221   1.021 -0.4284 -0.0592  0.3059
 4623SOL    HW114327   6.331   3.174   0.962  0.2822  1.4479 -0.2604
 4623SOL    HW214328   6.318   3.222   1.105 -0.8153 -1.0421  0.5373
 4624SOL     OW14329   4.431   0.848   5.403 -0.0130 -0.0910 -0.2822
 4624SOL    HW114330   4.466   0.852   5.314 -1.2216  0.7065 -0.7385
 4624SOL    HW214331   4.498   0.801   5.452  0.6571 -0.5894 -1.6127
 4625SOL     OW14332   0.652   1.319   2.320 -0.7233 -0.3565  0.4098
 4625SOL    HW114333   0.676   1.388   2.258 -3.1029 -0.3362 -0.5920
 4625SOL    HW214334   0.707   1.244   2.294  0.9024  0.6922  0.6404
 4626SOL     OW14335   5.396   1.803   2.656  0.2898 -0.1256 -0.0543
 4626SOL    HW114336   5.301   1.793   2.660 -0.0746  2.1631 -1.2055
 4626SOL    HW214337   5.416   1.874   2.716  0.7642  1.6641 -2.1733
 4627SOL     OW14338   1.637   4.610   2.006 -0.1536 -0.0954 -0.2931
 4627SOL    HW114339   1.542   4.602   1.991 -0.3716 -0.7989  1.2257
 4627SOL    HW214340   1.672   4.525   1.982  0.3633  0.6111 -2.2739
 4628SOL     OW14341   0.755   0.864   1.639 -0.2083 -0.0530 -0.4727
 4628SOL    HW114342   0.757   0.959   1.648  0.3228 -0.1297  0.3271
 4628SOL    HW214343   0.838   0.842   1.596  0.3689 -0.2764  0.7325
 4629SOL     OW14344   1.169   5.084   2.537 -0.5366  0.1223  0.3901
 4629SOL    HW114345   1.117   5.160   2.561 -2.1963 -0.9249  0.3101
 4629SOL    HW214346   1.119   5.043   2.466  0.3386 -1.0021  0.3929
 4630SOL     OW14347   5.847   5.611   3.155  0.1231  0.3104  0.3870
 4630SOL    HW114348   5.762   5.652   3.169 -0.7413 -2.0073  2.8904
 4630SOL    HW214349   5.903   5.648   3.223  1.1481  1.6690 -1.1189
 4631SOL     OW14350   2.044   1.857   5.341  0.1838  0.2732 -0.1893
 4631SOL    HW114351   2.081   1.781   5.385 -0.3018  0.5533  0.7096
 4631SOL    HW214352   2.003   1.908   5.410 -1.3234  0.3007 -1.0646
 4632SOL     OW14353   2.938   6.037   3.208  0.3041  0.6845 -0.1629
 4632SOL    HW114354   3.007   6.088   3.167  0.8926  0.4284  0.4958
 4632SOL    HW214355   2.983   5.980   3.270 -0.3010 -0.7537 -0.9758
 4633SOL     OW14356   0.165   1.834   3.712  0.0303  0.2248 -0.5360
 4633SOL    HW114357   0.102   1.796   3.651  0.5523 -0.6370 -0.5476
 4633SOL    HW214358   0.245   1.784   3.698  0.5826  0.9795 -0.1680
 4634SOL     OW14359   2.375   5.128   6.039  0.8357 -0.1655  0.1425
 4634SOL    HW114360   2.364   5.217   6.073 -0.1126  0.0600 -0.6995
 4634SOL    HW214361   2.426   5.139   5.959  0.3145 -0.3127 -0.2178
 4635SOL     OW14362   5.011   0.495   3.278  0.0744 -0.3994 -0.1364
 4635SOL    HW114363   4.968   0.410   3.281  0.3475 -0.5320  0.0722
 4635SOL    HW214364   5.097   0.477   3.241 -0.8074  0.1894 -2.7052
 4636SOL     OW14365   3.206   0.259   5.121 -0.4068 -0.2960  0.1913
 4636SOL    HW114366   3.199   0.223   5.032  1.8009  1.4871 -0.7934
 4636SOL    HW214367   3.260   0.195   5.168 -1.6478 -1.2893  0.3324
 4637SOL     OW14368   5.155   2.054   5.954  0.4556  0.8457  0.7441
 4637SOL    HW114369   5.176   1.961   5.968 -0.0608 -0.0009 -3.0012
 4637SOL    HW214370   5.228   2.086   5.901 -1.1102  1.4972 -1.1310
 4638SOL     OW14371   2.649   5.927   0.474 -0.6151  0.2488  0.0553
 4638SOL    HW114372   2.675   5.901   0.386 -1.8603 -0.2615 -0.1805
 4638SOL    HW214373   2.699   6.007   0.491  0.4861 -0.2654 -0.6508
 4639SOL     OW14374   5.269   6.066   0.799  0.0192  0.1272  0.1055
 4639SOL    HW114375   5.252   6.154   0.767 -0.7079 -0.0633 -0.0573
 4639SOL    HW214376   5.246   6.069   0.892 -2.2950 -0.4538 -0.3757
 4640SOL     OW14377   3.060   2.388   1.708 -0.3509 -0.3238  0.0896
 4640SOL    HW114378   3.133   2.442   1.739 -1.3736  1.0588  0.1556
 4640SOL    HW214379   3.077   2.301   1.746  1.2589 -0.0427  0.0755
 4641SOL     OW14380   2.115   5.603   3.494  0.1314 -0.3948  0.6445
 4641SOL    HW114381   2.170   5.647   3.558  0.5343  0.5579 -0.3315
 4641SOL    HW214382   2.033   5.653   3.494  0.5059  0.2400 -0.3014
 4642SOL     OW14383   5.386   3.237   1.324  0.1669 -0.2773  0.2750
 4642SOL    HW114384   5.361   3.254   1.414  1.9218  1.6415  0.4749
 4642SOL    HW214385   5.306   3.251   1.274 -0.5323 -0.1399  1.3970
 4643SOL     OW14386   1.189   2.087   1.888 -0.3558  0.5621 -0.2314
 4643SOL    HW114387   1.191   2.179   1.916  0.8265  0.1760  1.0492
 4643SOL    HW214388   1.273   2.073   1.846  1.1382 -0.8532  2.9104
 4644SOL     OW14389   5.119   3.350   3.988  0.0774  0.4121  0.6732
 4644SOL    HW114390   5.137   3.357   3.894  1.2495  0.8485  0.9124
 4644SOL    HW214391   5.024   3.356   3.995 -0.0931 -0.4971 -0.5523
 4645SOL     OW14392   2.886   0.390   6.099 -0.7738  0.8374 -0.0420
 4645SOL    HW114393   2.959   0.369   6.158 -0.2847  1.6229 -0.3515
 4645SOL    HW214394   2.928   0.426   6.021 -1.3252 -1.4594 -1.4928
 4646SOL     OW14395   4.664   5.241   6.208 -0.2418 -0.2712  0.4284
 4646SOL    HW114396   4.725   5.219   6.138 -2.2034 -0.0387 -1.4321
 4646SOL    HW214397   4.712   5.303   6.263  1.2914 -0.3360 -0.7753
 4647SOL     OW14398   2.078   3.907   0.128  0.5229  0.5216  0.3060
 4647SOL    HW114399   2.130   3.899   0.048 -0.0438  0.4619 -0.0620
 4647SOL    HW214400   2.038   3.994   0.122 -0.1591  0.2028  0.1270
 4648SOL     OW14401   5.929   2.288   3.421  0.4086 -0.0169  0.2130
 4648SOL    HW114402   6.021   2.275   3.443  0.4864  1.4052  0.8246
 4648SOL    HW214403   5.921   2.382   3.406 -0.6916 -0.2790 -1.0744
 4649SOL     OW14404   0.171   0.605   2.923  0.2727 -0.4774  0.1089
 4649SOL    HW114405   0.233   0.536   2.900 -0.4014 -1.3038  0.7209
 4649SOL    HW214406   0.091   0.558   2.950 -0.3902  0.5479 -0.0189
 4650SOL     OW14407   6.169   6.124   4.378 -0.6554 -0.2043 -0.1584
 4650SOL    HW114408   6.216   6.086   4.304 -0.2934  0.0183 -0.0462
 4650SOL    HW214409   6.135   6.049   4.427  0.3980 -0.4099  0.2869
 4651SOL     OW14410   2.658   3.882   2.059  0.3452 -0.2950  0.2088
 4651SOL    HW114411   2.588   3.896   1.995  2.0262 -1.4525 -2.0377
 4651SOL    HW214412   2.725   3.947   2.036  0.9721 -0.7077  0.8213
 4652SOL     OW14413   2.483   5.108   0.834  0.1049  0.0746 -0.6190
 4652SOL    HW114414   2.517   5.033   0.883 -0.7032  0.5754  0.7665
 4652SOL    HW214415   2.433   5.069   0.762  1.1213 -0.6837 -0.9281
 4653SOL     OW14416   3.653   1.016   3.531 -0.3441 -0.2191 -0.8233
 4653SOL    HW114417   3.639   1.077   3.604 -1.6652  0.7956 -1.8743
 4653SOL    HW214418   3.612   0.935   3.561  1.6387 -0.7425  0.6859
 4654SOL     OW14419   3.431   1.446   4.562 -0.0866  0.3658 -0.3153
 4654SOL    HW114420   3.412   1.536   4.587  1.4061  0.5281  0.3897
 4654SOL    HW214421   3.527   1.441   4.561 -0.0999 -0.6404 -2.5070
 4655SOL     OW14422   3.551   1.963   3.409 -0.5802 -0.0593  0.1462
 4655SOL    HW114423   3.568   2.057   3.418 -0.4900  0.0817 -1.2397
 4655SOL    HW214424   3.480   1.957   3.346  0.5116 -0.9642 -1.0500
 4656SOL     OW14425   2.552   0.676   6.122 -0.0321 -0.1687  0.0902
 4656SOL    HW114426   2.503   0.665   6.203  0.3294 -0.0605  0.3260
 4656SOL    HW214427   2.510   0.616   6.060 -1.3195  0.9052 -0.1056
 4657SOL     OW14428   2.278   3.088   5.940 -0.2354 -0.2911 -0.0652
 4657SOL    HW114429   2.331   3.162   5.913  0.7960 -0.8818  0.2688
 4657SOL    HW214430   2.205   3.126   5.989 -1.1164  0.6610 -2.0267
 4658SOL     OW14431   6.266   4.491   2.653 -0.1015 -0.1562 -0.0644
 4658SOL    HW114432   6.209   4.534   2.590 -0.5458 -1.5708 -0.6623
 4658SOL    HW214433   6.336   4.452   2.600 -0.2947 -1.0766  0.3453
 4659SOL     OW14434   6.345   5.031   1.157 -0.2127 -0.2083 -0.5759
 4659SOL    HW114435   6.342   5.076   1.242  1.6561  1.6336 -1.4134
 4659SOL    HW214436   6.427   4.982   1.159 -1.4697 -2.4263 -0.3109
 4660SOL     OW14437   4.890   6.264   0.111  0.3424 -0.1208 -0.4345
 4660SOL    HW114438   4.982   6.255   0.086  0.3344  1.6701 -1.2416
 4660SOL    HW214439   4.893   6.299   0.200  0.4098 -0.9707 -0.0898
 4661SOL     OW14440   0.165   0.959   3.663  0.1794 -0.1311 -0.2401
 4661SOL    HW114441   0.136   0.948   3.753  0.9091 -0.2156 -0.0074
 4661SOL    HW214442   0.133   0.882   3.617  0.4338 -0.4551  0.1188
 4662SOL     OW14443   3.758   0.441   5.850 -0.7593  0.0774  0.5870
 4662SOL    HW114444   3.699   0.382   5.803  0.1857  0.9213 -1.8457
 4662SOL    HW214445   3.714   0.526   5.849 -0.9517  0.0093  1.7427
 4663SOL     OW14446   0.710   2.197   4.992  0.3603  0.1345  0.4000
 4663SOL    HW114447   0.661   2.240   5.062 -0.4143  0.3561 -0.2672
 4663SOL    HW214448   0.738   2.268   4.935 -1.0094 -0.2162 -0.7666
 4664SOL     OW14449   4.364   5.986   4.763 -0.6710 -0.1555  0.7060
 4664SOL    HW114450   4.285   6.017   4.806 -1.8288 -2.3745  0.2959
 4664SOL    HW214451   4.426   5.969   4.834 -0.8829  0.6611  1.0969
 4665SOL     OW14452   0.513   3.890   3.130  0.2310 -0.1265 -0.1873
 4665SOL    HW114453   0.503   3.892   3.035 -0.3366 -0.7817 -0.1463
 4665SOL    HW214454   0.599   3.929   3.145  0.1129  0.4576 -0.9296
 4666SOL     OW14455   3.205   1.577   3.915  0.3314  0.2529  0.4392
 4666SOL    HW114456   3.252   1.511   3.966 -0.5954  0.1039  1.1467
 4666SOL    HW214457   3.177   1.641   3.980  1.8254  1.7551 -0.3239
 4667SOL     OW14458   0.963   0.310   5.483  0.0057  0.0393 -0.1995
 4667SOL    HW114459   0.918   0.275   5.406 -0.9248 -0.4513  0.5388
 4667SOL    HW214460   0.893   0.351   5.534  0.4998 -0.2076  0.6888
 4668SOL     OW14461   0.243   4.277   1.614  0.6533 -1.0909 -0.1196
 4668SOL    HW114462   0.148   4.266   1.617  0.1885  1.6209 -1.5292
 4668SOL    HW214463   0.261   4.350   1.673  1.8451 -1.4472 -0.0147
 4669SOL     OW14464   5.371   4.794   3.882 -0.2367 -0.5062  0.4234
 4669SOL    HW114465   5.380   4.738   3.804 -0.9177  0.2798 -0.2439
 4669SOL    HW214466   5.444   4.769   3.938 -0.3751 -1.8785  0.0269
 4670SOL     OW14467   1.190   1.934   2.806  0.0901 -0.0531 -0.0733
 4670SOL    HW114468   1.129   1.880   2.756 -0.7985  0.7372  0.1142
 4670SOL    HW214469   1.259   1.874   2.834 -0.0934 -0.7773 -1.1011
 4671SOL     OW14470   3.536   3.863   2.419  0.2868 -0.4906 -0.5070
 4671SOL    HW114471   3.484   3.835   2.343 -0.4826  2.2377 -1.0824
 4671SOL    HW214472   3.505   3.951   2.438  0.9496 -0.8153  2.6099
 4672SOL     OW14473   2.071   6.377   4.688  0.1427  0.4818 -0.5717
 4672SOL    HW114474   2.096   6.464   4.718 -1.0382 -0.0023  2.0734
 4672SOL    HW214475   2.150   6.325   4.696 -0.0954  0.3962  1.8469
 4673SOL     OW14476   5.497   5.333   3.883 -0.1002 -0.3317  0.3881
 4673SOL    HW114477   5.573   5.354   3.829  0.5339  0.5771  1.5728
 4673SOL    HW214478   5.429   5.395   3.854  0.6248  1.0037  1.4094
 4674SOL     OW14479   0.987   5.358   1.732  0.0279 -0.2470 -0.0959
 4674SOL    HW114480   0.922   5.357   1.661 -0.3390  3.3634  0.0116
 4674SOL    HW214481   0.941   5.319   1.806 -2.0408  1.9728 -0.0864
 4675SOL     OW14482   4.315   4.176   4.059 -0.8279  0.0317 -0.0748
 4675SOL    HW114483   4.372   4.101   4.075 -0.8227  0.0202 -0.1453
 4675SOL    HW214484   4.231   4.151   4.097 -1.0793 -0.3755 -0.8779
 4676SOL     OW14485   2.588   4.471   5.943 -0.5176 -0.8116  0.4592
 4676SOL    HW114486   2.530   4.484   6.018 -0.9420 -3.0825  0.5933
 4676SOL    HW214487   2.542   4.511   5.870  0.0290  1.6955  1.3810
 4677SOL     OW14488   4.085   2.077   5.988 -0.2604 -0.6662  0.4342
 4677SOL    HW114489   4.000   2.076   6.034  0.2981 -1.7557  1.5097
 4677SOL    HW214490   4.149   2.064   6.058  1.1405  3.6009  0.1794
 4678SOL     OW14491   4.915   3.577   3.146 -0.3801  0.1145  0.5326
 4678SOL    HW114492   4.876   3.507   3.197 -1.9719  0.4964 -0.1126
 4678SOL    HW214493   4.931   3.647   3.210 -1.9271  0.4167  0.6127
 4679SOL     OW14494   0.829   4.291   1.838 -0.1467 -0.8463  0.2187
 4679SOL    HW114495   0.745   4.329   1.812 -0.3149 -1.4303 -0.1277
 4679SOL    HW214496   0.846   4.326   1.925 -0.7003 -0.6444  0.2494
 4680SOL     OW14497   2.255   1.956   5.009  0.4529 -0.4405 -0.2462
 4680SOL    HW114498   2.323   1.920   4.952  0.7471  2.4345 -1.8988
 4680SOL    HW214499   2.254   2.049   4.989 -0.1669  0.5749  3.8094
 4681SOL     OW14500   0.540   1.970   2.084  0.1337  0.3843  0.5114
 4681SOL    HW114501   0.518   1.915   2.159  0.3033  1.5333  1.4388
 4681SOL    HW214502   0.472   1.951   2.019 -0.5933  0.0882  1.3378
 4682SOL     OW14503   6.283   1.222   2.750  0.2776 -0.3555  0.6287
 4682SOL    HW114504   6.314   1.170   2.824 -1.3761 -0.3543  1.3487
 4682SOL    HW214505   6.332   1.304   2.757 -0.6481  0.0843  2.4034
 4683SOL     OW14506   5.921   4.905   0.049 -0.5873  0.3985 -0.0402
 4683SOL    HW114507   5.904   4.966  -0.022 -1.8262  1.5963  1.2299
 4683SOL    HW214508   5.863   4.830   0.031 -1.8527  1.2497  0.3441
 4684SOL     OW14509   5.706   5.216   5.774 -0.3229  0.1198 -0.2922
 4684SOL    HW114510   5.647   5.266   5.830  3.0189  2.5777  1.3610
 4684SOL    HW214511   5.754   5.160   5.835  0.1185 -0.7324 -1.3972
 4685SOL     OW14512   3.588   4.050   4.284  0.1202  0.3830 -0.3622
 4685SOL    HW114513   3.671   4.096   4.278  0.2252  0.4120  0.9439
 4685SOL    HW214514   3.552   4.076   4.369  0.5717 -2.5437  0.8533
 4686SOL     OW14515   0.007   0.535   5.173 -0.0529  0.0722 -0.4689
 4686SOL    HW114516  -0.052   0.598   5.131 -0.2887  0.8565  0.9777
 4686SOL    HW214517   0.057   0.587   5.237  0.8596 -0.9323 -0.3286
 4687SOL     OW14518   1.424   0.799   3.707  0.1479  0.4328  0.3546
 4687SOL    HW114519   1.459   0.779   3.620  0.7298  1.8197  0.2354
 4687SOL    HW214520   1.473   0.742   3.766 -0.9597 -1.2530 -0.2999
 4688SOL     OW14521   3.320   5.898   4.901 -0.1464 -0.0949  0.0703
 4688SOL    HW114522   3.395   5.927   4.849 -0.5598 -0.6230 -0.8587
 4688SOL    HW214523   3.244   5.938   4.857 -0.3633  1.2865  1.5942
 4689SOL     OW14524   2.281   2.936   2.600 -0.1129 -0.4565  0.2420
 4689SOL    HW114525   2.314   3.020   2.631  0.1675 -0.7008  0.6116
 4689SOL    HW214526   2.350   2.904   2.541 -0.9194  0.2981 -1.1608
 4690SOL     OW14527   5.004   4.782   0.454 -0.2272  0.1275 -0.4147
 4690SOL    HW114528   5.020   4.874   0.471  1.1415 -0.1427 -0.1427
 4690SOL    HW214529   4.920   4.780   0.408 -0.7933  1.4105  0.5125
 4691SOL     OW14530   3.645   2.540   1.755  0.6616  0.4035 -0.2437
 4691SOL    HW114531   3.577   2.534   1.822  1.7405 -1.0261  0.7892
 4691SOL    HW214532   3.665   2.633   1.749 -0.7973  0.7602  0.0053
 4692SOL     OW14533   5.663   1.379   2.769 -0.6457 -0.0184 -0.4915
 4692SOL    HW114534   5.610   1.420   2.700 -0.1937 -0.5374 -1.1677
 4692SOL    HW214535   5.753   1.397   2.743 -0.4613  1.1191  0.8114
 4693SOL     OW14536   5.461   0.848   4.642  0.0859 -0.1910  0.1397
 4693SOL    HW114537   5.474   0.769   4.589  0.0245 -0.5104  0.5881
 4693SOL    HW214538   5.459   0.920   4.579  0.7112 -0.4847 -0.2258
 4694SOL     OW14539   1.059   6.275   1.463 -0.5269 -0.2491 -0.5108
 4694SOL    HW114540   1.107   6.220   1.525  0.6054 -1.9560 -2.7347
 4694SOL    HW214541   0.984   6.222   1.437 -2.3680  1.4243  1.1076
 4695SOL     OW14542   5.774   3.509   5.693  0.3115 -0.4060 -0.2748
 4695SOL    HW114543   5.840   3.571   5.722 -0.0698 -0.1708  0.1048
 4695SOL    HW214544   5.710   3.563   5.646  1.3496 -0.8818 -2.3523
 4696SOL     OW14545   4.023   0.431   3.096  0.4064  0.4075  0.2262
 4696SOL    HW114546   4.085   0.504   3.092 -0.4825  1.1330 -0.7780
 4696SOL    HW214547   4.067   0.366   3.150  1.8463  1.0906 -0.0740
 4697SOL     OW14548   4.788   1.955   1.956 -0.2752 -0.2683 -0.3033
 4697SOL    HW114549   4.718   1.904   1.914 -1.6687  0.6623  0.7869
 4697SOL    HW214550   4.867   1.903   1.942 -1.1888 -1.3940 -1.5336
 4698SOL     OW14551   3.916   4.359   0.838 -0.2858  0.2417 -0.5931
 4698SOL    HW114552   3.884   4.350   0.748 -3.4244  0.3738  0.3922
 4698SOL    HW214553   3.910   4.452   0.857 -0.5327  0.0976  0.0548
 4699SOL     OW14554   5.796   5.569   5.882 -0.2501  0.1011 -0.7514
 4699SOL    HW114555   5.873   5.625   5.877  0.3780 -0.7903 -1.2567
 4699SOL    HW214556   5.734   5.608   5.819  0.7989 -0.6822 -2.3190
 4700SOL     OW14557   1.389   4.639   5.356 -0.0116 -0.1372 -0.5717
 4700SOL    HW114558   1.311   4.601   5.395  0.1712 -0.4374 -0.4949
 4700SOL    HW214559   1.403   4.721   5.404  0.8515 -1.0322  0.7764
 4701SOL     OW14560   3.543   1.717   1.174  0.3919 -0.2675  0.0061
 4701SOL    HW114561   3.453   1.701   1.202  0.2621  0.4725  0.0139
 4701SOL    HW214562   3.559   1.809   1.193  1.7237 -0.7766  1.5789
 4702SOL     OW14563   3.383   5.212   2.776  0.1075 -0.3426  0.2066
 4702SOL    HW114564   3.446   5.141   2.784  1.3997  0.7937  0.4155
 4702SOL    HW214565   3.390   5.241   2.685  0.8490  0.6165  0.5498
 4703SOL     OW14566   1.748   5.159   5.466 -0.2384  0.2674 -0.6845
 4703SOL    HW114567   1.812   5.223   5.436  1.7260 -1.1949  0.1755
 4703SOL    HW214568   1.765   5.081   5.412 -0.4397 -0.5634  0.4236
 4704SOL     OW14569   4.379   3.799   4.254  0.0807  0.2341  0.4383
 4704SOL    HW114570   4.371   3.765   4.343  0.6286 -1.7954 -0.2317
 4704SOL    HW214571   4.308   3.757   4.205  1.5256 -1.0008 -0.6955
 4705SOL     OW14572   5.252   1.577   2.849 -0.1331 -0.0028  0.1290
 4705SOL    HW114573   5.337   1.617   2.828 -0.0087  0.1223  0.8551
 4705SOL    HW214574   5.270   1.483   2.852  0.1454  0.0748  1.0226
 4706SOL     OW14575   1.836   5.917   0.659 -0.0045 -0.4644  0.3850
 4706SOL    HW114576   1.763   5.859   0.636 -1.9854  1.0512  2.3349
 4706SOL    HW214577   1.912   5.878   0.617 -1.6760 -2.9596 -0.5709
 4707SOL     OW14578   3.083   2.050   1.372 -0.0345  0.5334  0.0005
 4707SOL    HW114579   3.050   2.133   1.337 -1.5055 -0.5234 -1.2601
 4707SOL    HW214580   3.159   2.030   1.318 -1.2931 -0.2450 -1.5794
 4708SOL     OW14581   1.355   2.248   2.322  0.0534 -0.7826  0.1303
 4708SOL    HW114582   1.434   2.256   2.269 -0.4660 -0.0482 -0.5704
 4708SOL    HW214583   1.348   2.154   2.342  1.2982 -0.8009  0.5468
 4709SOL     OW14584   4.656   4.508   0.795 -0.1612  0.0645 -0.1932
 4709SOL    HW114585   4.692   4.485   0.880  0.9287  0.6976 -0.4507
 4709SOL    HW214586   4.670   4.603   0.788 -0.7138  0.1076 -0.8581
 4710SOL     OW14587   2.716   6.043   3.537 -0.0309  0.1206  0.3269
 4710SOL    HW114588   2.771   6.101   3.590  0.2328 -0.5905  0.8495
 4710SOL    HW214589   2.777   5.986   3.491 -0.2718  0.5789 -0.5716
 4711SOL     OW14590   4.569   5.334   1.650 -0.2844 -0.0202 -0.1651
 4711SOL    HW114591   4.511   5.278   1.598 -0.3799 -0.3588  0.3105
 4711SOL    HW214592   4.588   5.284   1.728 -3.0258  1.8245  1.9129
 4712SOL     OW14593   5.545   1.226   3.304  0.6495  0.4265  0.2042
 4712SOL    HW114594   5.568   1.212   3.213  0.8123  2.2449 -0.0687
 4712SOL    HW214595   5.543   1.138   3.342 -1.1825 -0.5428 -1.9336
 4713SOL     OW14596   1.450   2.251   6.026 -0.0075  0.4334 -0.0480
 4713SOL    HW114597   1.536   2.230   5.991 -0.7368 -1.4492 -0.8637
 4713SOL    HW214598   1.396   2.175   6.004 -1.4432  0.7630  2.0073
 4714SOL     OW14599   6.111   2.125   5.884  0.7093 -0.4607 -0.3721
 4714SOL    HW114600   6.028   2.138   5.931  0.6440  0.0729 -0.6367
 4714SOL    HW214601   6.112   2.031   5.865 -0.8746 -0.1605 -2.2797
 4715SOL     OW14602   0.443   2.321   4.028 -0.6317  0.0796  0.2971
 4715SOL    HW114603   0.361   2.277   4.004  0.6953 -2.7830  0.5862
 4715SOL    HW214604   0.456   2.299   4.120 -0.2561  1.7669  0.6725
 4716SOL     OW14605   1.752   4.434   2.512  0.3478  0.1408 -0.0926
 4716SOL    HW114606   1.847   4.435   2.513  0.4105 -1.7652 -0.2227
 4716SOL    HW214607   1.726   4.526   2.503  2.1377  0.8121  1.2159
 4717SOL     OW14608   5.807   3.100   1.681  0.4496  0.3839 -0.0218
 4717SOL    HW114609   5.742   3.029   1.672  2.9098 -1.8596 -1.2346
 4717SOL    HW214610   5.814   3.137   1.594  1.3201  0.0972 -0.0779
 4718SOL     OW14611   0.067   2.297   1.948  0.1183  0.3993  0.5067
 4718SOL    HW114612   0.148   2.341   1.973  0.6819 -0.2855 -0.0518
 4718SOL    HW214613   0.041   2.339   1.866 -1.2501  2.0418  1.7140
 4719SOL     OW14614   3.957   5.894   0.760  0.3121  0.2197  0.0232
 4719SOL    HW114615   4.005   5.873   0.840  0.3811 -1.2601 -0.3817
 4719SOL    HW214616   3.998   5.839   0.693 -2.0438 -1.2176 -0.3162
 4720SOL     OW14617   3.331   3.641   0.820 -0.3580  0.3978  0.3782
 4720SOL    HW114618   3.321   3.724   0.867  0.9032  1.7737 -1.6446
 4720SOL    HW214619   3.243   3.603   0.819 -1.1146  2.0493  0.7274
 4721SOL     OW14620   4.060   5.330   4.850 -0.4881  0.4108  0.9864
 4721SOL    HW114621   3.994   5.298   4.911 -1.7984 -0.1825 -0.6883
 4721SOL    HW214622   4.029   5.418   4.825 -1.5972 -0.4905 -1.0397
 4722SOL     OW14623   2.810   4.708   3.080 -0.2273 -0.7613 -0.3947
 4722SOL    HW114624   2.883   4.646   3.088  1.1501  1.0104  2.3335
 4722SOL    HW214625   2.816   4.739   2.990 -0.6572 -4.0528 -1.7124
 4723SOL     OW14626   1.676   1.961   1.639  0.4517 -0.4306 -0.0429
 4723SOL    HW114627   1.750   2.021   1.646 -0.1641  0.4995 -1.2269
 4723SOL    HW214628   1.672   1.917   1.724  1.6578  0.3240  0.4188
 4724SOL     OW14629   6.163   1.831   5.822 -0.1757  0.0463 -0.3544
 4724SOL    HW114630   6.074   1.817   5.790  0.2615 -0.3229 -1.4829
 4724SOL    HW214631   6.193   1.744   5.848 -0.2597  0.2264  0.3610
 4725SOL     OW14632   5.565   2.393   5.667 -0.6486 -0.4750 -0.9795
 4725SOL    HW114633   5.605   2.475   5.639  0.2431 -0.4563  0.2693
 4725SOL    HW214634   5.561   2.399   5.762 -3.1591 -0.7290 -0.9984
 4726SOL     OW14635   6.016   0.810   3.069 -0.5198  0.2025  0.3818
 4726SOL    HW114636   6.097   0.763   3.048  0.1627  1.8425 -0.9708
 4726SOL    HW214637   5.947   0.757   3.030  0.2433  0.3155 -1.2364
 4727SOL     OW14638   2.115   4.681   2.240  0.2904  0.5180 -0.4122
 4727SOL    HW114639   2.164   4.674   2.158 -0.3881 -0.3403 -0.7689
 4727SOL    HW214640   2.181   4.685   2.308  0.8681 -0.8269 -0.8642
 4728SOL     OW14641   0.818   3.293   4.833 -0.0726 -0.3035  0.7246
 4728SOL    HW114642   0.853   3.379   4.812 -0.6244 -0.1071  0.5786
 4728SOL    HW214643   0.887   3.232   4.809  0.1317  0.0671  0.3657
 4729SOL     OW14644   0.720   1.070   1.251 -0.0300 -0.1738  0.4060
 4729SOL    HW114645   0.636   1.027   1.269  0.1356 -0.9940 -0.6972
 4729SOL    HW214646   0.698   1.142   1.192 -0.0334  0.0201  0.6399
 4730SOL     OW14647   3.446   0.493   2.783 -0.0090 -0.2117 -0.2031
 4730SOL    HW114648   3.376   0.557   2.790 -1.1066 -1.4779  1.0926
 4730SOL    HW214649   3.407   0.412   2.817  2.6233 -0.5348  2.4451
 4731SOL     OW14650   3.103   1.417   2.177  0.7641 -0.8671 -0.4243
 4731SOL    HW114651   3.119   1.399   2.270  1.0531  0.9694 -0.0867
 4731SOL    HW214652   3.154   1.351   2.131  2.3059 -0.5235  0.7175
 4732SOL     OW14653   2.882   5.507   5.255  0.2000  0.6318 -0.0128
 4732SOL    HW114654   2.791   5.484   5.235  1.2223 -1.9861 -2.3226
 4732SOL    HW214655   2.888   5.600   5.235 -2.0978  1.0492  0.9234
 4733SOL     OW14656   4.432   1.569   4.160  0.7697 -0.3505 -0.4487
 4733SOL    HW114657   4.515   1.618   4.156 -0.7848  2.7396  1.3789
 4733SOL    HW214658   4.394   1.593   4.244 -2.3298 -1.0842 -1.5200
 4734SOL     OW14659   0.830   2.243   1.328  0.3309 -0.3728 -0.1447
 4734SOL    HW114660   0.786   2.276   1.406 -0.1992 -1.5661  0.0720
 4734SOL    HW214661   0.875   2.164   1.357 -1.9154 -2.2766 -1.5386
 4735SOL     OW14662   3.555   1.534   5.381 -0.4194  0.4039  0.0903
 4735SOL    HW114663   3.629   1.595   5.383  1.5262 -1.8281 -0.0554
 4735SOL    HW214664   3.563   1.488   5.298 -0.9759 -1.0260  0.7880
 4736SOL     OW14665   6.336   2.024   2.432 -0.0260 -0.3234 -0.6009
 4736SOL    HW114666   6.267   2.085   2.407  0.7098  0.3024 -1.1647
 4736SOL    HW214667   6.417   2.067   2.404  0.7535 -0.2333  1.6118
 4737SOL     OW14668   1.315   2.140   3.273  0.6681 -0.1293  0.3170
 4737SOL    HW114669   1.344   2.077   3.339  0.0394  0.6069  1.3417
 4737SOL    HW214670   1.362   2.221   3.295  0.5342  0.0938 -0.2086
 4738SOL     OW14671   0.866   5.016   3.329 -0.4772 -0.1860 -0.2077
 4738SOL    HW114672   0.878   4.929   3.367 -1.2908 -0.0281  0.4549
 4738SOL    HW214673   0.776   5.016   3.298 -0.4407  0.3815 -0.3203
 4739SOL     OW14674   3.773   4.786   2.063 -0.2074  0.2564 -0.4033
 4739SOL    HW114675   3.831   4.729   2.112 -1.1251 -0.5188 -0.1866
 4739SOL    HW214676   3.737   4.730   1.994  0.0027  0.9668 -1.1139
 4740SOL     OW14677   2.510   0.872   2.073 -0.6804 -0.1070 -0.2178
 4740SOL    HW114678   2.603   0.859   2.093 -0.3608  1.1182 -0.7872
 4740SOL    HW214679   2.500   0.837   1.984 -0.8214 -0.4381 -0.0734
 4741SOL     OW14680   5.391   5.120   5.292 -0.4079  0.2875  0.0621
 4741SOL    HW114681   5.393   5.142   5.385 -0.2581 -2.2003  0.7190
 4741SOL    HW214682   5.467   5.166   5.255  2.2288 -2.0653  2.0850
 4742SOL     OW14683   6.281   3.094   4.817 -0.0959 -1.2759 -0.0676
 4742SOL    HW114684   6.264   3.055   4.903  0.7402 -2.2930 -0.3370
 4742SOL    HW214685   6.249   3.029   4.755 -0.6067 -0.5856 -0.5384
 4743SOL     OW14686   4.414   2.725   2.860  0.5616 -0.4505  0.0620
 4743SOL    HW114687   4.483   2.760   2.915  0.7923 -0.4782 -0.2070
 4743SOL    HW214688   4.429   2.765   2.774 -1.0107  1.2284  0.4991
 4744SOL     OW14689   0.270   3.871   5.249 -0.0554 -0.3968  0.0383
 4744SOL    HW114690   0.201   3.934   5.226  0.6135 -0.0953 -1.2140
 4744SOL    HW214691   0.302   3.902   5.334 -0.6053  0.2019  0.0381
 4745SOL     OW14692   0.849   2.840   1.693 -0.0155 -0.4079  0.2920
 4745SOL    HW114693   0.852   2.935   1.683  0.2671 -0.3195  1.1263
 4745SOL    HW214694   0.763   2.823   1.732 -0.0205 -0.4747  0.2509
 4746SOL     OW14695   1.428   0.388   5.661  0.7242 -0.4139 -0.1487
 4746SOL    HW114696   1.498   0.369   5.723 -0.6699 -1.6656  1.0943
 4746SOL    HW214697   1.398   0.302   5.631 -1.7692 -0.0392  1.0723
 4747SOL     OW14698   5.481   5.935   1.651  0.3909 -0.0653  0.6206
 4747SOL    HW114699   5.460   5.930   1.558  1.1596  1.2608  0.3528
 4747SOL    HW214700   5.512   5.847   1.673  0.3570 -0.3521 -0.4148
 4748SOL     OW14701   1.914   4.017   0.538  0.8900  0.2278  0.4748
 4748SOL    HW114702   1.903   3.927   0.567  3.6355 -1.5718 -3.1904
 4748SOL    HW214703   1.826   4.046   0.514  0.0014 -1.6189  1.3770
 4749SOL     OW14704   4.967   5.684   1.875 -1.0705  0.0909 -0.2781
 4749SOL    HW114705   5.019   5.764   1.868  1.8941 -1.7230 -0.6587
 4749SOL    HW214706   4.951   5.658   1.785 -1.1932 -0.2707 -0.1537
 4750SOL     OW14707   0.098   0.763   1.170 -0.4055  0.6664 -0.5957
 4750SOL    HW114708   0.120   0.856   1.161  0.4369  0.6028  0.6069
 4750SOL    HW214709   0.141   0.721   1.094  0.9091  1.0047 -0.0649
 4751SOL     OW14710   1.511   1.827   4.397  0.2713  0.3390  0.2427
 4751SOL    HW114711   1.493   1.824   4.491 -1.2418 -1.8112 -0.0406
 4751SOL    HW214712   1.464   1.904   4.366 -0.9871 -0.0972  0.9772
 4752SOL     OW14713   3.342   3.546   6.006  0.2676  0.7983 -0.5565
 4752SOL    HW114714   3.424   3.520   5.964 -0.2219 -1.1931 -0.3913
 4752SOL    HW214715   3.360   3.633   6.042  2.2542  0.4758 -0.6519
 4753SOL     OW14716   0.884   2.417   5.306  0.0359  0.1505  0.3364
 4753SOL    HW114717   0.887   2.431   5.401  0.9887  0.8338  0.2213
 4753SOL    HW214718   0.940   2.486   5.270 -1.5542  0.8962 -0.8442
 4754SOL     OW14719   3.113   3.740   1.324  0.0562  0.1525 -0.4813
 4754SOL    HW114720   3.066   3.794   1.389  0.9355 -0.0115  0.3134
 4754SOL    HW214721   3.205   3.761   1.338  0.3724 -1.1076 -0.5615
 4755SOL     OW14722   1.798   0.395   4.384 -0.5708  0.1174 -0.5558
 4755SOL    HW114723   1.724   0.345   4.419  0.7642 -1.5087  0.0639
 4755SOL    HW214724   1.865   0.330   4.366  1.6637  1.7225  1.2726
 4756SOL     OW14725   2.674   5.460   1.641 -0.5554  0.4843 -0.6491
 4756SOL    HW114726   2.622   5.460   1.561 -1.5822  0.5652  0.0018
 4756SOL    HW214727   2.639   5.388   1.693  1.5704 -1.0015 -1.1651
 4757SOL     OW14728   1.054   5.065   5.498  0.1217 -0.2244 -0.6050
 4757SOL    HW114729   1.038   5.054   5.404 -1.2188 -0.1093 -0.4110
 4757SOL    HW214730   0.969   5.047   5.539  0.8908 -1.1192  0.6646
 4758SOL     OW14731   2.526   2.328   6.057 -0.2243 -0.4190  0.4917
 4758SOL    HW114732   2.469   2.404   6.052 -0.7881 -0.7932  1.0267
 4758SOL    HW214733   2.582   2.344   6.133  1.6463  0.7691 -1.0379
 4759SOL     OW14734   0.007   0.461   2.062 -0.3194 -0.3796  0.5886
 4759SOL    HW114735  -0.030   0.494   2.144 -1.1766  0.2492 -0.0410
 4759SOL    HW214736  -0.047   0.385   2.040  0.1359 -0.7676  0.7803
 4760SOL     OW14737   3.353   5.063   2.496  0.2591 -0.2741  0.1441
 4760SOL    HW114738   3.375   5.072   2.403 -0.0278 -2.2653 -0.1582
 4760SOL    HW214739   3.332   4.970   2.507 -2.2113  0.3746  1.6574
 4761SOL     OW14740   1.815   1.169   0.031 -0.6359  0.1012 -0.0667
 4761SOL    HW114741   1.769   1.248   0.002 -0.4359  0.5387  0.7942
 4761SOL    HW214742   1.763   1.097  -0.005  0.6153  0.5761 -3.1655
 4762SOL     OW14743   4.987   5.494   3.667 -0.9718  0.6100  0.0484
 4762SOL    HW114744   4.979   5.401   3.689  1.5401  0.0386 -1.0948
 4762SOL    HW214745   4.952   5.500   3.578 -0.5928  0.6287 -0.1013
 4763SOL     OW14746   4.901   2.476   6.081 -0.2183  0.0145 -0.1831
 4763SOL    HW114747   4.848   2.520   6.147 -0.1561  1.2676 -0.9510
 4763SOL    HW214748   4.840   2.415   6.039 -0.3976 -0.3874  0.6364
 4764SOL     OW14749   6.176   3.100   2.234  0.6473  0.6594  0.1822
 4764SOL    HW114750   6.153   3.103   2.141 -2.0052  0.7762  0.7716
 4764SOL    HW214751   6.148   3.185   2.268  0.9844  0.3728  1.2086
 4765SOL     OW14752   1.624   0.063   3.386  0.2170 -0.0993 -0.0298
 4765SOL    HW114753   1.671   0.055   3.303 -1.4016 -1.3851 -0.8669
 4765SOL    HW214754   1.690   0.094   3.447  1.9195 -0.8872 -1.3761
 4766SOL     OW14755   6.124   2.658   2.674  0.3596  0.2388 -0.4732
 4766SOL    HW114756   6.116   2.724   2.742 -0.1934 -0.0153 -0.2840
 4766SOL    HW214757   6.207   2.678   2.631  0.7532  0.3644  0.3156
 4767SOL     OW14758   3.226   3.544   1.537  0.5037 -0.4959  0.0382
 4767SOL    HW114759   3.218   3.482   1.463  1.2307 -1.2859  0.5942
 4767SOL    HW214760   3.136   3.561   1.564  0.3109 -1.9765  0.4009
 4768SOL     OW14761   0.582   2.645   3.677 -0.5813 -0.1875 -0.1669
 4768SOL    HW114762   0.619   2.733   3.677  1.0920 -0.8302  1.5868
 4768SOL    HW214763   0.543   2.635   3.590 -0.0357  1.9454 -0.7016
 4769SOL     OW14764   0.480   4.966   6.094  0.3546  0.4413 -0.1778
 4769SOL    HW114765   0.462   4.909   6.169  0.9100 -0.3787 -0.6510
 4769SOL    HW214766   0.528   4.911   6.033  1.5212  1.6234 -0.3705
 4770SOL     OW14767   3.861   0.955   1.936  0.2709  0.1571 -0.2066
 4770SOL    HW114768   3.779   0.945   1.983  0.6893 -2.7787  0.1286
 4770SOL    HW214769   3.916   1.008   1.994 -0.8342  0.8249  0.2669
 4771SOL     OW14770   0.445   6.040   5.182  0.3893 -0.0598  0.1806
 4771SOL    HW114771   0.394   6.056   5.262  1.7793  0.7661  0.9468
 4771SOL    HW214772   0.409   6.102   5.119  1.9355  2.2823  1.4350
 4772SOL     OW14773   0.964   5.623   5.798  0.1990  0.3837 -0.1456
 4772SOL    HW114774   1.055   5.608   5.771  0.1847  0.8531 -0.4531
 4772SOL    HW214775   0.935   5.697   5.746  0.8369  2.7330  2.5773
 4773SOL     OW14776   6.103   4.473   0.478 -0.5536 -0.5359  0.1239
 4773SOL    HW114777   6.177   4.426   0.439 -0.2450  0.3080 -0.3167
 4773SOL    HW214778   6.061   4.408   0.534  1.3894 -0.6379  1.5767
 4774SOL     OW14779   2.096   1.710   4.508  0.1807  0.1620  0.1306
 4774SOL    HW114780   2.180   1.666   4.517  1.0692  1.5819 -0.9698
 4774SOL    HW214781   2.080   1.748   4.595  1.3996  1.1004 -0.0265
 4775SOL     OW14782   3.387   1.696   4.629 -0.0777  0.4596 -0.0059
 4775SOL    HW114783   3.465   1.734   4.588 -1.1790  2.1416 -0.6668
 4775SOL    HW214784   3.377   1.743   4.712 -1.2079  1.3870 -0.6263
 4776SOL     OW14785   3.625   4.116   4.857  0.0523 -0.1506 -0.4248
 4776SOL    HW114786   3.623   4.022   4.872  0.1920 -0.1297 -0.2641
 4776SOL    HW214787   3.592   4.128   4.768 -1.3578 -0.2299  0.0706
 4777SOL     OW14788   5.107   0.123   1.469  0.1689  0.4356 -0.7426
 4777SOL    HW114789   5.061   0.040   1.460  0.1728  0.5936 -2.7921
 4777SOL    HW214790   5.084   0.171   1.389  1.4834  1.7318 -0.3818
 4778SOL     OW14791   3.063   5.860   2.461  0.3915 -0.2238  0.6027
 4778SOL    HW114792   3.127   5.908   2.409 -1.4978  0.0972 -1.5582
 4778SOL    HW214793   3.086   5.768   2.447  1.7520 -0.1023  1.7641
 4779SOL     OW14794   5.312   0.980   0.574 -0.4038 -0.0866  0.3770
 4779SOL    HW114795   5.241   1.029   0.616 -0.6144  0.4226 -0.5337
 4779SOL    HW214796   5.392   1.014   0.613 -0.4605  1.8878 -1.0508
 4780SOL     OW14797   0.642   0.879   3.093 -0.1695  0.0224  0.0287
 4780SOL    HW114798   0.579   0.873   3.165 -0.1689 -0.1738  0.0133
 4780SOL    HW214799   0.659   0.973   3.083  1.6831 -0.0483  1.8746
 4781SOL     OW14800   5.322   0.744   1.804 -0.0799  0.2796 -0.8311
 4781SOL    HW114801   5.374   0.667   1.828 -0.7791 -0.3118 -1.1600
 4781SOL    HW214802   5.282   0.721   1.720 -0.4610  0.9273 -0.8359
 4782SOL     OW14803   0.522   3.088   2.442 -0.3074  0.5120  0.3909
 4782SOL    HW114804   0.588   3.060   2.379  0.2839 -0.3429  1.3634
 4782SOL    HW214805   0.562   3.163   2.486  0.5948 -0.7773  1.8622
 4783SOL     OW14806   2.383   0.049   5.385  0.9292 -0.2930 -0.1903
 4783SOL    HW114807   2.328   0.127   5.394 -0.6018 -1.4845  1.4913
 4783SOL    HW214808   2.469   0.078   5.415  0.7639  1.0952 -0.9539
 4784SOL     OW14809   4.561   4.694   1.191 -0.4020  0.4367  0.1747
 4784SOL    HW114810   4.508   4.620   1.222  0.2162  0.2938  0.9457
 4784SOL    HW214811   4.638   4.692   1.247  2.1404 -1.4708 -3.0452
 4785SOL     OW14812   0.298   1.903   1.887 -0.8031 -0.0133 -0.1618
 4785SOL    HW114813   0.214   1.933   1.923 -0.1188  0.4032  1.1364
 4785SOL    HW214814   0.287   1.911   1.792 -2.2481 -0.0235 -0.0212
 4786SOL     OW14815   4.912   4.440   3.624  0.2575 -0.0618  0.8327
 4786SOL    HW114816   4.947   4.355   3.597  1.4828  0.5090  0.5372
 4786SOL    HW214817   4.990   4.495   3.636 -0.4585  0.7452  1.9672
 4787SOL     OW14818   3.848   0.247   0.821  0.2578  0.2257  0.2021
 4787SOL    HW114819   3.888   0.334   0.832 -0.2116  0.2908  1.4662
 4787SOL    HW214820   3.822   0.221   0.909 -1.2044 -0.4360 -0.3984
 4788SOL     OW14821   2.356   4.472   1.423 -0.0351  0.2454 -0.4838
 4788SOL    HW114822   2.418   4.446   1.355 -0.2923 -0.3596 -0.4935
 4788SOL    HW214823   2.409   4.485   1.501  0.3005  1.1951 -0.8486
 4789SOL     OW14824   5.096   0.458   5.907  0.4716 -0.3044  0.1039
 4789SOL    HW114825   5.173   0.473   5.851 -0.0276 -0.0783 -0.5292
 4789SOL    HW214826   5.108   0.369   5.940  1.2597 -0.0958  0.4142
 4790SOL     OW14827   5.144   5.710   1.324  0.4594 -0.0684  0.0102
 4790SOL    HW114828   5.230   5.690   1.359  0.0240 -2.1562 -0.0291
 4790SOL    HW214829   5.107   5.626   1.299 -2.4099  0.4925  1.8927
 4791SOL     OW14830   3.640   3.371   6.156  0.1941  0.5275 -0.0094
 4791SOL    HW114831   3.735   3.361   6.158  0.0206 -1.2700  1.0363
 4791SOL    HW214832   3.613   3.322   6.078 -0.0015 -0.4834  0.6785
 4792SOL     OW14833   0.283   2.082   3.727 -0.7354  0.1112  0.0797
 4792SOL    HW114834   0.232   2.002   3.712  0.1842 -0.2654 -1.1531
 4792SOL    HW214835   0.374   2.054   3.722 -0.3859  0.9695  1.2489
 4793SOL     OW14836   1.511   3.334   1.674 -1.2408 -0.5468 -0.2995
 4793SOL    HW114837   1.540   3.355   1.763 -1.8070  1.2978 -0.5090
 4793SOL    HW214838   1.433   3.388   1.661  0.3859  1.4668 -2.8515
 4794SOL     OW14839   0.657   2.593   0.798  0.3208  0.3862  0.1807
 4794SOL    HW114840   0.749   2.574   0.783 -0.0130 -0.0242 -1.4880
 4794SOL    HW214841   0.635   2.659   0.732 -0.5988  0.4351  0.5233
 4795SOL     OW14842   2.671   4.824   5.986  0.2156  0.1635  0.3926
 4795SOL    HW114843   2.631   4.781   6.061  1.3624 -0.3789  0.7200
 4795SOL    HW214844   2.719   4.755   5.941 -0.2027  0.5458 -0.6796
 4796SOL     OW14845   0.909   5.040   5.226  0.2138 -0.2508 -0.7192
 4796SOL    HW114846   0.828   5.035   5.177  1.1495 -1.4802 -2.2272
 4796SOL    HW214847   0.934   5.132   5.222 -0.8698  0.0651 -0.5807
 4797SOL     OW14848   3.624   5.444   5.801 -0.3616  0.4463  0.1219
 4797SOL    HW114849   3.545   5.472   5.847 -0.8015  0.2396 -0.4834
 4797SOL    HW214850   3.592   5.379   5.738  0.2619  0.5253 -0.2802
 4798SOL     OW14851   0.765   3.825   1.307 -0.4470 -0.2867 -0.0406
 4798SOL    HW114852   0.801   3.760   1.366 -0.6166  1.0933  1.6589
 4798SOL    HW214853   0.828   3.831   1.236  1.1209 -0.1327  1.3194
 4799SOL     OW14854   5.798   2.282   2.701  0.4495  0.2366  0.0627
 4799SOL    HW114855   5.886   2.318   2.691 -0.5497  2.4604 -1.6209
 4799SOL    HW214856   5.762   2.329   2.776  1.2431 -2.0371  1.9763
 4800SOL     OW14857   2.163   4.535   1.685 -0.1425  0.1352  0.7847
 4800SOL    HW114858   2.173   4.541   1.590 -2.7593 -2.4230  0.2136
 4800SOL    HW214859   2.248   4.504   1.716  0.2015 -0.8446 -0.9793
 4801SOL     OW14860   2.090   5.738   3.884  0.4389 -0.1719  0.0086
 4801SOL    HW114861   2.143   5.699   3.815  0.1380 -2.0645  0.7945
 4801SOL    HW214862   2.148   5.801   3.926  1.5472 -1.0162 -0.2013
 4802SOL     OW14863   6.304   0.918   1.976 -0.2558  0.1874  0.0301
 4802SOL    HW114864   6.360   0.843   1.956 -1.6674 -0.9935  0.2641
 4802SOL    HW214865   6.364   0.991   1.989  1.1543 -0.8407 -0.4838
 4803SOL     OW14866   0.706   0.691   2.481  0.1956 -0.0186 -0.1746
 4803SOL    HW114867   0.662   0.664   2.401  1.3834 -0.1178 -0.8222
 4803SOL    HW214868   0.790   0.727   2.451  0.5393  0.2130  1.0039
 4804SOL     OW14869   4.462   3.384   4.731  0.1674 -0.2366  0.1575
 4804SOL    HW114870   4.520   3.406   4.804  0.3705 -2.2730  0.6733
 4804SOL    HW214871   4.398   3.323   4.768 -0.9443  0.1970 -0.9414
 4805SOL     OW14872   1.662   5.171   3.276  0.2579  0.2306  1.0398
 4805SOL    HW114873   1.671   5.257   3.234  0.4491 -0.0707  0.4482
 4805SOL    HW214874   1.722   5.175   3.351  2.0609 -0.1757 -0.3090
 4806SOL     OW14875   2.014   2.864   0.508 -0.2801  0.0950 -0.1478
 4806SOL    HW114876   1.920   2.855   0.493 -0.3422  0.0450  0.2723
 4806SOL    HW214877   2.036   2.950   0.472 -0.3022 -0.2993 -1.1317
 4807SOL     OW14878   5.690   4.303   5.536 -0.0023  0.0331 -0.2873
 4807SOL    HW114879   5.642   4.220   5.538  1.8494 -1.0852 -0.2869
 4807SOL    HW214880   5.666   4.342   5.452 -1.1176 -0.3452 -0.1672
 4808SOL     OW14881   2.243   4.216   5.449  0.0772 -0.3879  0.5436
 4808SOL    HW114882   2.301   4.263   5.389  0.5277 -0.2988  1.0333
 4808SOL    HW214883   2.254   4.124   5.426 -1.3865 -0.2316 -0.9265
 4809SOL     OW14884   4.100   6.354   2.782  0.2345 -0.2631 -0.3560
 4809SOL    HW114885   4.180   6.307   2.757  0.7439  0.6909 -0.5833
 4809SOL    HW214886   4.070   6.395   2.700 -0.1874 -0.1767 -0.1598
 4810SOL     OW14887   4.185   2.846   5.414 -0.3544 -0.5656 -0.2292
 4810SOL    HW114888   4.137   2.892   5.346 -0.0677  0.1393  0.0315
 4810SOL    HW214889   4.272   2.830   5.377  0.2600  1.0371  0.4259
 4811SOL     OW14890   1.681   1.178   4.467 -0.2206  0.6793  0.1289
 4811SOL    HW114891   1.588   1.155   4.464  0.0663 -0.4713 -2.0408
 4811SOL    HW214892   1.684   1.256   4.523 -2.2374 -0.2461  1.6697
 4812SOL     OW14893   0.778   4.350   6.082  0.9993 -0.0512 -0.4777
 4812SOL    HW114894   0.694   4.344   6.127  0.5628 -0.8913 -1.3781
 4812SOL    HW214895   0.841   4.313   6.144  0.8220  1.0764  0.4193
 4813SOL     OW14896   1.876   3.704   0.206  0.7386 -0.0137 -0.4467
 4813SOL    HW114897   1.953   3.755   0.180  0.6449  0.6806  0.5781
 4813SOL    HW214898   1.823   3.765   0.257 -0.6708 -0.3892 -1.4108
 4814SOL     OW14899   0.622   2.581   5.726 -0.4361 -0.1854  0.2771
 4814SOL    HW114900   0.716   2.584   5.738 -0.5197  0.5763  0.7987
 4814SOL    HW214901   0.599   2.488   5.733  0.1755 -0.2919  0.8955
 4815SOL     OW14902   4.942   1.668   0.075 -0.1329  0.0438 -0.5340
 4815SOL    HW114903   4.939   1.573   0.086 -0.5651  0.0573 -0.4952
 4815SOL    HW214904   4.957   1.682  -0.018  1.2028 -0.0638 -0.3557
 4816SOL     OW14905   3.134   1.416   2.444 -0.1334 -0.1967  0.1906
 4816SOL    HW114906   3.179   1.412   2.528 -0.6722  2.2973  0.6664
 4816SOL    HW214907   3.151   1.505   2.412 -0.6947 -0.7985 -1.9134
 4817SOL     OW14908   0.265   1.028   0.803  0.5192 -0.4836  0.0090
 4817SOL    HW114909   0.217   1.102   0.765 -0.9327 -1.6500 -0.5225
 4817SOL    HW214910   0.296   0.978   0.727  2.2398  0.0011  0.3504
 4818SOL     OW14911   0.452   1.483   2.079 -0.6877  0.6246  0.2645
 4818SOL    HW114912   0.414   1.395   2.077  1.0136 -0.1391 -0.8108
 4818SOL    HW214913   0.546   1.469   2.091 -0.2733  2.2479 -0.6621
 4819SOL     OW14914   3.457   3.133   0.790 -0.0081 -0.8200  0.0385
 4819SOL    HW114915   3.532   3.177   0.829 -0.8685  0.1341  0.6744
 4819SOL    HW214916   3.492   3.050   0.757  1.6325  0.2411 -1.0461
 4820SOL     OW14917   0.040   3.973   5.791 -0.0992 -0.4882  0.1062
 4820SOL    HW114918   0.073   3.964   5.880 -1.7127 -0.6060  0.7325
 4820SOL    HW214919  -0.001   3.888   5.772 -0.4121 -0.2180 -0.4674
 4821SOL     OW14920   2.138   2.973   1.616  0.2968 -0.1084 -0.1456
 4821SOL    HW114921   2.161   3.050   1.668  1.5532 -0.8967  0.5261
 4821SOL    HW214922   2.042   2.969   1.620  0.3092  0.3383  1.4335
 4822SOL     OW14923   0.138   5.699   0.037 -0.0642  0.2560  0.6728
 4822SOL    HW114924   0.054   5.709   0.082 -0.8388 -0.4533 -0.5774
 4822SOL    HW214925   0.184   5.631   0.087 -0.3695  0.3874  1.1420
 4823SOL     OW14926   0.552   4.866   1.197  0.8921  0.1603 -0.2425
 4823SOL    HW114927   0.501   4.788   1.174  1.2007 -0.0613 -0.1791
 4823SOL    HW214928   0.579   4.903   1.113 -0.1724  0.8222 -0.3160
 4824SOL     OW14929   4.682   1.604   2.176  0.2365 -0.1609  0.1206
 4824SOL    HW114930   4.669   1.696   2.201 -1.6746 -0.3878  0.0400
 4824SOL    HW214931   4.613   1.556   2.220  0.8602 -1.5038 -0.3005
 4825SOL     OW14932   6.052   2.133   1.432 -0.8939  0.6203 -0.3240
 4825SOL    HW114933   6.098   2.174   1.505 -3.8473  0.3391  1.9188
 4825SOL    HW214934   6.081   2.042   1.433 -0.4817  0.7546  0.1094
 4826SOL     OW14935   0.818   1.400   3.367  0.0264 -0.3872 -0.2597
 4826SOL    HW114936   0.879   1.393   3.441  1.2516 -1.0867 -1.3040
 4826SOL    HW214937   0.741   1.351   3.395  0.9624 -1.6965  0.0936
 4827SOL     OW14938   2.461   6.164   4.992 -0.3185 -0.3287  0.2872
 4827SOL    HW114939   2.492   6.245   5.031  0.3527 -0.2568 -0.3643
 4827SOL    HW214940   2.385   6.139   5.045  0.1560  0.1140  1.2017
 4828SOL     OW14941   0.756   5.478   2.411  0.3255 -0.1724 -0.0742
 4828SOL    HW114942   0.681   5.422   2.391 -0.5206  0.1334  1.9887
 4828SOL    HW214943   0.766   5.471   2.506  2.5526  0.2742 -0.2285
 4829SOL     OW14944   2.404   4.247   0.562  0.1376  0.0043 -0.3371
 4829SOL    HW114945   2.318   4.205   0.564 -0.1510  0.5693 -0.6600
 4829SOL    HW214946   2.448   4.207   0.487  0.3367 -0.6154  0.0984
 4830SOL     OW14947   4.811   0.294   5.641 -0.3943  0.1771  0.4807
 4830SOL    HW114948   4.741   0.294   5.575  0.2134  0.1352 -0.1750
 4830SOL    HW214949   4.800   0.212   5.689 -0.1667 -0.3174 -0.3009
 4831SOL     OW14950   5.204   1.709   1.733  0.1411  0.4788  0.4107
 4831SOL    HW114951   5.239   1.634   1.782 -0.5928  0.5042  0.9879
 4831SOL    HW214952   5.155   1.760   1.797 -1.1072  0.3483 -0.3888
 4832SOL     OW14953   4.232   5.767   1.026 -0.5339 -0.4316 -0.3993
 4832SOL    HW114954   4.288   5.844   1.036 -1.7636  0.2654  1.9149
 4832SOL    HW214955   4.241   5.719   1.108 -0.4609 -2.3344 -1.4673
 4833SOL     OW14956   1.364   3.903   4.712  0.2096  0.1230  0.2465
 4833SOL    HW114957   1.351   3.810   4.732  0.2476  0.3965  1.6073
 4833SOL    HW214958   1.425   3.903   4.638 -0.8463 -0.9565 -0.6709
 4834SOL     OW14959   1.584   2.883   3.252  0.4379 -0.3466 -0.0680
 4834SOL    HW114960   1.616   2.944   3.319 -0.5770  1.0778 -0.8221
 4834SOL    HW214961   1.662   2.857   3.204  0.7876  1.1394 -0.3397
 4835SOL     OW14962   1.357   5.999   2.645 -0.5568 -0.4340  0.3094
 4835SOL    HW114963   1.445   6.025   2.673 -0.5320 -2.6028  2.5657
 4835SOL    HW214964   1.370   5.916   2.598 -1.4465 -1.4869  1.8269
 4836SOL     OW14965   1.683   6.262   5.174 -0.0883  0.3327  0.3746
 4836SOL    HW114966   1.650   6.344   5.136  0.0140  0.5377  0.7292
 4836SOL    HW214967   1.610   6.228   5.225  0.5727  1.3365  2.0496
 4837SOL     OW14968   4.615   1.078   2.082 -0.1312 -0.0268  0.7145
 4837SOL    HW114969   4.554   1.138   2.125  0.4663 -0.0076  1.5603
 4837SOL    HW214970   4.681   1.058   2.149 -0.2734 -1.5741  0.4248
 4838SOL     OW14971   2.302   0.541   5.610  0.3266  0.4148  0.2106
 4838SOL    HW114972   2.219   0.585   5.633  1.4327  2.5211  0.3924
 4838SOL    HW214973   2.369   0.593   5.654  1.7285 -1.8416  0.9009
 4839SOL     OW14974   4.875   1.614   2.995 -0.1600 -0.0888  1.0346
 4839SOL    HW114975   4.924   1.647   2.919  1.6668  0.4343  2.3645
 4839SOL    HW214976   4.822   1.542   2.960 -0.7320  1.2644 -1.0526
 4840SOL     OW14977   0.752   0.161   3.590 -0.0648  0.0364  0.3848
 4840SOL    HW114978   0.818   0.214   3.545  0.3818 -0.6076  0.2598
 4840SOL    HW214979   0.696   0.225   3.634 -0.5318  0.6919 -1.0985
 4841SOL     OW14980   3.634   2.139   2.305  0.1573  0.4018 -0.2926
 4841SOL    HW114981   3.578   2.140   2.383  0.0904 -1.5154 -0.2673
 4841SOL    HW214982   3.723   2.130   2.340  0.1984  0.2866 -0.4273
 4842SOL     OW14983   3.282   4.363   1.193  0.4135  0.0190 -0.2459
 4842SOL    HW114984   3.215   4.390   1.130  1.7898 -1.4500 -2.4923
 4842SOL    HW214985   3.250   4.396   1.277 -2.6664  0.1713 -1.3201
 4843SOL     OW14986   1.948   4.124   3.297 -0.2118 -0.0655  0.1871
 4843SOL    HW114987   1.886   4.073   3.350  0.2970  0.2699  1.1175
 4843SOL    HW214988   2.028   4.072   3.296 -0.4337 -0.4220 -0.8838
 4844SOL     OW14989   5.096   2.928   0.813 -0.0030  0.0145 -0.3268
 4844SOL    HW114990   5.089   2.874   0.734  2.1659 -0.0039 -0.5465
 4844SOL    HW214991   5.015   2.909   0.861 -0.1020 -2.1310 -1.2012
 4845SOL     OW14992   2.153   5.716   4.673 -0.0420 -0.0269  0.1110
 4845SOL    HW114993   2.136   5.631   4.712  0.6384 -0.7904 -1.1653
 4845SOL    HW214994   2.249   5.724   4.673 -0.1235  1.9941  2.7122
 4846SOL     OW14995   5.732   3.542   2.813  0.0265  0.2413  0.0934
 4846SOL    HW114996   5.640   3.519   2.802 -0.1028  0.8697 -0.1406
 4846SOL    HW214997   5.750   3.606   2.744  0.5603  0.3401  0.3179
 4847SOL     OW14998   2.697   2.762   3.800  0.5694 -0.0400 -0.2521
 4847SOL    HW114999   2.752   2.705   3.854 -0.7122 -1.2127 -0.1153
 4847SOL    HW215000   2.666   2.830   3.859  0.9266 -0.0541 -0.0481
 4848SOL     OW15001   2.253   4.867   0.252 -0.2627  0.0386 -0.3180
 4848SOL    HW115002   2.300   4.949   0.265  0.0023 -0.3592  1.5445
 4848SOL    HW215003   2.164   4.893   0.232  0.1743  0.7733 -1.4127
 4849SOL     OW15004   5.430   6.282   3.345 -0.3289 -0.2170 -0.4151
 4849SOL    HW115005   5.343   6.262   3.380 -0.0938  1.1568  1.1017
 4849SOL    HW215006   5.414   6.353   3.283 -0.8343 -3.0703 -3.8760
 4850SOL     OW15007   3.286   1.537   0.261  0.4620  0.2084 -0.7824
 4850SOL    HW115008   3.298   1.485   0.340  0.6469  1.5506  0.1051
 4850SOL    HW215009   3.211   1.496   0.217 -0.2969  0.0354  0.6046
 4851SOL     OW15010   4.483   1.159   5.450 -0.2056  0.4407  0.0613
 4851SOL    HW115011   4.429   1.228   5.491  1.2652  1.1931  0.8059
 4851SOL    HW215012   4.457   1.079   5.496 -0.8141  0.7605  0.2910
 4852SOL     OW15013   4.079   1.261   1.651 -0.0180 -0.9435  0.2118
 4852SOL    HW115014   4.148   1.316   1.616 -0.3311  0.3721  1.5542
 4852SOL    HW215015   4.102   1.172   1.623  1.1120 -0.2883 -1.0387
 4853SOL     OW15016   0.206   5.286   1.394 -0.6542  0.3167 -0.1187
 4853SOL    HW115017   0.191   5.351   1.325 -0.1423  0.8967  0.3193
 4853SOL    HW215018   0.120   5.244   1.405 -0.6564 -0.0896 -1.4021
 4854SOL     OW15019   3.892   0.848   5.765 -0.0219 -0.1824  0.5310
 4854SOL    HW115020   3.864   0.881   5.680 -0.5823 -1.4787  0.1810
 4854SOL    HW215021   3.817   0.799   5.798 -0.0834  0.8847  2.1256
 4855SOL     OW15022   0.721   2.795   0.326 -0.0022 -0.1062 -0.3468
 4855SOL    HW115023   0.765   2.775   0.408 -0.7829 -1.9454 -0.3335
 4855SOL    HW215024   0.633   2.822   0.352 -0.1436 -0.3525 -0.5613
 4856SOL     OW15025   6.291   6.039   0.410  0.4082 -0.0411 -0.3728
 4856SOL    HW115026   6.204   6.041   0.449 -0.1634 -0.7681 -1.5689
 4856SOL    HW215027   6.329   6.124   0.431 -0.0040 -0.2478  1.4153
 4857SOL     OW15028   0.530   3.365   0.032 -0.3449 -0.0659  0.0190
 4857SOL    HW115029   0.529   3.452   0.071  3.1515 -0.7746  2.1103
 4857SOL    HW215030   0.533   3.381  -0.062 -2.4514  1.9203  0.2164
 4858SOL     OW15031   0.251   0.184   2.755 -0.0949  0.1764  0.6825
 4858SOL    HW115032   0.161   0.189   2.788 -0.3958 -0.4559 -0.0126
 4858SOL    HW215033   0.242   0.146   2.667  0.8614  0.0283  0.6392
 4859SOL     OW15034   5.628   1.208   2.140 -0.0492 -0.3607  0.2122
 4859SOL    HW115035   5.557   1.157   2.180  0.6117 -0.2822  1.5301
 4859SOL    HW215036   5.589   1.293   2.121 -0.8005 -0.9021 -0.8043
 4860SOL     OW15037   2.902   4.241   0.701  0.4773 -0.8888  0.0522
 4860SOL    HW115038   2.992   4.265   0.726  0.3593  0.7430 -0.9362
 4860SOL    HW215039   2.846   4.287   0.763  0.2966 -0.7928 -0.1794
 4861SOL     OW15040   5.045   2.374   4.343  0.3963  0.0842 -0.4737
 4861SOL    HW115041   4.958   2.344   4.369  0.5605 -1.0207 -1.0863
 4861SOL    HW215042   5.075   2.429   4.414 -1.7384  2.4371 -1.2737
 4862SOL     OW15043   3.990   1.913   5.081  0.6383  0.5634 -0.1476
 4862SOL    HW115044   3.900   1.908   5.049  0.3458  0.0612  0.7083
 4862SOL    HW215045   3.993   1.993   5.134  0.6375  0.4779 -0.0170
 4863SOL     OW15046   3.856   6.377   0.703  0.1253 -0.5019 -0.1357
 4863SOL    HW115047   3.851   6.458   0.753  0.4449  0.7165 -1.9671
 4863SOL    HW215048   3.769   6.366   0.665 -0.2833 -1.7172  1.0556
 4864SOL     OW15049   3.068   3.513   5.591 -0.5120 -0.4676 -0.1595
 4864SOL    HW115050   3.069   3.455   5.516  0.6830 -0.5876 -0.0623
 4864SOL    HW215051   3.088   3.600   5.555  1.4016 -0.7325  0.1515
 4865SOL     OW15052   0.763   0.537   6.020 -0.1845  0.0613  0.3317
 4865SOL    HW115053   0.689   0.514   5.964  1.0596  0.3979 -1.5137
 4865SOL    HW215054   0.780   0.629   6.001  0.4567  0.1007  1.0385
 4866SOL     OW15055   5.379   4.967   4.248  0.1467 -0.7468  0.0568
 4866SOL    HW115056   5.317   4.922   4.190 -1.6824  2.0888 -0.3672
 4866SOL    HW215057   5.407   4.899   4.309 -2.3802 -2.4879 -0.5474
 4867SOL     OW15058   0.194   4.013   0.231 -0.0671  0.0997 -0.4347
 4867SOL    HW115059   0.170   4.092   0.277  0.1985 -0.3557  0.5126
 4867SOL    HW215060   0.253   3.967   0.291 -1.6133 -1.6865 -0.1674
 4868SOL     OW15061   4.912   2.013   0.375  0.4177 -0.2865 -0.4336
 4868SOL    HW115062   4.934   1.936   0.322  0.3416 -0.8421  0.3320
 4868SOL    HW215063   4.900   2.084   0.311  0.7259 -0.8533 -1.1249
 4869SOL     OW15064   5.984   4.150   5.891 -0.0611 -0.1927  0.3755
 4869SOL    HW115065   6.079   4.162   5.895 -0.0220 -0.6639  1.1246
 4869SOL    HW215066   5.963   4.097   5.968 -1.0501  0.6105  0.6839
 4870SOL     OW15067   0.252   5.235   0.208 -0.1085 -0.8224  0.4530
 4870SOL    HW115068   0.265   5.141   0.195  0.2729 -0.8131  0.7607
 4870SOL    HW215069   0.330   5.264   0.254  0.4897 -0.0582 -0.9784
 4871SOL     OW15070   2.622   1.666   4.026  0.1054  0.6736  0.1393
 4871SOL    HW115071   2.530   1.688   4.042 -0.6687 -0.4790 -2.1976
 4871SOL    HW215072   2.639   1.591   4.082 -1.3662 -1.0077 -1.5531
 4872SOL     OW15073   4.051   2.641   0.916 -0.7547  0.1667  0.1942
 4872SOL    HW115074   3.973   2.662   0.865 -0.5237  1.4288  0.3246
 4872SOL    HW215075   4.104   2.721   0.914  0.3388 -0.5190  0.4720
 4873SOL     OW15076   2.616   1.427   5.283 -0.4651  0.1953 -0.0632
 4873SOL    HW115077   2.708   1.401   5.281 -0.8355 -1.2487  0.3909
 4873SOL    HW215078   2.584   1.406   5.195 -0.3588  0.7309 -0.2327
 4874SOL     OW15079   3.349   6.075   2.745 -0.2190  0.1421 -0.8158
 4874SOL    HW115080   3.317   5.988   2.723  0.7612 -0.8428  1.3633
 4874SOL    HW215081   3.271   6.130   2.747 -1.2760 -1.3178  0.5074
 4875SOL     OW15082   0.654   4.793   5.975  0.5195  0.1686  0.1520
 4875SOL    HW115083   0.738   4.767   6.014 -0.2278 -0.4571  1.3797
 4875SOL    HW215084   0.677   4.864   5.915  1.7357  1.0911  1.6392
 4876SOL     OW15085   1.402   1.324   6.236  0.3264  0.0177 -0.0522
 4876SOL    HW115086   1.377   1.262   6.305  0.7484 -2.3289 -1.8953
 4876SOL    HW215087   1.485   1.361   6.267  0.7113 -1.2857  0.5618
 4877SOL     OW15088   2.786   1.561   0.178 -0.4491  0.3073  0.1598
 4877SOL    HW115089   2.849   1.538   0.247  1.6466  0.7299 -1.5275
 4877SOL    HW215090   2.754   1.477   0.146  0.6203 -0.0077 -0.1378
 4878SOL     OW15091   2.770   4.104   0.085 -0.1360 -0.2449  1.1109
 4878SOL    HW115092   2.798   4.186   0.044  0.0127 -0.3897  0.9186
 4878SOL    HW215093   2.709   4.065   0.022  0.3005 -0.5977  0.9018
 4879SOL     OW15094   1.516   5.013   5.178  0.5209 -0.5572  0.3490
 4879SOL    HW115095   1.586   5.057   5.225  1.8872 -0.1858 -1.8899
 4879SOL    HW215096   1.508   5.061   5.096 -0.2656 -2.4431 -0.7384
 4880SOL     OW15097   1.457   5.490   5.495  0.0369  0.1937  0.6832
 4880SOL    HW115098   1.413   5.442   5.566 -0.8920 -2.0187 -1.2420
 4880SOL    HW215099   1.550   5.477   5.511 -0.1598 -0.3066  1.4770
 4881SOL     OW15100   1.632   0.385   1.258  0.3263 -0.3755  0.3209
 4881SOL    HW115101   1.660   0.470   1.292 -0.4118 -0.0436  0.1077
 4881SOL    HW215102   1.704   0.326   1.281  1.9363  0.7373 -1.5151
 4882SOL     OW15103   0.038   2.238   2.254  0.1366 -0.5156 -0.1434
 4882SOL    HW115104  -0.023   2.305   2.222  2.3631  1.8310  0.2188
 4882SOL    HW215105   0.105   2.232   2.187  0.8791 -1.1664  0.6343
 4883SOL     OW15106   6.196   0.290   4.612  0.3047  0.3290  0.3055
 4883SOL    HW115107   6.199   0.218   4.550 -0.4255  0.7106 -0.1717
 4883SOL    HW215108   6.267   0.271   4.674 -0.6391 -1.4444  0.9076
 4884SOL     OW15109   4.773   4.445   1.790 -0.2941 -0.3555  0.3646
 4884SOL    HW115110   4.763   4.378   1.858 -0.3477  0.0521  0.7672
 4884SOL    HW215111   4.743   4.526   1.832 -1.4118 -0.2976 -0.5084
 4885SOL     OW15112   2.082   5.695   5.237  0.4217 -0.4708 -0.0663
 4885SOL    HW115113   2.169   5.733   5.233  0.2123  0.1356  1.0108
 4885SOL    HW215114   2.089   5.613   5.186  1.4077 -0.0601 -0.6100
 4886SOL     OW15115   2.920   1.481   4.007 -0.1159  0.5093 -0.0929
 4886SOL    HW115116   2.954   1.426   4.077 -0.6150 -0.1103 -0.3292
 4886SOL    HW215117   2.970   1.456   3.930 -1.0352 -0.3521 -0.4247
 4887SOL     OW15118   2.595   4.409   5.057 -0.4121 -0.4647  0.1481
 4887SOL    HW115119   2.689   4.420   5.072 -0.2167 -1.1121 -0.5307
 4887SOL    HW215120   2.568   4.490   5.014 -0.4767  0.3490  1.6385
 4888SOL     OW15121   2.404   2.805   3.760  0.1619 -0.3189 -0.7463
 4888SOL    HW115122   2.465   2.767   3.697  0.4906 -1.1131  0.0302
 4888SOL    HW215123   2.460   2.835   3.832 -0.1197  1.3548 -1.1707
 4889SOL     OW15124   3.236   2.050   4.209 -0.0010 -0.0530 -0.5211
 4889SOL    HW115125   3.231   1.962   4.248  1.4966 -0.3130 -0.8630
 4889SOL    HW215126   3.216   2.109   4.281  0.3380 -0.6264  0.0619
 4890SOL     OW15127   5.952   3.126   0.548  0.2388 -0.4777  0.2361
 4890SOL    HW115128   5.947   3.113   0.453 -1.6658 -1.7729  0.4330
 4890SOL    HW215129   5.902   3.206   0.563  1.5838  0.4098  0.0590
 4891SOL     OW15130   4.567   3.581   4.222  0.9724 -0.2200 -0.1142
 4891SOL    HW115131   4.499   3.526   4.261  1.9916 -1.2659  0.2469
 4891SOL    HW215132   4.630   3.593   4.293  1.1499  0.7667 -0.4346
 4892SOL     OW15133   6.188   4.590   1.077  0.2911 -0.2719 -0.1225
 4892SOL    HW115134   6.212   4.606   0.986 -0.1345 -0.0781 -0.2038
 4892SOL    HW215135   6.115   4.528   1.071  0.7135 -0.7979  0.1152
 4893SOL     OW15136   2.995   6.357   6.055 -0.0720 -0.3751 -0.0906
 4893SOL    HW115137   3.086   6.333   6.036  0.2265 -1.3872  2.2703
 4893SOL    HW215138   3.002   6.437   6.108 -0.5956 -0.1793 -0.3120
 4894SOL     OW15139   0.327   4.176   4.151 -0.1017  0.0305  0.1577
 4894SOL    HW115140   0.381   4.113   4.198  1.0430  1.0164  0.1862
 4894SOL    HW215141   0.385   4.212   4.083 -1.1494  0.0475 -0.7608
 4895SOL     OW15142   1.687   5.977   5.523 -0.6123 -0.3605  0.2105
 4895SOL    HW115143   1.650   6.036   5.457 -0.3093 -0.7084 -0.2782
 4895SOL    HW215144   1.702   6.033   5.599 -1.5481 -0.0796  0.2085
 4896SOL     OW15145   1.220   4.601   3.492 -1.0070 -0.5843 -0.3833
 4896SOL    HW115146   1.253   4.676   3.442  1.6984 -1.7707 -0.5655
 4896SOL    HW215147   1.204   4.533   3.426 -2.7265 -0.4272 -0.1472
 4897SOL     OW15148   5.721   4.368   0.727  0.3696  0.0783 -0.1913
 4897SOL    HW115149   5.640   4.332   0.764 -0.5228  0.2401 -1.8885
 4897SOL    HW215150   5.730   4.454   0.769 -0.8900  0.4732 -0.6758
 4898SOL     OW15151   5.389   1.531   5.698 -0.1317 -0.0444 -0.2509
 4898SOL    HW115152   5.412   1.502   5.610 -2.3909  0.1359 -0.9815
 4898SOL    HW215153   5.317   1.474   5.724  1.6527 -1.2765  2.2813
 4899SOL     OW15154   3.349   2.960   1.679 -0.2268 -0.3921 -0.2876
 4899SOL    HW115155   3.417   3.027   1.684 -2.0629  1.6695 -1.4283
 4899SOL    HW215156   3.342   2.940   1.585 -1.4922 -0.2020 -0.2510
 4900SOL     OW15157   2.453   3.449   1.091 -0.2954  0.4553 -0.1259
 4900SOL    HW115158   2.465   3.528   1.144  0.9834  0.0391  0.2293
 4900SOL    HW215159   2.378   3.405   1.132 -1.3519  1.6991 -0.6330
 4901SOL     OW15160   4.072   4.710   6.210 -0.7314  0.1394 -0.3172
 4901SOL    HW115161   4.111   4.770   6.275 -0.0135 -0.5681 -0.0744
 4901SOL    HW215162   4.105   4.742   6.126  3.1235 -2.2383  0.0290
 4902SOL     OW15163   2.687   4.653   1.925  0.6364 -0.3301  0.2277
 4902SOL    HW115164   2.632   4.730   1.907 -0.2589 -0.6010  1.6024
 4902SOL    HW215165   2.733   4.675   2.006  1.6940 -0.5749 -0.2962
 4903SOL     OW15166   0.929   4.485   3.684  0.0663  0.5166  0.1001
 4903SOL    HW115167   1.010   4.450   3.720  0.3942  0.6334 -0.5191
 4903SOL    HW215168   0.947   4.578   3.669  0.5116  0.1472 -1.9256
 4904SOL     OW15169   5.761   0.685   1.686 -0.1981  0.2654 -0.6046
 4904SOL    HW115170   5.682   0.657   1.731 -1.2761  1.3419 -1.7748
 4904SOL    HW215171   5.803   0.746   1.746 -1.6489  1.7362 -1.0173
 4905SOL     OW15172   0.358   0.291   6.125 -0.5624  0.2694 -0.3495
 4905SOL    HW115173   0.445   0.252   6.127 -0.2702  0.8861 -0.6967
 4905SOL    HW215174   0.309   0.239   6.061 -0.9506 -1.0746  0.9762
 4906SOL     OW15175   2.247   1.889   2.948  0.2937  0.3035  0.7853
 4906SOL    HW115176   2.218   1.919   2.862 -2.5873  1.2304  1.9773
 4906SOL    HW215177   2.298   1.810   2.930  0.1169  0.6909 -1.7740
 4907SOL     OW15178   1.888   0.139   0.930 -0.7870  0.1510  0.1301
 4907SOL    HW115179   1.880   0.049   0.961 -2.5350 -0.0430 -0.7354
 4907SOL    HW215180   1.802   0.159   0.894  0.6637  0.7973 -3.3456
 4908SOL     OW15181   0.730   0.409   5.245 -0.0204  0.3478 -0.1731
 4908SOL    HW115182   0.778   0.463   5.182  1.1329  0.1845  0.5422
 4908SOL    HW215183   0.761   0.320   5.229 -2.0946 -0.2315 -1.5189
 4909SOL     OW15184   1.155   1.186   4.635 -0.5284  0.5460 -0.1407
 4909SOL    HW115185   1.201   1.256   4.588 -1.9862 -0.9550 -4.2017
 4909SOL    HW215186   1.064   1.216   4.638 -0.6503  0.1106  0.8591
 4910SOL     OW15187   2.241   0.080   1.375  0.3564  0.9363 -0.0466
 4910SOL    HW115188   2.257   0.016   1.306  2.7142 -1.3638  2.3658
 4910SOL    HW215189   2.324   0.126   1.385  0.6182  0.0710  2.2602
 4911SOL     OW15190   3.396   4.147   5.085 -0.0666 -0.3517  0.1400
 4911SOL    HW115191   3.360   4.128   4.998  2.4616 -0.6922 -0.9224
 4911SOL    HW215192   3.458   4.075   5.101  1.4064  1.0686  1.0500
 4912SOL     OW15193   1.857   0.248   4.024  0.5348 -0.1718 -0.3284
 4912SOL    HW115194   1.840   0.288   3.939  1.9379 -1.8774 -1.4966
 4912SOL    HW215195   1.887   0.320   4.079 -3.1773  1.5841 -0.2434
 4913SOL     OW15196   4.979   2.374   0.293 -0.2269  0.2053 -0.2343
 4913SOL    HW115197   4.901   2.428   0.307  1.3363  2.4168  0.5140
 4913SOL    HW215198   4.973   2.306   0.359 -2.8763 -1.4575 -1.9725
 4914SOL     OW15199   1.866   0.255   1.420 -0.6361  0.1575 -0.8170
 4914SOL    HW115200   1.859   0.160   1.428 -0.9528  0.2033 -0.4780
 4914SOL    HW215201   1.852   0.287   1.509 -0.1541  0.5039 -0.8635
 4915SOL     OW15202   5.363   1.695   3.552 -0.1637 -0.2044 -0.0490
 4915SOL    HW115203   5.283   1.738   3.581 -0.6032 -0.7468 -0.4225
 4915SOL    HW215204   5.429   1.718   3.618 -0.2962  1.2724 -0.3920
 4916SOL     OW15205   5.105   4.313   0.045 -0.0756 -0.1023  0.3147
 4916SOL    HW115206   5.123   4.309  -0.049 -0.2300 -1.5767  0.3245
 4916SOL    HW215207   5.030   4.372   0.053  0.6366  0.9107 -0.3661
 4917SOL     OW15208   0.915   1.257   6.236 -0.3178  0.7939  0.1248
 4917SOL    HW115209   0.859   1.279   6.311 -0.2573 -1.2037  0.8082
 4917SOL    HW215210   0.941   1.342   6.200 -0.1989  1.8193  2.4704
 4918SOL     OW15211   4.738   2.366   1.491 -0.2197 -0.0212  0.4764
 4918SOL    HW115212   4.718   2.396   1.403  1.6281 -0.0731  0.0084
 4918SOL    HW215213   4.663   2.312   1.515 -1.0848  0.5739 -0.7613
 4919SOL     OW15214   4.668   5.959   4.679 -0.1010  0.2292 -0.6176
 4919SOL    HW115215   4.757   5.961   4.715 -0.9901  2.3028  1.7608
 4919SOL    HW215216   4.611   5.959   4.756 -2.1551  1.4279 -2.0341
 4920SOL     OW15217   1.666   0.073   5.515 -0.0572 -0.4100  0.0225
 4920SOL    HW115218   1.643   0.106   5.428 -0.0314  2.0274  0.8596
 4920SOL    HW215219   1.757   0.043   5.505 -0.0978 -0.2905 -0.8154
 4921SOL     OW15220   1.704   1.502   2.116 -0.0173 -0.4891 -0.0058
 4921SOL    HW115221   1.743   1.414   2.115 -0.9291 -0.8942 -0.4147
 4921SOL    HW215222   1.647   1.502   2.193 -0.1713 -0.3135 -0.1203
 4922SOL     OW15223   0.683   3.532   3.658  0.1252  0.0446 -0.3651
 4922SOL    HW115224   0.718   3.444   3.644  3.6207  1.0451  0.8421
 4922SOL    HW215225   0.760   3.589   3.649 -2.0595  3.0623 -1.5666
 4923SOL     OW15226   5.585   0.876   6.146 -0.9284  0.0866  0.3656
 4923SOL    HW115227   5.509   0.865   6.202 -0.7371  1.0043  0.8258
 4923SOL    HW215228   5.610   0.968   6.157  1.7434 -0.7298  2.2208
 4924SOL     OW15229   2.969   3.469   5.123  0.6092 -0.3109  0.4189
 4924SOL    HW115230   2.887   3.496   5.165 -0.0834 -0.3617 -0.8731
 4924SOL    HW215231   2.962   3.374   5.116  0.9472 -0.3531  0.6471
 4925SOL     OW15232   1.672   2.116   0.061 -0.4424 -0.2366  0.6372
 4925SOL    HW115233   1.741   2.159   0.111 -0.6185  1.1405 -0.2597
 4925SOL    HW215234   1.612   2.082   0.128 -0.0150  0.4460  1.3906
 4926SOL     OW15235   3.300   6.307   1.012  0.3014  0.1399  0.3761
 4926SOL    HW115236   3.210   6.319   0.979  0.7704  1.2410 -0.5621
 4926SOL    HW215237   3.288   6.270   1.100 -1.0388 -0.9989 -0.2409
 4927SOL     OW15238   4.576   2.862   3.289  1.3702  0.3633 -0.8880
 4927SOL    HW115239   4.490   2.899   3.269  1.7668  1.3661 -0.7993
 4927SOL    HW215240   4.559   2.769   3.302  0.2263  0.6150 -0.4110
 4928SOL     OW15241   0.528   0.668   2.204 -0.1102 -0.1694 -0.0680
 4928SOL    HW115242   0.573   0.615   2.139 -0.8144 -0.8980  0.0230
 4928SOL    HW215243   0.464   0.608   2.244  0.9517 -0.0305  1.9714
 4929SOL     OW15244   0.202   0.470   5.930  0.1066 -0.0986  0.0725
 4929SOL    HW115245   0.197   0.500   5.839 -1.6373 -1.3562 -0.2897
 4929SOL    HW215246   0.218   0.376   5.923 -0.5750 -0.2976  1.0672
 4930SOL     OW15247   1.772   0.656   4.829  0.4066  0.3999  0.1234
 4930SOL    HW115248   1.697   0.620   4.782  1.7908  0.7294 -2.5253
 4930SOL    HW215249   1.799   0.731   4.777  3.6413 -0.7537 -0.0885
 4931SOL     OW15250   1.055   0.096   1.288  0.2779  0.6943 -0.3331
 4931SOL    HW115251   0.999   0.170   1.312  0.0545  0.6644 -0.7473
 4931SOL    HW215252   1.058   0.042   1.367  0.0256  0.8840 -0.1893
 4932SOL     OW15253   4.721   3.188   3.334  0.2255  0.1979 -0.0220
 4932SOL    HW115254   4.673   3.140   3.402 -0.8124 -1.7237 -2.0305
 4932SOL    HW215255   4.770   3.122   3.287  1.1878  1.5454 -0.9878
 4933SOL     OW15256   4.412   3.658   2.382  0.1046 -0.0965  0.2182
 4933SOL    HW115257   4.435   3.593   2.316  1.3762 -0.8379  1.3442
 4933SOL    HW215258   4.426   3.742   2.339  1.9707 -0.5611 -0.1422
 4934SOL     OW15259   3.922   1.412   0.560  0.2384 -0.0466  0.0075
 4934SOL    HW115260   3.911   1.434   0.467  0.2269  1.5299  0.3576
 4934SOL    HW215261   3.851   1.350   0.578 -1.8552  2.1185 -0.2714
 4935SOL     OW15262   1.046   1.053   6.367  0.1490  1.1230 -0.5459
 4935SOL    HW115263   0.984   1.125   6.356  0.3485  1.4522  0.4271
 4935SOL    HW215264   1.068   1.027   6.278 -1.9902  0.4735 -0.9526
 4936SOL     OW15265   1.620   2.596   4.469 -0.2443 -0.3237  0.1205
 4936SOL    HW115266   1.587   2.532   4.532  0.0277 -1.8741 -1.2356
 4936SOL    HW215267   1.626   2.677   4.518 -1.0202 -1.2295  1.8035
 4937SOL     OW15268   1.928   4.405   4.669  0.2652 -0.2234  0.0101
 4937SOL    HW115269   2.019   4.423   4.644 -0.1333  1.3220 -0.4131
 4937SOL    HW215270   1.881   4.399   4.586 -0.2892  0.5143  0.2655
 4938SOL     OW15271   1.573   2.655   0.031 -0.1038 -0.4581  0.0357
 4938SOL    HW115272   1.655   2.674  -0.015  0.7518 -1.5929  1.0054
 4938SOL    HW215273   1.570   2.559   0.036 -2.1546 -0.5130 -1.0891
 4939SOL     OW15274   5.954   2.684   4.568  0.3423 -0.6125 -0.3501
 4939SOL    HW115275   5.894   2.746   4.527  0.5331  0.6368  1.1371
 4939SOL    HW215276   6.009   2.652   4.497 -1.4049 -1.0378 -1.5815
 4940SOL     OW15277   2.421   6.164   0.487 -0.0732  0.3978  0.0002
 4940SOL    HW115278   2.516   6.152   0.491 -0.3399 -2.0679  0.0641
 4940SOL    HW215279   2.400   6.161   0.394 -0.3177 -1.6764  0.0748
 4941SOL     OW15280   0.104   4.308   4.685 -0.1591  0.1281  0.5851
 4941SOL    HW115281   0.122   4.256   4.763 -1.3018 -1.2212  0.0092
 4941SOL    HW215282   0.013   4.337   4.696  0.4050  1.9123  0.8131
 4942SOL     OW15283   2.528   1.585   6.128  0.5830  0.2447  0.0719
 4942SOL    HW115284   2.528   1.590   6.224 -0.0815  0.9048  0.0423
 4942SOL    HW215285   2.613   1.545   6.107  0.3518 -0.7718  0.9645
 4943SOL     OW15286   0.726   1.615   1.081  0.6960 -0.1067 -0.1326
 4943SOL    HW115287   0.739   1.534   1.130  0.6968 -0.1522 -0.2085
 4943SOL    HW215288   0.807   1.664   1.094 -0.3498  1.1668  2.3123
 4944SOL     OW15289   0.615   2.486   0.303  0.4136  0.5994  0.0302
 4944SOL    HW115290   0.658   2.571   0.296  1.5775  0.0638  0.3682
 4944SOL    HW215291   0.543   2.501   0.364 -0.0863  1.5959 -0.7839
 4945SOL     OW15292   6.127   3.535   0.128  0.9909  0.1908  0.5568
 4945SOL    HW115293   6.058   3.568   0.185  0.6047 -2.1422  1.5433
 4945SOL    HW215294   6.197   3.599   0.135  0.2694  0.8372  2.3049
 4946SOL     OW15295   1.462   2.855   2.951  0.2319  0.2453 -0.1463
 4946SOL    HW115296   1.485   2.858   3.044 -0.6428  1.6799  0.0579
 4946SOL    HW215297   1.540   2.820   2.908  1.0302  0.5419  1.0163
 4947SOL     OW15298   0.609   3.170   1.847 -0.4462 -0.0766  0.2699
 4947SOL    HW115299   0.690   3.137   1.807 -0.7011 -0.2675 -0.0996
 4947SOL    HW215300   0.564   3.091   1.877 -0.5570  0.0192  0.3537
 4948SOL     OW15301   0.415   1.235   0.514 -0.3179  0.0452  0.0923
 4948SOL    HW115302   0.350   1.166   0.499 -0.3879  0.6669 -3.1219
 4948SOL    HW215303   0.498   1.188   0.515 -0.5130 -0.3155 -0.0907
 4949SOL     OW15304   4.250   1.327   1.919 -0.1137  0.5397  0.3836
 4949SOL    HW115305   4.245   1.241   1.876  1.2562 -0.2617  1.7199
 4949SOL    HW215306   4.167   1.335   1.966  1.6493 -2.6291  4.6586
 4950SOL     OW15307   4.194   4.919   2.167  0.3500 -0.0911  0.4599
 4950SOL    HW115308   4.118   4.867   2.194 -1.0013  1.5570 -0.0180
 4950SOL    HW215309   4.235   4.866   2.099 -0.0391 -1.2638  1.1075
 4951SOL     OW15310   4.675   2.405   2.961  0.6249  0.1325  0.2063
 4951SOL    HW115311   4.685   2.325   2.909 -0.4830 -0.2159  0.5177
 4951SOL    HW215312   4.590   2.441   2.935  0.4458  0.4234  1.1483
 4952SOL     OW15313   3.150   4.097   4.902  0.5288 -0.0152 -0.4745
 4952SOL    HW115314   3.088   4.059   4.964 -0.9172  0.9913 -1.2651
 4952SOL    HW215315   3.103   4.170   4.861  1.9617  0.2986 -1.6661
 4953SOL     OW15316   2.885   3.416   1.480 -0.3445  0.0251 -0.0050
 4953SOL    HW115317   2.916   3.491   1.531 -2.1999  1.4112 -0.8040
 4953SOL    HW215318   2.950   3.406   1.411  0.5177  0.1675  0.7712
 4954SOL     OW15319   0.465   0.213   4.260  0.2541 -0.2263  0.2031
 4954SOL    HW115320   0.442   0.235   4.351 -0.7088  1.3119 -0.3641
 4954SOL    HW215321   0.380   0.205   4.216  0.6087  3.1149 -1.4225
 4955SOL     OW15322   1.942   3.443   1.072  0.0310  0.0951  0.0577
 4955SOL    HW115323   1.893   3.388   1.011 -0.0751  0.6822 -0.3982
 4955SOL    HW215324   2.015   3.477   1.019  0.4520 -0.0946  0.5008
 4956SOL     OW15325   4.944   0.903   1.305  0.4352  0.6591 -0.2628
 4956SOL    HW115326   4.873   0.878   1.364  0.5084  0.0382 -0.4380
 4956SOL    HW215327   4.997   0.964   1.357  0.8542 -0.3682  0.5550
 4957SOL     OW15328   5.709   2.104   0.198  0.1580  0.3668 -0.2416
 4957SOL    HW115329   5.752   2.023   0.225 -0.7319 -0.2879 -0.7267
 4957SOL    HW215330   5.618   2.092   0.225 -0.2975  0.5751 -1.6234
 4958SOL     OW15331   1.545   5.684   3.402  0.2354  0.3721  0.4114
 4958SOL    HW115332   1.540   5.593   3.432 -1.0309  0.1254 -0.4760
 4958SOL    HW215333   1.544   5.736   3.482  0.6847 -0.3803  0.9172
 4959SOL     OW15334   0.717   0.393   0.808 -0.8651 -0.0377 -0.1084
 4959SOL    HW115335   0.727   0.481   0.847  0.2503  0.2719 -1.0287
 4959SOL    HW215336   0.686   0.410   0.719 -0.8422 -0.5898 -0.2214
 4960SOL     OW15337   5.483   1.369   1.111  0.2879  0.4113 -0.2556
 4960SOL    HW115338   5.576   1.387   1.099  0.6464 -1.3684 -0.4551
 4960SOL    HW215339   5.480   1.293   1.169 -1.1797  2.7055  2.9819
 4961SOL     OW15340   2.293   4.985   6.271 -0.6774  0.7422 -0.4146
 4961SOL    HW115341   2.309   5.023   6.185  1.4139 -2.5636 -1.6810
 4961SOL    HW215342   2.199   4.965   6.272 -0.9411  1.8279 -1.4181
 4962SOL     OW15343   5.466   4.031   2.313  0.5566  0.4329  0.1098
 4962SOL    HW115344   5.488   3.947   2.353 -0.2489  0.0109 -0.3161
 4962SOL    HW215345   5.486   4.019   2.220 -0.3752  0.4195 -0.0933
 4963SOL     OW15346   1.840   2.460   0.681 -0.3860 -0.2087  0.5731
 4963SOL    HW115347   1.885   2.525   0.735  1.1996 -1.8335  1.3260
 4963SOL    HW215348   1.774   2.422   0.739 -2.0914  1.4152 -0.2020
 4964SOL     OW15349   3.085   0.957   5.089 -0.2463 -0.2931 -0.3251
 4964SOL    HW115350   3.129   0.908   5.159 -0.3597  1.9680  1.4508
 4964SOL    HW215351   3.144   1.030   5.070 -1.0328  0.0960 -1.3581
 4965SOL     OW15352   4.875   6.273   4.170 -0.2857 -0.4239 -0.0525
 4965SOL    HW115353   4.969   6.293   4.176 -0.3210 -0.6917  1.9881
 4965SOL    HW215354   4.832   6.351   4.205 -0.9072  0.0954 -1.8758
 4966SOL     OW15355   5.054   3.318   3.531  0.0824  0.5151 -0.3642
 4966SOL    HW115356   5.028   3.410   3.534  1.4177  0.9090  0.9291
 4966SOL    HW215357   5.015   3.284   3.451 -1.2949  1.9345 -0.3503
 4967SOL     OW15358   3.522   2.908   2.266  0.2417  0.7982  0.2327
 4967SOL    HW115359   3.524   2.890   2.172  0.0041  0.0180  0.3737
 4967SOL    HW215360   3.608   2.879   2.297 -0.7240 -1.7706  0.7411
 4968SOL     OW15361   3.816   1.436   4.652 -0.5141 -0.1510  0.3860
 4968SOL    HW115362   3.894   1.487   4.673 -1.7631  1.2298  1.9284
 4968SOL    HW215363   3.850   1.355   4.615  1.5920  1.0555 -0.5137
 4969SOL     OW15364   4.692   1.355   5.428 -0.2501  0.3331  0.0744
 4969SOL    HW115365   4.759   1.338   5.362  0.3934 -0.4793  0.9148
 4969SOL    HW215366   4.635   1.277   5.425 -0.0235  0.1391  0.7034
 4970SOL     OW15367   4.564   4.157   1.186  0.4960 -0.0582 -0.3716
 4970SOL    HW115368   4.574   4.178   1.279  0.9108 -1.4912 -0.0732
 4970SOL    HW215369   4.583   4.240   1.141 -1.2081  1.0633  0.8392
 4971SOL     OW15370   4.529   1.658   1.263  0.5628 -0.0523  0.0937
 4971SOL    HW115371   4.441   1.695   1.268  0.9184  0.8547  0.0055
 4971SOL    HW215372   4.558   1.677   1.173  0.5329 -1.1109 -0.1497
 4972SOL     OW15373   2.213   0.928   2.012 -0.1491 -0.1675  0.1705
 4972SOL    HW115374   2.298   0.891   2.036  0.5543 -0.1761 -2.0947
 4972SOL    HW215375   2.227   1.022   2.010  0.2311 -0.2403 -1.5674
 4973SOL     OW15376   4.152   1.467   6.042 -0.4014 -0.3382  0.4945
 4973SOL    HW115377   4.215   1.409   5.998 -0.9338 -1.6752  1.4181
 4973SOL    HW215378   4.067   1.440   6.007 -0.6807 -0.3407  1.1676
 4974SOL     OW15379   1.891   5.764   3.066 -0.3464 -0.1932 -0.4723
 4974SOL    HW115380   1.853   5.773   2.979 -3.1203  0.1316  0.6916
 4974SOL    HW215381   1.846   5.830   3.120  0.8097 -0.8146  1.3757
 4975SOL     OW15382   4.512   1.390   3.259 -0.2735 -0.5177  0.0215
 4975SOL    HW115383   4.447   1.321   3.269  0.0317 -0.8003  0.0462
 4975SOL    HW215384   4.541   1.409   3.348  0.6745 -1.3465 -0.0956
 4976SOL     OW15385   2.473   2.270   4.951 -0.3675  0.8365 -0.1893
 4976SOL    HW115386   2.458   2.246   5.043  0.9104 -0.5872 -0.3303
 4976SOL    HW215387   2.385   2.271   4.912 -0.8361  0.5147  0.8186
 4977SOL     OW15388   2.734   6.237   1.248  0.5215  0.3511 -0.0326
 4977SOL    HW115389   2.667   6.186   1.294  0.9158 -0.5156 -0.3804
 4977SOL    HW215390   2.817   6.202   1.281  0.8234 -0.4425 -1.5115
 4978SOL     OW15391   6.111   0.522   1.623  0.0157 -0.2795  0.1013
 4978SOL    HW115392   6.178   0.496   1.560 -0.4417 -1.3880  0.0533
 4978SOL    HW215393   6.160   0.547   1.701  0.5178 -0.4958 -0.1419
 4979SOL     OW15394   1.840   2.174   3.395 -1.1360 -0.1918  0.4287
 4979SOL    HW115395   1.829   2.245   3.458 -0.4013 -0.0541  0.4147
 4979SOL    HW215396   1.910   2.204   3.338 -0.8017 -0.9357  0.4343
 4980SOL     OW15397   2.923   3.091   3.528 -0.4864 -0.0887  0.4071
 4980SOL    HW115398   2.982   3.016   3.515 -0.2919  0.1200  0.0470
 4980SOL    HW215399   2.850   3.074   3.468 -0.5370 -0.0835  0.4669
 4981SOL     OW15400   5.528   5.155   6.228 -0.3507 -0.2065 -0.3339
 4981SOL    HW115401   5.461   5.144   6.295  1.5868 -2.1451  1.4616
 4981SOL    HW215402   5.604   5.187   6.275  0.4969  0.3913 -2.0138
 4982SOL     OW15403   1.593   0.171   4.354 -0.4142 -0.0782  0.0507
 4982SOL    HW115404   1.611   0.101   4.292  0.0212 -0.4870  0.6231
 4982SOL    HW215405   1.528   0.227   4.310 -0.7451 -0.8217 -0.4183
 4983SOL     OW15406   6.192   4.157   5.104 -0.2976 -0.0228  0.0558
 4983SOL    HW115407   6.233   4.082   5.060  0.7762 -0.2856  1.4542
 4983SOL    HW215408   6.257   4.227   5.097 -0.2332  0.0113  0.9842
 4984SOL     OW15409   2.232   6.160   4.373  0.0202  0.1237 -0.3157
 4984SOL    HW115410   2.323   6.174   4.346  0.7869 -3.3784  0.0172
 4984SOL    HW215411   2.205   6.082   4.326 -2.2913  0.1690  0.8415
 4985SOL     OW15412   2.279   1.233   0.101  0.5810 -0.1619  0.3759
 4985SOL    HW115413   2.361   1.218   0.054 -0.0636 -0.5243 -0.6802
 4985SOL    HW215414   2.238   1.306   0.055 -0.2652 -0.8103  0.0723
 4986SOL     OW15415   0.426   0.681   5.236 -0.5270  0.0886 -0.3351
 4986SOL    HW115416   0.410   0.721   5.322  1.3683 -0.5785  0.3872
 4986SOL    HW215417   0.358   0.717   5.180 -0.0650  2.8423  0.7207
 4987SOL     OW15418   0.501   1.158   6.031  0.0667 -0.6646 -0.2886
 4987SOL    HW115419   0.497   1.130   5.940  0.0541 -0.2658 -0.4121
 4987SOL    HW215420   0.576   1.110   6.068 -1.9613 -3.5321  0.4382
 4988SOL     OW15421   0.229   5.786   1.371 -0.0457  0.0343  0.1974
 4988SOL    HW115422   0.215   5.729   1.447 -0.4980 -2.2266 -1.4712
 4988SOL    HW215423   0.324   5.794   1.365  0.0074 -0.0330  0.8123
 4989SOL     OW15424   1.752   3.716   2.595 -0.0049  0.2699 -0.1098
 4989SOL    HW115425   1.834   3.666   2.595 -0.4409 -0.4804  1.3019
 4989SOL    HW215426   1.683   3.650   2.600 -0.6492  0.9476  0.0847
 4990SOL     OW15427   2.744   0.734   2.268  0.1059  0.1585  0.2446
 4990SOL    HW115428   2.673   0.708   2.326 -0.7103  0.3356 -0.6464
 4990SOL    HW215429   2.822   0.691   2.304 -0.2801  0.6264  1.7215
 4991SOL     OW15430   3.715   1.852   5.064  0.5978  0.0074 -0.2257
 4991SOL    HW115431   3.674   1.778   5.020 -1.3612  0.8006  0.1431
 4991SOL    HW215432   3.654   1.925   5.050  1.2578  0.9456  1.4635
 4992SOL     OW15433   5.307   1.795   2.338  0.0777 -0.0759  0.1345
 4992SOL    HW115434   5.283   1.778   2.429 -1.2353 -0.2217 -0.2112
 4992SOL    HW215435   5.250   1.868   2.312 -0.2568 -0.6653 -0.8443
 4993SOL     OW15436   5.203   2.878   5.554  0.0956 -0.1445  0.2104
 4993SOL    HW115437   5.204   2.848   5.463  2.8017 -0.4132  0.2426
 4993SOL    HW215438   5.140   2.950   5.554 -1.6668 -1.5564 -1.3175
 4994SOL     OW15439   1.213   1.238   0.751  0.1385 -0.1962 -0.1623
 4994SOL    HW115440   1.122   1.254   0.725 -0.2080 -1.1621  0.4079
 4994SOL    HW215441   1.252   1.325   0.757 -0.9096  0.2627  0.1809
 4995SOL     OW15442   2.938   6.364   1.849  0.4873  0.1724  0.2106
 4995SOL    HW115443   3.012   6.307   1.832 -0.9371 -2.0486  1.0583
 4995SOL    HW215444   2.975   6.436   1.901  2.2240 -0.2764 -0.3423
 4996SOL     OW15445   2.692   3.130   2.611 -0.0641  0.7457 -0.0453
 4996SOL    HW115446   2.772   3.178   2.589  1.6275 -1.6742  0.4211
 4996SOL    HW215447   2.711   3.039   2.586 -2.6944  0.0884  0.0790
 4997SOL     OW15448   1.999   1.559   3.697 -0.8582 -0.1500 -0.3721
 4997SOL    HW115449   2.034   1.480   3.738  0.4628 -0.0173 -1.1788
 4997SOL    HW215450   2.019   1.629   3.759  1.9326  0.1921 -1.4802
 4998SOL     OW15451   0.770   1.781   6.167 -0.1573 -0.1596  0.3573
 4998SOL    HW115452   0.865   1.771   6.174 -0.3383 -1.4862  1.2820
 4998SOL    HW215453   0.739   1.695   6.141 -1.1938 -0.0442  1.1681
 4999SOL     OW15454   3.646   4.220   1.553 -0.0438  0.3551 -0.7988
 4999SOL    HW115455   3.656   4.236   1.647  0.2103  1.8176 -1.0521
 4999SOL    HW215456   3.552   4.208   1.541 -0.0731  0.1213 -0.3621
 5000SOL     OW15457   0.776   2.694   4.268 -0.0313 -0.3345 -0.3224
 5000SOL    HW115458   0.859   2.659   4.237  0.3300  0.4124 -0.2077
 5000SOL    HW215459   0.775   2.785   4.240 -0.3862 -0.0722  0.4892
 5001SOL     OW15460   5.922   4.464   5.637 -0.6431  0.0996 -0.2462
 5001SOL    HW115461   5.951   4.516   5.562  0.6261 -1.0330 -0.5798
 5001SOL    HW215462   5.854   4.407   5.602 -0.3075 -0.1720 -0.4665
 5002SOL     OW15463   4.612   5.521   6.076  0.4420  0.0299  0.2491
 5002SOL    HW115464   4.522   5.522   6.042  0.0523  2.6044  1.1396
 5002SOL    HW215465   4.611   5.453   6.144 -1.0251  0.3842  0.6228
 5003SOL     OW15466   5.560   1.642   3.364  0.2974 -0.3798 -0.5656
 5003SOL    HW115467   5.646   1.635   3.406 -0.4512 -1.0733  0.9109
 5003SOL    HW215468   5.497   1.633   3.435 -1.0286 -1.0397 -1.7633
 5004SOL     OW15469   4.344   5.600   4.166 -0.1183 -0.0062  0.1841
 5004SOL    HW115470   4.374   5.608   4.256 -1.4010  1.9656  0.4972
 5004SOL    HW215471   4.350   5.688   4.130 -1.1409 -0.4438 -1.1578
 5005SOL     OW15472   3.408   2.362   3.294  0.0257 -0.4065 -0.3476
 5005SOL    HW115473   3.495   2.397   3.276 -0.2758  0.1874 -0.6859
 5005SOL    HW215474   3.381   2.405   3.375  1.2408 -2.8237  1.4705
 5006SOL     OW15475   3.666   2.730   5.302  0.1846 -0.7143  0.8853
 5006SOL    HW115476   3.581   2.685   5.309 -0.7052  0.5471 -1.1626
 5006SOL    HW215477   3.720   2.687   5.369 -1.3698 -3.0633  0.7734
 5007SOL     OW15478   0.764   3.459   4.329  0.1193 -0.1176  0.2665
 5007SOL    HW115479   0.859   3.463   4.314  0.6284  1.5901  3.1338
 5007SOL    HW215480   0.750   3.372   4.367  0.4962 -0.4288 -0.2881
 5008SOL     OW15481   4.911   1.802   6.014 -0.4211 -0.1912  0.4824
 5008SOL    HW115482   4.891   1.849   5.934 -0.3490 -1.3329 -0.2270
 5008SOL    HW215483   4.995   1.758   5.997 -0.8718 -1.2232  0.8119
 5009SOL     OW15484   0.786   5.144   2.953 -0.2033 -0.1707  0.2569
 5009SOL    HW115485   0.708   5.192   2.924 -0.7566 -2.0685 -1.6293
 5009SOL    HW215486   0.768   5.053   2.930  2.5853 -0.6733 -0.2639
 5010SOL     OW15487   4.470   4.028   6.036  0.2987 -0.3829  0.1871
 5010SOL    HW115488   4.496   4.105   6.086 -1.3261 -0.1203  0.6715
 5010SOL    HW215489   4.454   4.061   5.948 -1.7656  0.1417  0.7206
 5011SOL     OW15490   5.155   1.327   2.185 -0.4767 -0.7515  0.2757
 5011SOL    HW115491   5.060   1.332   2.185 -0.4913 -0.8962  1.4093
 5011SOL    HW215492   5.179   1.328   2.092 -1.3545  2.9084 -0.0497
 5012SOL     OW15493   3.675   3.997   3.087 -0.3068 -0.0098 -0.0213
 5012SOL    HW115494   3.591   3.998   3.041  0.1506  3.2430 -1.0540
 5012SOL    HW215495   3.657   3.948   3.168 -1.8631 -3.5472 -2.2452
 5013SOL     OW15496   6.019   5.393   2.938 -0.0256  0.3076 -0.0468
 5013SOL    HW115497   5.964   5.377   2.862  0.7757  1.2210 -0.8406
 5013SOL    HW215498   6.058   5.479   2.922  1.3885 -0.1727  0.6438
 5014SOL     OW15499   1.025   2.249   0.749  0.5472 -0.1596 -0.1570
 5014SOL    HW115500   0.960   2.237   0.819  0.3641 -3.0160 -0.6877
 5014SOL    HW215501   1.109   2.230   0.791  0.5065 -1.2144 -0.5324
 5015SOL     OW15502   1.281   3.276   4.274 -0.8657  0.6553 -0.4331
 5015SOL    HW115503   1.197   3.307   4.241 -0.6664 -0.4076 -2.0615
 5015SOL    HW215504   1.336   3.271   4.196  0.3557  0.2026  0.4262
 5016SOL     OW15505   1.870   6.288   4.556 -0.1684 -0.1299  0.4750
 5016SOL    HW115506   1.794   6.335   4.589 -1.2811 -2.1001  0.8554
 5016SOL    HW215507   1.943   6.320   4.610 -0.9583  0.8049  1.0196
 5017SOL     OW15508   5.664   5.808   5.482 -0.6455 -0.1835 -0.2857
 5017SOL    HW115509   5.751   5.797   5.444 -0.4254 -2.3449  0.7210
 5017SOL    HW215510   5.612   5.849   5.412  0.5623 -1.0393 -1.7293
 5018SOL     OW15511   0.762   1.050   2.439 -0.3543  0.0145  0.1781
 5018SOL    HW115512   0.811   0.967   2.442 -1.3836 -0.8116 -2.6592
 5018SOL    HW215513   0.678   1.029   2.480  0.2338  0.3752  1.6239
 5019SOL     OW15514   0.983   1.718   5.649  0.7727 -0.0696 -0.3673
 5019SOL    HW115515   0.937   1.693   5.569 -1.1825  1.1244  0.3195
 5019SOL    HW215516   0.914   1.745   5.709  2.4021  2.5402  0.4890
 5020SOL     OW15517   0.081   6.286   4.788  0.0676 -0.1568 -0.2205
 5020SOL    HW115518   0.136   6.290   4.710 -0.1775  1.7445 -0.3334
 5020SOL    HW215519   0.073   6.192   4.807  1.5983 -0.5611 -1.4159
 5021SOL     OW15520   4.885   2.110   5.823 -0.1033  0.0498 -0.1476
 5021SOL    HW115521   4.903   2.083   5.733  0.7399  0.2101 -0.0351
 5021SOL    HW215522   4.970   2.103   5.868 -0.3109  0.8681  0.4015
 5022SOL     OW15523   3.646   0.831   2.904  0.0480 -0.3691  0.4504
 5022SOL    HW115524   3.574   0.838   2.966  0.3032  0.2962  0.6784
 5022SOL    HW215525   3.720   0.874   2.947  0.9824 -2.2028  0.7883
 5023SOL     OW15526   1.973   3.018   2.204 -0.0174  0.2812  0.1705
 5023SOL    HW115527   1.953   2.980   2.290 -1.2152  3.2350  1.3552
 5023SOL    HW215528   2.065   3.043   2.210  0.1191 -0.2445  0.2957
 5024SOL     OW15529   4.430   3.425   4.455  0.0314  0.3398  0.2643
 5024SOL    HW115530   4.480   3.420   4.536 -1.0339 -0.1298  0.9240
 5024SOL    HW215531   4.419   3.334   4.427  0.3058  0.4919 -0.3549
 5025SOL     OW15532   3.696   0.927   4.519  0.3594 -0.2857 -0.0861
 5025SOL    HW115533   3.772   0.877   4.491  0.5314 -0.7042  1.0770
 5025SOL    HW215534   3.623   0.891   4.469  1.0695  0.9114 -2.0937
 5026SOL     OW15535   4.615   5.672   2.415  0.0136 -0.5958 -0.3897
 5026SOL    HW115536   4.666   5.717   2.483  0.8469 -0.1366 -1.2986
 5026SOL    HW215537   4.524   5.698   2.433  0.1933 -0.6754  0.6895
 5027SOL     OW15538   0.262   2.605   6.105 -0.3061 -1.1729 -0.6147
 5027SOL    HW115539   0.326   2.647   6.047 -1.5746 -1.5994 -2.3980
 5027SOL    HW215540   0.214   2.677   6.145  1.9487 -0.7707  1.7156
 5028SOL     OW15541   4.602   5.241   5.848  0.3037 -0.1664  0.0612
 5028SOL    HW115542   4.661   5.302   5.891  0.6639 -1.4427  1.4346
 5028SOL    HW215543   4.516   5.283   5.853  0.6514  0.5155  0.3935
 5029SOL     OW15544   0.093   3.510   5.097 -0.1411 -0.1415 -0.1517
 5029SOL    HW115545   0.058   3.480   5.013 -0.7440  1.3557 -0.4615
 5029SOL    HW215546   0.130   3.431   5.137 -1.0791 -1.1498 -1.2079
 5030SOL     OW15547   4.784   2.154   6.277  0.2105  0.4013  0.2450
 5030SOL    HW115548   4.791   2.155   6.182  0.7387 -0.0038  0.2717
 5030SOL    HW215549   4.762   2.244   6.301 -0.3930  0.4005 -0.2872
 5031SOL     OW15550   2.698   0.229   3.638 -0.0732  0.1035 -0.3308
 5031SOL    HW115551   2.679   0.148   3.685  2.4602 -0.0679  0.5404
 5031SOL    HW215552   2.667   0.298   3.697 -2.1495 -0.1493 -1.0320
 5032SOL     OW15553   3.909   4.802   5.151 -0.3394 -0.3520  0.0321
 5032SOL    HW115554   3.977   4.737   5.134  1.1509  1.5171 -1.7258
 5032SOL    HW215555   3.936   4.846   5.232 -1.7974 -2.3279  1.7064
 5033SOL     OW15556   4.483   2.810   2.610 -0.1881  0.3083 -0.3282
 5033SOL    HW115557   4.427   2.853   2.545  0.0644 -1.5687 -1.8832
 5033SOL    HW215558   4.566   2.796   2.565  0.1057 -0.7510  0.5010
 5034SOL     OW15559   2.362   0.801   0.404  0.3454  0.2330 -0.5332
 5034SOL    HW115560   2.291   0.762   0.353 -2.0224  0.8521  2.0432
 5034SOL    HW215561   2.389   0.877   0.352  0.0651 -0.7435 -2.1899
 5035SOL     OW15562   0.201   5.573   0.512  0.2467 -0.4251  0.6095
 5035SOL    HW115563   0.223   5.664   0.491 -1.5616  0.0678  0.6651
 5035SOL    HW215564   0.277   5.540   0.559  0.9242  1.0787  0.6216
 5036SOL     OW15565   4.102   4.743   1.889  0.4343 -0.0569 -0.2054
 5036SOL    HW115566   4.122   4.686   1.814 -0.3318  1.3871 -1.5673
 5036SOL    HW215567   4.079   4.682   1.960  0.2389 -1.4522 -1.4094
 5037SOL     OW15568   0.854   6.157   4.757  0.0218 -0.0928  0.4569
 5037SOL    HW115569   0.916   6.137   4.687 -1.7305 -2.1508 -0.6377
 5037SOL    HW215570   0.801   6.078   4.766 -2.8330  1.7058  0.8963
 5038SOL     OW15571   3.949   5.914   1.577  0.1877 -0.4913 -0.0676
 5038SOL    HW115572   3.863   5.938   1.541  1.1097 -1.7062 -3.4821
 5038SOL    HW215573   4.009   5.923   1.503  2.9156 -0.4838  1.9984
 5039SOL     OW15574   2.898   0.075   5.818  0.3543  0.5461 -0.5579
 5039SOL    HW115575   2.942   0.023   5.885 -0.4028 -0.2199 -0.6220
 5039SOL    HW215576   2.891   0.016   5.743  1.8614  1.6312 -1.6144
 5040SOL     OW15577   3.060   5.774   0.098  0.2877  0.2791  0.5763
 5040SOL    HW115578   2.995   5.767   0.027  1.5504  1.0213 -0.7035
 5040SOL    HW215579   3.115   5.848   0.073  1.9116 -0.6082  1.3664
 5041SOL     OW15580   3.998   5.183   1.707 -0.6156 -0.4906 -0.1393
 5041SOL    HW115581   3.965   5.178   1.796  0.4859 -0.2853  0.2926
 5041SOL    HW215582   3.919   5.194   1.653 -1.1921  1.1894  0.9512
 5042SOL     OW15583   1.056   5.262   5.178  0.0675  0.0250 -0.4926
 5042SOL    HW115584   1.148   5.288   5.173  0.0036  0.5201  0.6969
 5042SOL    HW215585   1.007   5.342   5.160 -0.1298 -0.0591 -0.3354
 5043SOL     OW15586   2.011   0.614   4.179 -0.2693  0.3163 -0.2500
 5043SOL    HW115587   1.974   0.663   4.252  1.8050  1.4744  0.1243
 5043SOL    HW215588   1.942   0.612   4.113 -0.6352  3.4179 -0.1084
 5044SOL     OW15589   2.410   0.312   5.727 -0.2142  0.2129  0.4664
 5044SOL    HW115590   2.344   0.243   5.719 -0.0058  0.1863 -1.5434
 5044SOL    HW215591   2.365   0.391   5.695  0.0937  0.6470  1.0881
 5045SOL     OW15592   1.102   5.375   4.477 -0.2407  0.4099  0.0165
 5045SOL    HW115593   1.019   5.351   4.436 -0.8403  1.0995  0.8033
 5045SOL    HW215594   1.078   5.425   4.554  0.8670 -1.1395  1.4394
 5046SOL     OW15595   1.033   3.790   0.836 -0.0393 -0.6265  0.1541
 5046SOL    HW115596   1.006   3.776   0.745  2.5090  0.7770 -0.9214
 5046SOL    HW215597   1.119   3.749   0.842 -0.6697 -1.8044  2.3660
 5047SOL     OW15598   2.571   2.904   3.978 -0.0047 -0.2284  0.1723
 5047SOL    HW115599   2.638   2.950   4.028  0.2031 -0.1414 -0.1867
 5047SOL    HW215600   2.489   2.924   4.024  0.4172 -1.8989  1.7643
 5048SOL     OW15601   2.358   4.666   0.645 -0.1309  0.5353  0.0550
 5048SOL    HW115602   2.294   4.705   0.705  0.0925 -0.0295  0.6824
 5048SOL    HW215603   2.309   4.651   0.564 -0.7752  0.2110  0.4923
 5049SOL     OW15604   3.786   3.932   0.334 -0.0451 -0.6798 -0.7217
 5049SOL    HW115605   3.864   3.961   0.286 -0.1980  1.5974  0.2581
 5049SOL    HW215606   3.712   3.958   0.278 -0.2176  1.8438  0.5344
 5050SOL     OW15607   5.574   2.095   4.524 -0.4873  0.7057 -0.1682
 5050SOL    HW115608   5.586   2.165   4.588  1.1966  0.0516  0.2896
 5050SOL    HW215609   5.505   2.040   4.561  0.5330  0.2718  1.2023
 5051SOL     OW15610   3.693   4.226   6.069  0.0438  0.4009  0.3509
 5051SOL    HW115611   3.641   4.155   6.032 -0.8218  1.2912 -0.2060
 5051SOL    HW215612   3.629   4.296   6.085  0.9344  1.2034  0.4875
 5052SOL     OW15613   1.673   0.530   5.226  0.4005  0.0898 -0.0074
 5052SOL    HW115614   1.584   0.525   5.262  0.4229  1.5186  0.3413
 5052SOL    HW215615   1.676   0.462   5.159 -0.6471 -0.6050  0.6228
 5053SOL     OW15616   2.049   1.318   3.904 -0.6700  0.1942  0.7224
 5053SOL    HW115617   2.120   1.324   3.968 -1.0105  1.7380  0.9917
 5053SOL    HW215618   2.075   1.247   3.847  0.4937 -0.0835  1.5518
 5054SOL     OW15619   6.338   5.653   4.138  0.0711 -0.0270  0.2254
 5054SOL    HW115620   6.249   5.662   4.104  0.7083  0.7466 -1.3689
 5054SOL    HW215621   6.346   5.561   4.162 -2.1886  0.4953  3.6355
 5055SOL     OW15622   2.392   3.094   4.229  0.1748  0.2772 -0.4674
 5055SOL    HW115623   2.444   3.088   4.309 -1.9076 -3.1071  0.8705
 5055SOL    HW215624   2.337   3.171   4.242  0.3973  0.2179  1.0334
 5056SOL     OW15625   4.591   4.355   3.557 -0.3424 -0.1191  0.6199
 5056SOL    HW115626   4.514   4.299   3.569 -0.9971  0.7807  0.6333
 5056SOL    HW215627   4.556   4.443   3.549  0.7218  0.3567  1.0733
 5057SOL     OW15628   5.543   3.158   2.915 -0.2105  0.0308 -0.3999
 5057SOL    HW115629   5.557   3.103   2.992  1.4858  0.8834 -0.0606
 5057SOL    HW215630   5.620   3.215   2.911 -1.2180  1.4002 -1.5672
 5058SOL     OW15631   1.000   5.604   4.100 -0.1213  0.3537  0.7369
 5058SOL    HW115632   1.029   5.657   4.175 -0.8652  0.6477  0.8290
 5058SOL    HW215633   1.070   5.540   4.088  0.0657  0.3699  1.6139
 5059SOL     OW15634   4.589   1.420   5.974 -0.3795 -0.0725  0.3001
 5059SOL    HW115635   4.683   1.430   5.961 -0.5752  2.1189  0.1282
 5059SOL    HW215636   4.558   1.509   5.992 -2.4812 -0.6829 -0.0477
 5060SOL     OW15637   2.397   4.354   5.220 -0.0652 -0.3957 -0.1338
 5060SOL    HW115638   2.331   4.310   5.167 -1.3228  0.8583  0.3411
 5060SOL    HW215639   2.461   4.387   5.157 -1.1098  0.3749 -0.8193
 5061SOL     OW15640   3.797   0.255   2.448  0.3996  0.0376  0.1964
 5061SOL    HW115641   3.789   0.322   2.381  1.9073  0.2225  0.1505
 5061SOL    HW215642   3.784   0.172   2.402 -1.5644  0.2610  0.2731
 5062SOL     OW15643   5.529   5.632   0.886  0.5766  0.9501 -0.2713
 5062SOL    HW115644   5.507   5.592   0.971  1.3378  0.0075 -0.4994
 5062SOL    HW215645   5.463   5.700   0.874  0.0387  0.6370  0.7617
 5063SOL     OW15646   1.575   0.514   1.687  0.0421 -0.3604  0.2636
 5063SOL    HW115647   1.520   0.555   1.620  0.4038 -1.5480 -0.7929
 5063SOL    HW215648   1.627   0.449   1.640  1.0217 -0.5624  1.5442
 5064SOL     OW15649   4.397   5.148   2.158 -0.1036  0.3953 -0.0487
 5064SOL    HW115650   4.337   5.078   2.184 -0.0612  0.4815  0.2756
 5064SOL    HW215651   4.437   5.178   2.239  0.4086  0.3184 -0.2645
 5065SOL     OW15652   1.210   3.545   0.898 -0.8775 -0.1665 -0.0430
 5065SOL    HW115653   1.154   3.515   0.970  0.0537  0.8596  1.1508
 5065SOL    HW215654   1.204   3.476   0.833 -0.3787 -1.9890  1.7548
 5066SOL     OW15655   0.668   2.318   6.334 -0.3579 -0.1298  0.1406
 5066SOL    HW115656   0.675   2.305   6.429 -1.6662  0.8334  0.4028
 5066SOL    HW215657   0.578   2.295   6.313  0.3121 -1.7670 -1.1612
 5067SOL     OW15658   2.904   2.633   2.714 -0.1992 -0.2801  0.0652
 5067SOL    HW115659   2.893   2.670   2.802  1.3702 -1.6812  0.9053
 5067SOL    HW215660   2.860   2.549   2.717 -1.5987  0.3657 -1.0668
 5068SOL     OW15661   2.559   2.444   4.766 -0.0587 -0.7435  0.2272
 5068SOL    HW115662   2.646   2.412   4.741  0.0273 -2.3540  2.2936
 5068SOL    HW215663   2.534   2.389   4.840 -1.7966  1.3256  1.2856
 5069SOL     OW15664   3.136   6.208   2.307  0.3348 -0.2698 -0.6575
 5069SOL    HW115665   3.153   6.261   2.385  0.8086 -0.3836 -0.6806
 5069SOL    HW215666   3.055   6.243   2.271  0.2131 -0.0937 -0.2181
 5070SOL     OW15667   2.147   4.308   4.379  0.3027  0.3784  0.4031
 5070SOL    HW115668   2.188   4.266   4.303  2.4698  4.4340 -0.9485
 5070SOL    HW215669   2.175   4.254   4.453  0.3006 -2.2205 -1.3296
 5071SOL     OW15670   2.384   5.866   2.741 -0.0861 -0.4539 -0.0599
 5071SOL    HW115671   2.313   5.804   2.725 -1.6487  1.2495 -0.0393
 5071SOL    HW215672   2.442   5.856   2.666 -0.8448 -1.2047 -0.5686
 5072SOL     OW15673   3.414   3.892   3.320  0.2274 -0.6855 -0.4901
 5072SOL    HW115674   3.387   3.822   3.379 -1.7992  1.8568  1.8420
 5072SOL    HW215675   3.484   3.937   3.366 -0.6939  0.7274 -0.4060
 5073SOL     OW15676   3.391   5.228   3.269  0.4555 -0.2914 -0.4594
 5073SOL    HW115677   3.353   5.143   3.247 -0.1001  0.2879 -1.8554
 5073SOL    HW215678   3.481   5.224   3.235  2.3857 -2.1609  4.0025
 5074SOL     OW15679   0.511   5.517   6.339  0.1934 -0.4248 -0.3742
 5074SOL    HW115680   0.514   5.564   6.256  0.2433  1.0895  0.4538
 5074SOL    HW215681   0.494   5.584   6.404 -1.5908 -1.8173  0.6841
 5075SOL     OW15682   4.727   5.773   6.031 -0.0249  0.3081 -0.1537
 5075SOL    HW115683   4.809   5.763   6.079  0.8084  1.4044 -1.2529
 5075SOL    HW215684   4.672   5.700   6.059  1.3557 -0.4839  0.5589
 5076SOL     OW15685   3.682   2.250   2.699  0.2389 -0.5550 -0.1033
 5076SOL    HW115686   3.620   2.250   2.771 -0.6375  0.7860 -0.8126
 5076SOL    HW215687   3.712   2.160   2.692  2.4734 -0.3572  3.6893
 5077SOL     OW15688   5.263   3.634   5.781  0.6528  0.2388  0.5151
 5077SOL    HW115689   5.312   3.659   5.859  1.1134 -0.1814  0.3720
 5077SOL    HW215690   5.268   3.538   5.779  2.7759  0.2892 -1.3099
 5078SOL     OW15691   5.569   3.216   0.481 -0.0537  0.0269  0.4540
 5078SOL    HW115692   5.617   3.175   0.409  0.9078  0.3079  0.9122
 5078SOL    HW215693   5.531   3.143   0.530  0.9948 -0.3070  0.8138
 5079SOL     OW15694   5.056   1.785   5.009  0.5609 -0.0805 -0.4417
 5079SOL    HW115695   4.990   1.716   4.998  0.6401 -0.7466  2.4586
 5079SOL    HW215696   5.129   1.742   5.053  1.8142  1.2698 -1.1115
 5080SOL     OW15697   4.408   2.531   4.418 -0.2913  0.1251  0.5971
 5080SOL    HW115698   4.377   2.442   4.401  0.6498 -0.1900  0.4244
 5080SOL    HW215699   4.473   2.547   4.349  1.8058 -0.2416  2.3605
 5081SOL     OW15700   5.094   1.118   1.411  0.2844 -0.1164  0.3876
 5081SOL    HW115701   5.183   1.095   1.437  0.2246  0.1775  0.8621
 5081SOL    HW215702   5.102   1.206   1.373  0.0313  0.3809  1.4540
 5082SOL     OW15703   2.161   1.112   1.071  0.0415 -0.7875  0.3288
 5082SOL    HW115704   2.226   1.093   1.139  2.0645  2.4184 -0.4900
 5082SOL    HW215705   2.185   1.054   0.999  0.0307 -1.7850  1.1036
 5083SOL     OW15706   0.453   3.628   0.975 -0.2913 -0.7100 -0.0719
 5083SOL    HW115707   0.503   3.639   0.894 -0.7456 -3.8404 -0.8921
 5083SOL    HW215708   0.377   3.685   0.963  0.2880 -0.1338 -1.2704
 5084SOL     OW15709   0.396   1.756   4.178  0.0074 -0.1344  0.1866
 5084SOL    HW115710   0.351   1.755   4.094 -0.5692  1.1169  0.4595
 5084SOL    HW215711   0.338   1.708   4.238 -0.6767  0.9139  0.3850
 5085SOL     OW15712   5.002   3.229   3.267  0.3372 -0.0436 -0.4483
 5085SOL    HW115713   5.019   3.134   3.265  0.3772 -0.0817  0.9229
 5085SOL    HW215714   4.910   3.237   3.244  0.0368 -0.5235  0.5351
 5086SOL     OW15715   3.113   0.487   5.966  0.3442  0.3319 -0.4453
 5086SOL    HW115716   3.197   0.463   6.005 -0.0723  1.2563  1.1443
 5086SOL    HW215717   3.122   0.580   5.945  0.1743  0.1045 -1.5933
 5087SOL     OW15718   4.705   4.760   0.797  0.0717 -0.5262  0.1491
 5087SOL    HW115719   4.684   4.852   0.778  0.8891 -0.5454 -0.9036
 5087SOL    HW215720   4.795   4.762   0.828  0.4565 -1.0783 -0.8876
 5088SOL     OW15721   4.857   4.200   2.475  0.4329  0.2835  0.0491
 5088SOL    HW115722   4.899   4.145   2.541 -1.1461 -0.1221  0.7571
 5088SOL    HW215723   4.793   4.251   2.523 -1.2064 -0.4786 -1.2162
 5089SOL     OW15724   2.623   4.912   0.954 -0.7476 -0.2450  0.5880
 5089SOL    HW115725   2.668   4.830   0.975  0.9956  0.8969  1.5581
 5089SOL    HW215726   2.658   4.975   1.017 -2.1653  1.2247 -0.0274
 5090SOL     OW15727   2.773   3.150   0.712  0.6074 -0.0574 -0.4793
 5090SOL    HW115728   2.695   3.198   0.683  1.1298  0.5928 -0.8327
 5090SOL    HW215729   2.738   3.079   0.765 -0.1468  1.8462  1.7632
 5091SOL     OW15730   5.396   2.424   3.190 -0.4608 -0.1922 -0.4916
 5091SOL    HW115731   5.420   2.511   3.224 -0.8055  0.4825 -1.9016
 5091SOL    HW215732   5.413   2.365   3.263  0.7190  0.9257  0.1877
 5092SOL     OW15733   4.706   0.490   1.090  0.1123  0.1284  0.3218
 5092SOL    HW115734   4.796   0.520   1.104  0.0795  0.1748  0.4336
 5092SOL    HW215735   4.655   0.571   1.087  0.1769  0.1482 -0.4912
 5093SOL     OW15736   0.422   4.202   5.309 -0.1877  0.9279  0.5441
 5093SOL    HW115737   0.388   4.150   5.382 -1.6615  2.4226  0.9837
 5093SOL    HW215738   0.517   4.191   5.314 -0.3785 -0.6448  1.4010
 5094SOL     OW15739   4.737   3.854   3.715  0.3749  0.2655  0.7931
 5094SOL    HW115740   4.718   3.761   3.728  0.9866 -0.1292 -0.9257
 5094SOL    HW215741   4.672   3.883   3.650  2.0247  0.2721 -0.9256
 5095SOL     OW15742   2.764   1.195   0.573  0.4683  0.0488 -0.7143
 5095SOL    HW115743   2.734   1.145   0.649  1.0778 -1.4694 -1.4281
 5095SOL    HW215744   2.856   1.170   0.562  0.1194 -0.6255 -2.5658
 5096SOL     OW15745   1.328   2.887   4.192  0.2917  0.4888 -0.4353
 5096SOL    HW115746   1.399   2.854   4.138 -1.0022 -0.5028 -1.6342
 5096SOL    HW215747   1.362   2.968   4.231  1.8734  0.2955 -1.3417
 5097SOL     OW15748   2.415   4.470   4.437 -0.3061 -0.8340 -0.2225
 5097SOL    HW115749   2.481   4.536   4.459  0.3657 -1.5566 -0.0508
 5097SOL    HW215750   2.442   4.436   4.352 -0.0353 -1.6572  0.1874
 5098SOL     OW15751   4.795   5.711   3.784  0.0906 -0.9660 -0.3315
 5098SOL    HW115752   4.862   5.645   3.763  0.5067 -0.2338 -1.3986
 5098SOL    HW215753   4.845   5.791   3.801 -0.2709 -1.2859  2.8604
 5099SOL     OW15754   2.217   2.600   0.721  0.6413  0.0727  0.0869
 5099SOL    HW115755   2.285   2.591   0.788  0.0767  0.8835  0.7946
 5099SOL    HW215756   2.164   2.521   0.731  2.5251 -1.5385 -1.7602
 5100SOL     OW15757   0.117   3.956   6.037 -0.2238 -0.2752  0.1354
 5100SOL    HW115758   0.058   4.000   6.098  0.0986  0.7479 -0.2711
 5100SOL    HW215759   0.130   3.869   6.075 -0.0350  0.3274  1.5311
 5101SOL     OW15760   1.018   0.890   2.105  0.0346 -0.1112 -0.1176
 5101SOL    HW115761   0.924   0.903   2.097 -0.2324 -0.4725  1.8341
 5101SOL    HW215762   1.050   0.971   2.147  0.6094  0.0398 -0.8284
 5102SOL     OW15763   1.181   3.190   1.032  0.0285 -0.0497  0.5923
 5102SOL    HW115764   1.223   3.181   1.118  0.4948  1.4533  0.5576
 5102SOL    HW215765   1.146   3.280   1.032 -1.8479 -0.7239  0.0136
 5103SOL     OW15766   0.817   3.238   0.728  0.1946 -0.1790  0.6855
 5103SOL    HW115767   0.896   3.204   0.685 -1.8942 -2.6138 -1.6001
 5103SOL    HW215768   0.790   3.312   0.673  0.7093  0.5274  1.3544
 5104SOL     OW15769   1.997   5.256   6.336  0.1263 -0.5437 -0.0452
 5104SOL    HW115770   1.945   5.285   6.262  0.3054  0.1202  0.0879
 5104SOL    HW215771   2.027   5.168   6.311  2.6507  0.7702 -2.0646
 5105SOL     OW15772   1.079   4.014   1.250  0.2720 -0.2551 -0.1671
 5105SOL    HW115773   1.076   4.069   1.172  2.3549  1.6200  0.9636
 5105SOL    HW215774   1.008   4.047   1.306  1.7776  1.7510  0.6944
 5106SOL     OW15775   4.316   5.819   0.190  0.4690  0.5324  0.1150
 5106SOL    HW115776   4.350   5.779   0.109 -0.0047  2.6730 -1.2259
 5106SOL    HW215777   4.353   5.907   0.190 -1.4009  1.3664  1.0122
 5107SOL     OW15778   5.606   2.723   5.644 -0.4242 -0.4001 -0.4075
 5107SOL    HW115779   5.664   2.688   5.713  0.0831  0.6748 -0.2726
 5107SOL    HW215780   5.666   2.752   5.575 -0.9152 -1.1409 -1.1720
 5108SOL     OW15781   2.783   3.765   0.894  0.2143 -0.2250 -0.4698
 5108SOL    HW115782   2.844   3.757   0.967  0.4874 -1.7465 -0.8423
 5108SOL    HW215783   2.834   3.805   0.824 -0.0878  1.3795  0.1763
 5109SOL     OW15784   0.600   0.280   1.285 -0.3660  0.1692 -0.0734
 5109SOL    HW115785   0.556   0.256   1.203 -1.7361 -1.0641  0.9524
 5109SOL    HW215786   0.571   0.370   1.302 -2.7598 -0.6452  0.6367
 5110SOL     OW15787   3.347   3.051   4.934  0.2894  0.8869 -0.1386
 5110SOL    HW115788   3.403   2.995   4.988 -2.2624 -1.4175  0.3091
 5110SOL    HW215789   3.258   3.030   4.962 -0.9227  3.1177 -2.0162
 5111SOL     OW15790   4.338   1.170   3.250 -0.2839  0.5079  0.0773
 5111SOL    HW115791   4.255   1.195   3.211 -1.3043 -1.7378  0.6850
 5111SOL    HW215792   4.377   1.110   3.187  0.3107  0.5832  0.3686
 5112SOL     OW15793   0.463   0.464   5.587  0.0757 -0.4845  0.2142
 5112SOL    HW115794   0.556   0.444   5.580  0.5678  1.7282 -0.1330
 5112SOL    HW215795   0.435   0.482   5.498 -0.3741  0.1511  0.4790
 5113SOL     OW15796   3.538   3.484   2.663  0.3278  0.0437  0.3216
 5113SOL    HW115797   3.579   3.455   2.581 -0.8352 -0.3157 -0.1523
 5113SOL    HW215798   3.489   3.408   2.694  0.1707  0.4045  0.9682
 5114SOL     OW15799   3.213   1.209   0.368 -0.0739  0.3337  0.2920
 5114SOL    HW115800   3.224   1.288   0.422  1.3012  1.9627 -2.1385
 5114SOL    HW215801   3.299   1.166   0.371  0.1997  0.7347 -0.8998
 5115SOL     OW15802   6.011   0.054   0.927 -0.4602 -0.0860  0.4591
 5115SOL    HW115803   6.032   0.034   1.019  2.4704  0.7054  0.0656
 5115SOL    HW215804   5.974   0.142   0.930 -0.1559  0.0329  0.8694
 5116SOL     OW15805   5.585   4.745   0.318  0.3895  0.4105 -0.0771
 5116SOL    HW115806   5.654   4.696   0.362  0.2167  0.0258 -0.2329
 5116SOL    HW215807   5.600   4.836   0.345  0.7014  0.2744  0.2237
 5117SOL     OW15808   6.023   0.135   5.161  0.0988 -0.2571 -0.3874
 5117SOL    HW115809   5.979   0.220   5.158  0.3492 -0.1444 -0.9303
 5117SOL    HW215810   6.116   0.156   5.160  0.1928 -0.4850  1.0412
 5118SOL     OW15811   5.787   5.607   2.689  0.1934  0.0637  0.5570
 5118SOL    HW115812   5.801   5.513   2.693 -2.2571 -0.4074 -0.2282
 5118SOL    HW215813   5.731   5.627   2.764 -2.1698  0.2358 -1.1676
 5119SOL     OW15814   4.552   0.086   0.529  0.3616 -0.1585 -0.1497
 5119SOL    HW115815   4.628   0.030   0.549  0.3507 -1.5194 -3.2542
 5119SOL    HW215816   4.480   0.024   0.518 -0.8242  0.9693  1.0167
 5120SOL     OW15817   1.500   4.212   3.757 -0.7090 -0.2032 -0.0513
 5120SOL    HW115818   1.587   4.231   3.724 -0.7080  0.1516  0.1605
 5120SOL    HW215819   1.512   4.134   3.813 -0.5333 -0.1638 -0.0337
 5121SOL     OW15820   2.778   3.521   0.642  0.0235 -0.0404 -0.4513
 5121SOL    HW115821   2.761   3.519   0.736 -0.8454  1.7291 -0.5231
 5121SOL    HW215822   2.852   3.580   0.632  0.7661 -1.0041 -0.8268
 5122SOL     OW15823   4.166   5.987   4.965 -0.0817  0.6880  0.1889
 5122SOL    HW115824   4.241   6.009   5.020 -1.1600  1.7558  1.2757
 5122SOL    HW215825   4.132   6.071   4.934  1.0102  0.1259 -2.9275
 5123SOL     OW15826   3.478   5.964   0.148 -0.1833 -0.1246  0.0702
 5123SOL    HW115827   3.457   6.057   0.141 -0.4080 -0.2890 -2.1290
 5123SOL    HW215828   3.413   5.921   0.092  0.4970 -1.5132  0.3147
 5124SOL     OW15829   1.233   5.340   1.859  0.6721  0.2295 -0.4368
 5124SOL    HW115830   1.259   5.418   1.907 -0.0538 -0.0011  0.3549
 5124SOL    HW215831   1.160   5.368   1.804  0.6404  0.1948 -0.4128
 5125SOL     OW15832   4.470   0.859   0.753  0.0655 -0.9263  0.3925
 5125SOL    HW115833   4.438   0.943   0.787 -0.1009 -2.2454  3.8586
 5125SOL    HW215834   4.564   0.860   0.770  0.2694 -1.0356 -0.6420
 5126SOL     OW15835   5.120   0.641   1.645 -0.1930  0.4136  0.4092
 5126SOL    HW115836   5.142   0.548   1.653 -1.9810 -0.2569 -1.6286
 5126SOL    HW215837   5.117   0.657   1.551 -0.3644  2.4464  0.7200
 5127SOL     OW15838   1.905   3.254   1.823 -0.2600 -0.0226  0.6155
 5127SOL    HW115839   1.918   3.348   1.814 -2.8993  0.8468  3.8592
 5127SOL    HW215840   1.887   3.223   1.734  1.1159  2.3822 -0.6028
 5128SOL     OW15841   1.962   5.796   5.900  0.6024 -0.1803  0.1492
 5128SOL    HW115842   2.045   5.830   5.867  0.6428 -0.6846 -0.2838
 5128SOL    HW215843   1.981   5.773   5.991  0.8942 -0.1365  0.1022
 5129SOL     OW15844   1.625   5.086   3.693 -0.3625 -0.1078 -0.6045
 5129SOL    HW115845   1.645   5.055   3.781  1.2095 -0.2585 -0.9833
 5129SOL    HW215846   1.550   5.034   3.666  0.6278 -1.8015 -0.2494
 5130SOL     OW15847   0.006   0.408   0.591  0.4540  0.2526  0.0561
 5130SOL    HW115848   0.048   0.413   0.677  0.0553 -1.6662  0.4037
 5130SOL    HW215849  -0.027   0.318   0.586  0.0166  0.4918 -1.8995
 5131SOL     OW15850   6.120   6.378   4.112  0.4011 -0.9327 -0.3863
 5131SOL    HW115851   6.076   6.459   4.088  0.3417 -1.1549 -1.0497
 5131SOL    HW215852   6.120   6.378   4.208  1.2835  0.3238 -0.3579
 5132SOL     OW15853   0.963   1.816   2.674  0.3140  0.5752 -0.2031
 5132SOL    HW115854   0.989   1.850   2.589  1.3990  0.5335  0.0991
 5132SOL    HW215855   0.879   1.773   2.658 -0.0466  1.5299 -1.0178
 5133SOL     OW15856   4.748   1.929   5.189 -0.1850  0.1966  0.1280
 5133SOL    HW115857   4.716   1.843   5.217  1.1256 -0.0501  0.9368
 5133SOL    HW215858   4.832   1.911   5.146  0.1687  1.0816  0.4268
 5134SOL     OW15859   3.331   1.632   4.935  0.4657 -0.3244  0.4001
 5134SOL    HW115860   3.283   1.605   5.014  1.8448 -1.0947  0.9956
 5134SOL    HW215861   3.306   1.566   4.869  0.3889 -0.4813  0.5831
 5135SOL     OW15862   3.130   2.430   5.393 -0.0489 -0.8746  0.1302
 5135SOL    HW115863   3.086   2.417   5.309  1.7013  0.3841 -1.0642
 5135SOL    HW215864   3.128   2.525   5.406  0.8490 -0.9463  0.8610
 5136SOL     OW15865   1.027   4.548   4.340  0.4642  0.9746 -0.0468
 5136SOL    HW115866   0.938   4.515   4.328  0.1453  1.9050 -0.3563
 5136SOL    HW215867   1.020   4.643   4.326  1.9833  0.7767 -2.8331
 5137SOL     OW15868   2.724   3.215   5.557 -0.2866  0.4574 -0.1236
 5137SOL    HW115869   2.734   3.254   5.644 -1.8997  1.9026 -0.5383
 5137SOL    HW215870   2.649   3.157   5.564  0.1217 -0.1121 -0.3475
 5138SOL     OW15871   2.506   3.447   0.838 -0.4543  0.0670  0.3121
 5138SOL    HW115872   2.494   3.451   0.933 -0.2801 -1.7003  0.4386
 5138SOL    HW215873   2.497   3.354   0.816  0.1507  0.3584 -1.3191
 5139SOL     OW15874   1.522   2.454   2.977  0.5272  0.5546  0.1346
 5139SOL    HW115875   1.439   2.482   2.938 -0.7327 -2.1249  0.6375
 5139SOL    HW215876   1.586   2.464   2.907 -0.9554 -0.6357 -1.4894
 5140SOL     OW15877   5.559   5.846   5.079 -0.2256  0.4786 -0.2303
 5140SOL    HW115878   5.588   5.759   5.109 -1.9152 -0.1326 -0.2352
 5140SOL    HW215879   5.512   5.882   5.154  1.3960  1.8964  0.1531
 5141SOL     OW15880   5.121   1.684   1.381  0.0666  0.8954  0.4559
 5141SOL    HW115881   5.025   1.680   1.391 -0.1941 -1.8859 -2.0013
 5141SOL    HW215882   5.135   1.758   1.322 -0.4149  1.8159  1.4349
 5142SOL     OW15883   0.410   1.151   4.661 -0.2426 -0.1200 -0.0524
 5142SOL    HW115884   0.375   1.063   4.657  1.7655 -0.9706 -0.0979
 5142SOL    HW215885   0.400   1.186   4.573 -0.5253 -0.5073 -0.1717
 5143SOL     OW15886   0.409   0.166   4.919  0.1271  0.2514  0.1875
 5143SOL    HW115887   0.431   0.097   4.857  1.6865 -0.0893  1.0694
 5143SOL    HW215888   0.413   0.247   4.868 -0.0526 -0.1433 -0.4666
 5144SOL     OW15889   0.328   1.199   1.793  0.2045 -0.1472  0.4202
 5144SOL    HW115890   0.349   1.165   1.705 -2.3333  0.5407 -0.5259
 5144SOL    HW215891   0.395   1.266   1.808 -0.2824  0.9511 -1.7980
 5145SOL     OW15892   4.976   1.875   5.483 -0.2180 -0.3732 -1.0811
 5145SOL    HW115893   5.049   1.932   5.459 -0.0956 -0.5662 -1.1679
 5145SOL    HW215894   5.017   1.792   5.505 -0.4319 -0.5452 -1.3366
 5146SOL     OW15895   2.450   3.806   1.902  0.3664  0.2653 -0.3238
 5146SOL    HW115896   2.358   3.804   1.875  0.2592  0.2822  0.0359
 5146SOL    HW215897   2.499   3.798   1.820  0.0435 -0.0508 -0.4909
 5147SOL     OW15898   2.205   4.407   5.873 -0.2284 -0.2249  0.1107
 5147SOL    HW115899   2.136   4.354   5.834 -0.1623  0.2424 -0.6559
 5147SOL    HW215900   2.209   4.486   5.818  0.8890 -0.2293  0.1608
 5148SOL     OW15901   2.395   2.841   5.772 -0.2062 -0.1591  0.0705
 5148SOL    HW115902   2.372   2.929   5.802  1.7592  0.4860 -0.1770
 5148SOL    HW215903   2.317   2.788   5.790 -2.6803  2.2282 -2.5704
 5149SOL     OW15904   2.697   4.891   1.337 -0.1265  0.3567 -0.0544
 5149SOL    HW115905   2.610   4.850   1.339  0.7162 -1.4583  0.3545
 5149SOL    HW215906   2.741   4.859   1.415  1.1793  0.6723 -0.6350
 5150SOL     OW15907   4.152   2.014   0.226 -0.0019 -0.0693 -0.0150
 5150SOL    HW115908   4.160   1.932   0.274  0.6619  1.4616  2.7210
 5150SOL    HW215909   4.067   2.049   0.252 -0.1977  0.2008 -1.0003
 5151SOL     OW15910   1.225   0.707   2.101  0.1303 -0.0497  0.1167
 5151SOL    HW115911   1.158   0.651   2.140  0.5664 -1.5671 -1.2163
 5151SOL    HW215912   1.186   0.794   2.099 -0.6528 -0.3034  2.0686
 5152SOL     OW15913   1.813   5.201   3.524 -0.0891  0.0100 -0.9136
 5152SOL    HW115914   1.807   5.296   3.532  2.3516  0.0737  1.5481
 5152SOL    HW215915   1.760   5.167   3.596  1.6446 -0.3019  0.2949
 5153SOL     OW15916   4.076   3.523   6.284  0.5412 -0.0572  0.5494
 5153SOL    HW115917   4.140   3.464   6.323 -0.8818 -1.1091  1.3878
 5153SOL    HW215918   3.994   3.474   6.284  0.1603  0.3155 -2.7062
 5154SOL     OW15919   0.617   2.754   5.455 -0.3996 -0.4176 -0.6423
 5154SOL    HW115920   0.562   2.743   5.533  0.9314 -2.1522  0.1430
 5154SOL    HW215921   0.611   2.670   5.410  1.2846 -0.5472 -0.7007
 5155SOL     OW15922   0.951   2.164   3.021  0.6246 -0.2081 -0.1142
 5155SOL    HW115923   0.959   2.075   3.055  2.9163  0.2938  0.8196
 5155SOL    HW215924   1.016   2.215   3.070 -0.9320  2.1095 -0.2719
 5156SOL     OW15925   0.476   1.182   3.217 -0.2735 -0.2480 -0.3314
 5156SOL    HW115926   0.383   1.179   3.240 -0.0704  0.4802  0.6422
 5156SOL    HW215927   0.521   1.207   3.298  0.6128  0.9565 -1.1466
 5157SOL     OW15928   5.135   0.050   4.433  0.2933 -0.9317 -0.0580
 5157SOL    HW115929   5.074  -0.011   4.474  0.5057 -1.3783 -0.3974
 5157SOL    HW215930   5.090   0.135   4.436  0.0790 -1.0650  0.5929
 5158SOL     OW15931   4.420   5.934   4.298 -0.0544 -0.0077  0.1767
 5158SOL    HW115932   4.510   5.933   4.265  0.8312  0.0182  2.4041
 5158SOL    HW215933   4.426   5.894   4.385 -2.1552  0.2275  0.4834
 5159SOL     OW15934   5.059   3.892   0.548  0.3196 -0.0539  0.5127
 5159SOL    HW115935   5.066   3.963   0.611  1.5299 -1.0211  1.5250
 5159SOL    HW215936   5.099   3.817   0.592  2.4335 -0.4541 -1.8890
 5160SOL     OW15937   5.149   2.205   0.996 -0.3325 -0.2404  0.0248
 5160SOL    HW115938   5.086   2.249   1.052  0.0292  0.2500  0.0565
 5160SOL    HW215939   5.199   2.149   1.056 -2.1818 -2.4007 -0.3078
 5161SOL     OW15940   4.844   6.282   1.164 -0.1167 -0.0291 -0.3738
 5161SOL    HW115941   4.831   6.210   1.103  1.9855 -2.4029  1.7409
 5161SOL    HW215942   4.914   6.335   1.125 -0.2568 -0.3024 -1.0002
 5162SOL     OW15943   2.944   1.535   2.010 -0.4219  0.4713 -0.2686
 5162SOL    HW115944   3.009   1.511   2.076  0.7776  3.1004 -0.3696
 5162SOL    HW215945   2.896   1.453   1.993  1.2022 -0.9855  1.6137
 5163SOL     OW15946   4.182   3.833   1.555  0.7338  0.0220  0.2870
 5163SOL    HW115947   4.167   3.899   1.488 -2.1273 -0.2778  0.5130
 5163SOL    HW215948   4.271   3.801   1.538  1.0407  1.7520 -1.7157
 5164SOL     OW15949   2.293   0.753   0.698  0.3214 -0.0801  0.0342
 5164SOL    HW115950   2.306   0.760   0.603 -1.1484  0.0030 -0.1829
 5164SOL    HW215951   2.225   0.687   0.708  1.8465 -1.5504  1.1702
 5165SOL     OW15952   1.416   4.235   1.751 -0.5387 -0.0387  0.1370
 5165SOL    HW115953   1.406   4.258   1.844 -0.5697 -1.5699  0.5436
 5165SOL    HW215954   1.338   4.183   1.731 -1.1497  1.3207 -1.1102
 5166SOL     OW15955   1.777   4.075   4.240  0.4144  0.6422  0.6269
 5166SOL    HW115956   1.824   4.076   4.157  0.3446 -0.1253  0.5630
 5166SOL    HW215957   1.696   4.027   4.221  0.6901 -0.1129  1.2677
 5167SOL     OW15958   5.638   1.755   2.343  0.2745 -0.6241  0.5825
 5167SOL    HW115959   5.648   1.713   2.428 -0.0994 -1.1876  0.3597
 5167SOL    HW215960   5.544   1.748   2.325  0.6540 -2.6543 -0.9348
 5168SOL     OW15961   5.083   1.899   1.931  0.9177 -0.3472  0.1978
 5168SOL    HW115962   5.176   1.876   1.930  0.7436 -1.0828  0.3926
 5168SOL    HW215963   5.073   1.955   2.008  1.2024 -0.2528  0.1662
 5169SOL     OW15964   6.344   2.255   4.320 -0.0582  0.3545  0.3476
 5169SOL    HW115965   6.398   2.176   4.329 -0.2392 -0.1082 -2.0588
 5169SOL    HW215966   6.396   2.313   4.265 -0.9603  0.9277  0.0828
 5170SOL     OW15967   3.365   4.053   4.709  0.1238 -0.4685 -0.6900
 5170SOL    HW115968   3.309   4.055   4.786 -0.3986  0.2221 -1.0764
 5170SOL    HW215969   3.380   3.960   4.693 -0.3360 -0.6385 -0.1629
 5171SOL     OW15970   3.962   2.641   5.822 -0.5454 -0.1736 -0.2492
 5171SOL    HW115971   4.001   2.560   5.854  0.1756  0.7423  1.3317
 5171SOL    HW215972   4.027   2.675   5.760 -0.6729 -0.6112 -0.6248
 5172SOL     OW15973   3.788   5.409   3.337 -0.1428  0.4101  0.0910
 5172SOL    HW115974   3.759   5.379   3.251  0.9827 -0.8802  0.1183
 5172SOL    HW215975   3.793   5.329   3.389  0.7979  0.9447  0.8516
 5173SOL     OW15976   4.925   0.250   2.724  0.1035 -0.3199  0.5892
 5173SOL    HW115977   4.954   0.304   2.651 -0.1969 -0.4492  0.3735
 5173SOL    HW215978   4.909   0.164   2.686  2.8562 -1.2681  1.3399
 5174SOL     OW15979   5.585   5.480   0.654 -0.0552 -0.1782  0.0770
 5174SOL    HW115980   5.514   5.460   0.593 -0.5843  0.3091  0.5174
 5174SOL    HW215981   5.541   5.501   0.736  0.3826  2.7821 -0.3129
 5175SOL     OW15982   4.911   3.117   5.130  0.2005 -0.4811  0.1366
 5175SOL    HW115983   4.999   3.154   5.138  0.6937 -1.6136  0.2417
 5175SOL    HW215984   4.907   3.051   5.199 -0.6035 -0.6941 -0.1025
 5176SOL     OW15985   0.633   0.388   3.995  0.4433 -0.1051  0.1011
 5176SOL    HW115986   0.728   0.375   3.992  0.7032  1.2244  1.3815
 5176SOL    HW215987   0.608   0.362   4.083 -0.2573  0.2921  0.0264
 5177SOL     OW15988   4.950   3.169   5.926 -0.2053  0.9136 -0.2584
 5177SOL    HW115989   4.939   3.229   6.000  0.6150  0.2414  0.4297
 5177SOL    HW215990   4.878   3.107   5.935  2.8006 -2.6407  3.4283
 5178SOL     OW15991   5.339   4.528   5.913  0.4641  0.2471  0.1831
 5178SOL    HW115992   5.379   4.445   5.936 -1.3177 -0.4999  0.7185
 5178SOL    HW215993   5.328   4.574   5.997 -2.0564 -0.6545  0.4470
 5179SOL     OW15994   1.458   2.961   1.115 -0.7692  0.4632 -0.2654
 5179SOL    HW115995   1.536   3.015   1.112 -1.2803  1.2556  0.3541
 5179SOL    HW215996   1.443   2.945   1.208 -1.7882  0.9919 -0.3249
 5180SOL     OW15997   5.655   0.682   0.543 -0.2290 -0.1975 -0.2968
 5180SOL    HW115998   5.744   0.656   0.571 -0.4088  0.4638  0.9717
 5180SOL    HW215999   5.663   0.774   0.519 -0.5468 -0.1569 -0.2529
 5181SOL     OW16000   0.917   2.973   5.064 -1.2795 -0.3342 -0.0436
 5181SOL    HW116001   0.983   2.908   5.039 -1.5168 -1.0128  1.0268
 5181SOL    HW216002   0.845   2.921   5.101 -0.5747  0.5939  2.8992
 5182SOL     OW16003   3.266   0.460   0.551 -0.0012 -0.1842  0.1198
 5182SOL    HW116004   3.253   0.372   0.514  0.8890 -0.3764  0.2434
 5182SOL    HW216005   3.347   0.491   0.512 -0.4326  0.7014 -0.1125
 5183SOL     OW16006   6.070   2.461   5.235  0.5631 -0.1653  0.2661
 5183SOL    HW116007   6.106   2.547   5.258  0.3978 -0.2876  1.0209
 5183SOL    HW216008   6.117   2.400   5.292  0.0289 -0.4642  0.3891
 5184SOL     OW16009   1.775   1.568   6.035  0.2240 -0.1079  0.2006
 5184SOL    HW116010   1.791   1.623   6.112 -0.3816  0.5485 -0.1380
 5184SOL    HW216011   1.760   1.480   6.071 -3.4178  0.7471  1.1821
 5185SOL     OW16012   5.825   6.119   5.950  0.6756 -0.7359 -0.2019
 5185SOL    HW116013   5.804   6.126   6.043  0.6790 -2.5675 -0.0241
 5185SOL    HW216014   5.741   6.124   5.906  0.7472  1.0161 -0.1942
 5186SOL     OW16015   5.003   1.622   2.761 -0.1512  0.3788 -0.6599
 5186SOL    HW116016   5.092   1.588   2.773 -1.0509 -1.8633  0.2100
 5186SOL    HW216017   5.009   1.676   2.682  2.0913  0.7666 -0.2932
 5187SOL     OW16018   1.404   3.065   0.081 -0.5093  0.4238  0.1509
 5187SOL    HW116019   1.400   3.140   0.141 -2.3363  0.3628  0.1364
 5187SOL    HW216020   1.422   2.990   0.138 -1.7309  0.4432  0.5919
 5188SOL     OW16021   0.165   4.825   2.140  0.5345  0.1329  0.1438
 5188SOL    HW116022   0.091   4.843   2.082  0.0381  0.8186  0.9556
 5188SOL    HW216023   0.194   4.912   2.169 -0.1744 -0.2225  2.0637
 5189SOL     OW16024   4.495   4.787   3.698 -0.6686 -0.0993 -0.1810
 5189SOL    HW116025   4.568   4.840   3.666 -0.5909  1.7236  2.6522
 5189SOL    HW216026   4.528   4.748   3.779 -2.5268  0.0105  0.6738
 5190SOL     OW16027   4.108   3.370   4.434 -0.2366 -0.4541  0.1704
 5190SOL    HW116028   4.119   3.302   4.501  0.2928  0.4331  1.0142
 5190SOL    HW216029   4.196   3.386   4.402 -0.2380  0.4005  0.5696
 5191SOL     OW16030   1.177   3.656   3.707  0.5109 -0.1060 -0.1485
 5191SOL    HW116031   1.189   3.582   3.766 -1.4567 -0.1388  0.2803
 5191SOL    HW216032   1.219   3.730   3.751  0.2258 -0.4237  0.6564
 5192SOL     OW16033   2.185   3.112   0.187  0.1443 -0.1854 -0.4851
 5192SOL    HW116034   2.090   3.111   0.174 -0.4059 -0.2664  2.8094
 5192SOL    HW216035   2.209   3.020   0.200  0.6340 -0.1340 -0.9886
 5193SOL     OW16036   2.075   1.632   0.045  0.1110  0.1330 -0.1003
 5193SOL    HW116037   2.021   1.699   0.003 -0.6440 -0.0515  0.5496
 5193SOL    HW216038   2.028   1.550   0.030 -0.3754  0.1100  1.4026
 5194SOL     OW16039   1.975   6.287   1.227  0.7178  0.2273 -0.8762
 5194SOL    HW116040   2.064   6.258   1.247  0.7610  0.1258 -1.2071
 5194SOL    HW216041   1.941   6.317   1.311  1.3269  0.9902 -0.8933
 5195SOL     OW16042   5.365   3.504   3.690  0.0531 -0.2812  0.3551
 5195SOL    HW116043   5.285   3.495   3.638 -0.0684 -2.0740  0.7769
 5195SOL    HW216044   5.434   3.518   3.625 -0.2944 -1.0446 -0.2013
 5196SOL     OW16045   6.062   0.865   5.235 -0.3969  0.1091 -0.4577
 5196SOL    HW116046   6.066   0.911   5.318 -0.6112 -2.1155  0.8771
 5196SOL    HW216047   6.146   0.819   5.230 -1.3252 -1.7068 -0.2172
 5197SOL     OW16048   3.062   5.013   4.805  0.0418 -0.6387 -0.2497
 5197SOL    HW116049   3.144   4.963   4.796 -0.2466 -1.1923  0.1335
 5197SOL    HW216050   2.993   4.946   4.803 -0.3157 -0.3294  0.8472
 5198SOL     OW16051   3.148   0.175   6.189  0.0587  0.0064 -0.3648
 5198SOL    HW116052   3.239   0.190   6.215  0.3984 -1.9360 -0.2804
 5198SOL    HW216053   3.097   0.196   6.267  0.1437  3.1982 -1.0152
 5199SOL     OW16054   2.285   6.195   4.640 -0.0284  0.0214  0.0393
 5199SOL    HW116055   2.266   6.196   4.546 -2.9547 -1.4189  0.4971
 5199SOL    HW216056   2.304   6.103   4.660 -1.3239 -0.0387  1.1372
 5200SOL     OW16057   2.027   4.998   4.081 -0.1847  0.2476  0.3664
 5200SOL    HW116058   1.986   4.924   4.126 -0.2138 -0.9775 -1.5976
 5200SOL    HW216059   2.110   4.964   4.048  0.3594  1.4445  0.4237
 5201SOL     OW16060   3.586   4.493   5.801 -0.1353 -0.4664  0.4462
 5201SOL    HW116061   3.548   4.576   5.828 -2.6204 -1.7896  1.3197
 5201SOL    HW216062   3.662   4.517   5.748 -0.3698  2.3161  1.2462
 5202SOL     OW16063   0.722   0.353   4.384 -0.5409 -0.0114  0.3318
 5202SOL    HW116064   0.766   0.416   4.326  0.3076 -0.8797  0.0185
 5202SOL    HW216065   0.632   0.349   4.350 -0.7303  1.3086  0.5932
 5203SOL     OW16066   4.527   3.091   1.071 -0.4158 -0.6081 -1.1374
 5203SOL    HW116067   4.460   3.129   1.127  1.2329  0.1605  0.4095
 5203SOL    HW216068   4.482   3.075   0.987 -1.8836  2.2070 -1.0063
 5204SOL     OW16069   5.881   1.585   0.044  0.1345  0.2206  0.2318
 5204SOL    HW116070   5.836   1.663   0.013  2.4933  0.8149 -2.0421
 5204SOL    HW216071   5.939   1.618   0.114 -1.5274 -0.2341  1.9009
 5205SOL     OW16072   4.058   2.908   5.198  0.3359 -0.3158 -0.8181
 5205SOL    HW116073   3.973   2.952   5.207  0.6242  0.4102 -1.4813
 5205SOL    HW216074   4.044   2.844   5.128  0.2086 -0.5209 -0.6048
 5206SOL     OW16075   5.990   3.831   5.847 -0.0895  0.1561  0.1226
 5206SOL    HW116076   5.987   3.909   5.791  1.0211 -0.6850 -1.1692
 5206SOL    HW216077   6.049   3.771   5.802  0.3436 -0.8320  1.8856
 5207SOL     OW16078   3.123   0.484   3.317 -0.5895  0.1864 -0.2257
 5207SOL    HW116079   3.076   0.419   3.369  0.8119 -0.4297  0.3190
 5207SOL    HW216080   3.157   0.546   3.381  0.2554  0.0054 -0.4845
 5208SOL     OW16081   2.867   6.001   5.235 -0.5427 -0.6669 -0.3722
 5208SOL    HW116082   2.880   6.052   5.314  0.2592 -2.0728  0.4544
 5208SOL    HW216083   2.897   6.058   5.164  1.3698 -0.3740  0.6126
 5209SOL     OW16084   3.354   0.746   3.819  0.1633  0.3232 -0.0769
 5209SOL    HW116085   3.393   0.706   3.742  0.9833 -0.7077  0.8370
 5209SOL    HW216086   3.425   0.799   3.857 -0.2064  0.7613  0.0208
 5210SOL     OW16087   4.272   1.711   5.400  0.0243  0.1633 -0.5908
 5210SOL    HW116088   4.354   1.665   5.382 -0.1696 -0.2588 -0.4210
 5210SOL    HW216089   4.284   1.749   5.487 -0.0993 -0.2214 -0.4039
 5211SOL     OW16090   2.495   2.189   0.219 -0.1692 -0.2332 -0.1864
 5211SOL    HW116091   2.526   2.137   0.293 -0.0737 -0.2828 -0.2619
 5211SOL    HW216092   2.564   2.183   0.154 -0.2567 -0.1948 -0.2840
 5212SOL     OW16093   4.353   1.530   6.204 -0.0877 -0.7269 -0.3006
 5212SOL    HW116094   4.372   1.590   6.133  0.3582 -1.0023 -0.4157
 5212SOL    HW216095   4.263   1.501   6.188 -1.5074  2.2138  1.4213
 5213SOL     OW16096   6.301   1.676   3.920 -0.2744 -0.1093  0.5175
 5213SOL    HW116097   6.329   1.617   3.851 -0.0857  0.2100  0.3187
 5213SOL    HW216098   6.214   1.644   3.946 -0.5617  0.0789 -0.2119
 5214SOL     OW16099   0.979   5.186   0.085 -0.1989  0.2777  0.4119
 5214SOL    HW116100   1.053   5.195   0.145 -1.2073  0.5442  1.6397
 5214SOL    HW216101   0.922   5.122   0.127 -2.3880  2.6734  1.3032
 5215SOL     OW16102   5.005   2.055   0.802 -0.2660 -0.0094 -0.2998
 5215SOL    HW116103   5.069   2.104   0.854 -0.1707 -0.2826 -0.1572
 5215SOL    HW216104   4.924   2.061   0.852 -0.1789 -0.2566 -0.1244
 5216SOL     OW16105   1.380   4.826   4.241 -0.0698 -0.0326  0.0142
 5216SOL    HW116106   1.376   4.903   4.184  0.7981  0.4117  0.5287
 5216SOL    HW216107   1.297   4.782   4.227  0.2925 -0.1916 -1.9529
 5217SOL     OW16108   0.407   0.409   4.819 -0.1791 -0.7719  0.1295
 5217SOL    HW116109   0.482   0.465   4.838 -0.3544 -0.0268 -1.3025
 5217SOL    HW216110   0.331   0.459   4.849 -0.2410 -0.8018  0.0220
 5218SOL     OW16111   4.814   2.970   3.199 -0.2067  0.0864  0.2780
 5218SOL    HW116112   4.826   2.957   3.105  1.6280 -0.2531  0.5275
 5218SOL    HW216113   4.731   2.925   3.219  0.0841 -1.0473 -0.9429
 5219SOL     OW16114   2.670   5.613   3.762  0.3232 -0.0313 -0.1836
 5219SOL    HW116115   2.575   5.609   3.760  0.3036  0.1744  0.3482
 5219SOL    HW216116   2.697   5.575   3.678 -0.2257 -0.0058 -0.3751
 5220SOL     OW16117   3.625   2.442   3.737  0.3241 -0.4133  0.1482
 5220SOL    HW116118   3.642   2.513   3.799  1.2904  0.2767 -0.8806
 5220SOL    HW216119   3.707   2.431   3.689 -1.1017  0.8161 -2.7909
 5221SOL     OW16120   2.461   4.086   1.689 -0.0724  0.2413 -0.2506
 5221SOL    HW116121   2.370   4.060   1.702  0.6873 -2.2783  0.7224
 5221SOL    HW216122   2.491   4.032   1.615  0.9081  0.2317  0.1415
 5222SOL     OW16123   4.845   5.022   0.496  0.0525 -0.5375  0.4737
 5222SOL    HW116124   4.791   4.961   0.446 -0.9204  0.7176 -0.0488
 5222SOL    HW216125   4.785   5.093   0.521  0.8785 -0.3369  2.0547
 5223SOL     OW16126   4.162   5.579   0.137 -0.1055  0.4557 -0.7149
 5223SOL    HW116127   4.144   5.577   0.043  0.6251  1.4038 -0.8882
 5223SOL    HW216128   4.186   5.669   0.155 -2.6089  0.9248  0.8591
 5224SOL     OW16129   3.273   5.348   2.969 -0.3159 -0.0617 -0.4074
 5224SOL    HW116130   3.306   5.316   2.885  0.6125 -0.4929  0.1056
 5224SOL    HW216131   3.328   5.305   3.034 -1.0783  0.1966  0.4342
 5225SOL     OW16132   2.915   4.831   1.994 -0.0213  0.1474  1.2499
 5225SOL    HW116133   2.984   4.809   2.056  1.2647  0.9843  0.1598
 5225SOL    HW216134   2.911   4.756   1.934 -1.0306 -0.5069  2.0851
 5226SOL     OW16135   3.184   2.380   0.829 -0.5041  0.3245  0.3714
 5226SOL    HW116136   3.165   2.473   0.840 -3.0389 -0.0033 -0.5934
 5226SOL    HW216137   3.153   2.339   0.910  0.7630  0.2925  0.8670
 5227SOL     OW16138   2.867   4.505   5.083  0.1496  0.1757  0.2849
 5227SOL    HW116139   2.894   4.414   5.096 -0.2841  0.1487  1.0409
 5227SOL    HW216140   2.876   4.545   5.169  0.8264  0.9884 -0.1446
 5228SOL     OW16141   4.302   5.270   1.157  0.0611  0.5763 -0.0350
 5228SOL    HW116142   4.229   5.225   1.116 -0.3130 -0.6341  1.8620
 5228SOL    HW216143   4.294   5.361   1.127 -0.6494 -0.0773 -1.9270
 5229SOL     OW16144   0.249   0.853   5.125 -0.4734  0.2530  0.4952
 5229SOL    HW116145   0.225   0.861   5.033  0.6655  1.1300  0.2617
 5229SOL    HW216146   0.173   0.887   5.172 -1.0819 -0.2391 -0.1019
 5230SOL     OW16147   5.097   2.474   5.430 -0.2931 -0.0842 -0.0741
 5230SOL    HW116148   5.192   2.463   5.430 -0.2580  0.1362 -0.9793
 5230SOL    HW216149   5.082   2.553   5.483  0.2149  1.1828 -1.7426
 5231SOL     OW16150   5.178   0.353   1.615 -0.3601  0.8733  0.0209
 5231SOL    HW116151   5.249   0.371   1.552 -1.9616  0.7126 -1.9271
 5231SOL    HW216152   5.154   0.262   1.598 -0.5004  0.6567  1.2683
 5232SOL     OW16153   2.929   2.587   0.923  0.3790  0.4343 -0.5167
 5232SOL    HW116154   2.894   2.672   0.950  0.2829  0.9005 -2.0326
 5232SOL    HW216155   2.988   2.562   0.994  0.8707  2.0663 -0.3172
 5233SOL     OW16156   5.462   1.658   5.229 -0.2424 -0.4293 -0.0408
 5233SOL    HW116157   5.428   1.715   5.297  1.2113  0.5746 -0.1150
 5233SOL    HW216158   5.553   1.685   5.218  0.4909 -2.7122 -0.1269
 5234SOL     OW16159   4.122   0.534   1.927 -0.2069 -0.0824  0.6868
 5234SOL    HW116160   4.091   0.622   1.904 -2.3219 -0.9414 -0.0331
 5234SOL    HW216161   4.182   0.510   1.856  0.6573  0.8930  1.0697
 5235SOL     OW16162   3.128   3.418   6.066  0.1957 -0.0816 -0.0907
 5235SOL    HW116163   3.060   3.453   6.009 -1.2762 -0.3124  1.4329
 5235SOL    HW216164   3.205   3.471   6.046 -0.7510  1.0038 -1.0293
 5236SOL     OW16165   0.008   4.345   0.784 -0.0966 -0.1106 -0.2127
 5236SOL    HW116166  -0.020   4.425   0.739  1.9240  0.0642 -1.2534
 5236SOL    HW216167   0.010   4.370   0.877  0.1342  0.9397 -0.4862
 5237SOL     OW16168   0.167   6.189   5.643  0.4284 -0.2007  0.3066
 5237SOL    HW116169   0.200   6.100   5.629  0.2065 -0.2711  0.2238
 5237SOL    HW216170   0.073   6.182   5.629  0.3593 -0.0288  0.6768
 5238SOL     OW16171   0.321   3.675   5.048  0.4375  0.4360 -0.1670
 5238SOL    HW116172   0.247   3.615   5.063  1.3456 -0.1835  2.4519
 5238SOL    HW216173   0.303   3.749   5.106  0.1285  2.0389 -2.2027
 5239SOL     OW16174   0.207   2.292   2.656  0.6246  0.3534 -0.2673
 5239SOL    HW116175   0.263   2.331   2.589  2.5778 -0.1558  0.9980
 5239SOL    HW216176   0.181   2.207   2.619 -0.8192  1.3133 -1.5815
 5240SOL     OW16177   1.256   3.211   3.644 -0.0793 -0.1936 -0.3077
 5240SOL    HW116178   1.260   3.129   3.594  0.0437  0.1982 -0.9528
 5240SOL    HW216179   1.348   3.231   3.664 -0.2233 -2.1262  3.0957
 5241SOL     OW16180   5.324   4.490   4.299 -0.2732  0.3236  0.3487
 5241SOL    HW116181   5.369   4.572   4.318 -1.5196  1.2171 -0.3703
 5241SOL    HW216182   5.232   4.508   4.321 -0.4759 -1.0980  0.7926
 5242SOL     OW16183   1.727   5.507   4.670 -0.1923  0.2168 -0.3073
 5242SOL    HW116184   1.691   5.581   4.620 -2.0824  0.7703  1.7468
 5242SOL    HW216185   1.733   5.539   4.760 -0.1776 -1.8502  0.4849
 5243SOL     OW16186   3.909   1.151   4.547  0.0982 -0.1526  0.4777
 5243SOL    HW116187   3.899   1.102   4.629  3.9441 -0.6042  0.8432
 5243SOL    HW216188   3.918   1.083   4.480 -0.9047  0.1994 -0.0290
 5244SOL     OW16189   5.150   0.573   4.132 -0.7584 -0.0329 -0.0707
 5244SOL    HW116190   5.086   0.641   4.152  1.4079  1.8952  0.7394
 5244SOL    HW216191   5.216   0.617   4.079 -0.3758 -2.1180 -1.4409
 5245SOL     OW16192   2.980   0.355   4.274  0.9962 -0.1845  0.2503
 5245SOL    HW116193   2.960   0.323   4.362  1.1864 -0.0746  0.3347
 5245SOL    HW216194   2.991   0.450   4.285  0.0249 -0.0165 -0.0706
 5246SOL     OW16195   2.576   2.673   2.081  0.2015  0.4292 -0.5428
 5246SOL    HW116196   2.586   2.596   2.137  2.8448 -1.3781 -3.1576
 5246SOL    HW216197   2.593   2.748   2.139 -0.6127 -1.0447  1.7037
 5247SOL     OW16198   4.743   2.558   3.566  0.2666  0.5684  0.0775
 5247SOL    HW116199   4.666   2.593   3.521  0.1953  3.2993  2.0607
 5247SOL    HW216200   4.807   2.544   3.497 -0.8925  1.4687 -1.2440
 5248SOL     OW16201   5.122   1.350   3.243 -0.5416  0.5994  0.5608
 5248SOL    HW116202   5.085   1.438   3.231 -1.3152  0.3540  1.0239
 5248SOL    HW216203   5.213   1.358   3.215 -1.2900  0.8753 -2.0117
 5249SOL     OW16204   3.650   0.604   6.287 -0.1069 -0.5843  0.1400
 5249SOL    HW116205   3.673   0.680   6.341 -1.2998 -0.6905  0.8216
 5249SOL    HW216206   3.716   0.604   6.217 -1.4533  2.5519 -1.3253
 5250SOL     OW16207   5.960   0.966   0.952 -0.2254  0.5728  0.6296
 5250SOL    HW116208   5.900   0.926   1.016  0.2100 -0.7624  0.2419
 5250SOL    HW216209   5.923   0.942   0.867  0.2780  0.6625  0.3868
 5251SOL     OW16210   3.501   1.321   2.032  0.0341  0.4126  0.0131
 5251SOL    HW116211   3.409   1.309   2.007 -0.0648  0.3961  0.3880
 5251SOL    HW216212   3.499   1.341   2.125  0.4416 -0.0012  0.1145
 5252SOL     OW16213   3.596   1.605   5.003 -0.0523  0.1025  0.1986
 5252SOL    HW116214   3.507   1.594   4.970  0.4061 -1.1159 -0.7222
 5252SOL    HW216215   3.636   1.519   4.993  0.9426  0.3720  1.5279
 5253SOL     OW16216   0.827   1.761   3.512 -0.6874  0.4298  0.3729
 5253SOL    HW116217   0.807   1.700   3.441  0.1478  0.8120 -0.2105
 5253SOL    HW216218   0.756   1.826   3.508 -2.4831 -1.2828  2.0001
 5254SOL     OW16219   2.916   1.455   2.776  0.2704  0.1443 -0.1917
 5254SOL    HW116220   2.960   1.519   2.720  0.9005 -0.9347 -0.9688
 5254SOL    HW216221   2.824   1.478   2.772  0.3814  0.4454 -1.2058
 5255SOL     OW16222   0.957   2.713   2.822 -0.0683 -0.1891  0.6564
 5255SOL    HW116223   1.045   2.676   2.812  0.0095  0.4060 -1.2650
 5255SOL    HW216224   0.900   2.636   2.828  0.1053 -0.8311 -3.1965
 5256SOL     OW16225   1.472   1.844   4.668 -0.1060  0.0583 -0.0970
 5256SOL    HW116226   1.509   1.856   4.756 -1.8267  0.7370  0.5730
 5256SOL    HW216227   1.460   1.932   4.634 -0.1816 -0.1769 -0.7070
 5257SOL     OW16228   0.075   1.585   2.830 -0.3571 -0.0143  0.0186
 5257SOL    HW116229   0.123   1.666   2.818 -0.1438 -0.2289 -0.6319
 5257SOL    HW216230   0.100   1.554   2.917 -0.0285  0.3460  0.0516
 5258SOL     OW16231   3.106   2.887   0.953  0.0731  0.3566  0.4750
 5258SOL    HW116232   3.081   2.914   1.042  0.1572  0.9917  0.3148
 5258SOL    HW216233   3.199   2.863   0.962 -0.5222 -1.8858  1.0415
 5259SOL     OW16234   6.148   3.272   3.962  0.5604 -0.3622 -0.2692
 5259SOL    HW116235   6.061   3.247   3.994  0.9952 -0.0162  1.2701
 5259SOL    HW216236   6.200   3.192   3.968  1.0968  0.0677  1.6248
 5260SOL     OW16237   5.120   1.836   3.228  0.2751 -0.2858 -0.0940
 5260SOL    HW116238   5.203   1.879   3.248  0.0648 -0.2972  0.8784
 5260SOL    HW216239   5.145   1.751   3.193  0.6930 -0.6609  1.0553
 5261SOL     OW16240   2.466   2.079   2.808 -0.2577 -0.2320  0.0632
 5261SOL    HW116241   2.442   2.002   2.757 -2.0549  0.2419  0.1182
 5261SOL    HW216242   2.548   2.109   2.770 -0.5174 -1.0743 -1.2080
 5262SOL     OW16243   5.836   0.492   4.692  0.9616 -0.3662 -0.6617
 5262SOL    HW116244   5.785   0.573   4.698 -0.3012 -1.1390 -0.6460
 5262SOL    HW216245   5.890   0.503   4.614 -0.7455 -0.3427 -1.8997
 5263SOL     OW16246   5.236   0.903   2.192  0.1352  0.7658  0.3489
 5263SOL    HW116247   5.196   0.911   2.278 -0.9315 -0.2034 -0.0429
 5263SOL    HW216248   5.250   0.809   2.180  2.1141  1.0231  0.2682
 5264SOL     OW16249   0.913   1.014   5.345  0.0664 -0.0890 -0.3169
 5264SOL    HW116250   0.943   1.081   5.284 -0.7591  0.3694 -0.2366
 5264SOL    HW216251   0.863   1.062   5.411  0.5060 -0.6393  0.4340
 5265SOL     OW16252   4.090   2.682   1.795  0.4322  0.1819 -0.3265
 5265SOL    HW116253   4.174   2.673   1.840  1.0189 -0.7222 -1.5706
 5265SOL    HW216254   4.047   2.598   1.807 -0.7187  0.9161  1.0512
 5266SOL     OW16255   0.300   3.227   5.680 -0.2781 -0.0240  0.2463
 5266SOL    HW116256   0.206   3.207   5.673 -0.3529 -0.4886  2.0333
 5266SOL    HW216257   0.306   3.287   5.754  0.9429 -0.8994  0.8860
 5267SOL     OW16258   3.126   4.580   0.624 -0.4484  0.0987 -0.0873
 5267SOL    HW116259   3.102   4.646   0.559 -1.3292  1.8023  1.8413
 5267SOL    HW216260   3.113   4.623   0.709 -0.8638 -2.5022  1.2947
 5268SOL     OW16261   3.973   6.166   1.078 -0.0634  0.2507  0.4449
 5268SOL    HW116262   4.000   6.229   1.011 -0.2693 -1.4925 -1.3894
 5268SOL    HW216263   4.054   6.124   1.106 -0.2132 -0.9427 -0.8030
 5269SOL     OW16264   6.251   2.618   1.393 -0.0481  0.7347  0.0383
 5269SOL    HW116265   6.306   2.568   1.332  1.8331  0.2318  2.0106
 5269SOL    HW216266   6.221   2.693   1.341  1.0510  0.0804 -1.6507
 5270SOL     OW16267   2.778   3.475   0.905 -0.1211 -0.0523  1.1325
 5270SOL    HW116268   2.710   3.409   0.920 -2.1048  1.1254 -1.7975
 5270SOL    HW216269   2.746   3.553   0.952 -1.6350  0.8900 -1.2581
 5271SOL     OW16270   1.796   2.174   5.150 -0.2359 -0.1490  0.6858
 5271SOL    HW116271   1.848   2.246   5.115  0.2460 -1.6778 -1.9729
 5271SOL    HW216272   1.849   2.096   5.136 -2.2610 -1.4849 -0.0474
 5272SOL     OW16273   3.027   3.339   6.296 -0.7853 -0.3830 -0.8298
 5272SOL    HW116274   3.065   3.377   6.216  0.2158  2.2655  0.7537
 5272SOL    HW216275   2.944   3.386   6.306 -0.7583 -0.4808 -0.1723
 5273SOL     OW16276   5.358   1.795   5.423 -0.0745 -0.4890 -0.1615
 5273SOL    HW116277   5.290   1.857   5.395  0.3740  0.8466  1.5498
 5273SOL    HW216278   5.326   1.761   5.507  0.4216 -1.4361 -0.3415
 5274SOL     OW16279   5.816   0.259   2.586 -0.1049 -0.3536 -0.5325
 5274SOL    HW116280   5.735   0.216   2.560  0.3388 -0.3504 -1.9996
 5274SOL    HW216281   5.882   0.189   2.583  0.1435 -0.1268 -0.3765
 5275SOL     OW16282   0.068   3.730   5.413  0.9155 -0.2354 -0.1967
 5275SOL    HW116283   0.139   3.779   5.371  1.4979 -0.5954  0.3460
 5275SOL    HW216284   0.002   3.719   5.344  1.0392  0.7754 -0.4916
 5276SOL     OW16285   3.848   5.497   5.685  0.1048  0.9046 -0.4004
 5276SOL    HW116286   3.920   5.440   5.714 -0.7800 -0.3686 -0.6372
 5276SOL    HW216287   3.773   5.470   5.738 -1.1363 -0.3436 -2.6546
 5277SOL     OW16288   4.910   4.736   2.979 -0.3261  0.1391 -0.0840
 5277SOL    HW116289   4.936   4.825   2.999 -2.2597  0.2837  2.2391
 5277SOL    HW216290   4.841   4.745   2.912  0.7359  0.1988 -1.2118
 5278SOL     OW16291   2.385   0.496   0.947  0.1002  0.1102 -0.2715
 5278SOL    HW116292   2.349   0.465   1.030 -0.7002 -0.2737 -0.7490
 5278SOL    HW216293   2.350   0.584   0.937  1.0655  0.5775  0.3020
 5279SOL     OW16294   4.369   2.147   0.871  0.0092 -0.1516 -0.5944
 5279SOL    HW116295   4.285   2.192   0.866  0.5469  0.9870  0.2064
 5279SOL    HW216296   4.354   2.076   0.935  0.2517  1.5264  1.4318
 5280SOL     OW16297   4.565   5.947   4.961  0.3143 -0.5718  0.0260
 5280SOL    HW116298   4.599   5.881   5.021  1.3155 -0.7976 -0.7564
 5280SOL    HW216299   4.540   6.020   5.017  0.9409 -0.8973  0.7520
 5281SOL     OW16300   1.368   4.113   1.364 -0.4140  0.4225  0.1261
 5281SOL    HW116301   1.343   4.148   1.278 -0.7021  2.2463  0.8923
 5281SOL    HW216302   1.293   4.061   1.392 -0.9589  1.0562 -0.1112
 5282SOL     OW16303   0.949   3.476   2.734 -0.4967  0.0564 -0.0218
 5282SOL    HW116304   0.949   3.442   2.644 -0.3794 -0.3022  0.1128
 5282SOL    HW216305   0.995   3.409   2.785  0.4192  0.7780  0.1200
 5283SOL     OW16306   4.380   5.987   1.438  0.5599  0.0398 -0.1188
 5283SOL    HW116307   4.316   6.056   1.419  1.2766  0.3902 -1.4301
 5283SOL    HW216308   4.370   5.969   1.531 -1.4249  0.0914 -0.2797
 5284SOL     OW16309   4.536   0.024   3.425 -0.2979  0.4871 -0.0158
 5284SOL    HW116310   4.548   0.110   3.384  1.3859  0.2565 -0.0838
 5284SOL    HW216311   4.442   0.009   3.422 -0.6817  2.5206  0.3942
 5285SOL     OW16312   0.916   0.436   2.879 -0.1772 -0.3829  0.0319
 5285SOL    HW116313   0.898   0.507   2.818 -1.7392  0.6372  1.5885
 5285SOL    HW216314   0.997   0.463   2.923 -1.2088  0.9331  1.2175
 5286SOL     OW16315   0.876   3.113   1.731  0.1462  0.0714 -0.2005
 5286SOL    HW116316   0.945   3.106   1.665  0.9605 -0.4406  0.6804
 5286SOL    HW216317   0.923   3.114   1.815 -0.8902  0.2290  0.3989
 5287SOL     OW16318   4.067   0.843   5.953 -0.4459  0.6794  0.4201
 5287SOL    HW116319   4.040   0.912   6.013 -1.8379  0.1446  0.4553
 5287SOL    HW216320   4.006   0.848   5.880 -1.2096 -1.0903  0.8749
 5288SOL     OW16321   5.800   4.218   0.192 -0.2240  0.3607 -0.0189
 5288SOL    HW116322   5.722   4.273   0.197 -1.0320 -0.7951  0.3118
 5288SOL    HW216323   5.770   4.135   0.155  1.1666  0.4559 -1.5214
 5289SOL     OW16324   0.462   5.255   6.265  1.1522  0.7632 -0.6914
 5289SOL    HW116325   0.490   5.343   6.290 -1.1753  1.7985 -1.4417
 5289SOL    HW216326   0.536   5.199   6.287  2.2048  2.7048  1.0920
 5290SOL     OW16327   6.142   1.124   4.699  0.5258 -0.3529  0.2073
 5290SOL    HW116328   6.154   1.030   4.708  1.2756 -0.0625  2.9964
 5290SOL    HW216329   6.226   1.162   4.723  0.4456  1.0744 -1.5157
 5291SOL     OW16330   2.987   6.144   4.971  0.1745 -0.5520 -0.3239
 5291SOL    HW116331   2.948   6.231   4.963 -0.1611 -0.6111  0.5241
 5291SOL    HW216332   3.052   6.154   5.041  0.0906 -1.0013 -0.1839
 5292SOL     OW16333   2.147   1.268   4.495 -0.3783 -0.2314  0.6075
 5292SOL    HW116334   2.073   1.328   4.495  0.8412  1.3800  1.4609
 5292SOL    HW216335   2.149   1.230   4.407 -0.3763  2.1059 -0.4618
 5293SOL     OW16336   4.641   5.264   1.946  0.4605 -0.2377  0.5899
 5293SOL    HW116337   4.729   5.299   1.940  0.0941  0.6246  0.0041
 5293SOL    HW216338   4.612   5.287   2.034  0.7294 -0.3094  0.6980
 5294SOL     OW16339   2.426   3.906   3.199  0.1459 -0.1049 -0.4973
 5294SOL    HW116340   2.513   3.946   3.208  0.3361 -0.5258 -0.4060
 5294SOL    HW216341   2.407   3.912   3.105  1.1548 -1.7680 -0.8510
 5295SOL     OW16342   3.923   4.816   2.478 -0.1377 -0.3145 -0.0252
 5295SOL    HW116343   3.860   4.745   2.464 -0.0005 -0.3352 -0.5616
 5295SOL    HW216344   4.000   4.790   2.427  0.3434 -0.3346  0.6997
 5296SOL     OW16345   5.736   2.591   5.827 -0.4436  0.0294  0.5656
 5296SOL    HW116346   5.801   2.521   5.822 -1.1006 -0.5426 -0.7453
 5296SOL    HW216347   5.787   2.671   5.839  0.7716 -0.1073 -2.5406
 5297SOL     OW16348   2.160   4.187   4.636 -0.2646 -0.5179  0.3297
 5297SOL    HW116349   2.216   4.131   4.690  1.0767 -1.0816 -1.5432
 5297SOL    HW216350   2.185   4.276   4.661 -2.4738 -0.5957  3.3953
 5298SOL     OW16351   3.682   0.454   0.540  0.1481  0.2872 -0.5818
 5298SOL    HW116352   3.664   0.521   0.606 -1.8936 -1.0512  0.3261
 5298SOL    HW216353   3.621   0.473   0.469 -0.2842 -0.4402 -0.4192
 5299SOL     OW16354   2.343   4.095   4.851 -0.2243  0.6573  0.1739
 5299SOL    HW116355   2.340   4.146   4.932  0.6418  1.9534 -0.5858
 5299SOL    HW216356   2.399   4.145   4.792 -0.0379 -0.7520 -0.9119
 5300SOL     OW16357   3.772   3.171   5.025  0.1776  0.6193  0.5266
 5300SOL    HW116358   3.797   3.102   5.086 -0.3974 -0.9210 -0.9112
 5300SOL    HW216359   3.754   3.125   4.942 -0.2708  2.4830 -0.4687
 5301SOL     OW16360   2.560   2.837   2.798  0.1677 -0.2174 -0.1837
 5301SOL    HW116361   2.593   2.898   2.864  0.5198  0.1252 -0.6596
 5301SOL    HW216362   2.619   2.850   2.723 -0.8524  0.1748 -0.9426
 5302SOL     OW16363   0.184   5.870   6.047 -0.2373 -0.0011 -0.2687
 5302SOL    HW116364   0.213   5.822   6.125  0.2160  2.5918  1.2813
 5302SOL    HW216365   0.138   5.947   6.082  0.6685  1.6606 -2.5228
 5303SOL     OW16366   0.608   0.479   1.629  0.1937  0.6011 -0.1816
 5303SOL    HW116367   0.579   0.445   1.544  1.5129 -1.7062  0.2053
 5303SOL    HW216368   0.527   0.485   1.680 -0.2623 -0.8708 -0.6824
 5304SOL     OW16369   5.445   1.075   4.478 -0.0716 -0.2657  0.2216
 5304SOL    HW116370   5.461   1.046   4.389  0.4665 -2.0949  0.8610
 5304SOL    HW216371   5.528   1.112   4.508  0.6844 -2.3396  0.8758
 5305SOL     OW16372   5.177   5.079   3.865  0.1171  0.5660  0.6640
 5305SOL    HW116373   5.228   5.115   3.937  3.9052 -1.5440 -0.7184
 5305SOL    HW216374   5.142   4.996   3.898  2.7944 -0.9627 -0.0875
 5306SOL     OW16375   5.779   4.370   5.985  0.6196 -0.2014 -0.3645
 5306SOL    HW116376   5.768   4.351   6.078 -1.0068  2.5881  0.1166
 5306SOL    HW216377   5.871   4.397   5.977  1.6443 -3.2085 -0.2512
 5307SOL     OW16378   0.706   5.553   0.464  0.4058  0.2934 -0.3655
 5307SOL    HW116379   0.666   5.618   0.406  2.3293  2.5783  0.7045
 5307SOL    HW216380   0.632   5.504   0.500 -1.2506  2.5156 -0.5119
 5308SOL     OW16381   2.374   5.332   4.723  0.1078 -0.0448  0.2773
 5308SOL    HW116382   2.440   5.370   4.665 -0.5222 -0.3113 -0.6368
 5308SOL    HW216383   2.415   5.253   4.757  0.3921 -0.0196 -0.0022
 5309SOL     OW16384   3.914   2.684   6.235 -0.0610  0.0262  0.3457
 5309SOL    HW116385   3.955   2.599   6.223  3.9603  1.8642 -0.6453
 5309SOL    HW216386   3.900   2.717   6.146  1.9270  1.7856  0.6138
 5310SOL     OW16387   3.263   2.398   4.310 -0.0566  0.2878  0.0132
 5310SOL    HW116388   3.240   2.342   4.384 -0.6072 -0.5307 -0.7581
 5310SOL    HW216389   3.284   2.483   4.350  2.5066 -0.8813  1.3835
 5311SOL     OW16390   3.166   0.780   6.094  0.7271  0.1246 -0.2062
 5311SOL    HW116391   3.080   0.809   6.065  0.1425 -0.4971  0.8682
 5311SOL    HW216392   3.213   0.760   6.012  0.0348  0.9365 -0.8153
 5312SOL     OW16393   6.111   5.116   0.586 -0.1152  0.5597  0.4101
 5312SOL    HW116394   6.055   5.084   0.515  0.7542 -2.4492  0.9167
 5312SOL    HW216395   6.200   5.105   0.552  0.2705  0.4038  1.4432
 5313SOL     OW16396   1.692   4.733   1.307 -0.6905  0.4740 -0.1009
 5313SOL    HW116397   1.665   4.651   1.267 -0.3956  1.0674 -1.5953
 5313SOL    HW216398   1.697   4.795   1.234  1.3122  1.2486  0.6111
 5314SOL     OW16399   2.447   4.515   1.709 -0.5929 -0.5138  0.2848
 5314SOL    HW116400   2.503   4.590   1.688  1.0349 -1.5813  0.6097
 5314SOL    HW216401   2.460   4.501   1.803 -0.3734 -1.5748  0.1104
 5315SOL     OW16402   5.624   2.780   3.543  0.5885  0.7955 -0.0510
 5315SOL    HW116403   5.627   2.693   3.503  0.0003  0.8625 -0.2486
 5315SOL    HW216404   5.668   2.768   3.628  0.9165  0.4142 -0.2714
 5316SOL     OW16405   3.303   4.984   0.502 -0.6441 -0.5199 -0.4055
 5316SOL    HW116406   3.350   4.978   0.418 -0.4262 -1.0239 -0.2538
 5316SOL    HW216407   3.334   5.065   0.541 -1.0144 -0.0969 -0.9725
 5317SOL     OW16408   5.831   1.378   3.010  0.1430 -0.2139  0.0002
 5317SOL    HW116409   5.872   1.308   2.958  0.0234 -1.2536  1.2494
 5317SOL    HW216410   5.739   1.376   2.983  0.3974  0.4073 -0.9617
 5318SOL     OW16411   3.836   6.183   1.997  0.6997 -0.5802  0.3253
 5318SOL    HW116412   3.914   6.193   2.051 -0.0777 -0.2484  1.4229
 5318SOL    HW216413   3.779   6.256   2.024  0.6078  0.0945 -1.5176
 5319SOL     OW16414   4.026   0.971   1.628  0.3950  0.5917 -0.0710
 5319SOL    HW116415   3.995   1.010   1.547  0.0908  0.5754  0.0355
 5319SOL    HW216416   3.965   1.003   1.695 -0.0103 -0.2585 -0.0203
 5320SOL     OW16417   5.131   2.252   6.135  0.7537  0.4403  0.5654
 5320SOL    HW116418   5.082   2.329   6.107 -1.2918 -0.8608  0.3190
 5320SOL    HW216419   5.123   2.191   6.062 -1.5723 -1.6521  2.3757
 5321SOL     OW16420   0.973   0.287   4.272 -0.3721  0.6703 -0.0406
 5321SOL    HW116421   0.893   0.266   4.321 -0.6154  1.7154  0.0412
 5321SOL    HW216422   0.942   0.316   4.187 -0.0686  0.8795 -0.0808
 5322SOL     OW16423   3.605   5.680   5.180 -0.3013  0.9005  0.0840
 5322SOL    HW116424   3.584   5.600   5.132 -0.0739 -0.4046  2.0457
 5322SOL    HW216425   3.664   5.728   5.121  0.3663 -0.8466 -0.7447
 5323SOL     OW16426   6.019   3.502   2.876 -0.4972 -0.0370 -0.2984
 5323SOL    HW116427   5.935   3.468   2.846  0.2555 -0.7699 -1.6669
 5323SOL    HW216428   6.069   3.519   2.796  0.4187  1.0352  0.4660
 5324SOL     OW16429   3.614   5.029   3.182  0.2020 -0.1004 -0.6433
 5324SOL    HW116430   3.634   5.026   3.276  1.1605  1.2974 -0.7732
 5324SOL    HW216431   3.620   4.938   3.153 -0.6002 -0.6294  0.7360
 5325SOL     OW16432   5.098   5.972   1.258 -0.2793 -0.1203 -0.4285
 5325SOL    HW116433   5.138   5.890   1.288  1.4842  1.0079  0.4348
 5325SOL    HW216434   5.012   5.973   1.300 -1.5403 -2.7809 -2.6307
 5326SOL     OW16435   1.559   6.054   5.017 -0.7019 -0.1968  0.2716
 5326SOL    HW116436   1.586   6.022   5.103 -1.6827 -0.7121  0.4028
 5326SOL    HW216437   1.622   6.123   4.996 -0.9507  0.5152  1.7835
 5327SOL     OW16438   2.433   5.976   3.244  0.0972 -0.0275  0.1576
 5327SOL    HW116439   2.504   5.973   3.180  0.4414  1.2873  0.4529
 5327SOL    HW216440   2.361   5.930   3.202  0.8847 -0.7374 -0.4468
 5328SOL     OW16441   4.966   6.241   0.746 -0.4788  0.2321 -0.1651
 5328SOL    HW116442   4.992   6.205   0.831 -0.9956 -0.1560 -0.1705
 5328SOL    HW216443   5.010   6.326   0.742 -0.5491  0.3063  0.5458
 5329SOL     OW16444   5.624   3.848   5.883 -0.5292 -0.2960 -1.0760
 5329SOL    HW116445   5.650   3.904   5.810 -0.7431 -1.1246 -1.8031
 5329SOL    HW216446   5.662   3.890   5.960 -0.2545  0.5655 -1.6672
 5330SOL     OW16447   2.618   1.705   3.048 -0.6210  0.7316  0.0837
 5330SOL    HW116448   2.680   1.644   3.089 -0.5252  1.3879  0.9419
 5330SOL    HW216449   2.574   1.748   3.121 -1.1966  1.1878 -0.5116
 5331SOL     OW16450   4.236   4.754   3.908 -0.0854  0.5064  0.0688
 5331SOL    HW116451   4.225   4.684   3.973 -0.7169 -0.7169 -1.3202
 5331SOL    HW216452   4.208   4.715   3.826 -0.7285  2.4971 -0.7008
 5332SOL     OW16453   2.537   6.259   1.983  0.2947  0.0773 -0.3851
 5332SOL    HW116454   2.491   6.271   1.900  0.2269  2.5559 -0.0813
 5332SOL    HW216455   2.468   6.260   2.049  0.3517 -1.8555 -0.2312
 5333SOL     OW16456   1.516   5.613   5.153  0.3827 -0.9456 -0.2162
 5333SOL    HW116457   1.538   5.520   5.154 -0.8736 -1.2594  0.2328
 5333SOL    HW216458   1.535   5.641   5.064 -4.3726 -3.0001 -2.2163
 5334SOL     OW16459   1.925   5.413   4.250 -0.7300 -0.4041  0.0620
 5334SOL    HW116460   1.883   5.389   4.167 -0.5466 -0.8112  0.0894
 5334SOL    HW216461   1.971   5.495   4.230 -0.2955 -0.7476 -0.3647
 5335SOL     OW16462   6.365   5.083   2.778 -0.0703 -0.1693 -0.2331
 5335SOL    HW116463   6.435   5.146   2.791 -0.7991  1.1365 -2.1062
 5335SOL    HW216464   6.399   5.021   2.713  0.3875 -1.3551  1.0812
 5336SOL     OW16465   0.572   6.138   1.800  0.0405 -0.0692 -0.3156
 5336SOL    HW116466   0.512   6.069   1.773  0.8081 -1.0336  0.4030
 5336SOL    HW216467   0.572   6.200   1.727 -1.8827  0.0103 -0.2987
 5337SOL     OW16468   5.488   1.987   2.844  0.5870 -0.2371  0.2417
 5337SOL    HW116469   5.576   1.959   2.869  1.0377  0.4961 -0.4890
 5337SOL    HW216470   5.464   2.052   2.910 -0.1471 -1.6793  1.4795
 5338SOL     OW16471   5.881   3.420   1.222  0.4009 -0.0451  0.2326
 5338SOL    HW116472   5.796   3.446   1.188  0.5275 -0.0302 -0.0776
 5338SOL    HW216473   5.935   3.499   1.215  1.0191 -0.5653 -1.4662
 5339SOL     OW16474   5.203   2.032   4.295 -0.3778  0.1897  0.6066
 5339SOL    HW116475   5.255   1.977   4.354 -1.8603  0.3812  2.1522
 5339SOL    HW216476   5.231   2.121   4.314  0.0426  0.1747  0.0881
 5340SOL     OW16477   2.200   0.257   5.371 -0.5525  0.2277 -0.1742
 5340SOL    HW116478   2.154   0.302   5.300 -1.6516  0.6332  0.7396
 5340SOL    HW216479   2.245   0.327   5.419 -0.1390  0.0136 -0.2492
 5341SOL     OW16480   5.894   3.265   4.828 -0.3524  0.2383 -0.6953
 5341SOL    HW116481   5.883   3.257   4.733 -0.0427  0.3683 -0.7444
 5341SOL    HW216482   5.987   3.284   4.839  0.0666 -1.8858 -0.2306
 5342SOL     OW16483   2.873   2.208   5.049  0.1383 -0.0180 -0.2433
 5342SOL    HW116484   2.787   2.197   5.090  0.1336 -0.5676 -0.3939
 5342SOL    HW216485   2.921   2.128   5.071 -0.6442 -1.4560 -3.2202
 5343SOL     OW16486   6.048   5.389   0.596  0.6538 -0.1513 -0.0986
 5343SOL    HW116487   6.092   5.308   0.620  1.1276  0.1304  0.0005
 5343SOL    HW216488   5.955   5.370   0.607  0.6718 -1.0967 -1.3248
 5344SOL     OW16489   0.486   0.793   1.641  0.1636  0.3579  0.1376
 5344SOL    HW116490   0.570   0.838   1.631  0.0974  0.8370  1.5356
 5344SOL    HW216491   0.459   0.773   1.552  1.2923  1.0695 -0.3866
 5345SOL     OW16492   1.222   0.278   2.398  0.1019  0.3462 -0.0716
 5345SOL    HW116493   1.135   0.291   2.360  0.2738 -0.4345 -0.7680
 5345SOL    HW216494   1.264   0.364   2.392 -0.0200  0.3432 -1.3253
 5346SOL     OW16495   0.020   0.949   5.270  0.7516  0.5319  0.7078
 5346SOL    HW116496  -0.035   0.978   5.344 -0.5261  0.8313 -0.3200
 5346SOL    HW216497  -0.017   0.995   5.194 -0.7444 -2.9398 -0.8635
 5347SOL     OW16498   6.051   5.589   2.212 -0.1330 -0.0547  0.1873
 5347SOL    HW116499   5.983   5.651   2.184  1.2997  1.9640  0.9582
 5347SOL    HW216500   6.030   5.508   2.165 -0.9836  1.5526 -2.4567
 5348SOL     OW16501   5.339   1.526   1.885 -0.4215  0.0859 -0.9312
 5348SOL    HW116502   5.307   1.440   1.914 -0.6030 -0.2084 -1.9725
 5348SOL    HW216503   5.318   1.585   1.958 -2.2429 -0.3367 -1.0655
 5349SOL     OW16504   0.242   4.788   1.682 -0.2269  0.4249 -0.4402
 5349SOL    HW116505   0.263   4.829   1.598  1.5185  0.4976 -0.0015
 5349SOL    HW216506   0.239   4.860   1.744 -2.5226  0.5086 -0.5460
 5350SOL     OW16507   3.720   2.372   5.721 -0.0330  0.0983  0.5807
 5350SOL    HW116508   3.641   2.411   5.683 -0.1214  0.8688  1.4888
 5350SOL    HW216509   3.792   2.425   5.687 -0.0623  0.4223  1.0083
 5351SOL     OW16510   0.847   0.258   4.595  0.4493 -0.0274 -0.5136
 5351SOL    HW116511   0.810   0.171   4.610 -0.5994  0.5727  0.5761
 5351SOL    HW216512   0.787   0.300   4.533 -0.2473  0.6194  0.5491
 5352SOL     OW16513   3.653   4.100   3.660  0.0997 -0.3929  0.0834
 5352SOL    HW116514   3.699   4.159   3.719 -1.6249  1.0071  0.1278
 5352SOL    HW216515   3.626   4.026   3.715  4.8226 -2.9999 -0.5291
 5353SOL     OW16516   3.183   4.685   3.638 -0.0393 -0.1651  0.6503
 5353SOL    HW116517   3.125   4.679   3.562  1.6762 -1.0522 -0.6414
 5353SOL    HW216518   3.127   4.661   3.712 -2.1819  2.2297 -0.0265
 5354SOL     OW16519   1.086   0.700   6.040 -0.2351 -0.6026 -0.0445
 5354SOL    HW116520   1.048   0.669   5.958  1.0025 -0.0748 -0.8266
 5354SOL    HW216521   1.180   0.687   6.030 -0.1148 -1.3813  1.6511
 5355SOL     OW16522   1.958   5.080   2.350  0.4709 -0.1729  0.7132
 5355SOL    HW116523   2.000   5.165   2.359  1.9080 -0.9570  1.7299
 5355SOL    HW216524   1.982   5.050   2.263  0.6207  0.1081  0.6567
 5356SOL     OW16525   1.697   4.339   0.582 -0.2490  0.4405  0.0212
 5356SOL    HW116526   1.779   4.387   0.564 -1.4875  2.7409  0.1249
 5356SOL    HW216527   1.709   4.304   0.671  1.4007 -1.1101 -0.7412
 5357SOL     OW16528   5.829   3.890   1.592  0.2678 -0.4131  0.3044
 5357SOL    HW116529   5.836   3.846   1.507  0.8993  1.6360 -0.7778
 5357SOL    HW216530   5.869   3.830   1.654  2.0855 -0.9208 -1.2775
 5358SOL     OW16531   3.877   0.306   6.105 -0.7580  0.7573  0.2186
 5358SOL    HW116532   3.812   0.250   6.148  0.0107  0.4999  1.0666
 5358SOL    HW216533   3.842   0.319   6.016 -1.4151 -0.2901  0.3034
 5359SOL     OW16534   5.880   3.867   6.088  0.2413  0.5155 -0.0538
 5359SOL    HW116535   5.933   3.946   6.098  0.4716  0.3929 -0.3013
 5359SOL    HW216536   5.911   3.827   6.007  0.8254 -0.3501  0.5682
 5360SOL     OW16537   0.050   4.150   3.439  0.4579  0.1286  0.5952
 5360SOL    HW116538   0.126   4.198   3.406 -0.6320  1.1749 -0.4840
 5360SOL    HW216539   0.018   4.202   3.513  1.3635 -0.8577  1.7246
 5361SOL     OW16540   4.150   1.288   3.634 -0.2074  0.3416 -0.3785
 5361SOL    HW116541   4.192   1.217   3.585 -2.4765  0.0671 -2.1314
 5361SOL    HW216542   4.121   1.246   3.716  0.0863 -0.2788 -0.5847
 5362SOL     OW16543   2.430   2.746   1.806 -0.0679  0.4496 -0.0280
 5362SOL    HW116544   2.467   2.658   1.797 -0.5567  0.2972 -0.7554
 5362SOL    HW216545   2.449   2.788   1.722  2.5830  2.0362  1.2783
 5363SOL     OW16546   5.975   1.428   5.991  0.1242 -0.5832  0.2317
 5363SOL    HW116547   6.022   1.403   6.070 -3.1914 -2.3470  1.8533
 5363SOL    HW216548   5.928   1.508   6.014 -1.0630 -1.2440  0.2082
 5364SOL     OW16549   2.197   4.470   3.237 -0.3167  0.1055  0.1697
 5364SOL    HW116550   2.114   4.471   3.283 -0.2718  0.8041  0.2569
 5364SOL    HW216551   2.173   4.467   3.144 -0.4263 -0.2420  0.2085
 5365SOL     OW16552   0.716   1.195   0.054 -0.5024 -0.7484  0.2958
 5365SOL    HW116553   0.652   1.252   0.013  1.0128  0.5420 -0.3832
 5365SOL    HW216554   0.717   1.222   0.146  1.2746  1.4814 -0.2897
 5366SOL     OW16555   3.592   2.714   4.874  0.6918 -0.2484 -0.2334
 5366SOL    HW116556   3.632   2.718   4.787  1.9172 -1.2439  0.2580
 5366SOL    HW216557   3.645   2.651   4.922 -0.2478 -0.0588  1.1057
 5367SOL     OW16558   2.426   2.806   1.254  1.2304 -0.3570  0.0718
 5367SOL    HW116559   2.383   2.788   1.338  0.0235 -2.2489 -0.8780
 5367SOL    HW216560   2.356   2.839   1.197  2.0149  0.8107 -0.2631
 5368SOL     OW16561   3.777   3.310   4.388 -0.1557  0.0979  0.0006
 5368SOL    HW116562   3.855   3.332   4.438 -0.7791  0.2789  0.9040
 5368SOL    HW216563   3.713   3.377   4.411 -1.0603 -0.8727  0.4092
 5369SOL     OW16564   1.358   1.892   5.160  0.2898  0.4781  0.0967
 5369SOL    HW116565   1.306   1.964   5.196  0.3380  0.8979 -0.6513
 5369SOL    HW216566   1.312   1.866   5.081  0.7147  0.2350 -0.0776
 5370SOL     OW16567   4.947   4.187   3.249 -0.1245 -0.9008  0.4661
 5370SOL    HW116568   4.951   4.244   3.172  0.3515 -1.0342  0.3909
 5370SOL    HW216569   4.863   4.209   3.290  0.4013  0.4225  0.8782
 5371SOL     OW16570   1.052   1.578   4.154 -0.3505  0.3218 -0.1714
 5371SOL    HW116571   1.071   1.671   4.167  1.7024  0.0132 -0.7285
 5371SOL    HW216572   1.038   1.544   4.242  3.0562  0.3625  0.5237
 5372SOL     OW16573   5.508   0.448   4.154 -0.2462 -0.4276 -0.2565
 5372SOL    HW116574   5.495   0.528   4.205  3.7000  0.7792 -0.8368
 5372SOL    HW216575   5.505   0.477   4.063  3.2128 -0.3317 -0.4792
 5373SOL     OW16576   5.598   2.545   3.439 -0.5652 -0.2247 -0.4196
 5373SOL    HW116577   5.559   2.478   3.496  0.1205 -1.0693 -0.9189
 5373SOL    HW216578   5.656   2.496   3.381  1.0497  0.9581  0.1229
 5374SOL     OW16579   6.069   0.885   4.154 -0.1129  0.2805  0.6156
 5374SOL    HW116580   6.023   0.945   4.212  1.6445 -0.3149  2.7572
 5374SOL    HW216581   6.021   0.802   4.162  0.6968 -0.0725  2.0630
 5375SOL     OW16582   1.274   5.899   5.895  0.4533 -0.0968  0.0444
 5375SOL    HW116583   1.209   5.851   5.843  2.4571 -0.0679 -2.6815
 5375SOL    HW216584   1.322   5.830   5.941 -1.8140 -0.0864  2.7146
 5376SOL     OW16585   0.955   2.247   4.572 -0.1647 -0.0275 -0.0865
 5376SOL    HW116586   0.978   2.289   4.655 -0.1525  1.4623 -0.8237
 5376SOL    HW216587   0.916   2.164   4.598  0.1781  0.2405  1.3991
 5377SOL     OW16588   1.478   6.297   5.620 -0.1610 -0.0043 -0.3724
 5377SOL    HW116589   1.551   6.356   5.602  0.5954 -1.0557 -0.8583
 5377SOL    HW216590   1.493   6.267   5.710  0.2029 -0.4758 -0.5859
 5378SOL     OW16591   0.812   4.351   0.470 -0.1844  0.1561  0.4036
 5378SOL    HW116592   0.840   4.281   0.528  1.4989 -0.7430 -1.3959
 5378SOL    HW216593   0.778   4.419   0.529  1.5368 -0.6555  2.4456
 5379SOL     OW16594   1.352   5.776   4.015  0.3140 -0.0204  0.8368
 5379SOL    HW116595   1.427   5.722   3.990  1.0577  0.8511  1.1668
 5379SOL    HW216596   1.324   5.817   3.933  2.1288  2.0430  1.1492
 5380SOL     OW16597   3.840   2.293   5.416  0.4451  0.5052 -0.9240
 5380SOL    HW116598   3.879   2.274   5.501 -1.0657 -0.2234 -0.3703
 5380SOL    HW216599   3.809   2.383   5.423 -1.0493 -0.0521 -0.1466
 5381SOL     OW16600   2.337   5.761   1.204 -0.0346 -0.0653 -0.2690
 5381SOL    HW116601   2.391   5.771   1.282 -1.5659 -0.7205  0.9216
 5381SOL    HW216602   2.273   5.694   1.227 -1.6028  0.9432 -1.4537
 5382SOL     OW16603   0.147   1.570   5.121 -0.1324  0.4859 -0.0907
 5382SOL    HW116604   0.080   1.565   5.189 -1.6231  0.2973 -1.4927
 5382SOL    HW216605   0.206   1.640   5.150 -0.4669  0.1118  1.5682
 5383SOL     OW16606   2.135   3.786   1.008 -0.0256 -0.7361 -0.3167
 5383SOL    HW116607   2.188   3.813   0.933  0.4664 -1.3060 -0.1878
 5383SOL    HW216608   2.194   3.798   1.084 -0.6494  0.2200  0.0326
 5384SOL     OW16609   0.599   1.179   1.646 -0.1229 -0.6966  0.8609
 5384SOL    HW116610   0.568   1.112   1.585 -0.1306  0.4455 -0.4231
 5384SOL    HW216611   0.623   1.253   1.590  0.1812  0.2646  2.2277
 5385SOL     OW16612   0.461   2.184   3.466 -0.5299 -0.2538  0.4309
 5385SOL    HW116613   0.395   2.240   3.425  0.2246  0.3742  0.0356
 5385SOL    HW216614   0.435   2.095   3.443 -0.8598  0.0240 -0.2944
 5386SOL     OW16615   2.862   1.683   5.262  0.4834 -0.3375  0.1026
 5386SOL    HW116616   2.768   1.698   5.253  0.4691 -0.6352 -0.2268
 5386SOL    HW216617   2.876   1.593   5.235  0.8512 -0.3332  0.2595
 5387SOL     OW16618   4.493   5.870   2.134 -0.5162 -0.0809 -0.3783
 5387SOL    HW116619   4.518   5.962   2.123  1.2279 -0.0332  2.9606
 5387SOL    HW216620   4.438   5.869   2.212  1.1736 -2.0669  0.8799
 5388SOL     OW16621   4.854   5.592   2.799 -0.5345 -0.4848  0.2080
 5388SOL    HW116622   4.910   5.639   2.861  0.1226 -1.8055  0.6659
 5388SOL    HW216623   4.814   5.522   2.851 -0.1483 -1.4832 -0.7834
 5389SOL     OW16624   3.332   0.847   1.051 -0.5058  0.3744 -0.2305
 5389SOL    HW116625   3.305   0.776   0.993 -0.9649  1.8471 -1.9114
 5389SOL    HW216626   3.381   0.804   1.121 -1.8077 -1.7060 -0.5199
 5390SOL     OW16627   0.033   3.130   2.411 -0.3623  0.3763 -0.0475
 5390SOL    HW116628  -0.061   3.108   2.409 -0.3203  0.1975 -0.0316
 5390SOL    HW216629   0.042   3.189   2.486 -0.3077 -0.3124  0.4924
 5391SOL     OW16630   2.942   4.162   3.199  0.6504  0.2705 -0.4577
 5391SOL    HW116631   3.012   4.167   3.265  1.0479  1.2057 -0.9438
 5391SOL    HW216632   2.875   4.221   3.231  1.1766  1.3384 -1.2637
 5392SOL     OW16633   2.552   3.534   4.633  0.6165 -0.2478 -0.2394
 5392SOL    HW116634   2.571   3.518   4.726  1.6452 -1.5044 -0.6386
 5392SOL    HW216635   2.589   3.621   4.616 -2.4055  1.5064  1.2499
 5393SOL     OW16636   1.159   2.943   5.956  0.5974  0.5142  0.6137
 5393SOL    HW116637   1.112   2.882   6.013 -0.2354 -0.8429 -1.3681
 5393SOL    HW216638   1.237   2.895   5.929  0.4934  0.7362 -0.1107
 5394SOL     OW16639   0.210   5.321   4.389 -0.3581 -0.0152 -0.2040
 5394SOL    HW116640   0.246   5.407   4.408  1.2474  0.0374 -2.9588
 5394SOL    HW216641   0.283   5.261   4.403  0.4528 -0.1418 -3.9286
 5395SOL     OW16642   0.247   5.882   2.105  0.1562  0.6992  0.4678
 5395SOL    HW116643   0.200   5.924   2.033 -1.4488 -1.0259  0.4491
 5395SOL    HW216644   0.333   5.924   2.104 -0.1213  1.3831 -1.8600
 5396SOL     OW16645   3.656   5.714   4.324 -0.0785 -0.1528 -0.1137
 5396SOL    HW116646   3.721   5.763   4.274  3.4280 -0.0213  4.0132
 5396SOL    HW216647   3.654   5.628   4.282  0.8383  0.6072 -1.8223
 5397SOL     OW16648   1.918   2.590   0.911  0.0979 -0.3628 -0.2528
 5397SOL    HW116649   1.959   2.672   0.885 -0.7708  0.3286  0.5030
 5397SOL    HW216650   1.927   2.586   1.006 -0.0050 -1.0658 -0.2634
 5398SOL     OW16651   5.708   6.301   2.099  0.1116  0.1990 -0.1395
 5398SOL    HW116652   5.699   6.220   2.049 -1.3535 -0.4393  1.0505
 5398SOL    HW216653   5.639   6.357   2.065 -1.0618 -0.3321  1.2401
 5399SOL     OW16654   3.625   3.716   0.456  0.4504 -0.3957 -0.2678
 5399SOL    HW116655   3.652   3.802   0.422  1.1405 -0.3068  0.4629
 5399SOL    HW216656   3.691   3.656   0.422  1.5297 -0.2070  1.3870
 5400SOL     OW16657   3.952   5.502   1.628  0.6367  0.0454  0.1151
 5400SOL    HW116658   4.026   5.468   1.679  1.4346  0.4278 -0.7450
 5400SOL    HW216659   3.892   5.538   1.694  2.5396  2.3142  0.7742
 5401SOL     OW16660   4.639   2.280   2.327 -0.5108  0.0482 -0.0160
 5401SOL    HW116661   4.698   2.346   2.362 -0.4239 -0.3219  0.5449
 5401SOL    HW216662   4.695   2.222   2.275 -0.4535 -0.0477  0.1528
 5402SOL     OW16663   5.911   1.211   3.957 -0.2992 -0.4809 -0.0896
 5402SOL    HW116664   5.866   1.272   3.898 -1.0996 -0.4613  0.5270
 5402SOL    HW216665   5.904   1.252   4.043 -0.7819 -1.3971  0.3203
 5403SOL     OW16666   5.429   4.778   0.564 -0.1128 -0.1993  0.3668
 5403SOL    HW116667   5.360   4.734   0.514  0.7670 -0.9477 -0.2367
 5403SOL    HW216668   5.506   4.775   0.506  0.5784  0.0853  1.2484
 5404SOL     OW16669   5.910   5.198   1.444 -0.6533  1.1610  0.1506
 5404SOL    HW116670   5.996   5.233   1.419 -0.3548  2.0108  2.1601
 5404SOL    HW216671   5.878   5.154   1.366  2.9575 -1.9069  0.1220
 5405SOL     OW16672   0.619   1.730   2.454 -0.0554 -0.4159 -0.2089
 5405SOL    HW116673   0.655   1.818   2.452  1.6815 -1.0752 -0.0040
 5405SOL    HW216674   0.684   1.677   2.406 -1.7053 -1.3662 -1.5172
 5406SOL     OW16675   2.167   3.157   1.823 -0.1299 -0.0124  0.4454
 5406SOL    HW116676   2.082   3.179   1.862 -0.4673 -0.0606 -0.2399
 5406SOL    HW216677   2.220   3.236   1.833  0.1143 -0.3235  1.8263
 5407SOL     OW16678   4.965   0.565   1.083 -0.3941 -0.0035 -0.3339
 5407SOL    HW116679   5.022   0.602   1.016 -0.1451  1.4489  0.6411
 5407SOL    HW216680   5.014   0.572   1.164 -1.0355 -0.9425  0.1653
 5408SOL     OW16681   2.543   1.614   2.168  0.8889 -0.2145  0.1649
 5408SOL    HW116682   2.487   1.543   2.199  0.5205  0.7913  1.9443
 5408SOL    HW216683   2.631   1.589   2.196  0.8014 -0.1270  0.5282
 5409SOL     OW16684   1.355   5.620   4.302  0.4192 -0.3679 -0.3434
 5409SOL    HW116685   1.427   5.564   4.273  3.1829  2.5313  0.2607
 5409SOL    HW216686   1.359   5.695   4.243 -0.7300  0.8376  1.0452
 5410SOL     OW16687   1.618   0.012   1.227 -0.3073 -0.0247  0.5469
 5410SOL    HW116688   1.707  -0.018   1.205 -0.8846 -2.1488  0.9537
 5410SOL    HW216689   1.604  -0.019   1.317 -1.4941  0.2316  0.4592
 5411SOL     OW16690   5.853   1.126   5.659  0.1042  0.2168 -0.0122
 5411SOL    HW116691   5.815   1.095   5.741  0.6349 -0.9096 -0.1822
 5411SOL    HW216692   5.924   1.184   5.685  2.6853 -2.9308  0.4544
 5412SOL     OW16693   3.476   4.118   2.517 -0.0256  0.1436 -0.3901
 5412SOL    HW116694   3.510   4.202   2.488  0.4141  0.0620 -0.1172
 5412SOL    HW216695   3.455   4.131   2.610  0.0370 -0.0445 -0.3494
 5413SOL     OW16696   5.422   2.196   1.572  0.8855  0.3407 -0.4028
 5413SOL    HW116697   5.448   2.274   1.622  2.6226 -0.4203 -0.0715
 5413SOL    HW216698   5.442   2.218   1.481 -0.8734  1.1503 -0.6410
 5414SOL     OW16699   3.024   1.931   3.357  1.2006 -0.3295 -0.1960
 5414SOL    HW116700   3.093   1.897   3.414  2.8789  0.2346 -1.7654
 5414SOL    HW216701   2.976   1.854   3.329  0.9590 -0.7059  1.1787
 5415SOL     OW16702   0.868   5.465   6.237 -0.2135  0.5757 -0.0695
 5415SOL    HW116703   0.934   5.398   6.221  0.6395  0.9349  1.7855
 5415SOL    HW216704   0.837   5.488   6.149  0.1184 -1.5638 -0.8081
 5416SOL     OW16705   5.471   3.271   3.855  0.6972  0.9647 -0.2024
 5416SOL    HW116706   5.504   3.206   3.793 -0.4697  0.4076 -0.2768
 5416SOL    HW216707   5.434   3.339   3.799  1.0222  1.2093 -0.1201
 5417SOL     OW16708   5.194   4.751   1.319  0.0585  0.3519 -0.3702
 5417SOL    HW116709   5.225   4.749   1.228 -0.7814  1.4358 -0.6981
 5417SOL    HW216710   5.154   4.665   1.332  1.3423 -0.2973 -0.5914
 5418SOL     OW16711   2.254   1.643   2.000 -0.2430  0.2146 -0.3801
 5418SOL    HW116712   2.165   1.610   1.996  0.3300 -1.4863  0.2492
 5418SOL    HW216713   2.295   1.613   1.919  0.6808 -1.9223  0.8193
 5419SOL     OW16714   0.377   6.118   5.443  0.6305  0.3319  0.1494
 5419SOL    HW116715   0.423   6.116   5.527 -1.2491 -0.0005  1.2166
 5419SOL    HW216716   0.301   6.174   5.458  1.4809  2.2668 -2.0419
 5420SOL     OW16717   4.048   3.812   3.924  0.4584 -0.0825  0.5735
 5420SOL    HW116718   4.035   3.906   3.923 -0.5097 -0.2036  0.6660
 5420SOL    HW216719   3.960   3.775   3.908  0.7163 -0.9637  1.1124
 5421SOL     OW16720   4.070   4.291   4.225  0.7289  0.1894 -0.1159
 5421SOL    HW116721   4.094   4.342   4.302  0.2576 -1.6676  1.3344
 5421SOL    HW216722   4.125   4.213   4.230 -0.8790 -0.9962 -0.4409
 5422SOL     OW16723   3.593   0.899   0.809 -0.0408 -0.0006  0.2263
 5422SOL    HW116724   3.662   0.930   0.867 -0.6889  1.5810  0.2069
 5422SOL    HW216725   3.514   0.943   0.841 -0.4254  0.8889 -1.8122
 5423SOL     OW16726   5.843   6.255   1.286  0.1774 -0.1968  0.0238
 5423SOL    HW116727   5.935   6.270   1.264 -0.0860  0.1138 -0.9183
 5423SOL    HW216728   5.795   6.302   1.219 -0.6987  1.9157  2.0157
 5424SOL     OW16729   5.923   1.352   4.213 -0.0658 -0.1785  0.1963
 5424SOL    HW116730   5.847   1.406   4.237  0.2044 -0.2181  1.1356
 5424SOL    HW216731   5.992   1.416   4.192 -0.6369 -0.1093 -1.7066
 5425SOL     OW16732   3.019   4.771   4.702  0.4047  0.2824  0.2016
 5425SOL    HW116733   2.961   4.725   4.764 -0.2216 -0.0212 -0.5925
 5425SOL    HW216734   3.077   4.703   4.668 -1.1279 -0.1620 -1.6698
 5426SOL     OW16735   4.766   5.428   2.985 -0.0801  0.0146  0.5894
 5426SOL    HW116736   4.825   5.387   3.048 -1.3502 -0.1308  1.7383
 5426SOL    HW216737   4.731   5.504   3.032 -1.3371 -0.3163  0.2275
 5427SOL     OW16738   3.207   5.254   1.526 -0.4859 -0.0787  0.0806
 5427SOL    HW116739   3.132   5.313   1.535 -0.4976 -0.0396 -0.2729
 5427SOL    HW216740   3.206   5.227   1.435 -0.7556 -0.9965  0.3446
 5428SOL     OW16741   1.026   1.231   1.953 -0.1437 -0.2173 -0.0165
 5428SOL    HW116742   1.078   1.151   1.943  0.5736  0.4890 -3.1504
 5428SOL    HW216743   0.964   1.228   1.880 -1.7533  0.9642  1.2291
 5429SOL     OW16744   4.269   4.500   4.026 -0.2797 -0.3079  0.5226
 5429SOL    HW116745   4.313   4.507   4.111  0.9885 -1.5033 -0.0077
 5429SOL    HW216746   4.250   4.407   4.016 -2.9566  0.1409  0.6966
 5430SOL     OW16747   2.915   1.178   2.818  0.0131  0.0505 -0.3263
 5430SOL    HW116748   2.944   1.253   2.767 -0.0270 -1.5203 -2.8274
 5430SOL    HW216749   2.843   1.141   2.768  1.2947 -2.7988 -0.2696
 5431SOL     OW16750   1.270   2.158   0.018  0.4062 -0.8821 -0.6619
 5431SOL    HW116751   1.259   2.247  -0.015  1.3220 -0.3699  0.3662
 5431SOL    HW216752   1.185   2.117   0.004 -0.5144  0.6328  0.2283
 5432SOL     OW16753   4.249   3.538   1.144 -0.0574  0.2478 -0.2585
 5432SOL    HW116754   4.156   3.547   1.124 -0.2817  0.3762  0.7946
 5432SOL    HW216755   4.284   3.626   1.133 -0.6894  0.9089  2.2919
 5433SOL     OW16756   2.569   0.676   1.243  0.0446 -0.0817 -0.0539
 5433SOL    HW116757   2.520   0.726   1.308 -2.5905 -0.9688 -1.1887
 5433SOL    HW216758   2.637   0.736   1.212 -0.2712  1.2269  1.6706
 5434SOL     OW16759   1.825   6.347   1.480  0.3584  0.1815  0.0003
 5434SOL    HW116760   1.732   6.328   1.493  0.1088  0.4867 -1.1404
 5434SOL    HW216761   1.870   6.300   1.550 -0.4880 -1.7580 -0.6848
 5435SOL     OW16762   3.637   0.275   5.136  0.1613 -0.5162  0.5769
 5435SOL    HW116763   3.650   0.181   5.152  2.4813 -0.6286 -1.3285
 5435SOL    HW216764   3.725   0.308   5.121 -0.6054  2.0464  1.3291
 5436SOL     OW16765   5.213   5.860   4.768  0.2966  0.5292 -0.2682
 5436SOL    HW116766   5.257   5.889   4.848 -1.3075  0.1505  0.8177
 5436SOL    HW216767   5.244   5.770   4.755  0.7380  0.6705 -0.1995
 5437SOL     OW16768   4.495   5.659   3.793 -0.2938  0.0104  0.0340
 5437SOL    HW116769   4.510   5.710   3.872 -1.9245  0.8675 -0.1838
 5437SOL    HW216770   4.401   5.664   3.777 -0.2713 -1.7026 -0.9342
 5438SOL     OW16771   1.166   0.933   4.529 -0.6363  0.4939 -0.7036
 5438SOL    HW116772   1.183   0.941   4.435  1.3768  0.0110 -0.4327
 5438SOL    HW216773   1.155   1.023   4.559  0.9455  0.8267 -1.0499
 5439SOL     OW16774   0.481   3.746   1.228 -0.0364 -0.5664  0.4956
 5439SOL    HW116775   0.478   3.683   1.156 -2.0072  0.8728 -0.7837
 5439SOL    HW216776   0.571   3.780   1.226 -0.5592  0.9779 -2.7884
 5440SOL     OW16777   0.829   0.857   1.048 -0.4367  0.6565  0.1949
 5440SOL    HW116778   0.823   0.849   1.143  0.1756 -4.6004  0.1211
 5440SOL    HW216779   0.922   0.843   1.029 -0.8525 -0.5225 -1.1660
 5441SOL     OW16780   4.316   5.479   3.419  1.0045  0.0220  0.0066
 5441SOL    HW116781   4.268   5.397   3.435  0.3563  0.2967 -0.4763
 5441SOL    HW216782   4.394   5.451   3.369  0.0004 -0.1546 -1.5502
 5442SOL     OW16783   4.040   3.819   5.828  0.0638  0.7522 -0.0013
 5442SOL    HW116784   4.110   3.871   5.787  0.5652 -0.7855 -1.2062
 5442SOL    HW216785   4.080   3.781   5.906  0.2735  0.6562 -0.1556
 5443SOL     OW16786   3.556   1.669   3.475 -0.1597 -0.5919  0.2873
 5443SOL    HW116787   3.549   1.765   3.471  1.2721 -0.4959 -0.4966
 5443SOL    HW216788   3.512   1.645   3.557 -0.6439  0.7108  0.4349
 5444SOL     OW16789   6.152   0.993   1.729  0.2578  0.4769  0.0089
 5444SOL    HW116790   6.199   0.978   1.811  0.0704  1.1130  0.2402
 5444SOL    HW216791   6.205   1.058   1.683  1.3385 -1.1927 -1.2080
 5445SOL     OW16792   5.960   2.995   2.685 -0.1932  0.4577  0.3713
 5445SOL    HW116793   6.007   3.078   2.681 -1.3581  1.3227  2.6810
 5445SOL    HW216794   6.014   2.940   2.741  0.1342 -0.0574 -0.4347
 5446SOL     OW16795   3.209   5.921   0.951 -0.1733  0.1483 -0.3756
 5446SOL    HW116796   3.146   5.946   1.019  0.8327 -0.5406  0.8606
 5446SOL    HW216797   3.294   5.943   0.989  0.5330 -1.9038 -0.6483
 5447SOL     OW16798   4.755   5.146   3.878 -0.0095  0.4518 -0.5548
 5447SOL    HW116799   4.721   5.112   3.962  0.8248 -0.4327 -0.5554
 5447SOL    HW216800   4.683   5.134   3.817  0.0187 -0.7260 -0.3894
 5448SOL     OW16801   6.350   2.888   5.730 -0.0004  0.3155  0.0667
 5448SOL    HW116802   6.319   2.880   5.820 -1.2698  0.8581 -0.3016
 5448SOL    HW216803   6.419   2.822   5.723 -1.5242 -1.4404  0.7357
 5449SOL     OW16804   4.973   4.684   1.633 -0.8720 -0.0162  0.3654
 5449SOL    HW116805   4.950   4.690   1.541  1.6597  0.0507 -0.3502
 5449SOL    HW216806   4.913   4.745   1.677 -2.2818 -0.2416 -1.1799
 5450SOL     OW16807   2.105   0.823   3.473 -0.3877  0.3156  0.3894
 5450SOL    HW116808   2.137   0.882   3.404 -1.4780 -0.0721 -0.4811
 5450SOL    HW216809   2.070   0.748   3.425  0.7246 -0.9306  1.4769
 5451SOL     OW16810   2.806   3.956   2.435 -0.4757  0.2191  0.1672
 5451SOL    HW116811   2.900   3.964   2.421 -0.1033 -0.7577  1.7709
 5451SOL    HW216812   2.788   3.862   2.424 -0.8562  0.0630  1.8064
 5452SOL     OW16813   5.694   3.322   3.402 -0.5439 -0.6634  0.1763
 5452SOL    HW116814   5.690   3.227   3.400  1.3138 -0.7768 -0.7257
 5452SOL    HW216815   5.629   3.351   3.338 -0.5414 -1.3662 -0.1525
 5453SOL     OW16816   0.799   0.531   3.507 -0.0741  0.4500 -0.0452
 5453SOL    HW116817   0.841   0.457   3.464 -0.3556 -0.4083  1.1099
 5453SOL    HW216818   0.855   0.605   3.487  0.7328 -0.2502 -0.4379
 5454SOL     OW16819   3.365   3.596   4.888 -0.2613  0.1738 -0.1184
 5454SOL    HW116820   3.325   3.663   4.834  0.1652  0.4801 -0.0633
 5454SOL    HW216821   3.423   3.548   4.829  1.5610  1.6209  0.3855
 5455SOL     OW16822   0.220   2.204   3.969  0.0643  0.4583  0.2520
 5455SOL    HW116823   0.228   2.154   3.888  1.1810  0.0026  0.6189
 5455SOL    HW216824   0.138   2.252   3.960  0.0813  0.2691 -1.0621
 5456SOL     OW16825   1.528   3.075   6.188 -0.6761  0.2073  0.1914
 5456SOL    HW116826   1.482   3.006   6.141  0.8913 -1.8667  1.5166
 5456SOL    HW216827   1.491   3.073   6.276  0.4217 -0.0190  0.6678
 5457SOL     OW16828   1.017   2.426   0.372 -0.5243  0.2838  0.4675
 5457SOL    HW116829   1.104   2.456   0.396  0.5294 -2.1775  0.0030
 5457SOL    HW216830   1.011   2.441   0.278 -1.2152  1.7762  0.7185
 5458SOL     OW16831   3.860   6.131   2.321  0.1580  0.4537  0.2167
 5458SOL    HW116832   3.901   6.065   2.378  0.8779  1.7505  1.2427
 5458SOL    HW216833   3.771   6.099   2.308  0.3022 -0.4020  1.2011
 5459SOL     OW16834   2.666   6.340   4.129  0.1383  0.3697 -0.1746
 5459SOL    HW116835   2.646   6.400   4.058  2.1691  1.8370  0.3921
 5459SOL    HW216836   2.743   6.378   4.172  0.6239 -1.8751  1.1384
 5460SOL     OW16837   5.423   1.206   5.686 -0.1805  0.1772  0.0462
 5460SOL    HW116838   5.332   1.189   5.665  0.5842 -1.8547 -2.0694
 5460SOL    HW216839   5.472   1.167   5.613  2.3948  0.9295  1.2566
 5461SOL     OW16840   5.394   3.604   6.217 -0.7226  0.6205  0.0607
 5461SOL    HW116841   5.466   3.541   6.208 -1.0076  0.0311  1.5692
 5461SOL    HW216842   5.386   3.644   6.130  0.9430  0.1903 -0.3364
 5462SOL     OW16843   3.434   2.187   3.680 -0.2735 -0.2247 -0.1001
 5462SOL    HW116844   3.467   2.181   3.769  0.1574  1.5216 -0.1062
 5462SOL    HW216845   3.403   2.277   3.671 -0.0620 -0.2758 -1.7909
 5463SOL     OW16846   3.403   6.264   3.294  0.2450  0.3567 -0.2699
 5463SOL    HW116847   3.466   6.336   3.291  1.1883 -0.4609 -0.4825
 5463SOL    HW216848   3.318   6.307   3.285  0.7631  1.4689 -0.1219
 5464SOL     OW16849   0.301   3.130   3.160  0.0946  0.9444  0.6241
 5464SOL    HW116850   0.269   3.049   3.121 -2.7583  1.8361  0.8781
 5464SOL    HW216851   0.286   3.120   3.254 -1.4556  2.1519  0.5576
 5465SOL     OW16852   2.443   1.743   0.026 -0.3238 -0.3300 -0.7350
 5465SOL    HW116853   2.427   1.664   0.077  0.1139 -0.3679 -0.6507
 5465SOL    HW216854   2.384   1.737  -0.048  0.1453 -1.0376 -1.0556
 5466SOL     OW16855   4.530   1.781   0.639  0.0634 -0.3458 -0.2728
 5466SOL    HW116856   4.491   1.855   0.686 -0.8375 -1.1706  0.3240
 5466SOL    HW216857   4.532   1.711   0.703 -0.1116 -1.1655 -1.1480
 5467SOL     OW16858   3.585   3.739   4.067 -0.2945 -0.1278 -0.1347
 5467SOL    HW116859   3.579   3.645   4.049 -1.5515 -0.0049 -0.4512
 5467SOL    HW216860   3.536   3.751   4.148 -1.3533  0.4295 -0.8292
 5468SOL     OW16861   5.423   6.255   0.324 -0.1300 -0.0061 -0.0424
 5468SOL    HW116862   5.435   6.161   0.317 -1.1098 -0.2259  1.0020
 5468SOL    HW216863   5.330   6.266   0.345  0.0337  1.1686  0.1364
 5469SOL     OW16864   2.102   2.404   6.200  0.2924  0.3213 -0.6107
 5469SOL    HW116865   2.170   2.470   6.209  1.8254 -1.3010  0.6522
 5469SOL    HW216866   2.051   2.411   6.281 -0.1508  0.5886 -0.9100
 5470SOL     OW16867   2.372   5.117   1.931 -0.1455  0.8536  0.2639
 5470SOL    HW116868   2.378   5.033   1.978  0.5253  0.3253 -0.7138
 5470SOL    HW216869   2.339   5.179   1.996 -1.6915 -0.3887  0.7236
 5471SOL     OW16870   0.280   2.351   0.070 -0.2128 -0.0346  0.0470
 5471SOL    HW116871   0.340   2.276   0.065 -0.2119  0.0586 -1.6609
 5471SOL    HW216872   0.193   2.311   0.075 -0.1267 -0.1449  0.9588
 5472SOL     OW16873   0.611   0.187   6.111  0.2149  0.0446  0.0145
 5472SOL    HW116874   0.660   0.123   6.163 -0.8875 -1.0251 -0.2080
 5472SOL    HW216875   0.614   0.153   6.022  0.3936  0.7973 -0.2705
 5473SOL     OW16876   5.017   1.983   2.640 -0.4317 -0.2921 -0.1782
 5473SOL    HW116877   4.940   2.039   2.644 -0.4045 -0.3077  0.7147
 5473SOL    HW216878   5.083   2.036   2.595 -0.6156  0.1414  0.0579
 5474SOL     OW16879   6.341   4.505   1.541  0.3989 -0.0231  0.0706
 5474SOL    HW116880   6.334   4.572   1.609 -0.9603 -1.0208  0.9611
 5474SOL    HW216881   6.337   4.422   1.589 -3.1528 -0.8293 -1.3440
 5475SOL     OW16882   5.101   6.216   1.692 -0.3234  0.6252 -0.1800
 5475SOL    HW116883   5.122   6.256   1.608 -2.0961  0.3527 -0.7946
 5475SOL    HW216884   5.158   6.139   1.697  0.1695  0.9417 -0.8894
 5476SOL     OW16885   3.635   1.143   5.827  0.8190  0.5233 -0.4124
 5476SOL    HW116886   3.620   1.235   5.847 -0.5702  0.4595 -1.0186
 5476SOL    HW216887   3.660   1.142   5.734  1.7789  0.3541 -0.1643
 5477SOL     OW16888   1.243   5.620   2.446  0.1707 -0.3252 -0.5846
 5477SOL    HW116889   1.332   5.588   2.460  0.3457  0.2934 -0.2209
 5477SOL    HW216890   1.254   5.712   2.423 -0.3333 -0.4613 -1.3827
 5478SOL     OW16891   2.892   0.214   0.883  0.2807 -0.1165 -0.4082
 5478SOL    HW116892   2.973   0.246   0.845  0.5142 -1.4086 -1.0530
 5478SOL    HW216893   2.847   0.170   0.810 -0.9534  0.4739 -0.0394
 5479SOL     OW16894   5.975   4.076   5.635 -0.1932 -0.1834 -0.1188
 5479SOL    HW116895   5.980   4.094   5.729 -0.4195  0.3110 -0.2004
 5479SOL    HW216896   5.889   4.108   5.609  0.4332  1.0333 -0.7749
 5480SOL     OW16897   2.865   5.734   6.306 -0.5121  0.1044 -0.1615
 5480SOL    HW116898   2.885   5.748   6.214  0.0700  0.4656  0.0093
 5480SOL    HW216899   2.779   5.773   6.319  0.5198  2.5249  0.0165
 5481SOL     OW16900   1.215   1.999   1.412  0.2319 -0.4255 -0.2474
 5481SOL    HW116901   1.263   1.948   1.476 -0.0270  0.1637  0.4357
 5481SOL    HW216902   1.274   2.007   1.337  1.5900  1.0446  0.9132
 5482SOL     OW16903   5.368   1.416   3.974 -0.1879  0.1156 -0.1609
 5482SOL    HW116904   5.374   1.320   3.978  0.8301  0.0612 -1.8008
 5482SOL    HW216905   5.281   1.433   3.939 -0.4058 -0.1885  0.2132
 5483SOL     OW16906   3.636   4.647   1.594 -0.1748  0.3733 -0.2223
 5483SOL    HW116907   3.665   4.738   1.584  0.0232  0.5353  1.4978
 5483SOL    HW216908   3.546   4.654   1.627  0.3386 -0.0032  1.3256
 5484SOL     OW16909   6.045   1.799   6.153 -0.3875 -0.0865  0.1274
 5484SOL    HW116910   5.996   1.879   6.174 -1.0471 -0.0220 -1.5230
 5484SOL    HW216911   6.009   1.770   6.069 -0.1607 -2.1389  0.6918
 5485SOL     OW16912   3.039   6.093   0.330 -0.0342 -0.2961  0.2812
 5485SOL    HW116913   3.118   6.135   0.364  0.3400 -1.2319  0.6201
 5485SOL    HW216914   3.026   6.018   0.388 -0.9124 -0.4093 -0.0533
 5486SOL     OW16915   3.483   1.226   5.536 -0.2291 -0.0105 -0.3412
 5486SOL    HW116916   3.439   1.180   5.608 -0.6796 -0.3423 -0.8262
 5486SOL    HW216917   3.513   1.309   5.576 -0.1700 -0.3374  0.3125
 5487SOL     OW16918   4.540   5.362   5.161  0.3167  0.0217 -0.3953
 5487SOL    HW116919   4.601   5.388   5.093  0.2688 -0.9740 -0.8383
 5487SOL    HW216920   4.456   5.352   5.116  0.1454 -0.0088 -0.0706
 5488SOL     OW16921   6.363   5.062   4.555  0.4145 -0.8301  0.0467
 5488SOL    HW116922   6.420   5.136   4.532  0.5499 -1.1125 -0.5364
 5488SOL    HW216923   6.343   5.076   4.647 -0.2559  0.4156 -0.2522
 5489SOL     OW16924   5.712   6.155   0.247  0.4587  0.0342  0.0102
 5489SOL    HW116925   5.629   6.109   0.260  0.3967  0.5925  2.0983
 5489SOL    HW216926   5.758   6.145   0.330  2.3822 -0.0009 -1.0030
 5490SOL     OW16927   1.600   1.729   0.101  0.0561  0.4530  0.2989
 5490SOL    HW116928   1.564   1.654   0.148  0.0528  0.4643  0.3145
 5490SOL    HW216929   1.542   1.802   0.124  0.7154  0.7131  1.1794
 5491SOL     OW16930   4.148   5.931   5.649  0.1565  0.5302 -0.0399
 5491SOL    HW116931   4.217   5.880   5.607  0.1803 -0.2325  0.8710
 5491SOL    HW216932   4.101   5.867   5.703 -0.0483  1.4042  0.8517
 5492SOL     OW16933   5.821   0.927   5.928 -0.4758 -0.3565 -0.3395
 5492SOL    HW116934   5.754   0.870   5.965  0.0496  0.0602  1.3227
 5492SOL    HW216935   5.814   1.008   5.979  1.3796 -0.3577 -0.0274
 5493SOL     OW16936   3.308   2.696   5.642 -0.3353  0.0815  0.2911
 5493SOL    HW116937   3.233   2.660   5.595  0.6567 -0.6823 -0.7699
 5493SOL    HW216938   3.274   2.720   5.728 -2.0616  0.8927 -0.5822
 5494SOL     OW16939   3.424   5.358   0.648  0.0175 -0.6062  0.2472
 5494SOL    HW116940   3.349   5.417   0.645  0.3211 -0.2224  0.0931
 5494SOL    HW216941   3.477   5.383   0.572  0.8582 -0.1260  0.9783
 5495SOL     OW16942   0.418   5.772   5.607 -0.1173  0.6225  0.0238
 5495SOL    HW116943   0.482   5.745   5.672 -1.0159 -1.5901  0.0752
 5495SOL    HW216944   0.470   5.794   5.530  0.8479  1.7683  0.9601
 5496SOL     OW16945   2.522   0.371   5.349 -0.1186 -0.0756  0.6522
 5496SOL    HW116946   2.570   0.387   5.431  1.8332  1.1171 -0.6266
 5496SOL    HW216947   2.509   0.458   5.312 -2.3491 -0.4772  0.3802
 5497SOL     OW16948   1.145   6.299   6.155 -0.3274 -0.4748 -0.1869
 5497SOL    HW116949   1.128   6.296   6.249 -2.6347  2.3707 -0.3536
 5497SOL    HW216950   1.128   6.210   6.124  1.0502 -1.6240  2.0820
 5498SOL     OW16951   5.736   0.419   0.340  0.3296  0.1006 -0.4103
 5498SOL    HW116952   5.773   0.497   0.299 -0.6572  0.4237 -0.7038
 5498SOL    HW216953   5.669   0.452   0.399  0.7974 -0.4546  0.4497
 5499SOL     OW16954   6.334   0.830   2.457  0.0677  0.2981 -0.0786
 5499SOL    HW116955   6.368   0.901   2.512 -1.4064  0.6705  0.4000
 5499SOL    HW216956   6.246   0.859   2.432 -1.6387 -2.4144  2.2160
 5500SOL     OW16957   3.124   5.830   3.335  0.4562  0.2110  0.1691
 5500SOL    HW116958   3.145   5.818   3.242  0.1473 -1.4073  0.2789
 5500SOL    HW216959   3.174   5.762   3.380 -1.5414 -0.8817  0.8677
 5501SOL     OW16960   1.572   4.490   2.757  0.1878 -0.5834  0.2098
 5501SOL    HW116961   1.534   4.527   2.677  0.6237 -0.8770 -0.1350
 5501SOL    HW216962   1.547   4.398   2.755  1.9678 -1.0814 -0.6702
 5502SOL     OW16963   1.738   0.372   5.482 -0.0063 -0.6035 -0.0030
 5502SOL    HW116964   1.741   0.277   5.476  0.1025 -0.4935 -2.7244
 5502SOL    HW216965   1.683   0.399   5.409  0.0041  1.4471  0.6802
 5503SOL     OW16966   5.832   2.341   6.165  0.3101 -0.6868  0.0578
 5503SOL    HW116967   5.909   2.300   6.205  0.2610 -1.2505 -0.4195
 5503SOL    HW216968   5.766   2.340   6.234  0.6665 -0.3739  0.4103
 5504SOL     OW16969   5.137   3.299   5.516 -0.3514 -0.4621 -0.5123
 5504SOL    HW116970   5.072   3.369   5.524 -0.2751 -0.5729  1.6366
 5504SOL    HW216971   5.105   3.231   5.575  0.9098 -1.1674 -0.6209
 5505SOL     OW16972   0.400   6.050   4.497  0.2707 -0.2760 -0.0052
 5505SOL    HW116973   0.431   6.057   4.407 -0.6719 -0.7898 -0.3902
 5505SOL    HW216974   0.401   5.956   4.515  1.7767 -0.0850  1.0196
 5506SOL     OW16975   4.665   3.451   4.921 -0.0585  0.1687  0.5790
 5506SOL    HW116976   4.760   3.443   4.921 -0.0750 -0.2885 -0.6748
 5506SOL    HW216977   4.647   3.535   4.964  1.0582  1.6712 -1.7282
 5507SOL     OW16978   5.949   6.338   0.216 -0.3551  0.2047  0.2641
 5507SOL    HW116979   5.945   6.431   0.196  0.1049 -0.0375 -1.0655
 5507SOL    HW216980   5.863   6.304   0.191  0.5928 -0.3121 -2.7154
 5508SOL     OW16981   4.487   4.632   3.264 -0.5325  0.8697  0.1954
 5508SOL    HW116982   4.490   4.632   3.360  1.1057 -1.8171  0.2239
 5508SOL    HW216983   4.568   4.675   3.237 -0.2169  0.1762  0.0345
 5509SOL     OW16984   3.485   2.490   1.948 -0.0956  0.9801  0.0898
 5509SOL    HW116985   3.518   2.466   2.035  1.7643  1.6891 -0.3804
 5509SOL    HW216986   3.396   2.522   1.964  0.2295  1.1302  1.7277
 5510SOL     OW16987   2.415   0.384   0.665  0.1323  0.3787 -0.4169
 5510SOL    HW116988   2.504   0.416   0.675 -0.1296  0.9112  0.3047
 5510SOL    HW216989   2.378   0.389   0.753 -0.4015 -0.4787 -0.5748
 5511SOL     OW16990   6.260   1.062   5.491  1.0775  0.1852  0.6887
 5511SOL    HW116991   6.177   1.016   5.477  0.8358  1.0248 -0.9526
 5511SOL    HW216992   6.247   1.148   5.450  2.1453  1.0247  2.0429
 5512SOL     OW16993   3.465   4.983   4.269 -0.1159 -0.0797 -0.1745
 5512SOL    HW116994   3.414   4.980   4.350 -0.9816  1.2366 -0.6316
 5512SOL    HW216995   3.400   5.001   4.201  0.8515  0.9551 -0.8656
 5513SOL     OW16996   4.513   2.189   0.338  0.3917 -0.0264 -0.3290
 5513SOL    HW116997   4.464   2.117   0.380  0.3304  0.3462  0.2533
 5513SOL    HW216998   4.543   2.152   0.255 -0.0314 -0.5822 -0.2454
 5514SOL     OW16999   3.650   5.969   3.233  0.3055  0.0486 -0.2915
 5514SOL    HW117000   3.556   5.977   3.218  0.4098  0.8791 -0.5467
 5514SOL    HW217001   3.689   6.027   3.168  1.0220 -0.6902 -0.5341
 5515SOL     OW17002   4.121   2.415   0.416  0.4050 -0.0286  0.5640
 5515SOL    HW117003   4.206   2.404   0.374  0.3735 -0.1329  0.5258
 5515SOL    HW217004   4.124   2.502   0.456 -0.6984  1.4816 -2.3190
 5516SOL     OW17005   2.836   3.770   5.738  0.6521  0.0367 -0.1218
 5516SOL    HW117006   2.871   3.712   5.806  1.2057  1.2278  0.6415
 5516SOL    HW217007   2.812   3.850   5.785  0.3405  0.6075 -1.2285
 5517SOL     OW17008   4.266   0.496   4.916  0.4171  0.0477 -0.3814
 5517SOL    HW117009   4.234   0.422   4.864 -0.5121 -1.5044  2.2323
 5517SOL    HW217010   4.284   0.564   4.851 -1.4817 -1.4463 -2.6554
 5518SOL     OW17011   2.541   3.279   3.788 -0.2396  0.1483 -0.0045
 5518SOL    HW117012   2.628   3.252   3.820  0.1273  0.6912 -0.5224
 5518SOL    HW217013   2.494   3.197   3.776  1.6689 -0.5971 -3.9070
 5519SOL     OW17014   2.461   0.481   5.963  0.3044  0.2453  0.4007
 5519SOL    HW117015   2.453   0.386   5.961 -0.5809  0.3222 -0.9761
 5519SOL    HW217016   2.410   0.511   5.888  2.2944  1.6939 -0.4574
 5520SOL     OW17017   2.524   2.426   0.588  0.1924  0.2343  0.2544
 5520SOL    HW117018   2.585   2.367   0.545  0.7674  0.2717  0.9939
 5520SOL    HW217019   2.579   2.495   0.625 -0.4425  1.1181 -0.3877
 5521SOL     OW17020   2.456   0.038   1.666  0.1606 -0.1650  0.1873
 5521SOL    HW117021   2.442   0.132   1.671 -1.7072 -0.2111 -2.1448
 5521SOL    HW217022   2.549   0.026   1.685  0.7608  2.3141 -0.7950
 5522SOL     OW17023   1.241   5.258   2.761 -0.2462 -0.1919 -0.1819
 5522SOL    HW117024   1.189   5.292   2.834  2.6373  1.7427  1.1456
 5522SOL    HW217025   1.299   5.194   2.800  1.5002  1.0361 -0.6571
 5523SOL     OW17026   3.475   3.502   4.020 -0.0598  0.6019 -0.2397
 5523SOL    HW117027   3.543   3.511   3.954 -0.2827  1.8781 -0.3253
 5523SOL    HW217028   3.453   3.409   4.020  2.5298 -0.0930  0.6533
 5524SOL     OW17029   1.370   5.403   0.210  0.2521 -0.4297  0.5925
 5524SOL    HW117030   1.346   5.495   0.215  0.0409 -0.5486  2.3129
 5524SOL    HW217031   1.290   5.355   0.233  0.3140 -1.0604 -0.4369
 5525SOL     OW17032   3.337   5.793   1.444 -0.3072  0.0904  0.1369
 5525SOL    HW117033   3.396   5.855   1.400 -1.0871  0.9771  0.3203
 5525SOL    HW217034   3.336   5.716   1.386  0.1747  0.4902 -0.4214
 5526SOL     OW17035   6.224   5.703   1.222  0.1617  0.0907  0.1985
 5526SOL    HW117036   6.227   5.719   1.128 -0.5241  1.4959  0.3789
 5526SOL    HW217037   6.137   5.734   1.249  0.1169 -0.8509  1.1997
 5527SOL     OW17038   0.076   4.912   4.999  0.1206 -0.1456 -0.5171
 5527SOL    HW117039   0.123   4.942   5.077  0.4292 -0.5400 -0.5498
 5527SOL    HW217040  -0.017   4.928   5.019 -0.0603 -2.4883  0.9537
 5528SOL     OW17041   1.873   1.542   1.163 -0.3729  0.0494 -0.2278
 5528SOL    HW117042   1.938   1.472   1.167  0.2015  0.5048 -1.2940
 5528SOL    HW217043   1.873   1.570   1.072 -3.1950 -0.9839 -0.6608
 5529SOL     OW17044   0.669   1.515   6.135  0.3948  0.2933  0.5775
 5529SOL    HW117045   0.582   1.486   6.108  0.3176 -2.2219  3.1070
 5529SOL    HW217046   0.727   1.488   6.064 -0.6587  0.6606 -0.4592
 5530SOL     OW17047   2.672   1.839   3.550  0.2049 -0.3377  0.2310
 5530SOL    HW117048   2.631   1.762   3.590 -1.4484  0.1094 -0.5632
 5530SOL    HW217049   2.752   1.852   3.601 -0.9411 -0.8483  2.2669
 5531SOL     OW17050   1.179   3.960   4.282  0.4403 -0.0835  0.1101
 5531SOL    HW117051   1.111   3.909   4.237 -0.9623 -0.3063  2.3319
 5531SOL    HW217052   1.223   3.896   4.338  0.0370  0.7202  1.3845
 5532SOL     OW17053   4.881   1.024   5.792  0.2671 -0.0422 -0.4920
 5532SOL    HW117054   4.873   0.934   5.824 -3.9002 -0.0313 -1.0712
 5532SOL    HW217055   4.895   1.015   5.698 -0.7719 -0.1105 -0.6460
 5533SOL     OW17056   6.312   5.816   3.783 -0.2686 -0.4325 -0.0383
 5533SOL    HW117057   6.234   5.820   3.839 -1.1914  0.3281 -1.3171
 5533SOL    HW217058   6.385   5.801   3.844 -1.4340 -1.5152  1.1505
 5534SOL     OW17059   2.246   5.119   1.296  0.3701 -0.3136 -0.0617
 5534SOL    HW117060   2.197   5.051   1.250  0.0745  0.0707 -0.3262
 5534SOL    HW217061   2.330   5.124   1.250 -0.3392  0.8362 -1.2905
 5535SOL     OW17062   6.378   1.938   2.699  0.1252 -0.0901  0.3081
 5535SOL    HW117063   6.381   1.953   2.604  1.3298  0.3809  0.4065
 5535SOL    HW217064   6.315   1.866   2.710 -3.1015  2.3599 -0.5078
 5536SOL     OW17065   1.577   2.039   3.385  0.7820  0.2510 -0.3319
 5536SOL    HW117066   1.637   2.112   3.401  2.3075 -1.2940  1.7198
 5536SOL    HW217067   1.608   2.000   3.304  2.1704 -0.0881  0.3242
 5537SOL     OW17068   6.376   1.697   2.097  0.8150  0.0958  0.2389
 5537SOL    HW117069   6.304   1.722   2.154  2.0310  2.3924  0.9102
 5537SOL    HW217070   6.338   1.699   2.009 -0.2001  0.2065  0.6660
 5538SOL     OW17071   1.271   3.251   1.268  0.0740  0.4592 -0.2926
 5538SOL    HW117072   1.263   3.345   1.283 -0.3309  0.5933 -1.2892
 5538SOL    HW217073   1.344   3.224   1.324  0.6178  1.4885 -0.4832
 5539SOL     OW17074   5.984   2.862   0.612  0.4666  0.2498  0.1773
 5539SOL    HW117075   6.026   2.855   0.526 -0.7288  1.9088 -0.5920
 5539SOL    HW217076   5.974   2.956   0.626 -2.6850 -0.0303  0.4160
 5540SOL     OW17077   6.095   0.021   5.925  0.0522 -0.1823 -0.0829
 5540SOL    HW117078   6.048   0.073   5.989 -1.9785 -1.2859 -0.5750
 5540SOL    HW217079   6.104  -0.065   5.966 -0.4107 -0.6178 -0.8631
 5541SOL     OW17080   1.636   2.512   0.952 -0.2673 -0.3678  0.3230
 5541SOL    HW117081   1.593   2.427   0.952 -1.1675 -0.0184 -2.3286
 5541SOL    HW217082   1.729   2.492   0.941 -0.1425 -1.0244  2.2305
 5542SOL     OW17083   4.406   5.330   2.897  0.5497 -0.6672 -0.4551
 5542SOL    HW117084   4.323   5.283   2.910 -0.4544  0.6189 -1.9699
 5542SOL    HW217085   4.418   5.379   2.978 -0.9404  0.2586 -0.7718
 5543SOL     OW17086   2.228   4.127   0.923 -0.4695 -0.3003 -0.0683
 5543SOL    HW117087   2.279   4.053   0.891 -2.0002 -1.0813 -0.7843
 5543SOL    HW217088   2.248   4.131   1.016  2.5806  0.8127 -0.6488
 5544SOL     OW17089   4.725   3.575   0.023  0.2245 -0.3212  0.2654
 5544SOL    HW117090   4.676   3.544   0.100 -1.5724  0.3017 -0.5851
 5544SOL    HW217091   4.776   3.649   0.056 -2.1313  1.2978  0.4749
 5545SOL     OW17092   2.451   3.196   0.729  0.1678  0.0261 -0.4219
 5545SOL    HW117093   2.482   3.205   0.639 -0.2972 -0.0290 -0.5914
 5545SOL    HW217094   2.377   3.137   0.724  0.7765 -0.8141  0.1529
 5546SOL     OW17095   1.352   4.210   3.515  0.0781  0.7011 -0.1278
 5546SOL    HW117096   1.394   4.125   3.527  0.0599  0.7555  0.3343
 5546SOL    HW217097   1.268   4.202   3.560  0.2433  1.0908  0.2597
 5547SOL     OW17098   0.535   0.292   3.749  0.1186  0.0629  0.2505
 5547SOL    HW117099   0.450   0.251   3.767  1.0052 -2.2802 -0.5511
 5547SOL    HW217100   0.558   0.336   3.831 -1.1816 -0.5294  0.9694
 5548SOL     OW17101   3.259   1.993   1.161  0.6750  0.6426 -0.0623
 5548SOL    HW117102   3.301   1.958   1.082  0.5959  1.8785 -0.6834
 5548SOL    HW217103   3.279   2.087   1.159  1.5529  0.5558  1.9511
 5549SOL     OW17104   3.246   3.924   0.056 -1.0766 -0.0914  0.3341
 5549SOL    HW117105   3.338   3.900   0.062 -0.8304  0.8971  0.6108
 5549SOL    HW217106   3.222   3.904  -0.035 -0.7170 -0.7811  0.3864
 5550SOL     OW17107   3.369   4.389   1.861  0.5555  0.4869 -0.7655
 5550SOL    HW117108   3.456   4.349   1.854  0.6499  0.0752  1.7643
 5550SOL    HW217109   3.318   4.326   1.912 -0.3943  1.9351  0.1495
 5551SOL     OW17110   3.107   5.809   1.280 -0.0736 -0.0627  0.3278
 5551SOL    HW117111   3.171   5.752   1.323 -0.3214 -0.2887  0.3955
 5551SOL    HW217112   3.097   5.771   1.192 -3.1626 -2.5284  1.5500
 5552SOL     OW17113   4.400   3.869   5.285  0.2519 -0.0810 -0.0488
 5552SOL    HW117114   4.451   3.819   5.222  1.0374  1.0189 -0.3013
 5552SOL    HW217115   4.339   3.920   5.232 -1.9427 -2.1783  0.2836
 5553SOL     OW17116   2.624   6.079   4.595 -0.6356 -0.0965  0.4520
 5553SOL    HW117117   2.642   6.043   4.682  0.1152 -0.9862 -0.0464
 5553SOL    HW217118   2.597   6.169   4.611  1.5463  0.4288  1.4838
 5554SOL     OW17119   3.325   1.490   5.565  0.3547 -0.4631  0.2549
 5554SOL    HW117120   3.395   1.525   5.510  1.0413 -1.8016  0.2445
 5554SOL    HW217121   3.362   1.485   5.653 -0.2051  0.1320  0.5385
 5555SOL     OW17122   6.159   5.552   3.183  0.1315 -0.0420  0.4858
 5555SOL    HW117123   6.140   5.547   3.090 -0.5174 -1.8426  0.6907
 5555SOL    HW217124   6.101   5.488   3.224  0.8507  0.2543  2.0611
 5556SOL     OW17125   2.706   5.518   5.819  0.2035  0.3951  0.0531
 5556SOL    HW117126   2.632   5.486   5.870  1.6823 -0.0277  2.0440
 5556SOL    HW217127   2.746   5.438   5.783  0.4098  0.5202  0.0052
 5557SOL     OW17128   0.504   3.306   4.092  0.9495  0.2113 -0.2814
 5557SOL    HW117129   0.560   3.249   4.145 -0.3299 -0.7216  0.1193
 5557SOL    HW217130   0.565   3.359   4.041  2.1883 -0.9357 -0.0458
 5558SOL     OW17131   2.190   5.947   5.806 -0.1457 -0.2992 -0.8179
 5558SOL    HW117132   2.108   5.989   5.833  0.8508  0.9218  0.4701
 5558SOL    HW217133   2.225   6.005   5.738  1.5202  1.4663  1.3612
 5559SOL     OW17134   1.062   3.252   6.094 -0.3098 -0.2023 -0.1590
 5559SOL    HW117135   0.993   3.188   6.113 -1.6807  1.4283  0.5654
 5559SOL    HW217136   1.047   3.276   6.002 -1.2865  0.7630  0.2275
 5560SOL     OW17137   6.288   3.576   2.216  0.1307 -0.6697  0.0804
 5560SOL    HW117138   6.378   3.550   2.196 -0.8448 -2.2870 -2.7654
 5560SOL    HW217139   6.245   3.583   2.131 -2.1034  1.5428  1.2636
 5561SOL     OW17140   0.658   3.910   0.994 -0.1470  0.3353  0.7543
 5561SOL    HW117141   0.583   3.968   1.008 -0.6653 -0.2135  0.2503
 5561SOL    HW217142   0.631   3.852   0.924  1.0775  0.6951 -0.0466
 5562SOL     OW17143   2.179   4.920   0.968  0.0261 -0.2505 -0.0863
 5562SOL    HW117144   2.167   4.904   0.875 -0.3131  1.5386 -0.3876
 5562SOL    HW217145   2.092   4.945   1.000  0.4451  0.7289  0.3426
 5563SOL     OW17146   5.544   2.989   1.639 -0.1874  0.0346  0.3685
 5563SOL    HW117147   5.507   3.059   1.587  0.7540 -0.6308 -1.2778
 5563SOL    HW217148   5.517   2.909   1.594  1.6177 -0.5174  0.1930
 5564SOL     OW17149   6.210   4.068   0.004  0.0162 -0.1029  0.0084
 5564SOL    HW117150   6.201   4.157   0.038  1.9113 -0.5067  1.8135
 5564SOL    HW217151   6.302   4.062  -0.024  0.0066 -1.5438  0.1702
 5565SOL     OW17152   2.281   3.951   5.336 -0.1219  0.0264  0.0477
 5565SOL    HW117153   2.358   3.922   5.287  0.5399  1.5040  0.1503
 5565SOL    HW217154   2.258   3.876   5.391  1.5009 -0.3177  0.3042
 5566SOL     OW17155   6.378   4.268   1.733  0.4641  0.0500 -0.8833
 5566SOL    HW117156   6.302   4.232   1.780  1.7343 -0.7631  0.6678
 5566SOL    HW217157   6.417   4.329   1.795  2.0500 -0.8476 -0.9497
 5567SOL     OW17158   3.325   4.986   2.178 -0.0349  0.4264 -0.0443
 5567SOL    HW117159   3.238   4.946   2.180  0.0924 -0.0940 -2.1573
 5567SOL    HW217160   3.385   4.915   2.197  0.1599 -0.4581 -3.3336
 5568SOL     OW17161   2.340   3.875   0.833  0.3400 -0.4334  0.3190
 5568SOL    HW117162   2.308   3.861   0.744 -0.1548  1.0064  0.2456
 5568SOL    HW217163   2.427   3.834   0.834 -0.0522 -1.3205 -0.5190
 5569SOL     OW17164   1.187   1.820   1.686 -0.5837 -0.1797 -0.5569
 5569SOL    HW117165   1.269   1.771   1.672 -0.0511  0.4889  0.1317
 5569SOL    HW217166   1.215   1.904   1.722 -1.6228 -0.3806  0.8431
 5570SOL     OW17167   3.950   0.916   3.726  0.4896  0.2288  0.3954
 5570SOL    HW117168   3.863   0.906   3.765  0.2198 -0.6231 -0.4033
 5570SOL    HW217169   4.001   0.843   3.761  0.2264 -0.5842 -0.8581
 5571SOL     OW17170   5.228   3.641   5.329  0.3875 -0.3656 -0.0401
 5571SOL    HW117171   5.169   3.638   5.405 -1.9337 -0.7129 -1.7406
 5571SOL    HW217172   5.225   3.733   5.301 -0.7362 -0.7103 -1.1169
 5572SOL     OW17173   6.187   3.283   5.482  0.5163 -0.2285  0.3228
 5572SOL    HW117174   6.279   3.279   5.510  0.6491 -1.2530 -0.2133
 5572SOL    HW217175   6.186   3.240   5.396 -0.3338  0.5056 -0.0568
 5573SOL     OW17176   1.124   4.807   0.483  0.3218 -0.5513  0.5932
 5573SOL    HW117177   1.034   4.804   0.516  1.1736  1.4423  3.4708
 5573SOL    HW217178   1.165   4.729   0.519 -0.1673 -1.3597 -0.5578
 5574SOL     OW17179   5.061   4.200   3.519 -0.8089 -0.4619 -0.0646
 5574SOL    HW117180   5.106   4.139   3.460 -0.9086 -1.7628  1.1343
 5574SOL    HW217181   4.970   4.169   3.521 -1.2966  0.8596 -0.8432
 5575SOL     OW17182   5.594   2.905   3.891 -0.4630 -0.1582  0.3146
 5575SOL    HW117183   5.517   2.931   3.841 -0.8380 -0.2075  0.8506
 5575SOL    HW217184   5.640   2.843   3.835 -2.4380 -2.5348  1.1750
 5576SOL     OW17185   1.922   1.029   4.981  0.3152  0.2260  0.4203
 5576SOL    HW117186   1.857   0.974   5.026  0.1929  1.7497  2.2034
 5576SOL    HW217187   1.996   0.970   4.967 -0.3643 -0.8025  0.9210
 5577SOL     OW17188   4.869   0.768   1.686 -0.8380  0.2766  0.4382
 5577SOL    HW117189   4.877   0.826   1.762  0.0559 -0.0617  0.6166
 5577SOL    HW217190   4.951   0.719   1.684 -1.1068 -0.1709 -0.3831
 5578SOL     OW17191   1.070   1.445   2.420  0.1167 -0.2012  0.2431
 5578SOL    HW117192   1.025   1.370   2.459 -0.3576  0.6874  1.4473
 5578SOL    HW217193   1.071   1.426   2.326 -0.1422 -1.6262  0.5053
 5579SOL     OW17194   6.190   5.752   5.265 -0.1346  0.3586  0.4523
 5579SOL    HW117195   6.203   5.844   5.244 -0.8898  1.0435  2.6653
 5579SOL    HW217196   6.276   5.712   5.253 -0.1503  0.9257 -2.1614
 5580SOL     OW17197   3.534   2.487   5.573  0.1614  0.4293 -0.0386
 5580SOL    HW117198   3.480   2.520   5.645  0.6698 -1.4237  1.2581
 5580SOL    HW217199   3.488   2.514   5.493 -2.4948 -0.8014  0.9989
 5581SOL     OW17200   1.754   4.513   1.677 -0.9136 -0.3918  0.4579
 5581SOL    HW117201   1.712   4.467   1.750 -0.4925  0.9727  1.5997
 5581SOL    HW217202   1.801   4.585   1.718 -0.0523 -0.0195 -1.1094
 5582SOL     OW17203   3.282   2.290   2.635  0.2756  0.1793  0.5403
 5582SOL    HW117204   3.222   2.353   2.597 -0.0831 -0.0494  0.7261
 5582SOL    HW217205   3.340   2.343   2.690  1.0306  0.5565 -0.5880
 5583SOL     OW17206   2.094   0.162   3.080  0.0172  0.2391  0.0568
 5583SOL    HW117207   2.074   0.075   3.117  2.2643 -0.9026 -1.1794
 5583SOL    HW217208   2.190   0.166   3.081  0.0463  1.6271 -2.2756
 5584SOL     OW17209   2.228   0.151   0.894 -0.3394  0.2914  0.4521
 5584SOL    HW117210   2.175   0.081   0.855  1.8774  0.4764 -3.3849
 5584SOL    HW217211   2.172   0.229   0.890 -1.1040 -0.2703  0.0514
 5585SOL     OW17212   4.844   0.678   3.021 -0.1629 -0.4058  0.4531
 5585SOL    HW117213   4.902   0.621   2.972  2.4055  1.9541  0.5217
 5585SOL    HW217214   4.902   0.731   3.076 -2.3906  1.8320  0.8361
 5586SOL     OW17215   3.382   1.593   3.686 -0.6959 -0.3729  0.2320
 5586SOL    HW117216   3.376   1.570   3.779 -0.4294 -2.8963 -0.3085
 5586SOL    HW217217   3.314   1.540   3.644 -1.0625  1.0015 -1.0104
 5587SOL     OW17218   0.156   4.726   3.064  0.1535  0.3534 -0.2308
 5587SOL    HW117219   0.109   4.689   2.989 -0.8101  0.2318  0.4191
 5587SOL    HW217220   0.210   4.795   3.027  0.8248 -0.6845 -1.2539
 5588SOL     OW17221   3.944   6.157   0.204 -0.4849  0.8280 -0.3186
 5588SOL    HW117222   3.959   6.081   0.149  1.1045  0.9678 -0.1252
 5588SOL    HW217223   3.855   6.146   0.238 -0.0779 -1.2576  0.1837
 5589SOL     OW17224   3.270   4.254   4.111 -0.0382  0.6936  0.0745
 5589SOL    HW117225   3.349   4.284   4.155  0.6056  0.6597 -1.0284
 5589SOL    HW217226   3.300   4.193   4.044 -0.5230  3.3291 -2.8312
 5590SOL     OW17227   5.272   4.775   4.467 -0.5769 -0.3336  0.4297
 5590SOL    HW117228   5.205   4.719   4.507 -1.7284  1.2643  0.8804
 5590SOL    HW217229   5.302   4.831   4.539 -0.2609  0.3599 -0.2292
 5591SOL     OW17230   4.916   5.666   4.749 -0.4562  0.1515  0.2152
 5591SOL    HW117231   4.821   5.656   4.742 -0.3377 -0.9702 -0.0300
 5591SOL    HW217232   4.934   5.665   4.843 -0.5116 -1.8507  0.2505
 5592SOL     OW17233   3.663   1.347   0.502 -0.7818 -0.6503 -0.5452
 5592SOL    HW117234   3.644   1.319   0.412 -0.9199 -0.7959 -0.4716
 5592SOL    HW217235   3.635   1.273   0.556 -2.5157  0.1768 -0.2319
 5593SOL     OW17236   2.168   0.764   6.312  0.7656  0.2206  0.2799
 5593SOL    HW117237   2.100   0.708   6.273  1.0723 -0.6128  0.9169
 5593SOL    HW217238   2.186   0.829   6.244 -0.7647  0.5568  0.1413
 5594SOL     OW17239   2.230   6.091   3.668  0.8704  0.2357 -0.0676
 5594SOL    HW117240   2.299   6.026   3.681 -0.2930 -0.9457  0.4346
 5594SOL    HW217241   2.204   6.116   3.756 -0.9721 -1.1594 -0.1613
 5595SOL     OW17242   0.138   0.548   4.891  0.1377 -0.3046 -0.4292
 5595SOL    HW117243   0.125   0.455   4.909 -0.0736 -0.2218 -0.1569
 5595SOL    HW217244   0.092   0.593   4.961  1.8593 -0.0116  0.5835
 5596SOL     OW17245   1.345   3.599   4.723 -0.3454 -0.2343  0.3966
 5596SOL    HW117246   1.427   3.582   4.770  0.7398 -0.8153 -1.5726
 5596SOL    HW217247   1.358   3.559   4.637 -1.8960  1.4633 -0.7034
 5597SOL     OW17248   1.388   4.595   6.094 -0.4508  0.2591 -0.8101
 5597SOL    HW117249   1.301   4.617   6.128  0.7232  1.8235  1.3875
 5597SOL    HW217250   1.426   4.539   6.161  1.1833  1.7484 -0.4305
 5598SOL     OW17251   2.569   0.537   1.760  0.1632 -0.5972  0.0200
 5598SOL    HW117252   2.619   0.573   1.687  0.0563 -2.0311 -0.7986
 5598SOL    HW217253   2.560   0.444   1.739 -1.8969 -0.5938  0.6933
 5599SOL     OW17254   2.447   3.472   1.537  0.2759  0.2756  0.3127
 5599SOL    HW117255   2.518   3.409   1.546  0.3434 -0.0018 -1.7248
 5599SOL    HW217256   2.369   3.427   1.570  0.7967  0.1347  1.3856
 5600SOL     OW17257   2.121   4.611   4.365 -0.5860  0.4352 -0.1428
 5600SOL    HW117258   2.165   4.528   4.347  0.0608  1.0602 -1.6240
 5600SOL    HW217259   2.157   4.640   4.449  1.4714  0.6698 -1.0565
 5601SOL     OW17260   0.934   0.830   2.414 -0.0999 -0.3741  0.2122
 5601SOL    HW117261   0.980   0.807   2.334  1.2191  0.2787  0.7556
 5601SOL    HW217262   1.002   0.865   2.472 -1.3544  1.1452  0.8350
 5602SOL     OW17263   4.103   5.229   1.413  0.3927  0.4074 -0.4639
 5602SOL    HW117264   4.072   5.159   1.356 -2.0494  1.4523 -0.5238
 5602SOL    HW217265   4.073   5.203   1.500  1.8227  0.1258 -0.0154
 5603SOL     OW17266   4.554   2.164   1.875  0.0789  0.5302 -0.0207
 5603SOL    HW117267   4.567   2.253   1.907 -1.3615  0.1830  1.6603
 5603SOL    HW217268   4.636   2.119   1.896  0.5205  1.2444 -0.1700
 5604SOL     OW17269   1.732   4.303   4.834  0.1355 -0.1981 -0.3155
 5604SOL    HW117270   1.733   4.212   4.804  1.5096 -0.4839  0.5035
 5604SOL    HW217271   1.808   4.343   4.791  0.9364 -0.0818  1.1342
 5605SOL     OW17272   4.123   3.779   5.015 -0.8126 -0.4190  0.4847
 5605SOL    HW117273   4.075   3.810   4.938 -0.6115  0.3004  0.6430
 5605SOL    HW217274   4.164   3.857   5.052  0.6546 -1.0341  0.2422
 5606SOL     OW17275   0.785   4.049   3.275  0.0363  0.1372  0.4813
 5606SOL    HW117276   0.845   3.975   3.289  0.3101  0.2759  0.0601
 5606SOL    HW217277   0.798   4.073   3.183  0.6312  1.3092  0.8447
 5607SOL     OW17278   4.999   2.826   1.159  0.1017 -0.1253  0.0683
 5607SOL    HW117279   5.019   2.739   1.123 -0.2831 -0.2752  0.2117
 5607SOL    HW217280   5.084   2.862   1.183  0.1715 -1.0964  1.4546
 5608SOL     OW17281   3.839   2.990   4.733 -0.4616  0.3093  0.1492
 5608SOL    HW117282   3.784   3.009   4.657 -1.2308 -1.9272  0.0500
 5608SOL    HW217283   3.918   3.042   4.720 -1.0958  0.9279 -1.5229
 5609SOL     OW17284   3.937   1.657   0.684 -0.2493 -0.6549  0.0837
 5609SOL    HW117285   3.928   1.563   0.670 -2.8702 -0.8679  2.3088
 5609SOL    HW217286   3.867   1.696   0.632 -0.8390 -0.2335  1.1448
 5610SOL     OW17287   2.571   0.431   4.561  0.6273 -0.6357  0.2063
 5610SOL    HW117288   2.615   0.433   4.476  1.6675 -0.4020  0.7313
 5610SOL    HW217289   2.501   0.366   4.551  2.1460 -2.2907 -0.1661
 5611SOL     OW17290   1.448   0.698   2.987 -0.1441  0.3905 -0.1779
 5611SOL    HW117291   1.525   0.744   3.021 -0.7347  0.7096  0.7755
 5611SOL    HW217292   1.380   0.765   2.980 -0.8214 -0.1879  0.5973
 5612SOL     OW17293   1.115   1.258   5.870  0.2472 -0.2905  0.4102
 5612SOL    HW117294   1.039   1.215   5.910  0.0080 -0.6958 -0.4784
 5612SOL    HW217295   1.189   1.230   5.924 -0.4556  1.9210  2.7544
 5613SOL     OW17296   1.848   5.606   6.093 -0.4290  0.5476  0.3178
 5613SOL    HW117297   1.870   5.571   6.179 -0.0469  0.2332  0.0957
 5613SOL    HW217298   1.753   5.614   6.093 -0.5708 -0.8926  0.2177
 5614SOL     OW17299   2.026   5.050   2.666  0.0590  0.4779  0.4731
 5614SOL    HW117300   2.113   5.056   2.629  0.1122 -1.7620  0.1077
 5614SOL    HW217301   1.969   5.028   2.592 -0.7254  1.1763  0.8373
 5615SOL     OW17302   0.152   1.643   0.042 -0.0031 -0.1039  0.1705
 5615SOL    HW117303   0.121   1.553   0.036  0.6795 -0.3440  0.2473
 5615SOL    HW217304   0.247   1.636   0.047  0.0536  0.6191  0.2025
 5616SOL     OW17305   3.641   4.241   1.884  0.0636  0.4305 -0.0952
 5616SOL    HW117306   3.606   4.155   1.906  1.6770 -0.1009  0.5217
 5616SOL    HW217307   3.727   4.244   1.926 -0.2151  2.5971  0.4393
 5617SOL     OW17308   3.550   3.223   4.251  0.0110  0.1625 -0.3127
 5617SOL    HW117309   3.626   3.180   4.291 -0.9623 -1.1189  0.2212
 5617SOL    HW217310   3.521   3.286   4.318 -1.7524 -2.1371  1.2449
 5618SOL     OW17311   1.867   2.425   5.584 -0.5028 -0.2615 -0.1908
 5618SOL    HW117312   1.961   2.438   5.572 -0.5595  0.6808  0.2694
 5618SOL    HW217313   1.859   2.375   5.665 -0.3398 -2.0332 -1.2165
 5619SOL     OW17314   2.487   2.406   4.226  0.0391 -0.3595  0.2960
 5619SOL    HW117315   2.522   2.467   4.161 -1.1706 -0.7012 -0.7195
 5619SOL    HW217316   2.557   2.343   4.240 -0.0245 -0.8575 -1.4583
 5620SOL     OW17317   3.371   1.046   0.855  0.2492  1.0868 -0.3806
 5620SOL    HW117318   3.360   0.982   0.925  0.2771 -0.5987 -1.8681
 5620SOL    HW217319   3.282   1.068   0.828  0.2141 -0.4448 -1.6791
 5621SOL     OW17320   0.172   6.280   0.743 -0.0777  0.2867  0.4461
 5621SOL    HW117321   0.201   6.279   0.652  0.5774 -0.0027  0.6467
 5621SOL    HW217322   0.206   6.198   0.780  2.5932  1.8371  1.7978
 5622SOL     OW17323   1.204   3.420   5.767  0.0936 -0.4443 -0.3350
 5622SOL    HW117324   1.140   3.354   5.742  0.1953  0.2133 -2.5629
 5622SOL    HW217325   1.159   3.474   5.831 -0.4923 -1.7682  0.4083
 5623SOL     OW17326   2.981   0.325   5.735 -0.1720 -0.1414  0.4262
 5623SOL    HW117327   2.917   0.365   5.793 -1.7457 -1.3109 -0.4192
 5623SOL    HW217328   2.995   0.238   5.771 -1.3371 -0.9676 -0.9793
 5624SOL     OW17329   3.909   1.815   2.555  0.3985 -0.4500 -0.7450
 5624SOL    HW117330   3.857   1.764   2.618  1.1823  0.5486  0.7791
 5624SOL    HW217331   3.870   1.794   2.470 -1.9627 -0.4231  0.2279
 5625SOL     OW17332   4.907   3.908   5.555  0.0686 -0.2912  0.0829
 5625SOL    HW117333   4.986   3.900   5.608  0.2814  0.3281 -0.1256
 5625SOL    HW217334   4.835   3.903   5.619  0.2631 -1.0137  0.2537
 5626SOL     OW17335   4.974   0.566   6.246 -0.1252 -0.9353 -0.2948
 5626SOL    HW117336   5.050   0.522   6.207 -0.3120 -0.5448 -1.1090
 5626SOL    HW217337   5.002   0.584   6.336 -0.3757 -3.5342  0.3945
 5627SOL     OW17338   1.058   2.477   2.902 -0.0619 -0.0589 -0.3138
 5627SOL    HW117339   0.989   2.429   2.857 -0.6727  1.2771 -0.8717
 5627SOL    HW217340   1.065   2.435   2.987 -2.3756  0.4497  0.1931
 5628SOL     OW17341   1.949   1.336   1.493 -0.7838  0.2202 -0.2301
 5628SOL    HW117342   1.903   1.252   1.500 -1.3530  0.5551  0.1225
 5628SOL    HW217343   2.036   1.313   1.460 -0.7658 -0.5597  0.3307
 5629SOL     OW17344   1.398   2.724   4.936 -0.3707  0.0032 -0.1910
 5629SOL    HW117345   1.480   2.679   4.918 -0.0482  0.9602 -1.2348
 5629SOL    HW217346   1.415   2.777   5.014 -0.5521 -1.1105  0.6395
 5630SOL     OW17347   3.918   2.511   2.429  0.0140 -0.3566  0.0222
 5630SOL    HW117348   3.947   2.443   2.369  0.0734 -0.2802 -0.0348
 5630SOL    HW217349   3.828   2.486   2.450  1.0620 -2.4350  2.7433
 5631SOL     OW17350   4.779   3.932   4.236  0.5580 -0.1134  0.2795
 5631SOL    HW117351   4.739   3.991   4.300 -0.0878 -0.5212  0.2657
 5631SOL    HW217352   4.837   3.877   4.287  1.5391  0.8295  0.2284
 5632SOL     OW17353   4.381   3.189   4.333 -0.1673  0.5405 -0.1588
 5632SOL    HW117354   4.315   3.207   4.267 -0.3171  0.0162 -0.1543
 5632SOL    HW217355   4.403   3.096   4.322  0.2738  0.6067  0.1014
 5633SOL     OW17356   3.215   3.328   2.619 -0.2210  0.3487  1.1489
 5633SOL    HW117357   3.242   3.242   2.585 -0.9549  0.3204  0.6231
 5633SOL    HW217358   3.245   3.389   2.552 -0.7314  0.3957  0.9668
 5634SOL     OW17359   5.665   2.861   0.723  0.3305 -0.2470 -0.5403
 5634SOL    HW117360   5.745   2.811   0.713  1.4986  1.5501 -0.6984
 5634SOL    HW217361   5.645   2.894   0.635 -0.5549 -0.5947 -0.4890
 5635SOL     OW17362   2.825   4.591   5.342 -0.1631  0.2560 -0.3455
 5635SOL    HW117363   2.892   4.530   5.371 -1.4974 -0.2486  1.9763
 5635SOL    HW217364   2.742   4.546   5.359 -1.1957  2.5440  1.2334
 5636SOL     OW17365   5.832   5.005   4.597  0.0410 -0.0974  0.0165
 5636SOL    HW117366   5.739   4.992   4.616 -0.0044 -0.3051 -0.3340
 5636SOL    HW217367   5.867   4.916   4.588  0.4009 -0.0354  0.7452
 5637SOL     OW17368   0.773   1.741   5.846  0.1907  0.3918  0.3979
 5637SOL    HW117369   0.779   1.647   5.862 -2.5214 -0.2127 -1.3820
 5637SOL    HW217370   0.738   1.778   5.927  0.2089 -0.3080  0.7297
 5638SOL     OW17371   3.646   5.635   0.764  0.9553 -0.5259 -0.2457
 5638SOL    HW117372   3.737   5.607   0.777  1.0356 -0.4658 -0.6498
 5638SOL    HW217373   3.602   5.612   0.845  1.2292 -0.9796 -0.2198
 5639SOL     OW17374   4.477   2.372   3.653  0.1117 -0.5774  0.3275
 5639SOL    HW117375   4.494   2.333   3.739 -1.6526  1.2840  1.6341
 5639SOL    HW217376   4.490   2.466   3.667  0.4075 -0.2813 -1.6358
 5640SOL     OW17377   3.582   3.372   2.373  0.1582 -0.1342 -0.0140
 5640SOL    HW117378   3.511   3.436   2.376  0.9781  0.8217 -0.5395
 5640SOL    HW217379   3.634   3.396   2.296  1.5725 -0.2256  0.8629
 5641SOL     OW17380   2.676   5.101   1.910 -0.4057 -0.0524  0.0016
 5641SOL    HW117381   2.581   5.108   1.901 -0.6924 -0.0581  2.2676
 5641SOL    HW217382   2.689   5.038   1.981  1.1346  2.1671  1.8650
 5642SOL     OW17383   1.752   0.759   0.860 -0.2800 -0.2831 -0.3328
 5642SOL    HW117384   1.669   0.784   0.901 -0.8697 -0.2217 -1.5233
 5642SOL    HW217385   1.797   0.707   0.927 -0.4803  1.1512  0.9874
 5643SOL     OW17386   6.199   4.345   0.123  0.2828  0.4637  0.6925
 5643SOL    HW117387   6.122   4.358   0.069  0.6146  2.5127  0.6153
 5643SOL    HW217388   6.224   4.434   0.151  2.1645 -0.2080  1.3201
 5644SOL     OW17389   3.566   2.123   3.121  0.0982  0.5663  0.0953
 5644SOL    HW117390   3.503   2.125   3.193  0.0716  0.1423  0.0892
 5644SOL    HW217391   3.512   2.124   3.041  0.1445  1.5627  0.0722
 5645SOL     OW17392   1.291   1.770   2.353 -0.0050  0.0071  0.3528
 5645SOL    HW117393   1.230   1.733   2.290 -1.0117  0.6156  0.9264
 5645SOL    HW217394   1.311   1.698   2.413 -0.5667 -0.0647  0.4556
 5646SOL     OW17395   4.678   3.092   0.719  0.3374 -0.1560 -0.1920
 5646SOL    HW117396   4.624   3.043   0.781  2.2669  0.4661  2.1439
 5646SOL    HW217397   4.696   3.029   0.649 -1.0498 -1.2493  0.3838
 5647SOL     OW17398   5.812   5.968   3.083  0.5824  0.2308 -0.3065
 5647SOL    HW117399   5.729   5.958   3.131  0.0938  0.3819 -1.0927
 5647SOL    HW217400   5.857   6.039   3.127 -0.4427  1.2487 -0.8556
 5648SOL     OW17401   4.494   3.985   4.103 -0.0062  0.3798 -0.6076
 5648SOL    HW117402   4.478   3.954   4.191  0.9371 -0.6365 -0.7709
 5648SOL    HW217403   4.512   3.906   4.052 -0.6993  0.9266 -1.7534
 5649SOL     OW17404   1.147   0.996   6.109  0.4974 -0.1533  0.2936
 5649SOL    HW117405   1.225   1.022   6.062 -0.4822  0.2801 -1.1753
 5649SOL    HW217406   1.116   0.918   6.063 -0.4442  0.2304  0.2474
 5650SOL     OW17407   0.268   2.703   1.900 -0.0184 -0.1570 -0.4608
 5650SOL    HW117408   0.186   2.684   1.853 -0.9877  0.5441  0.8714
 5650SOL    HW217409   0.247   2.687   1.992  0.2204  3.4645  0.3570
 5651SOL     OW17410   0.580   4.534   1.305 -0.7062 -0.3910 -0.1492
 5651SOL    HW117411   0.570   4.508   1.397 -0.1788 -1.0713 -0.2749
 5651SOL    HW217412   0.661   4.584   1.303 -0.2041 -1.1923 -0.3973
 5652SOL     OW17413   4.653   5.048   1.313 -0.0079  0.1760  0.0680
 5652SOL    HW117414   4.706   4.983   1.268 -0.9527 -0.5564 -0.0247
 5652SOL    HW217415   4.716   5.109   1.351  0.9562 -1.4305  1.1317
 5653SOL     OW17416   2.082   2.326   0.963  0.1599  0.0331 -0.3372
 5653SOL    HW117417   2.034   2.370   1.034  1.5587  0.0311  0.6538
 5653SOL    HW217418   2.029   2.249   0.942  0.6551 -1.0599  2.0919
 5654SOL     OW17419   0.046   3.958   4.562  0.3194 -0.5870 -0.6718
 5654SOL    HW117420   0.139   3.940   4.547  0.1851  0.1304 -2.6468
 5654SOL    HW217421   0.041   3.985   4.653  2.1399 -0.1849 -0.6552
 5655SOL     OW17422   5.750   5.853   1.386 -0.4324  0.6177  0.4621
 5655SOL    HW117423   5.825   5.888   1.433  1.0329 -0.7278 -0.7619
 5655SOL    HW217424   5.788   5.801   1.315 -2.5186 -0.6296  0.1725
 5656SOL     OW17425   4.027   1.764   1.798  0.2311  0.0212  0.0885
 5656SOL    HW117426   4.106   1.812   1.773 -0.2327  0.7639  0.0207
 5656SOL    HW217427   3.956   1.814   1.759 -0.4901  0.9250  2.3949
 5657SOL     OW17428   6.230   1.627   3.112  0.5022 -0.0739  0.2081
 5657SOL    HW117429   6.164   1.616   3.043  2.9269  0.1854 -2.3401
 5657SOL    HW217430   6.183   1.611   3.193 -3.1104  1.9346 -1.2662
 5658SOL     OW17431   5.227   4.856   3.394 -0.2450  0.3138 -0.4036
 5658SOL    HW117432   5.236   4.946   3.362 -1.3069  0.8958  0.8705
 5658SOL    HW217433   5.317   4.824   3.400  0.2321  1.7473  0.3720
 5659SOL     OW17434   3.812   4.876   3.486 -0.1437  0.0040  0.9294
 5659SOL    HW117435   3.725   4.846   3.459  0.4183 -0.8192 -0.0445
 5659SOL    HW217436   3.836   4.816   3.557  0.0877 -0.5133  0.4271
 5660SOL     OW17437   2.716   0.134   3.242  0.0005  0.3398 -0.1351
 5660SOL    HW117438   2.714   0.171   3.330 -1.4584 -0.9640  0.4280
 5660SOL    HW217439   2.709   0.039   3.255 -0.3100  0.1176 -1.6413
 5661SOL     OW17440   5.431   3.661   1.419 -0.2110 -0.3515 -0.1362
 5661SOL    HW117441   5.491   3.653   1.493 -0.1468  0.5478 -0.0817
 5661SOL    HW217442   5.356   3.607   1.443 -0.0891 -0.2492  0.4895
 5662SOL     OW17443   2.110   2.281   3.686  0.2528  0.0827  0.1505
 5662SOL    HW117444   2.127   2.271   3.780 -0.7581  1.1051  0.4665
 5662SOL    HW217445   2.145   2.368   3.665  2.5156 -1.0045 -0.9545
 5663SOL     OW17446   5.440   4.040   3.252 -0.6001 -0.1603 -0.3287
 5663SOL    HW117447   5.358   4.090   3.250 -0.9392 -0.7101 -0.3585
 5663SOL    HW217448   5.412   3.948   3.251 -0.0283 -0.3785  1.3524
 5664SOL     OW17449   4.620   6.035   0.503 -0.0952 -0.3462  0.3060
 5664SOL    HW117450   4.532   6.044   0.465 -0.4572 -1.2503  0.9015
 5664SOL    HW217451   4.653   5.952   0.469  0.8758  0.3637 -0.5573
 5665SOL     OW17452   1.374   0.553   0.813 -0.3368 -0.1139 -0.0913
 5665SOL    HW117453   1.303   0.503   0.854 -0.5214 -0.1537 -0.4554
 5665SOL    HW217454   1.452   0.527   0.861 -0.8490  1.5893  1.8302
 5666SOL     OW17455   3.869   1.553   4.252  0.1441 -0.3648 -0.3039
 5666SOL    HW117456   3.961   1.529   4.245  0.7362  1.9599 -1.6283
 5666SOL    HW217457   3.845   1.583   4.164 -1.1948  1.1954  0.5331
 5667SOL     OW17458   5.334   4.030   1.793 -0.1282 -0.2162 -0.0593
 5667SOL    HW117459   5.412   3.980   1.771  0.3746  0.1721  0.8110
 5667SOL    HW217460   5.321   4.089   1.719  0.7172  0.0852  0.0222
 5668SOL     OW17461   6.141   3.481   6.242 -0.0725 -0.0690  0.3652
 5668SOL    HW117462   6.111   3.506   6.329 -1.7382 -1.4922  0.2615
 5668SOL    HW217463   6.120   3.388   6.235 -1.1191  0.2599 -1.9711
 5669SOL     OW17464   5.182   3.508   5.103  0.1259  0.1868 -0.2920
 5669SOL    HW117465   5.154   3.417   5.116 -0.6704  0.3995 -0.4771
 5669SOL    HW217466   5.209   3.538   5.189  1.0827 -0.4434 -0.3538
 5670SOL     OW17467   4.976   4.757   2.635 -0.2742  0.2599 -0.2130
 5670SOL    HW117468   4.901   4.704   2.609 -0.3557 -0.3159  1.1015
 5670SOL    HW217469   4.953   4.846   2.610 -2.2756  0.4263  1.8493
 5671SOL     OW17470   1.876   0.516   2.165 -0.0010  0.3989 -0.0522
 5671SOL    HW117471   1.856   0.588   2.104  0.1832  0.4630 -0.0377
 5671SOL    HW217472   1.949   0.549   2.217  1.3603 -0.5009 -1.2887
 5672SOL     OW17473   6.308   5.169   3.631 -0.1618 -0.1385 -0.0021
 5672SOL    HW117474   6.245   5.236   3.658  2.1562  2.6321 -0.9372
 5672SOL    HW217475   6.379   5.176   3.694 -0.4049 -2.8388  0.7299
 5673SOL     OW17476   1.634   0.598   4.256 -0.1023  0.5138  0.0448
 5673SOL    HW117477   1.682   0.525   4.295 -1.6051 -1.1462 -1.0473
 5673SOL    HW217478   1.692   0.629   4.186  1.6116  2.0478  2.0090
 5674SOL     OW17479   4.761   3.703   0.942  0.1909  0.2855 -0.2582
 5674SOL    HW117480   4.687   3.757   0.917 -0.1244 -0.8691 -2.0274
 5674SOL    HW217481   4.811   3.757   1.004 -2.1297  1.0532  1.0775
 5675SOL     OW17482   3.642   5.445   0.294  0.4647 -0.2515 -0.4638
 5675SOL    HW117483   3.697   5.373   0.327 -0.7093 -2.3579 -2.7247
 5675SOL    HW217484   3.654   5.441   0.199 -0.0309  2.3061 -0.6779
 5676SOL     OW17485   0.545   5.314   2.376 -0.1942  0.0874  0.4884
 5676SOL    HW117486   0.511   5.325   2.465  2.8050  1.3844  1.6114
 5676SOL    HW217487   0.535   5.220   2.357  0.0623 -0.4180  2.6409
 5677SOL     OW17488   4.915   0.577   0.186  0.3199 -0.0999  0.1294
 5677SOL    HW117489   4.960   0.661   0.187  1.0220 -0.4771  1.3999
 5677SOL    HW217490   4.843   0.587   0.248  0.4824 -0.4735  0.3816
 5678SOL     OW17491   2.705   3.313   4.513  0.2384 -0.6423  0.2846
 5678SOL    HW117492   2.623   3.362   4.506  1.1878  0.9438 -0.5443
 5678SOL    HW217493   2.680   3.222   4.503 -1.7197 -0.4448  2.6685
 5679SOL     OW17494   3.528   1.510   2.614  0.5902 -0.0116 -0.0484
 5679SOL    HW117495   3.468   1.437   2.626  1.5115 -0.6565  0.8100
 5679SOL    HW217496   3.478   1.587   2.640  0.9580 -0.8305  3.6062
 5680SOL     OW17497   4.706   4.501   2.899  0.1619 -0.2854 -0.5777
 5680SOL    HW117498   4.686   4.587   2.862 -0.8981 -0.9631 -1.6738
 5680SOL    HW217499   4.634   4.483   2.959 -0.0213 -0.6976 -0.9085
 5681SOL     OW17500   4.890   4.503   0.235 -0.0218  0.8294  0.3193
 5681SOL    HW117501   4.902   4.561   0.160 -1.8397 -0.2611 -0.8873
 5681SOL    HW217502   4.854   4.423   0.198 -2.1711  0.6869  2.4676
 5682SOL     OW17503   4.184   2.895   1.296 -0.4290  0.2204 -0.2910
 5682SOL    HW117504   4.122   2.858   1.359 -0.3859 -2.2646 -1.5792
 5682SOL    HW217505   4.261   2.917   1.348 -0.8367 -0.6375  0.7087
 5683SOL     OW17506   4.378   1.530   3.897  0.1618 -0.6365  0.1576
 5683SOL    HW117507   4.284   1.511   3.896 -0.6937  2.8744  1.0487
 5683SOL    HW217508   4.396   1.555   3.988  1.3664  1.0899 -0.5097
 5684SOL     OW17509   0.312   0.129   0.871  0.1209  0.4207 -0.0622
 5684SOL    HW117510   0.407   0.132   0.875  0.2255 -1.2911 -0.4389
 5684SOL    HW217511   0.292   0.044   0.832 -1.5728  0.2424  1.0632
 5685SOL     OW17512   4.726   1.500   0.197  0.6365  0.1068 -0.0007
 5685SOL    HW117513   4.648   1.501   0.253 -0.0037 -0.7433 -0.8585
 5685SOL    HW217514   4.785   1.563   0.238 -0.5448  0.8631  0.5981
 5686SOL     OW17515   0.167   1.555   0.337  0.0289  0.5467 -0.1399
 5686SOL    HW117516   0.196   1.608   0.411 -0.0885  1.6244 -0.8421
 5686SOL    HW217517   0.168   1.615   0.263 -0.1987 -0.4207 -0.9485
 5687SOL     OW17518   3.233   5.363   2.175  0.6382  0.2968  0.0051
 5687SOL    HW117519   3.311   5.312   2.153  1.4642  0.1535  2.8281
 5687SOL    HW217520   3.267   5.447   2.205 -0.2624  0.3097  1.0523
 5688SOL     OW17521   4.470   4.459   1.332  0.6915  0.0312  0.1352
 5688SOL    HW117522   4.514   4.478   1.415 -0.7230  1.2503  0.6565
 5688SOL    HW217523   4.419   4.381   1.350 -2.9383  2.5145  1.8920
 5689SOL     OW17524   4.063   6.181   0.724 -0.9084 -0.0545 -0.4959
 5689SOL    HW117525   3.989   6.239   0.743 -0.7606 -0.4028  1.2673
 5689SOL    HW217526   4.027   6.093   0.735 -0.5796 -0.2702 -1.0871
 5690SOL     OW17527   3.974   3.447   1.604  0.0119 -0.5949 -0.2260
 5690SOL    HW117528   3.964   3.530   1.558  0.1885  1.1934  2.7141
 5690SOL    HW217529   4.028   3.393   1.546  0.6938  1.6812 -1.8147
 5691SOL     OW17530   5.430   5.476   3.498 -0.3269  0.1736  0.3718
 5691SOL    HW117531   5.522   5.500   3.507 -0.6877  1.3203  1.3213
 5691SOL    HW217532   5.393   5.488   3.586 -1.8361  1.8492 -0.4182
 5692SOL     OW17533   0.156   2.052   0.308  0.6643  0.0778  0.3969
 5692SOL    HW117534   0.215   2.127   0.317  2.1553 -1.1569  1.4042
 5692SOL    HW217535   0.177   2.015   0.222  2.4435 -1.1871  1.3226
 5693SOL     OW17536   3.600   1.799   3.816  0.4928 -0.2599  0.0512
 5693SOL    HW117537   3.556   1.753   3.887  1.2361  0.3820  0.9334
 5693SOL    HW217538   3.647   1.730   3.769 -2.1548 -1.1638 -1.5385
 5694SOL     OW17539   1.574   3.897   2.764  0.1401  0.4050  0.1829
 5694SOL    HW117540   1.503   3.864   2.709 -1.1002  1.0234  1.3597
 5694SOL    HW217541   1.649   3.903   2.705 -0.0487 -2.6695 -0.5345
 5695SOL     OW17542   5.499   1.069   0.189 -0.3566 -0.6878 -0.7478
 5695SOL    HW117543   5.455   1.139   0.141 -0.8908 -0.4352  0.0868
 5695SOL    HW217544   5.430   1.005   0.207 -0.3396 -0.4332  0.3032
 5696SOL     OW17545   2.223   4.876   5.432  0.0659 -0.1096  0.4359
 5696SOL    HW117546   2.309   4.894   5.470  0.1769 -1.3061  0.8161
 5696SOL    HW217547   2.174   4.957   5.443  1.0156  0.4623  0.5806
 5697SOL     OW17548   2.963   5.329   4.401 -0.0635  0.1267 -0.4183
 5697SOL    HW117549   3.045   5.314   4.354  0.7718  0.1045  0.9730
 5697SOL    HW217550   2.990   5.344   4.492 -1.5390  1.0096 -0.0866
 5698SOL     OW17551   5.214   1.764   4.746 -0.0586 -0.1087 -0.1070
 5698SOL    HW117552   5.297   1.734   4.782 -1.0674 -2.4476  0.4467
 5698SOL    HW217553   5.168   1.802   4.821  0.0945  0.2351 -0.1865
 5699SOL     OW17554   3.172   5.021   0.224 -0.5098 -0.0919  0.1305
 5699SOL    HW117555   3.157   5.106   0.266  0.7552  0.3113 -0.1854
 5699SOL    HW217556   3.135   5.031   0.136  1.1593  0.7668 -0.5179
 5700SOL     OW17557   1.357   1.760   3.010  0.3500 -0.2047  0.1915
 5700SOL    HW117558   1.448   1.755   2.983  1.0087  3.6521  1.0369
 5700SOL    HW217559   1.352   1.841   3.061 -3.7511  0.3020 -0.6550
 5701SOL     OW17560   4.604   4.107   3.287 -0.3379  0.4168 -0.3613
 5701SOL    HW117561   4.551   4.028   3.291  0.7206 -0.4121 -1.7911
 5701SOL    HW217562   4.549   4.170   3.239 -0.1438 -0.3859 -1.7085
 5702SOL     OW17563   0.261   0.100   2.476 -0.6040 -0.2946 -0.2803
 5702SOL    HW117564   0.215   0.121   2.394 -0.6022 -0.2441 -0.2681
 5702SOL    HW217565   0.343   0.061   2.448 -1.3628 -1.9453 -0.3135
 5703SOL     OW17566   0.543   2.389   0.918 -0.3110 -0.3309 -0.2002
 5703SOL    HW117567   0.555   2.464   0.859  0.4930 -1.4044 -1.4329
 5703SOL    HW217568   0.536   2.429   1.005 -1.1040  1.2578 -0.9521
 5704SOL     OW17569   5.516   4.871   4.622  0.2803  0.0844 -0.2866
 5704SOL    HW117570   5.486   4.884   4.713  2.0396  0.0244  0.3266
 5704SOL    HW217571   5.579   4.799   4.628 -0.8336 -1.0794 -1.8510
 5705SOL     OW17572   2.065   5.654   0.140 -0.1804 -0.3340 -0.1140
 5705SOL    HW117573   1.989   5.672   0.084 -0.0471  0.8146  0.0473
 5705SOL    HW217574   2.117   5.734   0.136  1.1966 -1.2164 -0.4654
 5706SOL     OW17575   1.335   3.993   3.233 -0.5560  0.5606 -0.4027
 5706SOL    HW117576   1.325   4.088   3.246  0.4496  0.6377 -0.1089
 5706SOL    HW217577   1.363   3.984   3.142  3.0532  0.8925  0.5122
 5707SOL     OW17578   3.272   5.545   1.324  0.3796 -0.3932 -0.3027
 5707SOL    HW117579   3.344   5.482   1.318  0.7752  0.0669 -0.4685
 5707SOL    HW217580   3.203   5.498   1.371  0.1811 -1.3761 -1.5444
 5708SOL     OW17581   1.355   1.242   3.282  0.2354  0.3269 -0.1298
 5708SOL    HW117582   1.424   1.176   3.271 -1.1823 -1.3958  0.7774
 5708SOL    HW217583   1.369   1.276   3.370  1.1848  1.5835 -0.7243
 5709SOL     OW17584   5.040   0.716   4.945  0.1053 -0.3097  0.2680
 5709SOL    HW117585   5.036   0.711   5.040 -0.4886  1.8621  0.4243
 5709SOL    HW217586   5.129   0.746   4.927 -0.9604  3.6125  0.5541
 5710SOL     OW17587   4.431   3.913   2.298 -0.2059  0.0768 -0.3614
 5710SOL    HW117588   4.338   3.906   2.277  0.0373 -0.2634 -1.3900
 5710SOL    HW217589   4.472   3.940   2.216  0.7969 -1.2250 -0.3235
 5711SOL     OW17590   5.840   3.014   0.317  0.2410 -0.1144 -0.2258
 5711SOL    HW117591   5.745   3.014   0.306 -0.0183  1.9341  1.3747
 5711SOL    HW217592   5.861   2.925   0.347 -1.0827 -0.7018 -0.9809
 5712SOL     OW17593   5.480   3.197   5.736 -0.3638  0.4364 -0.1689
 5712SOL    HW117594   5.399   3.237   5.768 -0.7539  0.0377 -0.6429
 5712SOL    HW217595   5.477   3.211   5.641  0.6071  1.2995 -0.0949
 5713SOL     OW17596   2.296   6.340   1.099  0.2932 -0.2010 -0.3106
 5713SOL    HW117597   2.372   6.283   1.091  0.4479 -0.1789  0.9192
 5713SOL    HW217598   2.327   6.426   1.070  1.0267  0.0336  1.0966
 5714SOL     OW17599   5.962   4.072   5.210 -0.4062 -0.0170  0.2690
 5714SOL    HW117600   5.907   4.048   5.135  0.2795 -0.3728 -0.1225
 5714SOL    HW217601   6.041   4.110   5.171 -0.2764  0.2967  0.8266
 5715SOL     OW17602   4.049   3.316   1.377  0.2155 -0.3696  0.4019
 5715SOL    HW117603   3.975   3.256   1.389  0.2937 -0.6724 -0.5959
 5715SOL    HW217604   4.126   3.263   1.398  0.4394 -1.2188 -2.2838
 5716SOL     OW17605   0.701   1.070   4.101  0.1798  0.4122 -0.1875
 5716SOL    HW117606   0.760   1.144   4.088 -0.1301  0.3678 -2.0294
 5716SOL    HW217607   0.614   1.110   4.103  0.1328  0.2823  0.7288
 5717SOL     OW17608   2.941   5.413   3.689 -0.4466  0.3243 -0.2283
 5717SOL    HW117609   2.993   5.388   3.765 -1.3712 -0.3218  0.2180
 5717SOL    HW217610   2.981   5.494   3.657  1.1397 -0.4339 -0.2350
 5718SOL     OW17611   2.158   0.878   1.559  0.1900 -0.0047  0.5248
 5718SOL    HW117612   2.158   0.825   1.638 -0.0282 -1.0551 -0.1678
 5718SOL    HW217613   2.237   0.852   1.512 -0.5829 -0.6866 -0.4410
 5719SOL     OW17614   4.283   3.885   3.514  0.8423  0.1702 -0.3563
 5719SOL    HW117615   4.344   3.812   3.501  0.8602 -0.2187  1.5701
 5719SOL    HW217616   4.255   3.876   3.605  0.0083  1.9569 -0.4015
 5720SOL     OW17617   0.895   3.000   3.695  0.4959 -0.6228  0.5860
 5720SOL    HW117618   0.916   3.087   3.661 -0.2914  0.1978  2.0536
 5720SOL    HW217619   0.973   2.973   3.743  0.8436 -0.8702 -0.1028
 5721SOL     OW17620   1.360   1.549   0.399 -0.2862 -0.2706  0.4874
 5721SOL    HW117621   1.366   1.506   0.314  1.1685  0.4402  0.1975
 5721SOL    HW217622   1.362   1.477   0.462 -0.4090 -0.7579 -0.0505
 5722SOL     OW17623   5.646   2.888   1.954  0.2314 -0.5844  0.7421
 5722SOL    HW117624   5.647   2.945   2.032 -0.1897  0.1926  0.1931
 5722SOL    HW217625   5.713   2.925   1.897 -1.3169  0.5386 -0.4198
 5723SOL     OW17626   3.962   1.099   1.422  0.2590 -0.1125 -0.2439
 5723SOL    HW117627   4.007   1.072   1.343 -0.3115  2.0522 -1.3962
 5723SOL    HW217628   3.918   1.181   1.398 -1.4397 -0.3252  1.7926
 5724SOL     OW17629   4.298   0.127   3.755  0.4043  0.7273  0.0166
 5724SOL    HW117630   4.311   0.213   3.794  1.7551 -0.1942  1.7321
 5724SOL    HW217631   4.223   0.091   3.801  0.9040  0.3332  0.5355
 5725SOL     OW17632   3.963   0.462   0.595 -0.1403 -0.3514 -0.1744
 5725SOL    HW117633   3.871   0.457   0.567 -0.4944 -0.8326  1.0153
 5725SOL    HW217634   3.958   0.475   0.689  1.0112  1.5144 -0.3294
 5726SOL     OW17635   3.196   0.328   0.241  0.3693  0.4474 -0.0470
 5726SOL    HW117636   3.150   0.409   0.263  0.3199  1.1080 -2.3489
 5726SOL    HW217637   3.199   0.279   0.324 -2.9802  1.1007  0.6301
 5727SOL     OW17638   0.592   3.838   2.481  0.0782 -0.0058  0.0200
 5727SOL    HW117639   0.583   3.928   2.513 -0.4551  1.1432 -3.0530
 5727SOL    HW217640   0.517   3.826   2.423  1.5434 -1.4901 -1.6685
 5728SOL     OW17641   5.652   6.126   2.688  0.0010  0.4593 -0.4246
 5728SOL    HW117642   5.730   6.143   2.635  0.0753 -1.4057 -0.9987
 5728SOL    HW217643   5.614   6.047   2.649 -1.4304  0.5555  0.6918
 5729SOL     OW17644   1.733   2.381   5.337  0.5963 -0.1402 -0.5682
 5729SOL    HW117645   1.803   2.383   5.402  0.7168  0.1016 -0.7046
 5729SOL    HW217646   1.761   2.315   5.274 -0.9124 -2.6154  1.1662
 5730SOL     OW17647   2.555   0.239   2.258  0.7708  0.0528  0.0924
 5730SOL    HW117648   2.462   0.221   2.270  0.5352  1.2853  0.3287
 5730SOL    HW217649   2.574   0.208   2.170 -0.0239  0.3486 -0.1981
 5731SOL     OW17650   3.902   5.545   0.808 -0.0401  0.7279  0.6211
 5731SOL    HW117651   3.975   5.581   0.759 -0.4196  0.4206 -0.1817
 5731SOL    HW217652   3.886   5.459   0.768 -2.1127  1.5905 -0.5386
 5732SOL     OW17653   2.787   1.915   4.179 -0.0055 -0.1303 -0.3875
 5732SOL    HW117654   2.813   1.953   4.263 -1.1541 -0.6207  0.2189
 5732SOL    HW217655   2.780   1.990   4.120  0.7921  0.2214 -0.0454
 5733SOL     OW17656   4.394   2.827   6.048 -0.5443 -0.2117  0.1811
 5733SOL    HW117657   4.380   2.826   5.953 -0.8732  1.9626  0.1515
 5733SOL    HW217658   4.382   2.918   6.073  0.4165 -0.5842  2.2103
 5734SOL     OW17659   0.141   3.261   4.228 -0.0205  0.6982 -0.1431
 5734SOL    HW117660   0.165   3.168   4.235  1.0810  0.7802 -1.9754
 5734SOL    HW217661   0.143   3.293   4.318  1.7493 -0.5759  0.3391
 5735SOL     OW17662   4.336   0.469   5.669  0.4874 -0.1936 -0.1328
 5735SOL    HW117663   4.293   0.446   5.587 -0.9099 -3.3367  1.3144
 5735SOL    HW217664   4.266   0.472   5.734  1.7552  0.5456  1.2873
 5736SOL     OW17665   3.608   6.044   2.328  0.0031  0.0988 -0.1851
 5736SOL    HW117666   3.605   5.962   2.378  0.3491  1.0012  1.3806
 5736SOL    HW217667   3.553   6.027   2.251 -1.3471 -1.0394  0.9780
 5737SOL     OW17668   2.204   0.949   3.213 -0.0802  0.3946 -0.5641
 5737SOL    HW117669   2.186   0.876   3.153  0.7670  0.2842 -0.7003
 5737SOL    HW217670   2.131   1.009   3.201 -1.1149 -0.7006 -0.0176
 5738SOL     OW17671   3.472   1.096   5.308  0.5736 -0.5771  0.0041
 5738SOL    HW117672   3.483   1.108   5.402  0.3230  0.3438 -0.0715
 5738SOL    HW217673   3.544   1.039   5.282  0.1390 -1.5706  0.8925
 5739SOL     OW17674   5.483   5.181   1.246 -0.2710 -0.4762  0.4776
 5739SOL    HW117675   5.477   5.198   1.340  1.6203 -0.0073  0.5510
 5739SOL    HW217676   5.493   5.086   1.239 -0.4319 -0.5136  0.7560
 5740SOL     OW17677   6.134   4.582   5.379  0.5428  0.5370 -0.0541
 5740SOL    HW117678   6.136   4.540   5.293  2.2961 -1.3677  0.8247
 5740SOL    HW217679   6.202   4.649   5.375  3.3791 -2.0354  0.8630
 5741SOL     OW17680   4.464   0.039   4.126 -0.3105 -0.4599 -0.4022
 5741SOL    HW117681   4.520  -0.032   4.157 -1.7173 -1.2098  0.5315
 5741SOL    HW217682   4.385  -0.004   4.096 -1.1659  0.7068  0.1073
 5742SOL     OW17683   2.989   3.975   1.478  0.2459  0.4033  0.2249
 5742SOL    HW117684   2.916   4.034   1.460  0.4456  0.0802 -1.8376
 5742SOL    HW217685   3.050   4.028   1.530  0.0444  1.7726 -0.8744
 5743SOL     OW17686   1.120   1.377   2.168 -0.1887  0.0248 -0.5451
 5743SOL    HW117687   1.197   1.422   2.135  1.3588 -1.2096  1.1312
 5743SOL    HW217688   1.102   1.309   2.103  1.3752 -0.9107 -0.0510
 5744SOL     OW17689   4.755   0.381   3.027  0.1315 -0.9543  0.3287
 5744SOL    HW117690   4.829   0.332   3.064  0.0110 -0.5004  1.2000
 5744SOL    HW217691   4.713   0.422   3.103 -0.3716 -0.3269 -0.2736
 5745SOL     OW17692   1.614   5.979   4.271 -0.6104 -0.4536  0.2617
 5745SOL    HW117693   1.702   6.009   4.294 -0.1381  0.3495 -2.2157
 5745SOL    HW217694   1.616   5.885   4.284  0.6890 -0.4689  0.0741
 5746SOL     OW17695   1.970   2.870   5.576 -0.2353  0.2585  0.3701
 5746SOL    HW117696   1.960   2.947   5.521  1.1437  1.0641  1.1818
 5746SOL    HW217697   1.882   2.831   5.579 -0.2255 -0.2686 -2.9331
 5747SOL     OW17698   1.410   1.326   1.492  0.0156 -0.5035 -0.1231
 5747SOL    HW117699   1.394   1.331   1.398 -1.2726 -2.4152 -0.0784
 5747SOL    HW217700   1.343   1.382   1.531  0.4473  0.1627 -0.3223
 5748SOL     OW17701   1.508   6.139   5.385  0.4583  0.2885 -0.4267
 5748SOL    HW117702   1.497   6.148   5.479  1.2853  1.9321 -0.4458
 5748SOL    HW217703   1.463   6.214   5.348  1.3470  0.4541 -1.2311
 5749SOL     OW17704   5.229   2.732   1.908  0.0126 -0.0407 -0.0298
 5749SOL    HW117705   5.258   2.818   1.876 -1.0770  0.7362  1.0102
 5749SOL    HW217706   5.179   2.695   1.834 -0.1512  0.5488 -0.2221
 5750SOL     OW17707   0.190   4.689   3.330  0.0465 -0.0004  0.0195
 5750SOL    HW117708   0.165   4.675   3.239  0.3897  0.5500 -0.1659
 5750SOL    HW217709   0.284   4.709   3.327 -0.5440  3.3380  0.1049
 5751SOL     OW17710   5.368   3.066   5.028  0.0646  0.3736 -0.1175
 5751SOL    HW117711   5.368   3.160   5.011 -1.2449  0.7262  1.6140
 5751SOL    HW217712   5.302   3.031   4.968 -1.9535  1.1034  1.5627
 5752SOL     OW17713   4.273   0.288   3.501  0.0973 -0.4414 -0.8806
 5752SOL    HW117714   4.284   0.329   3.587 -0.3981 -0.1703 -0.9375
 5752SOL    HW217715   4.361   0.287   3.463  0.6602 -2.2628  0.3687
 5753SOL     OW17716   3.782   0.499   1.324  0.1445 -0.3718 -0.1529
 5753SOL    HW117717   3.802   0.462   1.410  3.0101  0.7082 -0.2604
 5753SOL    HW217718   3.743   0.584   1.343 -0.3758 -0.6574  0.0730
 5754SOL     OW17719   0.767   1.078   4.493  0.2243 -0.2652 -0.9469
 5754SOL    HW117720   0.816   1.152   4.527 -1.1169  0.3839 -0.3479
 5754SOL    HW217721   0.679   1.113   4.475 -0.1767 -1.4932 -1.5050
 5755SOL     OW17722   4.135   0.240   3.258 -0.1672 -0.6278  0.5452
 5755SOL    HW117723   4.174   0.233   3.345  2.3642 -0.3818 -0.5088
 5755SOL    HW217724   4.191   0.188   3.201 -1.6710 -0.6501 -1.0087
 5756SOL     OW17725   4.158   6.245   0.360  0.2063  0.2460  0.2670
 5756SOL    HW117726   4.134   6.317   0.419  0.8583  0.5632  0.1489
 5756SOL    HW217727   4.079   6.232   0.307 -0.3916 -0.0456  1.1990
 5757SOL     OW17728   1.854   4.339   4.394 -0.1246 -0.1326  0.2980
 5757SOL    HW117729   1.946   4.312   4.399 -0.1488 -0.2174  0.2825
 5757SOL    HW217730   1.806   4.258   4.381 -0.1861 -0.0702  0.1254
 5758SOL     OW17731   1.544   6.188   0.714 -0.3067  0.0281  0.0363
 5758SOL    HW117732   1.636   6.171   0.737 -0.1620 -0.7442 -1.0645
 5758SOL    HW217733   1.502   6.205   0.798 -0.2830 -4.9270  1.3671
 5759SOL     OW17734   3.918   4.161   5.926  0.2077  0.0590  0.0702
 5759SOL    HW117735   3.852   4.207   5.977  1.7593  2.3538  0.1699
 5759SOL    HW217736   3.967   4.109   5.990 -0.9398 -1.0630  0.0962
 5760SOL     OW17737   1.015   4.334   2.434  0.3518  0.3415  0.7524
 5760SOL    HW117738   0.997   4.244   2.460  1.4703 -0.0396  0.2200
 5760SOL    HW217739   1.081   4.364   2.497  1.0059  0.3305  0.0723
 5761SOL     OW17740   3.336   5.854   1.731 -0.5072  0.4817  0.6246
 5761SOL    HW117741   3.395   5.928   1.739 -0.6623  0.5642  1.0334
 5761SOL    HW217742   3.330   5.838   1.636 -1.9078  2.1624  0.3632
 5762SOL     OW17743   1.320   2.709   2.636  0.6769 -0.1460 -0.0567
 5762SOL    HW117744   1.318   2.631   2.691 -0.8169  1.1465  1.8603
 5762SOL    HW217745   1.255   2.692   2.568 -1.9751  0.5539  2.1491
 5763SOL     OW17746   4.651   4.385   5.661 -0.6906 -0.2985 -0.2039
 5763SOL    HW117747   4.742   4.361   5.642 -1.0308 -0.3513 -1.9580
 5763SOL    HW217748   4.639   4.364   5.754  1.1551 -0.0445  0.1244
 5764SOL     OW17749   1.638   4.190   0.854 -0.0943  0.5947 -0.2884
 5764SOL    HW117750   1.725   4.153   0.873  0.2934  1.6795  0.0764
 5764SOL    HW217751   1.590   4.183   0.936 -0.8767 -1.3201 -0.8450
 5765SOL     OW17752   5.395   5.293   1.490 -0.0364  0.2598 -0.4215
 5765SOL    HW117753   5.312   5.245   1.491 -0.5003  1.0448 -0.5938
 5765SOL    HW217754   5.435   5.273   1.574 -0.2045 -0.4446 -0.4973
 5766SOL     OW17755   0.480   0.669   4.275 -0.2943  0.0336  0.0733
 5766SOL    HW117756   0.513   0.625   4.353 -0.6273  0.5338  0.5072
 5766SOL    HW217757   0.461   0.758   4.304 -1.1322  0.0173 -0.3904
 5767SOL     OW17758   1.137   6.257   3.812  0.5683  0.2123  0.3868
 5767SOL    HW117759   1.088   6.229   3.890  1.6857 -0.1168  0.9976
 5767SOL    HW217760   1.218   6.294   3.847  0.5073  1.2917 -0.5759
 5768SOL     OW17761   0.268   0.977   2.619 -0.2546 -0.3401 -0.7574
 5768SOL    HW117762   0.275   0.902   2.560 -0.2140 -0.2482 -0.8697
 5768SOL    HW217763   0.198   1.030   2.582 -0.7455 -0.6545 -0.3078
 5769SOL     OW17764   4.774   1.608   2.522  0.1106  0.0561  0.8600
 5769SOL    HW117765   4.693   1.637   2.563 -0.5547 -0.5732  0.0323
 5769SOL    HW217766   4.829   1.579   2.595 -1.0834 -1.1288  1.3376
 5770SOL     OW17767   6.351   0.470   0.149  0.3462 -0.5023 -0.1584
 5770SOL    HW117768   6.283   0.497   0.087 -0.6523  0.1103  1.1650
 5770SOL    HW217769   6.320   0.385   0.182 -0.6253  0.4747  1.5910
 5771SOL     OW17770   4.888   3.585   4.065 -0.1626 -0.2064 -0.2702
 5771SOL    HW117771   4.874   3.533   3.986  2.3799 -2.7058  0.7734
 5771SOL    HW217772   4.800   3.612   4.091 -1.5777 -3.1088 -1.5380
 5772SOL     OW17773   1.382   1.985   1.150 -0.4159  0.2566 -0.1125
 5772SOL    HW117774   1.436   2.055   1.115  0.7021 -0.6476 -0.2231
 5772SOL    HW217775   1.440   1.935   1.207 -0.8744 -1.2581 -0.9107
 5773SOL     OW17776   1.096   1.056   1.142  0.5560  0.0496 -0.1293
 5773SOL    HW117777   1.137   1.116   1.204  2.2980 -1.1471 -0.0458
 5773SOL    HW217778   1.163   1.040   1.076 -0.3604 -0.7201 -0.9023
 5774SOL     OW17779   4.517   4.491   0.574 -0.0868 -0.7160  0.0538
 5774SOL    HW117780   4.436   4.457   0.613 -0.2432 -0.3603  0.0403
 5774SOL    HW217781   4.576   4.504   0.648 -0.1059 -0.7949  0.0835
 5775SOL     OW17782   6.258   4.469   4.754  0.5242  0.1558 -0.1087
 5775SOL    HW117783   6.315   4.533   4.797  1.1618 -0.2535 -0.3310
 5775SOL    HW217784   6.202   4.521   4.697  1.3474  0.4772 -0.6391
 5776SOL     OW17785   1.447   4.829   5.972  0.0883  0.5008 -0.2297
 5776SOL    HW117786   1.420   4.747   6.013  1.2004 -0.3939 -1.1916
 5776SOL    HW217787   1.521   4.805   5.916  1.5096  2.4351  0.6786
 5777SOL     OW17788   5.434   2.427   5.153  0.3365  0.1035 -0.5085
 5777SOL    HW117789   5.499   2.417   5.223 -0.2740 -1.7998 -0.1658
 5777SOL    HW217790   5.353   2.393   5.190 -0.1386 -0.4305 -1.9582
 5778SOL     OW17791   3.697   0.571   2.794 -0.1019 -0.3190  0.3934
 5778SOL    HW117792   3.606   0.548   2.779 -0.4760  1.0440  0.4178
 5778SOL    HW217793   3.695   0.664   2.817  1.3815  0.0624 -0.8014
 5779SOL     OW17794   3.504   0.858   1.918 -0.5060  0.8609 -0.2579
 5779SOL    HW117795   3.571   0.806   1.875 -0.6202  0.9481 -0.5398
 5779SOL    HW217796   3.425   0.805   1.914 -0.2089  0.2963  1.0191
 5780SOL     OW17797   0.828   4.991   0.210  0.1998 -0.8115 -0.1795
 5780SOL    HW117798   0.748   4.942   0.191 -0.2116 -0.8284  1.4801
 5780SOL    HW217799   0.899   4.933   0.183 -0.3173 -1.5059 -0.0714
 5781SOL     OW17800   1.661   0.898   4.131 -0.7598 -0.0777 -0.0179
 5781SOL    HW117801   1.603   0.827   4.104  0.0542 -0.1196 -1.8298
 5781SOL    HW217802   1.603   0.966   4.164 -1.7047 -0.8161 -0.1338
 5782SOL     OW17803   5.452   2.613   3.848 -0.0198 -0.3791 -0.4637
 5782SOL    HW117804   5.517   2.543   3.852  0.5503  0.1970  0.6491
 5782SOL    HW217805   5.427   2.628   3.939  1.0718  1.9745 -0.4869
 5783SOL     OW17806   3.471   1.951   4.088 -0.3303  0.1646 -0.0182
 5783SOL    HW117807   3.399   1.985   4.141  0.0738  2.1387 -0.6799
 5783SOL    HW217808   3.490   2.020   4.025  0.7336 -1.1928 -1.2628
 5784SOL     OW17809   3.682   4.045   1.300 -0.9883 -0.1809 -0.0984
 5784SOL    HW117810   3.720   4.132   1.316  1.8508 -1.1870 -0.7170
 5784SOL    HW217811   3.595   4.063   1.263 -0.2061  2.4255 -0.8872
 5785SOL     OW17812   1.382   0.325   1.373 -0.0180 -0.1272 -0.5146
 5785SOL    HW117813   1.476   0.318   1.354  0.2577  0.1637  0.6361
 5785SOL    HW217814   1.339   0.298   1.293  1.0548  1.0472 -1.5383
 5786SOL     OW17815   1.970   4.419   0.596 -0.0085  0.4611 -0.1093
 5786SOL    HW117816   1.977   4.371   0.679 -0.2917  0.5765 -0.0191
 5786SOL    HW217817   2.051   4.397   0.549 -0.6882 -1.1132 -0.6080
 5787SOL     OW17818   3.217   3.630   4.253  0.0735 -0.4495 -0.5510
 5787SOL    HW117819   3.183   3.568   4.188 -0.2654 -1.6959  0.7363
 5787SOL    HW217820   3.309   3.640   4.232  0.2210 -1.7147 -0.5766
 5788SOL     OW17821   2.479   1.715   5.875 -0.1156  0.8163 -0.0106
 5788SOL    HW117822   2.509   1.806   5.884  0.8719  0.5292 -0.2529
 5788SOL    HW217823   2.473   1.683   5.965 -0.0550  0.9929  0.0577
 5789SOL     OW17824   0.688   5.999   5.429  0.0247  0.2608  0.0305
 5789SOL    HW117825   0.755   5.971   5.367 -0.3120 -0.4999  0.0057
 5789SOL    HW217826   0.608   6.005   5.377 -0.3437 -0.7693  0.4616
 5790SOL     OW17827   4.450   4.997   2.558  0.0098 -0.1348 -0.0425
 5790SOL    HW117828   4.438   5.072   2.501 -3.9092  0.0114  0.7039
 5790SOL    HW217829   4.424   4.922   2.505  1.7055 -0.7389 -0.0762
 5791SOL     OW17830   0.241   0.566   1.985 -0.4501 -0.1880 -0.4377
 5791SOL    HW117831   0.172   0.509   2.018 -0.7025 -0.3553 -1.2390
 5791SOL    HW217832   0.228   0.648   2.033 -1.5984 -0.0122 -1.0040
 5792SOL     OW17833   5.982   2.038   3.314 -0.5586 -0.1520  0.5151
 5792SOL    HW117834   5.934   2.095   3.375 -1.3790  0.3163 -0.5215
 5792SOL    HW217835   6.033   2.099   3.261 -0.5256 -0.4751  0.1749
 5793SOL     OW17836   6.272   2.487   2.187 -0.3836 -0.4308 -0.9348
 5793SOL    HW117837   6.191   2.474   2.237 -0.2551  1.1735 -0.2469
 5793SOL    HW217838   6.253   2.559   2.128  0.9150  0.8905  0.1827
 5794SOL     OW17839   1.813   2.136   6.187  0.1851  0.0335 -0.1000
 5794SOL    HW117840   1.762   2.137   6.267 -0.4566  0.8883 -0.5057
 5794SOL    HW217841   1.770   2.070   6.132 -1.1152  1.4108 -0.8122
 5795SOL     OW17842   5.529   1.442   1.728 -0.4114  0.0427  0.2212
 5795SOL    HW117843   5.592   1.514   1.723 -0.3446  0.0420  0.8939
 5795SOL    HW217844   5.461   1.474   1.788  1.1741 -1.5672  3.1253
 5796SOL     OW17845   0.276   0.795   2.431  0.6305 -0.5935  0.3665
 5796SOL    HW117846   0.280   0.711   2.476  0.8113  0.0443  1.5782
 5796SOL    HW217847   0.220   0.779   2.355  0.3457 -1.7095  0.7986
 5797SOL     OW17848   4.853   3.983   2.048  0.2581  0.0329  0.1258
 5797SOL    HW117849   4.870   3.915   1.983  0.5411 -2.3546  2.5253
 5797SOL    HW217850   4.902   3.955   2.125 -0.3473  2.5359  1.5274
 5798SOL     OW17851   4.193   0.900   5.532  0.0238  0.8201 -0.0490
 5798SOL    HW117852   4.227   0.957   5.601  1.4312  0.3283 -0.3148
 5798SOL    HW217853   4.271   0.865   5.488 -0.7356  2.7898 -3.3253
 5799SOL     OW17854   2.132   5.947   4.223 -0.0179 -0.4962  0.4125
 5799SOL    HW117855   2.072   5.919   4.153  2.3651 -2.2846 -1.0658
 5799SOL    HW217856   2.148   5.868   4.275  0.8916 -0.0238  0.8798
 5800SOL     OW17857   3.929   2.443   1.802  0.8017 -0.1004  0.2008
 5800SOL    HW117858   3.837   2.470   1.803  1.5552  2.7889 -0.3943
 5800SOL    HW217859   3.953   2.444   1.709  1.9631  1.3438  0.4794
 5801SOL     OW17860   1.468   2.304   4.896  0.1175 -0.4351 -0.3367
 5801SOL    HW117861   1.405   2.291   4.967  0.2446 -0.0980 -0.1552
 5801SOL    HW217862   1.545   2.253   4.922 -0.6345 -2.1229 -1.3178
 5802SOL     OW17863   5.257   5.257   4.858 -0.0978 -0.2408 -0.5817
 5802SOL    HW117864   5.267   5.164   4.877 -1.1530 -0.6674 -1.9617
 5802SOL    HW217865   5.332   5.298   4.902  1.6021 -1.9861 -1.6582
 5803SOL     OW17866   1.918   3.496   3.312  0.3975  0.2320 -0.5362
 5803SOL    HW117867   1.867   3.560   3.263  0.7427  0.2796 -0.8387
 5803SOL    HW217868   1.993   3.545   3.346 -0.0752  0.2982  0.4235
 5804SOL     OW17869   2.400   2.333   5.527  0.6099 -0.3732 -0.2985
 5804SOL    HW117870   2.467   2.375   5.474 -0.1700  0.1792 -0.8526
 5804SOL    HW217871   2.407   2.376   5.613  0.7484 -0.0963 -0.4481
 5805SOL     OW17872   0.871   2.555   1.613  0.5283 -0.0177 -0.5573
 5805SOL    HW117873   0.897   2.636   1.656 -0.6883 -0.1992  0.5509
 5805SOL    HW217874   0.796   2.579   1.558  1.8753  0.1544 -2.4482
 5806SOL     OW17875   0.747   3.611   6.182  0.0869 -0.1939 -0.7729
 5806SOL    HW117876   0.832   3.624   6.223 -0.8763 -0.7628  1.5476
 5806SOL    HW217877   0.706   3.697   6.186  0.5012  0.0691 -1.8483
 5807SOL     OW17878   0.087   5.898   3.464  0.1232  0.1759  0.1959
 5807SOL    HW117879   0.015   5.835   3.454  0.2279 -0.5789  3.2335
 5807SOL    HW217880   0.053   5.964   3.525  1.5670  0.5180  0.6579
 5808SOL     OW17881   3.907   2.445   0.646  0.1125 -0.0499  0.2123
 5808SOL    HW117882   3.960   2.376   0.686  0.2367  0.1313  0.3657
 5808SOL    HW217883   3.832   2.399   0.609  1.6342 -0.6689 -2.3275
 5809SOL     OW17884   2.963   0.088   1.271 -0.0918 -0.2133  0.6865
 5809SOL    HW117885   2.885   0.120   1.225  1.2374  0.5005 -1.2213
 5809SOL    HW217886   2.930   0.021   1.331 -2.2654  0.7176  0.6197
 5810SOL     OW17887   4.950   5.898   4.487 -0.5643  0.6155 -0.0332
 5810SOL    HW117888   4.927   5.808   4.514 -0.1309 -0.0003 -1.6412
 5810SOL    HW217889   4.985   5.938   4.567  0.3973 -1.0421  0.4193
 5811SOL     OW17890   2.626   6.267   3.062 -0.5124 -0.1933 -0.3661
 5811SOL    HW117891   2.675   6.226   2.991  0.5102  0.5007 -0.0878
 5811SOL    HW217892   2.570   6.331   3.018  2.2632  2.4225 -0.4721
 5812SOL     OW17893   3.045   4.575   4.439 -0.1309 -0.1449 -0.4145
 5812SOL    HW117894   3.078   4.495   4.482 -1.1961 -0.6883 -0.5964
 5812SOL    HW217895   3.117   4.601   4.381  0.3497 -0.7983 -0.1380
 5813SOL     OW17896   4.682   5.755   0.415  0.0360 -0.1625 -0.6372
 5813SOL    HW117897   4.609   5.755   0.476 -0.3986  1.9653 -1.0983
 5813SOL    HW217898   4.661   5.684   0.354 -0.4984 -1.0265  0.5158
 5814SOL     OW17899   4.105   1.563   0.047  0.6814  0.2552 -0.4324
 5814SOL    HW117900   4.124   1.657   0.046  0.5775  0.2731 -0.9634
 5814SOL    HW217901   4.026   1.554  -0.005 -0.5608  0.1217  1.3745
 5815SOL     OW17902   2.576   4.375   2.734 -0.1075  0.1361  0.2936
 5815SOL    HW117903   2.669   4.391   2.752  0.7137 -1.8203 -1.8353
 5815SOL    HW217904   2.547   4.320   2.807  0.7387 -0.2868  0.3221
 5816SOL     OW17905   3.371   0.896   2.969 -0.1976 -0.0973 -0.9302
 5816SOL    HW117906   3.421   0.969   2.932  1.5607 -1.6622 -1.8700
 5816SOL    HW217907   3.280   0.917   2.949  0.1083  2.3726 -0.0976
 5817SOL     OW17908   3.802   2.781   2.043 -0.3004 -0.1912 -0.5150
 5817SOL    HW117909   3.894   2.783   2.015 -0.5195 -0.8182 -1.3414
 5817SOL    HW217910   3.805   2.755   2.135  0.4417  1.6348  0.0145
 5818SOL     OW17911   1.958   0.866   0.710 -0.7180  0.5177 -0.4500
 5818SOL    HW117912   1.985   0.789   0.660 -0.9537  0.3077 -0.2591
 5818SOL    HW217913   1.893   0.833   0.772  0.5156  0.5380  0.8974
 5819SOL     OW17914   2.303   3.418   2.111  0.8496 -0.3641  0.2145
 5819SOL    HW117915   2.325   3.388   2.023 -1.4737  1.6158 -1.1475
 5819SOL    HW217916   2.323   3.512   2.110 -0.5829 -0.0131  1.2995
 5820SOL     OW17917   5.317   1.281   4.914 -0.0829  0.1469  0.4941
 5820SOL    HW117918   5.377   1.207   4.904  0.3207  0.2804  1.7123
 5820SOL    HW217919   5.264   1.280   4.835  0.9674 -0.4871 -0.2205
 5821SOL     OW17920   1.909   0.901   4.260  0.2376  0.1674  0.1532
 5821SOL    HW117921   1.981   0.891   4.198  0.1774 -2.0261  0.3414
 5821SOL    HW217922   1.830   0.896   4.206  0.1949 -1.3409  0.2973
 5822SOL     OW17923   2.078   1.526   2.308  0.4134 -0.0751  0.1514
 5822SOL    HW117924   2.060   1.433   2.323  1.4098 -0.0854  1.4654
 5822SOL    HW217925   2.032   1.572   2.378 -1.3003  0.6002 -1.3240
 5823SOL     OW17926   4.253   1.943   6.192 -0.1544 -0.2292 -0.1018
 5823SOL    HW117927   4.284   1.997   6.265  1.8538 -4.0755  2.2476
 5823SOL    HW217928   4.323   1.947   6.127  0.0300 -0.1234  0.1038
 5824SOL     OW17929   0.368   0.549   1.760  0.3915  0.1188  0.2590
 5824SOL    HW117930   0.396   0.637   1.737  1.3802  0.0331  1.0776
 5824SOL    HW217931   0.328   0.557   1.846 -1.1465  0.0471 -0.4215
 5825SOL     OW17932   1.768   0.249   0.134  0.1138  0.7758  0.3909
 5825SOL    HW117933   1.813   0.252   0.050  1.2302 -1.2188  0.8509
 5825SOL    HW217934   1.683   0.291   0.118  0.0449 -0.1305 -1.8887
 5826SOL     OW17935   4.753   3.008   4.665  0.1304  0.1006  0.0115
 5826SOL    HW117936   4.749   2.946   4.593  0.4786 -0.4705  0.4741
 5826SOL    HW217937   4.754   3.094   4.623 -0.4696 -0.1987 -0.6285
 5827SOL     OW17938   4.253   3.165   4.567 -0.2080 -0.0299 -0.2535
 5827SOL    HW117939   4.305   3.139   4.643 -0.7008 -0.5617 -0.0982
 5827SOL    HW217940   4.309   3.146   4.492  0.7695  1.6043 -0.0000
 5828SOL     OW17941   2.603   4.169   0.961  0.4637 -0.1320  0.3732
 5828SOL    HW117942   2.590   4.263   0.958  0.6752 -0.0957  0.5173
 5828SOL    HW217943   2.570   4.136   0.877  1.2606  0.1817 -0.0759
 5829SOL     OW17944   1.475   5.253   2.484 -0.0058  0.1684 -0.2175
 5829SOL    HW117945   1.404   5.249   2.548  0.1383  0.1134 -0.0577
 5829SOL    HW217946   1.479   5.165   2.447  0.8122 -0.2023  0.6990
 5830SOL     OW17947   4.523   1.251   1.716  0.3009  0.1617 -0.5396
 5830SOL    HW117948   4.545   1.166   1.678  0.1040  0.3410 -1.0659
 5830SOL    HW217949   4.467   1.292   1.651  2.0424  1.5557 -1.2309
 5831SOL     OW17950   0.795   3.499   5.190  0.0581 -0.3632  0.2766
 5831SOL    HW117951   0.723   3.490   5.252  0.4232  1.4500  1.0261
 5831SOL    HW217952   0.752   3.517   5.106 -0.4024  0.5331  0.6837
 5832SOL     OW17953   5.295   2.293   3.667 -0.2511 -0.2792 -0.1361
 5832SOL    HW117954   5.228   2.256   3.610 -1.8397  0.7124  0.9838
 5832SOL    HW217955   5.271   2.264   3.755  1.9612 -1.5206  0.1277
 5833SOL     OW17956   1.915   3.804   1.687 -0.4547  0.2029 -0.2578
 5833SOL    HW117957   1.926   3.742   1.615  0.3358  1.5879 -1.3775
 5833SOL    HW217958   1.889   3.886   1.644 -2.6396  0.4019  1.2642
 5834SOL     OW17959   3.179   3.715   2.766 -0.2282  0.0186 -0.3282
 5834SOL    HW117960   3.126   3.683   2.693 -1.0792  1.3959 -0.3415
 5834SOL    HW217961   3.270   3.703   2.737 -0.5066 -1.5569 -0.6554
 5835SOL     OW17962   2.867   4.471   2.301 -0.2072 -0.4963 -0.3651
 5835SOL    HW117963   2.785   4.517   2.320  0.7971  0.5491  1.7450
 5835SOL    HW217964   2.856   4.385   2.342 -0.6991 -0.8458 -1.1935
 5836SOL     OW17965   0.543   0.519   3.258  0.0731 -0.2797  0.2499
 5836SOL    HW117966   0.558   0.611   3.278  0.9486 -0.7292  1.7528
 5836SOL    HW217967   0.476   0.491   3.320 -0.5834 -0.5452 -0.5507
 5837SOL     OW17968   2.406   5.465   0.201 -0.2579 -0.1734  0.1588
 5837SOL    HW117969   2.339   5.463   0.133 -0.1676 -0.0642  0.0683
 5837SOL    HW217970   2.455   5.384   0.189 -0.4536 -0.3171  0.3064
 5838SOL     OW17971   0.262   4.343   4.463  0.0845  0.3449  0.0330
 5838SOL    HW117972   0.323   4.271   4.443  0.9179  0.8785  0.5948
 5838SOL    HW217973   0.217   4.313   4.542  0.1775  0.2859  0.0651
 5839SOL     OW17974   4.365   6.365   1.467  0.4460  0.1505 -0.0663
 5839SOL    HW117975   4.318   6.447   1.450 -0.2637  0.2709  2.1168
 5839SOL    HW217976   4.455   6.393   1.485  0.4057  0.3516 -0.1727
 5840SOL     OW17977   0.703   5.253   3.885  0.1068  0.4474  0.2950
 5840SOL    HW117978   0.795   5.242   3.906  0.1340 -0.7340 -0.3886
 5840SOL    HW217979   0.700   5.268   3.791 -0.4564 -0.4316  0.1601
 5841SOL     OW17980   5.613   3.085   0.171 -0.2141  0.1743 -0.4717
 5841SOL    HW117981   5.679   3.155   0.175 -1.6407  1.5743 -0.5823
 5841SOL    HW217982   5.544   3.121   0.115 -1.5731 -0.8187  0.5084
 5842SOL     OW17983   6.280   1.586   5.829 -0.0171  0.0278 -0.5598
 5842SOL    HW117984   6.365   1.570   5.870 -1.3914  0.1853  2.7334
 5842SOL    HW217985   6.239   1.499   5.825 -0.1184  0.0995 -1.0326
 5843SOL     OW17986   6.093   5.637   2.862 -0.4607 -0.5843  0.2854
 5843SOL    HW117987   6.168   5.697   2.863 -0.1374 -0.9642 -0.8298
 5843SOL    HW217988   6.020   5.692   2.835 -0.3618 -0.4718  0.2419
 5844SOL     OW17989   3.313   4.059   5.885 -0.0419  0.1790 -0.0375
 5844SOL    HW117990   3.282   3.981   5.840  0.0191  0.1557 -0.0388
 5844SOL    HW217991   3.274   4.132   5.837 -0.4125  0.1405  0.1971
 5845SOL     OW17992   2.630   1.248   5.066  0.3487  0.4360 -0.0867
 5845SOL    HW117993   2.683   1.319   5.029  0.1549  1.2441  1.1481
 5845SOL    HW217994   2.581   1.213   4.991  1.5977  0.5724 -0.9960
 5846SOL     OW17995   0.637   0.212   1.895 -0.5569  0.0702  0.7526
 5846SOL    HW117996   0.552   0.199   1.937 -1.0992  1.9826  0.3650
 5846SOL    HW217997   0.658   0.304   1.912 -0.9223  1.0746 -3.1542
 5847SOL     OW17998   0.287   1.260   1.406 -0.0683 -0.1451  0.6906
 5847SOL    HW117999   0.227   1.247   1.480 -2.1886  0.5253 -0.8152
 5847SOL    HW218000   0.286   1.355   1.391 -1.7163 -0.4828 -1.7496
 5848SOL     OW18001   0.935   1.056   5.743 -0.5417 -0.8413 -0.2530
 5848SOL    HW118002   0.917   1.076   5.835  2.4734 -2.6075  0.8943
 5848SOL    HW218003   1.030   1.060   5.736 -0.6980 -0.1163 -3.5356
 5849SOL     OW18004   6.062   3.927   4.277 -0.5359  0.1313  0.8303
 5849SOL    HW118005   6.100   3.952   4.361  0.8010 -1.5696  0.7725
 5849SOL    HW218006   5.991   3.990   4.264  0.3589  1.5569  2.3634
 5850SOL     OW18007   5.231   4.295   1.301 -0.1828  0.0864  0.1775
 5850SOL    HW118008   5.158   4.351   1.328 -0.6645 -0.4020 -0.0881
 5850SOL    HW218009   5.217   4.280   1.208 -0.5546 -1.1578  0.4041
 5851SOL     OW18010   5.155   3.739   0.290  0.5155 -0.9928 -0.2852
 5851SOL    HW118011   5.128   3.810   0.349 -1.5221 -0.7339 -1.4490
 5851SOL    HW218012   5.129   3.659   0.336  1.2934 -0.9325  0.2832
 5852SOL     OW18013   1.433   4.090   0.185 -0.1226  0.3836  0.4004
 5852SOL    HW118014   1.408   4.098   0.092 -1.4795  1.3099  0.8048
 5852SOL    HW218015   1.437   3.996   0.201 -0.2409  0.2136 -0.5104
 5853SOL     OW18016   2.081   4.595   5.652  0.4001 -0.9164 -0.1334
 5853SOL    HW118017   2.063   4.584   5.559 -0.4034 -1.3292  0.0628
 5853SOL    HW218018   2.089   4.690   5.664 -2.8033 -0.5607 -0.0687
 5854SOL     OW18019   0.993   4.066   5.134  0.2023  0.2915 -0.0961
 5854SOL    HW118020   1.081   4.081   5.100 -0.3269  0.0716 -1.6313
 5854SOL    HW218021   0.935   4.092   5.063 -0.9600 -0.4151  0.5614
 5855SOL     OW18022   1.647   3.162   2.860  0.4356 -0.7443  0.6112
 5855SOL    HW118023   1.723   3.111   2.888  0.3556 -1.6254 -0.6612
 5855SOL    HW218024   1.601   3.103   2.799 -0.3031  0.4244  0.0151
 5856SOL     OW18025   5.101   2.829   3.494  0.1320 -0.0881 -0.0302
 5856SOL    HW118026   5.079   2.922   3.492 -3.4468 -0.7683  0.0030
 5856SOL    HW218027   5.106   2.807   3.587  0.9043  0.0210 -0.0382
 5857SOL     OW18028   0.231   5.109   3.087  0.1930  0.3218  0.0490
 5857SOL    HW118029   0.224   5.036   3.026  0.6921  0.1155  0.2313
 5857SOL    HW218030   0.204   5.186   3.036 -1.5085 -0.1294  0.1927
 5858SOL     OW18031   3.485   0.262   0.885 -0.5796  0.0368  0.0215
 5858SOL    HW118032   3.519   0.350   0.904 -0.2137 -0.4603  1.8539
 5858SOL    HW218033   3.493   0.254   0.790  1.3335  1.2274  0.0130
 5859SOL     OW18034   3.984   2.913   2.607 -0.3753 -0.0962  0.2744
 5859SOL    HW118035   3.925   2.976   2.565 -0.4034 -0.2899  0.0251
 5859SOL    HW218036   3.963   2.920   2.701 -1.4769 -0.8510  0.1127
 5860SOL     OW18037   3.689   0.092   5.579  0.0496  0.0089 -0.1161
 5860SOL    HW118038   3.721   0.011   5.620  1.6509  0.0326 -1.2321
 5860SOL    HW218039   3.705   0.079   5.485 -1.2077  0.9652 -0.4803
 5861SOL     OW18040   1.954   2.371   5.022 -0.3470  0.1728  0.0421
 5861SOL    HW118041   1.988   2.460   5.033 -0.5850  0.2502  0.1446
 5861SOL    HW218042   1.933   2.364   4.929  0.7726 -0.1661 -0.2038
 5862SOL     OW18043   1.035   0.593   1.135  0.0533  0.0522  0.4260
 5862SOL    HW118044   1.023   0.660   1.202  1.3359  1.1824 -0.4190
 5862SOL    HW218045   1.038   0.511   1.183  3.0846  0.9833  2.0975
 5863SOL     OW18046   2.189   5.661   2.771 -0.3363  0.0132 -0.0847
 5863SOL    HW118047   2.217   5.625   2.855 -1.4972  0.4508  0.5219
 5863SOL    HW218048   2.125   5.598   2.738 -1.6871  0.9864  0.5440
 5864SOL     OW18049   1.165   1.227   1.344  0.3835 -0.0457  0.2468
 5864SOL    HW118050   1.128   1.277   1.416 -0.3556 -1.3270  0.7837
 5864SOL    HW218051   1.175   1.139   1.378  0.1183 -0.6645 -1.1846
 5865SOL     OW18052   4.737   0.489   5.071  0.0700 -0.0590  0.3276
 5865SOL    HW118053   4.820   0.454   5.038  0.3967  1.6024 -0.7124
 5865SOL    HW218054   4.676   0.416   5.066  1.2462 -1.0618  0.2775
 5866SOL     OW18055   3.391   3.796   1.345  0.6631 -0.3197 -0.2399
 5866SOL    HW118056   3.457   3.769   1.282  0.8813 -1.7874  0.5597
 5866SOL    HW218057   3.396   3.891   1.347  2.3357 -0.3725 -0.6393
 5867SOL     OW18058   1.838   1.574   4.830 -0.1381 -0.5764 -0.5417
 5867SOL    HW118059   1.820   1.581   4.924 -0.5220 -0.2178 -0.6401
 5867SOL    HW218060   1.927   1.539   4.826  0.5043  0.9242 -0.0357
 5868SOL     OW18061   2.083   4.879   1.268 -0.6568  0.1705  0.2912
 5868SOL    HW118062   2.027   4.808   1.298 -0.9775  0.7053  0.9884
 5868SOL    HW218063   2.162   4.836   1.237 -1.0450 -0.5214  0.2467
 5869SOL     OW18064   5.605   5.749   6.256 -0.5359 -0.6425  0.2186
 5869SOL    HW118065   5.546   5.823   6.272 -0.4681 -0.3511 -0.7521
 5869SOL    HW218066   5.693   5.785   6.271 -0.3843 -0.0098 -1.8419
 5870SOL     OW18067   2.647   0.231   5.145 -0.1375  0.1776 -0.1538
 5870SOL    HW118068   2.610   0.302   5.197  0.5548  0.5285 -0.1322
 5870SOL    HW218069   2.725   0.269   5.105  0.4954 -0.6919  0.2188
 5871SOL     OW18070   2.294   0.160   2.254 -0.1189 -0.4851 -0.1217
 5871SOL    HW118071   2.206   0.139   2.224 -0.5962  1.2114 -0.0299
 5871SOL    HW218072   2.341   0.077   2.251 -1.6439 -1.3747 -0.4066
 5872SOL     OW18073   2.619   5.776   5.407  0.2261 -0.0689  0.2715
 5872SOL    HW118074   2.708   5.764   5.442 -0.0504 -3.6777  0.0728
 5872SOL    HW218075   2.582   5.688   5.405 -2.2304  0.8662 -2.6966
 5873SOL     OW18076   0.232   0.582   5.689  0.0058 -0.0611  0.2576
 5873SOL    HW118077   0.235   0.675   5.671  0.4933  0.0550  0.9265
 5873SOL    HW218078   0.307   0.545   5.642 -0.1350 -0.1088  0.0671
 5874SOL     OW18079   5.052   3.208   0.871  0.1922 -0.9221 -0.4260
 5874SOL    HW118080   4.989   3.254   0.816  0.7853  0.0299 -0.3218
 5874SOL    HW218081   5.028   3.115   0.862 -0.4150 -0.6834 -1.3893
 5875SOL     OW18082   5.350   0.300   6.132  0.2849 -0.5201  0.3171
 5875SOL    HW118083   5.306   0.219   6.108  2.3136 -1.6379  0.1018
 5875SOL    HW218084   5.309   0.327   6.214  0.2242 -2.3186  0.9080
 5876SOL     OW18085   4.821   2.899   0.202  0.1337  0.4511  0.4221
 5876SOL    HW118086   4.863   2.982   0.223 -0.0275  0.4737  0.6695
 5876SOL    HW218087   4.863   2.869   0.122 -1.2280  1.7870 -0.8478
 5877SOL     OW18088   1.264   5.694   1.251 -0.1764 -0.1246  0.4328
 5877SOL    HW118089   1.202   5.651   1.309  0.2691 -1.5484 -0.1106
 5877SOL    HW218090   1.350   5.663   1.279  0.3480  1.8656  1.2137
 5878SOL     OW18091   5.838   1.040   2.520  0.2529 -0.1238  0.0462
 5878SOL    HW118092   5.908   1.090   2.561 -0.6424  0.6182  0.7309
 5878SOL    HW218093   5.828   1.080   2.433  1.1626 -0.7295 -0.3520
 5879SOL     OW18094   6.163   2.617   0.552 -0.4586  0.1738  0.1620
 5879SOL    HW118095   6.128   2.617   0.641  0.5874  3.0859  0.6720
 5879SOL    HW218096   6.217   2.538   0.547 -0.7767 -0.1995  1.9879
 5880SOL     OW18097   4.228   4.179   5.506 -0.1397 -0.2175  0.3220
 5880SOL    HW118098   4.294   4.119   5.542  0.2776  0.1455  0.1719
 5880SOL    HW218099   4.145   4.135   5.523  0.2210 -1.5437 -1.0612
 5881SOL     OW18100   0.876   6.119   1.293 -0.3933  0.0328  0.3539
 5881SOL    HW118101   0.938   6.175   1.246 -0.1886 -0.3192  0.1981
 5881SOL    HW218102   0.854   6.050   1.230  1.1295 -1.3888  1.2901
 5882SOL     OW18103   4.861   1.019   2.251 -0.0832 -0.4155  0.7318
 5882SOL    HW118104   4.887   1.102   2.291 -1.8516  1.2586 -1.3204
 5882SOL    HW218105   4.928   1.002   2.185  0.0440 -0.4118  0.8585
 5883SOL     OW18106   3.942   2.529   3.064  0.5159  0.0207  0.7059
 5883SOL    HW118107   4.015   2.478   3.027  1.7943  3.1031 -1.4474
 5883SOL    HW218108   3.977   2.564   3.146  0.7216 -0.1129  0.6779
 5884SOL     OW18109   5.900   3.840   2.985 -0.0370 -0.5267 -0.3782
 5884SOL    HW118110   5.807   3.852   2.964 -0.2834  0.8175  1.2891
 5884SOL    HW218111   5.944   3.910   2.939 -0.0894 -0.0279  0.3203
 5885SOL     OW18112   0.409   2.177   1.060  0.2737  0.4054 -0.3334
 5885SOL    HW118113   0.450   2.167   1.146 -0.0183  0.0403 -0.2291
 5885SOL    HW218114   0.475   2.219   1.006  1.3310 -1.4567 -0.5710
 5886SOL     OW18115   3.311   1.368   2.644  0.3735 -0.7739  0.1381
 5886SOL    HW118116   3.304   1.394   2.735  0.6014  0.8703 -0.2792
 5886SOL    HW218117   3.266   1.284   2.639 -2.4729  0.5718  1.1566
 5887SOL     OW18118   0.642   6.201   3.095  0.1474  0.0041 -0.1838
 5887SOL    HW118119   0.547   6.213   3.100 -0.0076 -0.0861 -2.2442
 5887SOL    HW218120   0.658   6.121   3.145 -0.9036 -0.1484 -0.0612
 5888SOL     OW18121   4.691   2.347   5.239 -0.5995 -0.3344  0.0296
 5888SOL    HW118122   4.762   2.294   5.274 -0.5900 -1.0436 -1.0102
 5888SOL    HW218123   4.611   2.300   5.264 -0.6297 -0.3627 -0.1169
 5889SOL     OW18124   0.062   0.829   3.088 -0.0809  0.6848  0.1738
 5889SOL    HW118125   0.141   0.881   3.102 -0.0987  0.3461  1.7552
 5889SOL    HW218126   0.088   0.765   3.022  1.3739 -0.1495  1.4619
 5890SOL     OW18127   0.405   4.592   6.048 -0.8136 -0.3825  0.0454
 5890SOL    HW118128   0.388   4.506   6.010 -0.6946  0.3007 -1.6220
 5890SOL    HW218129   0.486   4.621   6.007 -1.6064  1.1295 -0.5188
 5891SOL     OW18130   2.948   0.906   3.140 -0.6369  0.0070  0.3519
 5891SOL    HW118131   3.011   0.912   3.067  2.2376 -0.1738  2.6397
 5891SOL    HW218132   2.874   0.959   3.111  1.4473  2.0600 -1.7133
 5892SOL     OW18133   4.435   3.216   5.603 -0.8237 -0.0785 -0.4800
 5892SOL    HW118134   4.488   3.294   5.609  0.3481 -0.9215  0.5364
 5892SOL    HW218135   4.356   3.236   5.652 -1.3456  1.0612 -1.7225
 5893SOL     OW18136   1.170   4.124   1.678 -0.2542  0.0431  0.3644
 5893SOL    HW118137   1.120   4.140   1.758  0.1960 -1.0932  0.9008
 5893SOL    HW218138   1.137   4.039   1.647 -0.9777  0.8156 -1.1042
 5894SOL     OW18139   5.735   0.915   5.367 -0.1388  0.1438 -0.0134
 5894SOL    HW118140   5.758   0.848   5.302  0.4743 -0.4111  0.7476
 5894SOL    HW218141   5.716   0.865   5.446 -1.6784  0.7618  0.0256
 5895SOL     OW18142   2.570   0.833   5.425  0.9396 -0.1572 -0.2111
 5895SOL    HW118143   2.624   0.899   5.381  1.1239  0.5087  0.9714
 5895SOL    HW218144   2.632   0.783   5.478  0.7741 -1.1798 -0.9623
 5896SOL     OW18145   6.375   0.953   1.483  0.8403  0.0730  0.1794
 5896SOL    HW118146   6.378   0.980   1.391  0.4483 -0.3148  0.0482
 5896SOL    HW218147   6.296   0.899   1.490  2.5638 -2.6708 -0.0255
 5897SOL     OW18148   4.941   1.041   0.221  0.1639  0.0562  0.5148
 5897SOL    HW118149   4.976   1.111   0.167 -1.5344 -0.1268 -0.9191
 5897SOL    HW218150   4.863   1.078   0.262 -2.6912 -1.7225 -2.7895
 5898SOL     OW18151   2.982   3.929   0.192  0.1914 -0.4735 -0.0926
 5898SOL    HW118152   3.071   3.935   0.158  0.1745  2.5749  0.1168
 5898SOL    HW218153   2.935   4.002   0.150 -1.2521  0.1358  2.3664
 5899SOL     OW18154   0.211   3.371   3.797 -0.6848 -0.2488 -0.3614
 5899SOL    HW118155   0.217   3.393   3.890  0.2946 -1.9993  0.0417
 5899SOL    HW218156   0.137   3.310   3.792 -0.6332 -0.2880 -0.6979
 5900SOL     OW18157   1.825   3.229   3.629 -0.5829  1.2045  0.4309
 5900SOL    HW118158   1.796   3.231   3.720  1.0419 -0.9854  1.0783
 5900SOL    HW218159   1.916   3.258   3.633 -0.6389  1.5454 -0.5778
 5901SOL     OW18160   0.090   0.722   3.575 -0.0544 -0.2835  0.0447
 5901SOL    HW118161   0.065   0.642   3.622  0.0523 -0.1179  0.3888
 5901SOL    HW218162   0.034   0.723   3.498  0.4651 -1.0858 -0.3583
 5902SOL     OW18163   5.769   2.699   5.197 -0.9193 -0.3166  0.0294
 5902SOL    HW118164   5.757   2.605   5.207  0.8856 -0.6715 -0.8182
 5902SOL    HW218165   5.691   2.728   5.150 -2.0725 -1.1484  1.3416
 5903SOL     OW18166   6.218   0.628   5.427  0.0930  0.4621  0.0651
 5903SOL    HW118167   6.153   0.686   5.467  0.9724  0.9573  0.8049
 5903SOL    HW218168   6.171   0.545   5.413 -0.2846  0.3201  2.0021
 5904SOL     OW18169   0.057   3.691   2.426 -0.0138 -0.3815 -0.0327
 5904SOL    HW118170   0.074   3.607   2.468 -1.0750 -0.3372  0.5327
 5904SOL    HW218171  -0.011   3.672   2.361 -0.8072  0.1511  0.6139
 5905SOL     OW18172   1.886   5.192   2.840  0.1890 -0.0000 -0.0241
 5905SOL    HW118173   1.933   5.126   2.789  0.2843  0.9316 -1.2007
 5905SOL    HW218174   1.934   5.199   2.922  0.3437 -1.1714 -0.0089
 5906SOL     OW18175   0.396   4.338   5.069 -0.1636  0.1616  0.3492
 5906SOL    HW118176   0.396   4.288   5.151 -2.2806 -1.5967 -0.6405
 5906SOL    HW218177   0.415   4.274   5.001  0.1004  1.3094 -0.7081
 5907SOL     OW18178   4.607   0.965   0.491  0.7356 -0.2288 -0.6314
 5907SOL    HW118179   4.640   0.891   0.541 -1.6080 -0.3276  0.9395
 5907SOL    HW218180   4.526   0.933   0.451 -0.8396  1.6186  0.8311
 5908SOL     OW18181   5.679   5.116   0.701 -0.5079  0.5997  0.1959
 5908SOL    HW118182   5.604   5.120   0.760 -1.2903 -0.3416 -0.6925
 5908SOL    HW218183   5.716   5.029   0.715 -0.3200  0.6072 -0.2445
 5909SOL     OW18184   1.027   0.821   1.278  0.7306 -0.1533  0.2768
 5909SOL    HW118185   0.972   0.858   1.347  0.5996 -0.0921  0.1388
 5909SOL    HW218186   1.052   0.896   1.224  1.7200 -0.0335  0.8748
 5910SOL     OW18187   2.653   2.524   2.337  0.4542  0.1852 -0.0954
 5910SOL    HW118188   2.731   2.470   2.352  0.8630  1.3582  2.4918
 5910SOL    HW218189   2.602   2.515   2.418 -2.0388 -0.3190 -1.5933
 5911SOL     OW18190   2.472   3.783   0.150 -0.1020 -0.8087 -0.5152
 5911SOL    HW118191   2.413   3.807   0.222 -0.7802 -0.3335 -1.2154
 5911SOL    HW218192   2.488   3.865   0.104  1.1566 -0.9305 -0.3133
 5912SOL     OW18193   5.541   4.638   5.690 -0.0057  0.6989  0.0444
 5912SOL    HW118194   5.508   4.568   5.748  1.7888  0.8344  1.2955
 5912SOL    HW218195   5.526   4.605   5.602 -2.7062  0.4164  0.5180
 5913SOL     OW18196   0.640   6.056   6.286  0.4008  0.0085 -0.0565
 5913SOL    HW118197   0.703   6.029   6.219  0.0667 -0.4310 -0.1995
 5913SOL    HW218198   0.692   6.104   6.350  0.8734 -0.3156 -0.1922
 5914SOL     OW18199   5.754   0.206   4.402  0.4514 -0.6575  0.0255
 5914SOL    HW118200   5.807   0.204   4.482 -0.1787  0.9993  0.5204
 5914SOL    HW218201   5.812   0.243   4.336  0.8411 -1.6518 -0.2154
 5915SOL     OW18202   5.109   3.543   0.469  0.1096  0.1598  0.0925
 5915SOL    HW118203   5.184   3.489   0.495  0.4529  0.8409  0.5176
 5915SOL    HW218204   5.033   3.489   0.491  0.4570 -1.3711 -2.1037
 5916SOL     OW18205   4.657   5.240   2.822 -0.6604  0.5837  0.6766
 5916SOL    HW118206   4.710   5.298   2.876 -1.0294  2.3237 -0.6867
 5916SOL    HW218207   4.568   5.274   2.832 -1.3756 -1.5580  2.0246
 5917SOL     OW18208   4.454   3.366   0.163  0.0883 -0.1022  0.3367
 5917SOL    HW118209   4.369   3.343   0.126  0.9124 -1.5444 -0.7492
 5917SOL    HW218210   4.485   3.286   0.204  2.7636 -1.0311 -3.0324
 5918SOL     OW18211   4.095   1.532   3.835  0.4067 -0.2997 -0.0490
 5918SOL    HW118212   4.071   1.462   3.775 -1.5133  0.1024  0.1824
 5918SOL    HW218213   4.048   1.609   3.802 -0.2896  0.0494  1.6511
 5919SOL     OW18214   2.215   6.264   3.467  0.3782  0.7770 -0.0160
 5919SOL    HW118215   2.305   6.264   3.436  0.5359  0.4116  0.4347
 5919SOL    HW218216   2.218   6.215   3.549 -0.4560 -0.4057 -0.6624
 5920SOL     OW18217   4.759   2.304   4.305 -0.4579  0.0208  0.3740
 5920SOL    HW118218   4.738   2.211   4.316 -0.2661 -0.2752 -1.3735
 5920SOL    HW218219   4.723   2.327   4.219  1.9044  0.7967 -0.5044
 5921SOL     OW18220   1.743   5.626   1.184 -0.2930 -0.0961 -0.1543
 5921SOL    HW118221   1.726   5.566   1.111  1.3072  2.2189 -2.6189
 5921SOL    HW218222   1.835   5.612   1.206 -0.4411  0.0890  0.5916
 5922SOL     OW18223   5.465   0.228   5.815 -0.1177 -0.1010  0.2523
 5922SOL    HW118224   5.417   0.240   5.896 -0.9111  0.2653 -0.2635
 5922SOL    HW218225   5.430   0.147   5.778 -1.2764  0.8338 -0.7574
 5923SOL     OW18226   0.192   5.037   1.859 -0.0851 -0.4388 -0.0783
 5923SOL    HW118227   0.099   5.022   1.873  0.1422 -0.3277  1.8047
 5923SOL    HW218228   0.208   5.124   1.895  0.2835  0.7297 -2.8152
 5924SOL     OW18229   6.297   5.294   1.771  0.5283 -0.4230 -0.2374
 5924SOL    HW118230   6.232   5.356   1.738  1.0755  0.4498  0.3117
 5924SOL    HW218231   6.381   5.340   1.764  0.8799 -0.9033  0.6740
 5925SOL     OW18232   0.472   6.196   3.998 -0.5287  0.6930 -0.4802
 5925SOL    HW118233   0.525   6.158   3.928 -1.7322  2.0164 -2.1778
 5925SOL    HW218234   0.518   6.277   4.020 -0.9266  0.9969 -0.7622
 5926SOL     OW18235   5.572   4.336   5.803 -0.4883 -0.7895  0.1813
 5926SOL    HW118236   5.637   4.371   5.864 -0.9299 -2.4385  1.6628
 5926SOL    HW218237   5.615   4.342   5.717  0.9244 -0.2565  0.8913
 5927SOL     OW18238   3.785   4.389   4.592  0.3472  0.0087 -0.2504
 5927SOL    HW118239   3.771   4.472   4.547  0.9106  1.3173  1.8506
 5927SOL    HW218240   3.698   4.366   4.627  0.2197 -0.2067 -0.7103
 5928SOL     OW18241   5.266   0.778   4.394  0.0399 -0.1301  0.2608
 5928SOL    HW118242   5.202   0.793   4.464  0.6565 -0.1741  0.8395
 5928SOL    HW218243   5.213   0.757   4.318 -0.7539  2.1384  0.1231
 5929SOL     OW18244   1.050   3.353   3.871  0.3942  0.2606  0.1982
 5929SOL    HW118245   1.056   3.268   3.914  0.5313  0.2209  0.0990
 5929SOL    HW218246   1.137   3.391   3.880  0.3541  0.3581  0.1751
 5930SOL     OW18247   3.745   5.182   5.436  0.2668 -0.3919  0.5177
 5930SOL    HW118248   3.700   5.264   5.456 -0.0453 -0.1849 -0.9083
 5930SOL    HW218249   3.754   5.138   5.520  3.8445  2.7399  2.0570
 5931SOL     OW18250   4.834   2.184   2.571 -0.3161  0.5411  0.2473
 5931SOL    HW118251   4.818   2.272   2.605 -2.0949  0.4021 -0.1446
 5931SOL    HW218252   4.752   2.136   2.587  0.9148 -1.3439  1.3045
 5932SOL     OW18253   4.252   2.502   1.950  0.2081 -0.2723 -0.2362
 5932SOL    HW118254   4.228   2.584   1.993  0.1888  0.5477 -1.7719
 5932SOL    HW218255   4.219   2.434   2.009 -1.5465  0.8127  0.0864
 5933SOL     OW18256   5.800   2.838   1.250  0.3874  0.6576  0.3605
 5933SOL    HW118257   5.759   2.760   1.287  1.3949  0.4731  1.1213
 5933SOL    HW218258   5.793   2.826   1.156 -0.6167  0.2714  0.4736
 5934SOL     OW18259   0.462   3.801   1.953 -0.4971 -0.0555  0.0414
 5934SOL    HW118260   0.416   3.875   1.914  0.3244  0.2924 -0.2720
 5934SOL    HW218261   0.404   3.726   1.936 -0.5907  0.2409 -1.0288
 5935SOL     OW18262   1.456   5.674   5.959  0.1547  0.0683  0.3238
 5935SOL    HW118263   1.521   5.669   5.889 -0.6601 -0.1411 -0.4409
 5935SOL    HW218264   1.507   5.684   6.039  1.0772  2.0533 -0.4454
 5936SOL     OW18265   2.225   1.436   4.115 -0.3504  0.2026  0.1320
 5936SOL    HW118266   2.296   1.373   4.102 -0.2185 -0.3056  2.7367
 5936SOL    HW218267   2.267   1.522   4.104 -0.4011 -0.0578 -2.8549
 5937SOL     OW18268   5.194   4.498   1.613 -0.0003  0.4833  0.4248
 5937SOL    HW118269   5.221   4.534   1.528  0.3797 -1.3328 -0.2707
 5937SOL    HW218270   5.100   4.512   1.616 -0.2638 -0.6916 -0.9808
 5938SOL     OW18271   4.186   4.399   5.694  0.0385 -0.0419  0.0733
 5938SOL    HW118272   4.171   4.354   5.611 -1.0235  3.2794 -1.7397
 5938SOL    HW218273   4.098   4.415   5.728  0.4240 -0.1595  1.1521
 5939SOL     OW18274   5.723   1.095   2.770  0.4038 -0.1511  1.0183
 5939SOL    HW118275   5.788   1.067   2.705  0.7820  0.0256  1.3169
 5939SOL    HW218276   5.722   1.191   2.763  0.3530 -0.1393  1.1840
 5940SOL     OW18277   4.921   5.930   0.315  0.7582 -0.0397 -0.4217
 5940SOL    HW118278   5.012   5.908   0.335  0.6982  1.0289  1.1734
 5940SOL    HW218279   4.873   5.911   0.396 -0.1541  0.9287 -0.7046
 5941SOL     OW18280   3.443   3.250   6.285 -0.2610 -0.5357  0.0807
 5941SOL    HW118281   3.393   3.326   6.313 -1.9608 -0.3389 -3.0239
 5941SOL    HW218282   3.518   3.287   6.238 -0.4615 -0.7567 -0.4242
 5942SOL     OW18283   4.692   4.273   3.834 -0.1597  0.2230 -0.2838
 5942SOL    HW118284   4.722   4.315   3.753 -2.9509  0.3428 -1.3992
 5942SOL    HW218285   4.602   4.305   3.845 -0.8213 -1.9602  1.3334
 5943SOL     OW18286   4.791   5.780   2.581 -0.1542 -0.6229  0.2090
 5943SOL    HW118287   4.738   5.845   2.626 -1.0466 -1.0383 -0.2189
 5943SOL    HW218288   4.820   5.720   2.649  0.3380 -0.0147  0.5436
 5944SOL     OW18289   4.337   6.205   0.739 -0.4475  0.2151  0.4635
 5944SOL    HW118290   4.244   6.185   0.727  0.2291 -2.9952 -0.1158
 5944SOL    HW218291   4.363   6.250   0.659 -1.8253  2.8856  1.3918
 5945SOL     OW18292   0.756   2.402   3.888  0.4375 -0.5772 -0.2289
 5945SOL    HW118293   0.807   2.339   3.837  0.6202 -1.6633  1.2172
 5945SOL    HW218294   0.820   2.466   3.917  0.7499 -1.1607  0.4084
 5946SOL     OW18295   3.513   4.105   0.938  0.4304 -0.3143  0.0699
 5946SOL    HW118296   3.541   4.091   0.848  1.3799 -1.4411  0.5080
 5946SOL    HW218297   3.585   4.154   0.978 -0.0648  0.3343  0.1727
 5947SOL     OW18298   0.174   3.470   0.902  0.6834  0.2242 -0.0528
 5947SOL    HW118299   0.148   3.416   0.827 -0.1037  1.7389 -0.8998
 5947SOL    HW218300   0.270   3.464   0.903  0.6496 -0.5722 -0.5951
 5948SOL     OW18301   3.415   6.116   1.781 -0.5778  0.1226 -0.5909
 5948SOL    HW118302   3.450   6.185   1.837 -1.5728 -0.1111  0.3618
 5948SOL    HW218303   3.449   6.136   1.694  0.9793  0.5206  0.0658
 5949SOL     OW18304   0.081   4.718   2.547 -0.6944 -0.9639  0.5123
 5949SOL    HW118305   0.080   4.683   2.458  0.4243  1.8669 -0.7301
 5949SOL    HW218306   0.161   4.681   2.586 -0.0857 -0.6428 -0.3978
 5950SOL     OW18307   5.902   5.819   3.480  0.3437 -0.0130 -0.2185
 5950SOL    HW118308   5.986   5.838   3.520  1.2343 -0.6171 -1.7113
 5950SOL    HW218309   5.882   5.897   3.428  0.6733 -0.4032 -0.9488
 5951SOL     OW18310   4.482   1.450   2.273 -0.2102  0.5609 -0.5140
 5951SOL    HW118311   4.443   1.433   2.359  0.9957  0.8033  0.1034
 5951SOL    HW218312   4.449   1.379   2.218  0.4498 -0.6858  0.6355
 5952SOL     OW18313   5.313   3.613   1.838 -0.0161 -0.4882 -0.6080
 5952SOL    HW118314   5.227   3.572   1.850  0.6360 -2.2132 -1.4784
 5952SOL    HW218315   5.293   3.705   1.821 -1.6519 -0.7245 -0.1769
 5953SOL     OW18316   5.457   6.351   2.673 -0.0203  0.1836 -0.4656
 5953SOL    HW118317   5.441   6.355   2.767  1.0905 -0.4184 -0.2354
 5953SOL    HW218318   5.528   6.288   2.663 -1.3447 -1.2015 -1.8629
 5954SOL     OW18319   5.679   3.758   0.931 -0.6239 -0.4754 -0.9359
 5954SOL    HW118320   5.686   3.682   0.989 -0.4350  0.3309  0.1091
 5954SOL    HW218321   5.638   3.723   0.851  1.3012 -2.1097 -1.2950
 5955SOL     OW18322   1.154   5.314   0.651  0.6946  0.8300 -0.2881
 5955SOL    HW118323   1.220   5.359   0.599 -1.0255  2.8479 -0.8714
 5955SOL    HW218324   1.127   5.239   0.598  0.1430  1.9212 -1.5938
 5956SOL     OW18325   0.999   6.062   0.231  0.8357  0.4668  0.5200
 5956SOL    HW118326   1.069   5.998   0.221  0.0167 -0.3803  0.0617
 5956SOL    HW218327   0.929   6.015   0.277 -0.3446  0.5522 -1.0853
 5957SOL     OW18328   3.969   1.295   3.424 -0.1225 -0.4806  0.1025
 5957SOL    HW118329   3.949   1.208   3.458  0.2403 -0.1886  1.0995
 5957SOL    HW218330   4.049   1.321   3.470  1.0242 -0.4968 -1.7940
 5958SOL     OW18331   6.165   4.791   6.355  0.3087  0.2310 -0.5397
 5958SOL    HW118332   6.225   4.865   6.357 -0.5251  1.0201 -2.1578
 5958SOL    HW218333   6.078   4.831   6.367 -0.0766 -0.5834 -0.5851
 5959SOL     OW18334   4.601   5.267   1.140 -0.9744 -0.4693 -0.0594
 5959SOL    HW118335   4.640   5.187   1.103  1.6434  0.2130  1.0710
 5959SOL    HW218336   4.581   5.321   1.063 -0.5633 -1.2197 -0.7112
 5960SOL     OW18337   0.477   3.460   5.117 -0.0937 -0.4882  0.9517
 5960SOL    HW118338   0.454   3.547   5.086 -1.3723 -0.9112  0.6738
 5960SOL    HW218339   0.469   3.465   5.212  1.2975  0.0875  1.0643
 5961SOL     OW18340   3.506   5.017   5.135 -0.1374 -0.1927  0.3178
 5961SOL    HW118341   3.428   5.068   5.153 -0.5250 -0.7951  0.3753
 5961SOL    HW218342   3.510   4.953   5.207  1.1924  0.7297  1.1122
 5962SOL     OW18343   1.646   4.493   1.101 -0.2633 -0.0335 -0.2862
 5962SOL    HW118344   1.671   4.481   1.009  0.1400 -0.0109 -0.1833
 5962SOL    HW218345   1.699   4.429   1.149 -0.8077 -0.3593 -0.1135
 5963SOL     OW18346   1.681   1.781   4.200  0.2381  0.0166  0.3141
 5963SOL    HW118347   1.750   1.748   4.257  1.4879  3.1941  0.8548
 5963SOL    HW218348   1.608   1.800   4.259  0.1017 -0.2951  0.2473
 5964SOL     OW18349   4.380   1.052   2.579 -0.1712  0.5048 -0.1648
 5964SOL    HW118350   4.295   1.092   2.599 -0.4742 -0.7604  1.3925
 5964SOL    HW218351   4.359   0.960   2.563  1.1048 -0.5011  3.0895
 5965SOL     OW18352   5.654   2.178   2.472  0.0795 -0.2938 -0.2156
 5965SOL    HW118353   5.712   2.186   2.548  0.0737  1.3959 -0.3655
 5965SOL    HW218354   5.572   2.143   2.509  0.2212  0.0814  0.4804
 5966SOL     OW18355   5.222   0.161   2.678 -0.8156 -0.5386  0.2214
 5966SOL    HW118356   5.289   0.095   2.693 -1.4179 -1.0218  0.8750
 5966SOL    HW218357   5.168   0.126   2.607  0.0630  0.2093 -0.8463
 5967SOL     OW18358   2.988   4.383   5.373  0.1230  0.1164  0.4259
 5967SOL    HW118359   2.952   4.328   5.304 -0.8738  0.0855  0.9495
 5967SOL    HW218360   3.081   4.392   5.352 -0.0595 -0.3569 -0.5947
 5968SOL     OW18361   0.618   5.086   1.667 -0.2664  0.1214  0.3673
 5968SOL    HW118362   0.648   5.085   1.576  1.0673  2.3477  0.7133
 5968SOL    HW218363   0.620   4.994   1.694 -0.3404 -0.5426 -1.7244
 5969SOL     OW18364   1.831   4.929   5.271 -0.0157 -0.4381  0.1456
 5969SOL    HW118365   1.923   4.903   5.265 -0.1022 -0.4843 -1.0888
 5969SOL    HW218366   1.795   4.913   5.184 -1.0888  0.0019  0.4905
 5970SOL     OW18367   3.926   5.665   3.159 -0.4580 -0.4797  0.6214
 5970SOL    HW118368   3.830   5.670   3.162 -0.5521  2.7537 -2.4281
 5970SOL    HW218369   3.953   5.686   3.249 -2.5499 -0.4201  1.3000
 5971SOL     OW18370   3.379   4.282   2.760 -0.1344 -0.5442  0.4612
 5971SOL    HW118371   3.439   4.351   2.730  0.4010 -0.7819  0.9768
 5971SOL    HW218372   3.297   4.328   2.779 -0.1340 -0.2225 -0.2853
 5972SOL     OW18373   4.511   2.247   1.589  0.2973  0.2787 -0.2125
 5972SOL    HW118374   4.522   2.194   1.668  1.2821  0.0297 -0.5092
 5972SOL    HW218375   4.432   2.299   1.607 -0.0337 -0.4481  0.5473
 5973SOL     OW18376   6.055   5.688   0.399 -1.1404  0.4103  0.0553
 5973SOL    HW118377   6.003   5.712   0.322  0.0368 -0.4391 -1.0683
 5973SOL    HW218378   6.126   5.753   0.400 -1.6609  0.9881  1.0101
 5974SOL     OW18379   6.093   2.283   0.380  0.0138 -0.4550 -0.0196
 5974SOL    HW118380   6.161   2.253   0.440 -1.2437  1.1537  2.3736
 5974SOL    HW218381   6.137   2.348   0.325  1.0816 -1.6265 -0.6168
 5975SOL     OW18382   5.178   3.056   2.282 -0.0850  0.2297 -0.3808
 5975SOL    HW118383   5.269   3.032   2.265  0.0862  0.8070 -0.3062
 5975SOL    HW218384   5.179   3.090   2.372 -0.2782  0.7197 -0.5630
 5976SOL     OW18385   3.488   1.714   0.170  0.3968 -0.5288 -0.4210
 5976SOL    HW118386   3.418   1.660   0.207 -1.3837  0.8789 -1.5168
 5976SOL    HW218387   3.511   1.775   0.239  0.0776 -0.5905 -0.2602
 5977SOL     OW18388   1.854   5.733   3.495 -0.1733 -0.5718 -1.2138
 5977SOL    HW118389   1.873   5.802   3.558 -0.4294 -0.9806 -0.6748
 5977SOL    HW218390   1.858   5.776   3.409  0.2426 -0.0259 -0.9222
 5978SOL     OW18391   4.606   0.426   2.169  0.3970 -0.2689  0.2178
 5978SOL    HW118392   4.622   0.401   2.079  2.2106  0.5226  0.2783
 5978SOL    HW218393   4.512   0.415   2.181  0.2047 -0.8369 -1.6116
 5979SOL     OW18394   1.825   4.217   5.891  0.2859 -0.3246 -0.9326
 5979SOL    HW118395   1.787   4.267   5.963 -3.9218 -1.0553 -2.3657
 5979SOL    HW218396   1.833   4.128   5.926  0.6403 -0.1787 -0.6373
 5980SOL     OW18397   0.465   0.919   2.245  0.4992 -0.3872  1.2397
 5980SOL    HW118398   0.425   0.898   2.329  1.4862 -0.0272  1.8233
 5980SOL    HW218399   0.474   0.835   2.201 -0.5863 -0.5033  1.2264
 5981SOL     OW18400   4.866   6.275   4.802  0.2311 -0.5352 -0.0331
 5981SOL    HW118401   4.778   6.275   4.839  0.5043  0.0545  0.6556
 5981SOL    HW218402   4.906   6.194   4.836  0.4301 -0.0743  0.8770
 5982SOL     OW18403   1.445   0.423   2.880  0.2214 -0.3900 -0.8279
 5982SOL    HW118404   1.465   0.516   2.875  0.5344 -0.2296  1.8658
 5982SOL    HW218405   1.412   0.401   2.793 -2.8433  2.9587 -0.7569
 5983SOL     OW18406   4.901   5.175   4.992 -0.4089  0.1962  0.1284
 5983SOL    HW118407   4.899   5.269   4.980 -1.6095  0.2872  0.8656
 5983SOL    HW218408   4.874   5.162   5.083  0.8794 -0.8093  0.3991
 5984SOL     OW18409   6.328   0.587   2.305  0.5952  0.2650 -0.7279
 5984SOL    HW118410   6.347   0.659   2.365  0.0212 -0.5759  0.5068
 5984SOL    HW218411   6.233   0.575   2.311  0.5592  0.0185 -1.6452
 5985SOL     OW18412   5.649   1.365   5.778  0.5274 -0.3069 -0.0269
 5985SOL    HW118413   5.581   1.298   5.781  0.9806 -0.8333 -0.9432
 5985SOL    HW218414   5.645   1.407   5.863 -0.2541 -1.0189  0.3036
 5986SOL     OW18415   3.219   3.913   1.907  0.3126 -0.0099 -0.4104
 5986SOL    HW118416   3.284   3.865   1.856 -1.0604 -2.0302 -0.3481
 5986SOL    HW218417   3.227   3.878   1.995 -2.5933 -2.3179 -0.9254
 5987SOL     OW18418   0.070   2.234   5.211 -0.4106  0.4821  0.2367
 5987SOL    HW118419   0.080   2.326   5.234  0.3489  1.1530 -2.4232
 5987SOL    HW218420   0.011   2.234   5.136  2.0799 -0.8047 -1.8823
 5988SOL     OW18421   1.701   0.374   3.330 -0.3075  0.0159  0.5200
 5988SOL    HW118422   1.750   0.299   3.364 -0.5310 -0.3136  0.1197
 5988SOL    HW218423   1.659   0.341   3.250 -0.0441  0.6924  0.0985
 5989SOL     OW18424   4.895   1.336   2.134  0.3688  0.1094 -0.1422
 5989SOL    HW118425   4.820   1.331   2.075  0.2510 -0.2253  0.0356
 5989SOL    HW218426   4.856   1.334   2.222  0.4788  1.4132 -0.0390
 5990SOL     OW18427   6.036   5.299   2.527 -0.1919  0.2910  0.1049
 5990SOL    HW118428   6.015   5.286   2.435 -0.0378 -1.9568  0.3374
 5990SOL    HW218429   6.131   5.303   2.530 -0.1990  0.4087  0.1524
 5991SOL     OW18430   3.897   3.306   6.024 -0.1905  0.1953 -0.1746
 5991SOL    HW118431   3.911   3.223   5.979 -0.1897  1.0025 -1.7637
 5991SOL    HW218432   3.978   3.355   6.009  0.3388  0.0098  1.8911
 5992SOL     OW18433   4.599   4.119   1.480  0.0498  0.3459 -0.1009
 5992SOL    HW118434   4.686   4.080   1.481 -0.1104 -0.0030  0.3809
 5992SOL    HW218435   4.558   4.090   1.562 -0.8092 -0.1636 -0.6915
 5993SOL     OW18436   4.127   4.667   3.665  0.3378  0.2235  0.0292
 5993SOL    HW118437   4.135   4.687   3.572 -0.5647  0.4594 -0.0005
 5993SOL    HW218438   4.177   4.586   3.676 -1.6735 -1.2780 -1.1741
 5994SOL     OW18439   4.549   5.098   0.066 -0.0550 -0.1644 -0.2120
 5994SOL    HW118440   4.618   5.131   0.009  0.0621 -0.5559 -0.3031
 5994SOL    HW218441   4.578   5.010   0.091 -0.5035 -0.3206 -0.2231
 5995SOL     OW18442   0.682   6.168   2.535  0.2893  0.5940 -0.0602
 5995SOL    HW118443   0.644   6.247   2.574 -1.0028 -0.0107 -0.0210
 5995SOL    HW218444   0.759   6.149   2.587 -0.4249  0.7964  1.1068
 5996SOL     OW18445   1.476   0.741   2.008 -0.7313  0.0171  0.1721
 5996SOL    HW118446   1.383   0.727   2.026 -0.8458  1.6902  1.0835
 5996SOL    HW218447   1.518   0.733   2.094 -0.2296  0.6019 -0.0146
 5997SOL     OW18448   1.064   1.778   2.178 -0.0862 -0.3218 -0.2178
 5997SOL    HW118449   1.061   1.714   2.106 -0.5473 -0.6050  0.0485
 5997SOL    HW218450   1.039   1.861   2.137  1.6302 -0.0539 -0.8160
 5998SOL     OW18451   1.679   4.983   4.799  0.0118 -0.0154  0.4355
 5998SOL    HW118452   1.743   5.054   4.803 -1.0564  0.9174  1.9071
 5998SOL    HW218453   1.649   4.982   4.708  0.6712  0.8387  0.2000
 5999SOL     OW18454   2.667   3.227   1.003  0.5286  0.0403  0.1847
 5999SOL    HW118455   2.724   3.194   1.072 -1.3460 -0.8940  1.3681
 5999SOL    HW218456   2.588   3.172   1.008 -0.4617  1.2173 -1.4140
 6000SOL     OW18457   0.695   0.800   4.516  0.0197 -0.3286  0.3796
 6000SOL    HW118458   0.765   0.768   4.459  1.4142  0.8001  1.3642
 6000SOL    HW218459   0.733   0.877   4.559 -1.4720 -0.2987  1.7426
 6001SOL     OW18460   5.935   5.899   4.139 -0.6338 -0.8571 -0.1413
 6001SOL    HW118461   5.998   5.970   4.136 -0.2166 -1.2388 -2.4425
 6001SOL    HW218462   5.857   5.934   4.096 -0.9774 -1.2991  0.1115
 6002SOL     OW18463   3.589   2.079   4.734 -0.1499 -0.5609  0.1582
 6002SOL    HW118464   3.560   2.004   4.786  0.3745 -0.2219  0.9671
 6002SOL    HW218465   3.641   2.131   4.796 -3.0134  2.0897  0.5196
 6003SOL     OW18466   5.401   2.009   3.771  0.1516 -0.3618  0.2278
 6003SOL    HW118467   5.384   2.100   3.749  0.0497 -0.4511 -0.0612
 6003SOL    HW218468   5.366   1.998   3.860  1.9006  0.4016  1.0644
 6004SOL     OW18469   2.143   4.143   0.511 -0.2376  0.3718 -0.1249
 6004SOL    HW118470   2.050   4.126   0.497 -0.8901  2.0378  1.6283
 6004SOL    HW218471   2.166   4.208   0.445 -0.7901  1.2123  0.4901
 6005SOL     OW18472   0.260   1.414   5.705  0.2085 -0.3993 -0.1648
 6005SOL    HW118473   0.347   1.446   5.682 -0.5114  1.4615 -0.4826
 6005SOL    HW218474   0.236   1.463   5.784 -1.4253  0.8608 -1.3587
 6006SOL     OW18475   3.831   5.054   6.234  0.1558 -0.4363  0.7236
 6006SOL    HW118476   3.796   4.973   6.272  0.7963 -1.6581 -1.1807
 6006SOL    HW218477   3.820   5.043   6.140  0.7771  1.4770  0.3886
 6007SOL     OW18478   2.560   4.651   6.172  0.2491  0.5528  0.3655
 6007SOL    HW118479   2.630   4.620   6.229  2.5469  3.0639 -0.8916
 6007SOL    HW218480   2.488   4.672   6.233  1.0787 -0.6707  1.8539
 6008SOL     OW18481   2.670   1.456   4.213 -0.2537 -0.0200  0.0410
 6008SOL    HW118482   2.674   1.532   4.272 -0.7069 -0.4710  0.6587
 6008SOL    HW218483   2.762   1.439   4.191 -0.1391  0.6720 -0.0598
 6009SOL     OW18484   1.305   5.347   5.164  0.1786  0.1842  0.5254
 6009SOL    HW118485   1.349   5.373   5.083 -0.3406 -0.0179  0.1723
 6009SOL    HW218486   1.366   5.372   5.233  1.1466 -0.6995  0.0169
 6010SOL     OW18487   4.611   3.262   3.063 -0.2522  0.1902 -0.4179
 6010SOL    HW118488   4.634   3.210   3.140  0.6313  1.2525  0.0529
 6010SOL    HW218489   4.548   3.326   3.096  2.5356  2.7860  0.2401
 6011SOL     OW18490   4.478   1.511   0.352 -0.3016 -0.5440 -0.3982
 6011SOL    HW118491   4.404   1.454   0.332 -0.2398 -0.0602 -2.1822
 6011SOL    HW218492   4.439   1.594   0.380 -0.4425 -0.3968 -1.0200
 6012SOL     OW18493   2.952   5.418   6.316  0.2711 -0.6010 -0.5737
 6012SOL    HW118494   2.983   5.507   6.331 -0.9288 -0.4441  1.2815
 6012SOL    HW218495   2.877   5.428   6.257 -0.9416 -0.1560  0.9893
 6013SOL     OW18496   0.296   3.840   6.265 -0.2125 -0.1184  0.3672
 6013SOL    HW118497   0.216   3.879   6.301  0.4970  0.6673  1.1535
 6013SOL    HW218498   0.367   3.891   6.304  0.7473 -1.8285  0.9630
 6014SOL     OW18499   5.055   6.091   1.976  0.0337 -0.3721  0.6090
 6014SOL    HW118500   5.095   6.085   1.890  0.4303  1.3265  0.6363
 6014SOL    HW218501   5.119   6.052   2.035  1.1755  1.2299  0.4951
 6015SOL     OW18502   3.766   4.622   1.274 -0.2662 -0.1259  0.5750
 6015SOL    HW118503   3.787   4.627   1.181 -1.9033  0.3288  0.1979
 6015SOL    HW218504   3.689   4.565   1.279  0.4398 -1.0342  1.7836
 6016SOL     OW18505   5.016   4.705   0.898  0.2123  0.1165  0.4028
 6016SOL    HW118506   4.983   4.699   0.988 -0.9417  0.5720  0.0328
 6016SOL    HW218507   5.101   4.747   0.907  0.4048 -0.4230  1.3342
 6017SOL     OW18508   6.342   3.677   6.075 -0.6342  0.6231  0.2502
 6017SOL    HW118509   6.311   3.628   5.999 -2.1236  2.8085 -0.6542
 6017SOL    HW218510   6.264   3.688   6.130 -0.1240  1.1671  0.8837
 6018SOL     OW18511   3.766   5.654   3.862  0.1112  0.0200 -0.0096
 6018SOL    HW118512   3.780   5.626   3.771  1.0492 -0.8235  0.3856
 6018SOL    HW218513   3.728   5.578   3.905  0.1697  0.2456  0.4426
 6019SOL     OW18514   2.896   2.953   1.329  0.1822  0.5461  0.5842
 6019SOL    HW118515   2.874   2.865   1.361  0.5206  0.2408 -0.0114
 6019SOL    HW218516   2.812   2.989   1.300  0.2156 -0.0760 -0.3543
 6020SOL     OW18517   1.445   1.227   4.732  0.0887 -0.2259 -0.2346
 6020SOL    HW118518   1.434   1.260   4.643 -1.2126  0.2597  0.0795
 6020SOL    HW218519   1.495   1.146   4.722 -0.6754 -0.5657 -1.4710
 6021SOL     OW18520   4.543   1.626   5.723 -0.5259 -0.7600  0.0437
 6021SOL    HW118521   4.620   1.574   5.744 -0.1396 -0.0143  0.4954
 6021SOL    HW218522   4.513   1.660   5.807 -0.4184  0.2413 -0.3120
 6022SOL     OW18523   3.503   1.495   1.730  0.3114  0.1109 -0.6990
 6022SOL    HW118524   3.559   1.504   1.808  0.6675 -0.7267 -0.8464
 6022SOL    HW218525   3.565   1.484   1.658  0.0197  1.8754 -1.2784
 6023SOL     OW18526   4.630   1.077   2.919 -0.2589 -0.3854 -0.2869
 6023SOL    HW118527   4.681   0.998   2.906  0.4455  0.3064 -2.0719
 6023SOL    HW218528   4.668   1.117   2.998 -0.2234 -1.4911  0.2760
 6024SOL     OW18529   2.174   3.369   1.579  0.2984  0.2184  0.2824
 6024SOL    HW118530   2.102   3.432   1.584  0.2834  0.1841  0.4966
 6024SOL    HW218531   2.134   3.289   1.543  0.6217  0.7917 -1.4539
 6025SOL     OW18532   4.848   0.704   3.322 -0.1685  0.0653 -0.3308
 6025SOL    HW118533   4.883   0.614   3.318  1.1003  0.4959  0.3761
 6025SOL    HW218534   4.916   0.758   3.282 -1.0193  0.7027 -0.9516
 6026SOL     OW18535   1.041   1.970   5.330 -0.0350 -0.5133  0.4255
 6026SOL    HW118536   0.982   2.036   5.294  0.8062 -0.5634 -1.1249
 6026SOL    HW218537   1.114   2.020   5.366 -0.2436 -0.5382  0.9053
 6027SOL     OW18538   5.417   5.248   0.569 -0.0773  0.0413 -0.4772
 6027SOL    HW118539   5.349   5.182   0.557 -0.6950  0.4741  0.5183
 6027SOL    HW218540   5.490   5.200   0.608  0.0046 -0.3180 -1.0548
 6028SOL     OW18541   2.645   4.261   1.694  0.0110 -0.1147 -0.5119
 6028SOL    HW118542   2.568   4.204   1.695  0.1935 -0.3673 -0.6149
 6028SOL    HW218543   2.616   4.341   1.650 -0.5292  0.2852  0.5524
 6029SOL     OW18544   1.972   6.197   1.625  0.1148 -0.0990  0.1944
 6029SOL    HW118545   1.950   6.131   1.559 -2.0376  1.6401 -0.9434
 6029SOL    HW218546   1.942   6.158   1.707 -1.3521 -0.4859 -0.4844
 6030SOL     OW18547   3.241   4.039   0.811  0.2970 -0.4782  0.0521
 6030SOL    HW118548   3.314   4.040   0.872  0.9385  0.4813 -0.7035
 6030SOL    HW218549   3.194   4.121   0.829  0.6605 -0.0401 -0.9138
 6031SOL     OW18550   4.365   1.984   4.579  0.6575 -0.1816 -0.5354
 6031SOL    HW118551   4.437   2.017   4.633  0.4552  0.2241 -0.5094
 6031SOL    HW218552   4.305   1.944   4.642 -0.1383  1.3048 -0.3104
 6032SOL     OW18553   1.948   3.451   5.007  0.6285 -0.0805  0.1974
 6032SOL    HW118554   1.976   3.440   5.098  0.9531 -0.3456  0.0690
 6032SOL    HW218555   2.029   3.466   4.959  0.4301  0.3285 -0.0117
 6033SOL     OW18556   4.332   5.001   5.937  0.0493 -0.3349  0.5475
 6033SOL    HW118557   4.426   4.982   5.932  0.3266  1.1468 -0.4133
 6033SOL    HW218558   4.326   5.068   6.005 -0.2086  0.1901  0.0048
 6034SOL     OW18559   1.408   0.175   1.095  0.1457 -0.3488 -0.2230
 6034SOL    HW118560   1.347   0.102   1.100  0.4004 -1.0205 -4.0955
 6034SOL    HW218561   1.492   0.138   1.123 -0.2882 -0.6295  0.7704
 6035SOL     OW18562   6.331   1.461   3.744 -0.3255  0.5321 -0.3168
 6035SOL    HW118563   6.280   1.414   3.810  2.1375 -1.4794  0.3066
 6035SOL    HW218564   6.358   1.393   3.681  4.7470  0.4236  1.4845
 6036SOL     OW18565   4.554   4.107   0.733 -0.0430 -0.0067  0.7112
 6036SOL    HW118566   4.590   4.064   0.810 -0.4571  0.8062  1.3631
 6036SOL    HW218567   4.618   4.173   0.709  0.5653 -0.9139 -0.2607
 6037SOL     OW18568   5.372   2.199   2.266 -0.3032  0.1579 -0.5083
 6037SOL    HW118569   5.375   2.276   2.210 -1.4188 -1.1635 -2.5036
 6037SOL    HW218570   5.459   2.195   2.306 -0.4352  2.7574  0.1706
 6038SOL     OW18571   1.949   4.930   1.849 -0.5493  0.3665  0.1522
 6038SOL    HW118572   1.959   4.835   1.847 -0.9697  0.3251 -1.3373
 6038SOL    HW218573   1.967   4.954   1.940 -1.0973 -1.2043  0.7157
 6039SOL     OW18574   5.899   4.509   6.224  0.1395 -0.0400  0.1846
 6039SOL    HW118575   5.881   4.484   6.315  1.9923  1.2068  0.9666
 6039SOL    HW218576   5.974   4.455   6.199  0.5939  0.6817 -0.0516
 6040SOL     OW18577   0.438   4.316   1.253 -0.0591 -0.2934  0.1268
 6040SOL    HW118578   0.496   4.391   1.269 -0.8809  0.3190  0.3228
 6040SOL    HW218579   0.376   4.348   1.187  0.0601 -1.0640 -0.3617
 6041SOL     OW18580   1.831   6.021   5.131 -0.1888  0.0388 -0.4353
 6041SOL    HW118581   1.856   6.059   5.047  0.2489 -0.0807 -0.3644
 6041SOL    HW218582   1.819   6.096   5.189  0.9181  0.0736 -0.2296
 6042SOL     OW18583   5.668   0.015   1.642 -0.0393 -0.1047 -0.2579
 6042SOL    HW118584   5.704   0.103   1.653 -0.2862 -0.0040 -0.2368
 6042SOL    HW218585   5.744  -0.040   1.624  0.0707  0.1823 -0.6851
 6043SOL     OW18586   3.840   0.594   2.416 -0.0654 -0.3878  0.1227
 6043SOL    HW118587   3.840   0.548   2.331  0.0300 -0.1462 -0.0093
 6043SOL    HW218588   3.903   0.544   2.469  1.3606  0.5945 -0.5844
 6044SOL     OW18589   0.011   6.089   4.132 -0.4826 -0.1148 -0.3968
 6044SOL    HW118590   0.095   6.061   4.095 -0.6211  2.7577 -3.3095
 6044SOL    HW218591   0.033   6.160   4.191 -0.8036  0.1694 -0.6152
 6045SOL     OW18592   0.753   3.623   5.911 -0.1451  0.0508 -0.4243
 6045SOL    HW118593   0.838   3.659   5.884 -0.1382 -0.5068 -1.1635
 6045SOL    HW218594   0.765   3.602   6.004  0.6005 -0.2288 -0.5729
 6046SOL     OW18595   1.055   0.587   0.799  0.1132  0.2856  0.0006
 6046SOL    HW118596   1.057   0.493   0.815 -2.3701  0.4813  1.9962
 6046SOL    HW218597   1.075   0.627   0.883  0.4088  1.5557 -0.6411
 6047SOL     OW18598   6.151   1.183   6.155  0.2809  0.1153 -0.6945
 6047SOL    HW118599   6.171   1.117   6.222  0.3408  0.9765  0.1486
 6047SOL    HW218600   6.113   1.256   6.203  0.5554  0.8585 -1.5679
 6048SOL     OW18601   1.814   0.453   2.596  0.4854  0.5782  0.9568
 6048SOL    HW118602   1.906   0.431   2.601  1.1865  3.2915  2.0594
 6048SOL    HW218603   1.792   0.443   2.503  1.5616 -1.1069  0.8484
 6049SOL     OW18604   3.044   0.938   5.858 -0.0630  0.0480  0.5997
 6049SOL    HW118605   3.135   0.910   5.857  0.2351  0.9086  1.4357
 6049SOL    HW218606   3.049   1.033   5.874 -1.0634  0.3387 -0.6530
 6050SOL     OW18607   4.405   3.189   5.246 -0.0552  0.0089  0.4887
 6050SOL    HW118608   4.496   3.185   5.215  0.0134  0.7849  0.5680
 6050SOL    HW218609   4.387   3.101   5.279  0.1872 -0.5684 -0.8620
 6051SOL     OW18610   3.828   0.630   4.092  0.1544 -0.3763  0.3954
 6051SOL    HW118611   3.901   0.604   4.148 -0.1896 -0.1947  0.9431
 6051SOL    HW218612   3.750   0.602   4.141 -0.2197  1.2986  0.8238
 6052SOL     OW18613   5.147   2.684   5.068 -0.3546 -0.0474 -0.2135
 6052SOL    HW118614   5.163   2.631   4.991 -0.7512  1.0038 -1.0531
 6052SOL    HW218615   5.100   2.761   5.035 -0.8078  0.2852  1.1139
 6053SOL     OW18616   2.452   3.694   2.817 -0.6142  0.2970  0.0982
 6053SOL    HW118617   2.405   3.777   2.825  0.4753  0.8142  1.5403
 6053SOL    HW218618   2.491   3.680   2.903 -1.0392 -1.8947 -0.0113
 6054SOL     OW18619   2.930   2.307   1.271 -0.0011  0.4661  0.1596
 6054SOL    HW118620   2.837   2.321   1.254  0.1851  1.9004  0.1904
 6054SOL    HW218621   2.968   2.395   1.272  1.0295  0.0621  1.9936
 6055SOL     OW18622   0.714   1.507   2.149  0.3053  0.1514  0.6274
 6055SOL    HW118623   0.762   1.480   2.071 -0.6093  0.7652 -0.1662
 6055SOL    HW218624   0.779   1.552   2.203  1.1324 -0.9834  0.5981
 6056SOL     OW18625   6.308   6.103   5.782 -0.1315  0.1203 -0.2120
 6056SOL    HW118626   6.320   6.018   5.739  0.2783 -0.6614  1.3716
 6056SOL    HW218627   6.241   6.147   5.729 -0.9920 -1.5311 -0.5772
 6057SOL     OW18628   3.972   3.452   4.190 -0.0457  0.1258  0.2930
 6057SOL    HW118629   3.914   3.527   4.203 -0.0711 -0.1747  2.0661
 6057SOL    HW218630   3.992   3.421   4.278 -1.3694 -2.9785 -0.3859
 6058SOL     OW18631   0.959   5.044   1.309 -0.1905 -0.0641  0.1977
 6058SOL    HW118632   0.928   5.076   1.394 -0.9174 -0.2465  0.0075
 6058SOL    HW218633   1.054   5.058   1.311 -0.2010 -0.0643  1.0380
 6059SOL     OW18634   2.736   5.302   2.696  0.2028  0.2520  0.2180
 6059SOL    HW118635   2.642   5.318   2.683  0.2197  0.1417 -0.0465
 6059SOL    HW218636   2.765   5.375   2.751  0.2762  1.1483 -0.9655
 6060SOL     OW18637   5.857   1.755   2.659 -0.2601  0.1802  0.6165
 6060SOL    HW118638   5.935   1.722   2.615 -0.6332  0.6890 -0.4575
 6060SOL    HW218639   5.876   1.847   2.675 -1.0470  0.5894 -0.6526
 6061SOL     OW18640   1.826   2.127   1.953  0.0309  0.1737 -0.1967
 6061SOL    HW118641   1.910   2.082   1.942  0.1838  0.6305 -1.0754
 6061SOL    HW218642   1.762   2.057   1.968  0.3482 -0.3067 -0.9810
 6062SOL     OW18643   0.284   3.255   1.167  0.4374  0.1738 -0.0746
 6062SOL    HW118644   0.274   3.262   1.072 -1.3098 -1.2666 -0.0402
 6062SOL    HW218645   0.197   3.231   1.199  1.2498 -0.5086  1.7716
 6063SOL     OW18646   4.994   4.855   4.257 -0.1160  0.5778  0.2143
 6063SOL    HW118647   5.037   4.784   4.304 -1.6824 -0.8787 -0.4388
 6063SOL    HW218648   5.019   4.843   4.166  0.5734  1.6287  0.2468
 6064SOL     OW18649   3.320   5.628   1.039 -0.0387 -0.0900  0.5021
 6064SOL    HW118650   3.225   5.636   1.028 -0.1056  2.9415  2.0948
 6064SOL    HW218651   3.331   5.603   1.131  0.6704  0.6352  0.6329
 6065SOL     OW18652   1.286   3.546   1.619  0.0126 -0.0042  0.4997
 6065SOL    HW118653   1.241   3.553   1.535 -0.5541  0.1355  0.8115
 6065SOL    HW218654   1.312   3.635   1.641  0.2946 -0.0607  0.4049
 6066SOL     OW18655   4.376   0.822   0.500 -0.1465  0.4991  0.0332
 6066SOL    HW118656   4.284   0.799   0.515 -0.0792  0.6452  0.7390
 6066SOL    HW218657   4.414   0.823   0.588  0.3855  1.0481 -0.1997
 6067SOL     OW18658   4.361   5.097   0.287  0.4982  0.2787  0.0581
 6067SOL    HW118659   4.271   5.069   0.272  0.3855 -0.5995  2.0019
 6067SOL    HW218660   4.401   5.100   0.200 -1.0969 -0.3933 -0.7254
 6068SOL     OW18661   5.688   3.310   5.320 -0.2781  0.2613  0.0706
 6068SOL    HW118662   5.606   3.356   5.337 -0.4164 -0.3995  1.3680
 6068SOL    HW218663   5.671   3.257   5.243 -0.0143  2.5490 -1.6782
 6069SOL     OW18664   5.767   0.795   1.106  0.6017  0.2684  0.4836
 6069SOL    HW118665   5.747   0.715   1.059  0.5372  0.4189  0.2519
 6069SOL    HW218666   5.767   0.769   1.198  1.4044 -0.1614  0.3650
 6070SOL     OW18667   1.063   5.677   5.389 -0.2409 -0.2254  0.2798
 6070SOL    HW118668   1.148   5.690   5.432  0.0045 -1.1741  0.0936
 6070SOL    HW218669   1.005   5.739   5.433  0.2862 -0.3425  1.1660
 6071SOL     OW18670   5.919   3.023   5.470  0.1280  0.0483 -0.0215
 6071SOL    HW118671   5.824   3.014   5.464  0.0396  0.4484  0.6802
 6071SOL    HW218672   5.936   3.114   5.448  0.2733  0.1883  0.6765
 6072SOL     OW18673   2.547   1.772   0.344 -0.2020 -0.0646  0.0634
 6072SOL    HW118674   2.478   1.716   0.378  1.0775 -1.4724  0.4212
 6072SOL    HW218675   2.538   1.765   0.249 -2.0442  1.7211  0.0168
 6073SOL     OW18676   3.059   1.076   1.219 -0.5155  0.2680 -0.3207
 6073SOL    HW118677   3.003   1.135   1.269  2.6830  3.1535  0.2027
 6073SOL    HW218678   3.065   1.117   1.132  0.2004 -0.3508 -0.5737
 6074SOL     OW18679   5.791   0.723   1.411  0.4360  0.0053 -0.1181
 6074SOL    HW118680   5.805   0.687   1.499 -0.9221 -0.2259  0.0265
 6074SOL    HW218681   5.742   0.804   1.425  0.9328  0.4002 -0.6180
 6075SOL     OW18682   4.823   2.706   2.154  0.2677 -0.1046 -0.4470
 6075SOL    HW118683   4.901   2.673   2.198 -0.9656 -2.3773  0.2097
 6075SOL    HW218684   4.831   2.674   2.064  1.3125  1.9345 -1.1324
 6076SOL     OW18685   2.903   0.248   4.523  0.3486 -0.1993  0.1737
 6076SOL    HW118686   2.896   0.305   4.600  0.9483 -0.2759  0.2911
 6076SOL    HW218687   2.921   0.161   4.559 -0.1557 -0.3885 -0.0218
 6077SOL     OW18688   0.145   5.339   5.257  0.0078 -0.0248  0.9047
 6077SOL    HW118689   0.084   5.386   5.314  0.6367  3.4432 -0.9807
 6077SOL    HW218690   0.226   5.388   5.264  0.5858 -0.4937 -1.6504
 6078SOL     OW18691   2.408   1.526   3.552  0.1222  0.2708 -0.2245
 6078SOL    HW118692   2.420   1.573   3.634 -0.7696  0.7055 -0.3336
 6078SOL    HW218693   2.332   1.569   3.511 -0.3604 -0.8998 -0.5811
 6079SOL     OW18694   1.054   4.931   4.550  0.4953  0.2456  0.2531
 6079SOL    HW118695   1.141   4.900   4.524 -0.1891 -3.0835  1.4094
 6079SOL    HW218696   1.004   4.932   4.468  0.7618 -1.1655  0.0455
 6080SOL     OW18697   3.996   1.631   4.937 -0.4465  0.1319 -0.2667
 6080SOL    HW118698   3.915   1.582   4.935  0.3312 -1.1851 -1.3982
 6080SOL    HW218699   3.983   1.697   5.006 -2.5548  0.1637 -0.6293
 6081SOL     OW18700   3.420   5.026   1.832  0.1398 -0.3348 -0.5534
 6081SOL    HW118701   3.373   5.039   1.915 -0.9368 -0.8403 -1.0575
 6081SOL    HW218702   3.475   5.103   1.824 -1.3596  0.8037 -0.4094
 6082SOL     OW18703   5.392   5.939   1.385  0.0653  0.8343 -0.8962
 6082SOL    HW118704   5.351   6.017   1.346  0.0051  0.8139 -0.8738
 6082SOL    HW218705   5.431   5.893   1.311 -0.9207  0.2590 -1.0885
 6083SOL     OW18706   1.070   1.752   6.130  0.2827 -0.5928 -0.4774
 6083SOL    HW118707   1.044   1.663   6.157  0.8428 -0.8423 -0.7479
 6083SOL    HW218708   1.163   1.757   6.151 -0.3598  1.0654  2.5229
 6084SOL     OW18709   6.153   2.179   1.938 -0.2199  0.3527 -0.2599
 6084SOL    HW118710   6.078   2.237   1.948  0.1991  0.8537  0.0650
 6084SOL    HW218711   6.211   2.203   2.010  0.3621  0.1503 -0.6506
 6085SOL     OW18712   3.303   2.747   3.667 -0.1533 -0.6505  0.7817
 6085SOL    HW118713   3.287   2.822   3.610 -1.0938 -0.7463  0.9083
 6085SOL    HW218714   3.217   2.706   3.679 -0.1047 -0.3157  2.6893
 6086SOL     OW18715   1.134   5.560   0.776 -0.5543  0.4999 -0.0973
 6086SOL    HW118716   1.141   5.466   0.759 -1.5893  0.4021  0.0045
 6086SOL    HW218717   1.100   5.567   0.865 -0.9218  0.9620 -0.2664
 6087SOL     OW18718   2.306   2.079   5.614  0.2025 -0.0308  0.4343
 6087SOL    HW118719   2.375   2.019   5.645 -1.3065 -2.1970 -0.1528
 6087SOL    HW218720   2.353   2.158   5.588  2.5539 -1.6304 -0.5306
 6088SOL     OW18721   0.387   3.338   3.592  0.4468  0.2144  0.4714
 6088SOL    HW118722   0.317   3.343   3.656  0.7095  1.0088  0.7010
 6088SOL    HW218723   0.467   3.358   3.642  0.6920  0.5270 -0.0399
 6089SOL     OW18724   5.632   2.011   3.585  0.0531 -1.1194 -0.0038
 6089SOL    HW118725   5.683   2.085   3.619 -1.5506  0.1890 -0.2887
 6089SOL    HW218726   5.560   2.002   3.647  0.0664 -2.2736 -0.1490
 6090SOL     OW18727   3.116   2.829   1.498 -0.0806  0.1809  0.2271
 6090SOL    HW118728   3.187   2.769   1.523 -0.5419 -0.2928  0.4226
 6090SOL    HW218729   3.044   2.806   1.555 -0.6567  0.1235 -0.5069
 6091SOL     OW18730   0.314   3.105   3.447 -0.4565  0.6152  0.2645
 6091SOL    HW118731   0.292   3.036   3.510 -0.8797  0.0971 -0.4364
 6091SOL    HW218732   0.353   3.174   3.501  0.6214 -0.4415  0.8954
 6092SOL     OW18733   5.530   5.981   0.372 -0.6894  0.2991  0.3982
 6092SOL    HW118734   5.535   5.976   0.467 -0.0532  0.1958  0.3607
 6092SOL    HW218735   5.473   5.908   0.347 -1.3278  0.6726  0.7340
 6093SOL     OW18736   5.804   1.626   4.068  0.5270  0.3091 -0.0499
 6093SOL    HW118737   5.772   1.677   4.142  0.6310 -0.6044  0.6387
 6093SOL    HW218738   5.725   1.609   4.015  0.7660  2.7959 -1.3498
 6094SOL     OW18739   0.478   0.923   1.154  0.1950  0.2469  0.3376
 6094SOL    HW118740   0.417   0.989   1.119 -1.7306 -0.4646  2.1293
 6094SOL    HW218741   0.523   0.889   1.077 -0.1707  2.2744 -0.8468
 6095SOL     OW18742   1.520   5.395   5.963 -0.2970 -0.2934 -0.4034
 6095SOL    HW118743   1.498   5.488   5.967 -1.4610 -0.3689 -3.2184
 6095SOL    HW218744   1.479   5.358   6.042 -1.7162  1.2408 -0.3535
 6096SOL     OW18745   4.008   3.615   2.531  0.2916  0.2773 -0.2290
 6096SOL    HW118746   3.932   3.670   2.513 -0.2963  0.9137  3.4096
 6096SOL    HW218747   3.974   3.525   2.529  0.0639  0.3850 -1.2059
 6097SOL     OW18748   5.600   3.352   0.772  0.0312  0.3802 -0.3046
 6097SOL    HW118749   5.655   3.373   0.847  0.8929  0.1519 -0.8482
 6097SOL    HW218750   5.596   3.256   0.771  1.5653  0.2747 -1.5708
 6098SOL     OW18751   5.868   0.227   3.095 -0.1888 -0.3898  0.1069
 6098SOL    HW118752   5.803   0.233   3.165  0.2948  0.1834  0.5179
 6098SOL    HW218753   5.859   0.137   3.061 -0.7670 -0.5101  0.5664
 6099SOL     OW18754   5.340   5.523   3.739 -0.2228 -0.0092 -0.0180
 6099SOL    HW118755   5.367   5.613   3.761 -1.2380 -0.0483  1.4846
 6099SOL    HW218756   5.245   5.526   3.736 -0.2571 -0.9824 -0.2936
 6100SOL     OW18757   5.204   3.040   6.305  0.1612 -0.2644  0.5926
 6100SOL    HW118758   5.218   3.014   6.214  2.7585  1.0353  0.5251
 6100SOL    HW218759   5.234   2.964   6.356  1.2508 -0.0308  0.3379
 6101SOL     OW18760   1.771   4.725   4.596  0.3275 -0.0967  0.1899
 6101SOL    HW118761   1.865   4.732   4.580  0.3255 -0.8043 -0.1505
 6101SOL    HW218762   1.744   4.814   4.619  1.1817 -0.0061  0.8747
 6102SOL     OW18763   5.037   0.825   3.170  0.0932 -0.1162  0.0920
 6102SOL    HW118764   5.030   0.916   3.198 -2.4399 -0.6351  1.5392
 6102SOL    HW218765   5.130   0.805   3.177  0.4890  1.8601  1.4979
 6103SOL     OW18766   3.008   4.540   3.159 -0.5487  0.1136 -0.7224
 6103SOL    HW118767   3.060   4.510   3.233 -0.5096  1.8292 -0.0107
 6103SOL    HW218768   3.059   4.514   3.082 -0.4431 -1.4215 -0.1727
 6104SOL     OW18769   2.251   2.169   1.130 -0.4796  0.1491 -0.3612
 6104SOL    HW118770   2.197   2.238   1.092  0.4119  0.8548 -0.3897
 6104SOL    HW218771   2.338   2.207   1.135  0.3146 -1.4099 -1.5268
 6105SOL     OW18772   1.319   3.091   3.027  0.0342  0.3192 -0.1378
 6105SOL    HW118773   1.377   3.037   2.973  0.0327 -0.6326  0.7697
 6105SOL    HW218774   1.378   3.147   3.077  0.0438  1.0646 -0.9674
 6106SOL     OW18775   2.226   4.914   1.534  0.0705 -0.6174 -0.6303
 6106SOL    HW118776   2.148   4.871   1.500 -0.8161  0.8291 -0.5289
 6106SOL    HW218777   2.234   4.994   1.481  0.5145  0.0772  0.4393
 6107SOL     OW18778   2.284   2.537   4.399 -0.2630  0.4620  0.0226
 6107SOL    HW118779   2.245   2.595   4.334  1.6807  2.4779  0.5304
 6107SOL    HW218780   2.365   2.506   4.358 -0.1145  0.0162  0.6430
 6108SOL     OW18781   5.475   2.944   5.247 -0.0718  0.6438  0.3311
 6108SOL    HW118782   5.400   2.896   5.284  0.6074  0.5173  1.6145
 6108SOL    HW218783   5.447   2.968   5.159 -0.9139 -0.9997  0.1110
 6109SOL     OW18784   5.999   4.980   5.255  0.0721 -0.1424  0.1450
 6109SOL    HW118785   6.059   5.022   5.317  1.6801 -0.6447 -1.0063
 6109SOL    HW218786   5.914   4.980   5.300  0.9304  0.5444  1.8541
 6110SOL     OW18787   0.781   6.064   0.386  0.3853  0.1046  0.6092
 6110SOL    HW118788   0.762   6.154   0.411 -2.5361 -0.5277  0.9533
 6110SOL    HW218789   0.754   6.011   0.461 -1.1179 -1.2654 -0.8258
 6111SOL     OW18790   1.166   0.807   3.022  0.8099  0.2020  0.2393
 6111SOL    HW118791   1.158   0.842   2.933  1.6191  0.1340  0.1324
 6111SOL    HW218792   1.114   0.866   3.076 -0.4911 -0.3104 -0.4151
 6112SOL     OW18793   5.837   0.478   5.664 -0.4095 -0.4704 -0.2229
 6112SOL    HW118794   5.881   0.409   5.714  0.1684  1.0070  1.4117
 6112SOL    HW218795   5.753   0.491   5.708 -0.4784 -0.0913 -0.4561
 6113SOL     OW18796   3.644   2.913   5.804 -0.2382 -0.2215  0.1498
 6113SOL    HW118797   3.563   2.892   5.851 -0.7532 -0.1046 -0.6643
 6113SOL    HW218798   3.626   2.888   5.713  0.4181  0.4052 -0.1594
 6114SOL     OW18799   3.590   5.915   4.759  0.1999  0.0601 -0.1824
 6114SOL    HW118800   3.597   6.000   4.802  1.5001 -0.6989  1.2227
 6114SOL    HW218801   3.632   5.927   4.674 -0.1996  0.9594 -0.2653
 6115SOL     OW18802   0.747   0.679   5.419  0.4971 -0.2114  0.1533
 6115SOL    HW118803   0.751   0.586   5.396  0.8433 -0.5154  1.3771
 6115SOL    HW218804   0.831   0.714   5.389 -0.8856  0.5441 -3.4657
 6116SOL     OW18805   4.313   6.137   2.349 -0.4246  0.1713 -0.6210
 6116SOL    HW118806   4.250   6.122   2.279  1.0366 -0.8325 -1.7742
 6116SOL    HW218807   4.398   6.143   2.306  0.2305  2.3267  0.8121
 6117SOL     OW18808   4.948   5.665   6.130  0.3593 -0.7249 -0.0077
 6117SOL    HW118809   5.017   5.710   6.180  0.3822  0.7536 -1.2909
 6117SOL    HW218810   4.943   5.578   6.170  0.9921  0.0798  1.9509
 6118SOL     OW18811   3.117   5.513   1.800 -0.0690 -0.5071 -0.5249
 6118SOL    HW118812   3.037   5.535   1.754  0.0425 -0.3348 -0.6367
 6118SOL    HW218813   3.129   5.584   1.863 -1.3841 -1.8098  1.2971
 6119SOL     OW18814   1.965   0.641   5.527  0.0660  0.6289 -0.0407
 6119SOL    HW118815   1.990   0.732   5.541 -0.4977  0.9006 -0.7461
 6119SOL    HW218816   1.977   0.626   5.433 -0.8608  0.3082 -0.1234
 6120SOL     OW18817   5.905   2.868   1.768  0.4917  0.0693 -1.1105
 6120SOL    HW118818   5.913   2.962   1.782  0.5144 -0.0322 -0.4349
 6120SOL    HW218819   5.964   2.850   1.695 -0.5011  0.7828 -2.1277
 6121SOL     OW18820   0.456   4.772   3.723  0.5819 -0.7795  0.0741
 6121SOL    HW118821   0.455   4.818   3.807  0.8807 -1.3425  0.3896
 6121SOL    HW218822   0.502   4.831   3.664  0.4709 -0.4303  0.3351
 6122SOL     OW18823   3.706   1.735   2.087  0.0025  0.7221  0.3542
 6122SOL    HW118824   3.701   1.814   2.033 -0.9661  0.2356 -0.3005
 6122SOL    HW218825   3.702   1.663   2.024  3.7701  0.0672  0.6383
 6123SOL     OW18826   1.728   1.681   5.414 -0.3617  0.3849  0.4300
 6123SOL    HW118827   1.730   1.644   5.502  1.3892  1.8092  1.0493
 6123SOL    HW218828   1.645   1.651   5.377 -0.1399 -2.0737  1.7326
 6124SOL     OW18829   6.256   0.390   3.350 -0.1659  0.2564  0.1566
 6124SOL    HW118830   6.244   0.478   3.314 -0.3703  0.7567  1.3940
 6124SOL    HW218831   6.215   0.394   3.437 -1.8780 -1.6209 -0.4964
 6125SOL     OW18832   5.750   3.385   1.584  0.4678  0.3636 -0.0280
 6125SOL    HW118833   5.681   3.437   1.625  1.4076  0.9555  0.8286
 6125SOL    HW218834   5.708   3.347   1.507  0.0963  3.5941 -1.5833
 6126SOL     OW18835   4.431   2.981   0.847 -0.1362 -0.3871  0.2128
 6126SOL    HW118836   4.368   2.980   0.775 -0.3644 -0.4950  0.4095
 6126SOL    HW218837   4.418   2.896   0.890  1.5314 -1.2818 -0.9361
 6127SOL     OW18838   1.831   5.062   0.625  0.2927 -0.2024  0.5024
 6127SOL    HW118839   1.808   5.006   0.551  1.0318 -1.7320  1.3696
 6127SOL    HW218840   1.890   5.128   0.589 -1.2569  0.5818 -0.7150
 6128SOL     OW18841   1.010   3.280   3.582  0.3596 -0.0025  0.2832
 6128SOL    HW118842   1.009   3.320   3.669 -0.7628  0.1395  0.2187
 6128SOL    HW218843   1.103   3.271   3.561  0.6418  0.9555  1.0425
 6129SOL     OW18844   5.912   1.338   0.813  0.5276 -0.6850  0.4761
 6129SOL    HW118845   5.971   1.283   0.760 -0.2889 -0.9513 -0.1844
 6129SOL    HW218846   5.844   1.364   0.752  1.2963  1.7324  0.5701
 6130SOL     OW18847   5.704   2.217   3.216 -0.0315  0.1676  0.3389
 6130SOL    HW118848   5.648   2.147   3.248 -0.5277  0.1029 -0.6327
 6130SOL    HW218849   5.792   2.179   3.214 -0.4295 -0.7450 -1.0347
 6131SOL     OW18850   4.620   2.093   0.108 -0.0384  0.2101 -0.1555
 6131SOL    HW118851   4.683   2.115   0.039 -1.2015  1.2308 -0.9443
 6131SOL    HW218852   4.633   2.000   0.125  1.3325  0.2950 -0.6481
 6132SOL     OW18853   0.946   0.627   4.803 -0.0215 -0.2828 -0.5816
 6132SOL    HW118854   0.995   0.709   4.811 -2.4003  1.4762 -2.6624
 6132SOL    HW218855   0.995   0.577   4.737  1.6177 -0.7834  0.9199
 6133SOL     OW18856   1.127   5.997   0.581 -0.2459  0.0174  0.4164
 6133SOL    HW118857   1.064   5.961   0.643 -0.9626 -1.1174 -0.9153
 6133SOL    HW218858   1.182   5.923   0.557 -0.4923  0.2371 -0.8882
 6134SOL     OW18859   1.118   6.169   3.507 -1.1438  0.3220 -0.1452
 6134SOL    HW118860   1.207   6.202   3.493 -0.7525 -0.8894 -0.6534
 6134SOL    HW218861   1.104   6.179   3.602 -0.6544  0.9499 -0.1259
 6135SOL     OW18862   4.715   0.025   5.321  0.1169  0.0229  0.2513
 6135SOL    HW118863   4.638   0.051   5.270 -0.1099  0.6292  0.8920
 6135SOL    HW218864   4.681   0.009   5.409  1.0770  2.7935  1.2280
 6136SOL     OW18865   4.801   2.411   2.681 -0.5152  0.3749 -0.2588
 6136SOL    HW118866   4.843   2.477   2.735 -0.6221 -0.0105  0.3042
 6136SOL    HW218867   4.708   2.432   2.684 -0.5910 -0.0003  0.2137
 6137SOL     OW18868   4.337   6.251   3.218 -0.2666 -0.0229 -0.3041
 6137SOL    HW118869   4.347   6.341   3.186 -3.4170  0.0698 -1.3636
 6137SOL    HW218870   4.256   6.253   3.269 -0.5278 -2.3015 -0.5535
 6138SOL     OW18871   4.556   5.090   5.218  0.0147 -0.4456 -0.3586
 6138SOL    HW118872   4.651   5.100   5.223  0.1187 -0.7933 -1.3632
 6138SOL    HW218873   4.523   5.180   5.212  0.0566 -0.1444  2.5029
 6139SOL     OW18874   1.922   2.621   2.605  0.2033 -0.2610  0.6862
 6139SOL    HW118875   1.988   2.558   2.632  1.1302  0.1015 -0.6408
 6139SOL    HW218876   1.960   2.707   2.624 -0.0409 -0.0598  0.3022
 6140SOL     OW18877   1.980   2.237   4.081  0.4269  0.2543  0.9246
 6140SOL    HW118878   2.073   2.222   4.100  0.9432 -1.4038 -2.1605
 6140SOL    HW218879   1.939   2.152   4.097 -0.5439  0.8986  1.9795
 6141SOL     OW18880   0.070   1.862   4.115  0.1237  0.0190 -0.3065
 6141SOL    HW118881   0.044   1.804   4.043 -0.1458 -0.6410  0.3052
 6141SOL    HW218882   0.026   1.825   4.192 -1.6394  2.1232 -0.2023
 6142SOL     OW18883   1.645   3.424   5.272  0.2111  0.3161 -0.2340
 6142SOL    HW118884   1.649   3.501   5.215  1.0552 -0.6189 -1.4769
 6142SOL    HW218885   1.646   3.350   5.212  2.2443 -0.7337  1.0215
 6143SOL     OW18886   2.842   5.260   5.868  0.5781 -0.3422 -0.2450
 6143SOL    HW118887   2.825   5.169   5.890 -1.5583  0.2189  0.6779
 6143SOL    HW218888   2.797   5.310   5.935  1.0590  1.4148 -1.1626
 6144SOL     OW18889   0.394   1.197   4.388  0.8075 -0.0819  0.2371
 6144SOL    HW118890   0.341   1.225   4.313  1.4302  0.4528 -0.0119
 6144SOL    HW218891   0.405   1.103   4.374  0.0322 -0.1843  0.2312
 6145SOL     OW18892   0.850   0.157   0.647 -0.3679  0.0398 -0.1057
 6145SOL    HW118893   0.878   0.114   0.566 -1.5807 -0.0178 -0.5117
 6145SOL    HW218894   0.820   0.243   0.619 -3.2966 -0.9133 -0.1559
 6146SOL     OW18895   4.783   1.119   0.648  0.1253  0.0259  0.2294
 6146SOL    HW118896   4.780   1.043   0.705  0.6564  0.1107  0.3749
 6146SOL    HW218897   4.722   1.098   0.577 -1.5499  0.4540  1.4701
 6147SOL     OW18898   6.064   4.284   2.742 -0.0278 -0.4607 -0.3542
 6147SOL    HW118899   6.111   4.340   2.804  1.2389 -0.6226 -1.1269
 6147SOL    HW218900   6.124   4.274   2.668 -1.1989 -0.8825 -1.2881
 6148SOL     OW18901   1.882   2.944   1.136  0.1407 -0.5804 -0.2157
 6148SOL    HW118902   1.948   2.880   1.163  1.3463 -0.3729 -2.3892
 6148SOL    HW218903   1.923   3.029   1.151  0.2010 -0.4405 -1.0895
 6149SOL     OW18904   0.473   6.380   4.465 -0.5504  0.3558  0.0969
 6149SOL    HW118905   0.549   6.334   4.428 -0.1297  0.0591  1.2677
 6149SOL    HW218906   0.457   6.453   4.406 -0.0108 -0.1908 -0.7430
 6150SOL     OW18907   2.578   3.688   2.236  0.2047 -0.1606  0.1617
 6150SOL    HW118908   2.602   3.763   2.183  0.7422 -0.2778  0.2273
 6150SOL    HW218909   2.612   3.709   2.324 -1.4059  0.4068  0.6780
 6151SOL     OW18910   1.752   0.010   4.183  0.2751 -0.1933 -0.2157
 6151SOL    HW118911   1.809   0.032   4.256 -2.5457  4.3742  1.0386
 6151SOL    HW218912   1.786   0.060   4.109  0.0177 -0.4027 -0.4782
 6152SOL     OW18913   4.148   1.919   2.494  0.0473  0.4785 -0.3260
 6152SOL    HW118914   4.165   1.966   2.575  2.1442  0.8936 -0.9150
 6152SOL    HW218915   4.068   1.870   2.510  0.0982  0.9828  1.7750
 6153SOL     OW18916   3.014   4.035   5.405  0.0860 -0.4228 -0.1500
 6153SOL    HW118917   2.989   4.060   5.494 -0.2466  0.0652 -0.3724
 6153SOL    HW218918   3.078   4.101   5.378 -0.2263 -0.2412 -0.4670
 6154SOL     OW18919   0.623   3.606   4.148 -0.3849  0.3073  0.2765
 6154SOL    HW118920   0.662   3.599   4.061 -0.0802 -1.5405  0.5333
 6154SOL    HW218921   0.683   3.559   4.205 -1.0475  0.7263  1.3455
 6155SOL     OW18922   2.713   2.634   1.853 -0.1362  0.5912 -0.2944
 6155SOL    HW118923   2.690   2.552   1.809  0.7566 -0.3340  0.8887
 6155SOL    HW218924   2.653   2.640   1.927  2.5927 -1.4153  2.3190
 6156SOL     OW18925   5.288   4.588   6.244  0.1267 -0.1087  0.0985
 6156SOL    HW118926   5.215   4.623   6.194  0.6215 -0.7273 -1.0830
 6156SOL    HW218927   5.289   4.640   6.325  0.5025  2.2563 -1.3330
 6157SOL     OW18928   2.429   2.394   5.777  0.1282 -0.4333 -0.4471
 6157SOL    HW118929   2.377   2.435   5.846 -0.1186 -1.3640 -0.0609
 6157SOL    HW218930   2.516   2.382   5.816  0.3694  0.2588 -0.7646
 6158SOL     OW18931   3.980   4.617   4.751  0.4866  0.0136  0.3097
 6158SOL    HW118932   3.995   4.707   4.781  0.9230  0.9748 -2.4832
 6158SOL    HW218933   3.887   4.601   4.769 -0.3851  2.1809 -1.6824
 6159SOL     OW18934   1.968   0.898   1.897  0.0384 -0.4850  1.0638
 6159SOL    HW118935   1.946   0.969   1.837 -1.4509 -0.9471  1.0121
 6159SOL    HW218936   2.052   0.924   1.935  0.0221  0.7986  0.2993
 6160SOL     OW18937   6.337   5.501   1.382 -0.1816  0.2074 -0.1196
 6160SOL    HW118938   6.353   5.554   1.460  0.1718  0.0969 -0.1167
 6160SOL    HW218939   6.325   5.565   1.311 -1.9924  0.3721  0.2698
 6161SOL     OW18940   0.527   4.964   3.945  0.1894  0.1705  0.0393
 6161SOL    HW118941   0.561   4.910   4.015  0.0460  0.6817  0.5073
 6161SOL    HW218942   0.604   5.001   3.903  0.2443  0.7622  0.6482
 6162SOL     OW18943   3.319   0.829   4.819 -0.4350  0.4421 -0.6378
 6162SOL    HW118944   3.353   0.892   4.756  1.5016 -0.1336 -0.2648
 6162SOL    HW218945   3.238   0.867   4.851 -0.9968  1.1725 -2.7777
 6163SOL     OW18946   2.594   2.263   3.672  0.1074 -0.1943 -0.2362
 6163SOL    HW118947   2.556   2.292   3.590 -0.2786 -0.3405 -0.1115
 6163SOL    HW218948   2.532   2.292   3.739 -0.5487 -1.7263 -0.1450
 6164SOL     OW18949   4.433   0.818   2.984 -0.0498 -0.2061  0.2843
 6164SOL    HW118950   4.516   0.852   2.953 -0.6996 -0.3982 -1.7947
 6164SOL    HW218951   4.456   0.763   3.060  1.8780 -1.3247 -1.0302
 6165SOL     OW18952   1.342   1.513   2.104 -0.3274  0.0824  0.3878
 6165SOL    HW118953   1.416   1.536   2.160  0.5021  0.2047 -0.7195
 6165SOL    HW218954   1.382   1.466   2.030 -1.5399 -1.2609  0.5559
 6166SOL     OW18955   1.655   2.288   5.859 -0.1774 -0.5617 -0.2024
 6166SOL    HW118956   1.726   2.224   5.864 -0.0267 -0.6453 -2.4550
 6166SOL    HW218957   1.613   2.272   5.774 -1.2302  1.2058 -0.0817
 6167SOL     OW18958   1.570   3.280   4.456  0.3514 -0.7642  0.4112
 6167SOL    HW118959   1.599   3.340   4.387 -1.7566  0.3918  0.4361
 6167SOL    HW218960   1.616   3.310   4.535 -0.7998  1.0164  0.4707
 6168SOL     OW18961   4.170   3.593   5.205 -0.1528  0.1898  0.0181
 6168SOL    HW118962   4.190   3.680   5.168  0.7221 -0.0638 -0.1341
 6168SOL    HW218963   4.256   3.559   5.231 -0.6496 -0.0139  1.4591
 6169SOL     OW18964   6.134   6.255   0.630 -0.8272  0.3460  0.2477
 6169SOL    HW118965   6.075   6.213   0.566 -0.3043  1.1306 -0.7779
 6169SOL    HW218966   6.106   6.346   0.631 -0.6903  0.3833  1.0026
 6170SOL     OW18967   3.482   1.140   2.837  0.1354  0.2295 -0.3082
 6170SOL    HW118968   3.387   1.139   2.823  0.2796 -0.9309 -1.4045
 6170SOL    HW218969   3.517   1.182   2.758  0.5384  0.7618  0.1457
 6171SOL     OW18970   1.277   0.561   2.692 -0.9411 -0.2029  0.1230
 6171SOL    HW118971   1.263   0.531   2.602  1.6077 -2.5915  0.4124
 6171SOL    HW218972   1.311   0.650   2.682 -2.8068  0.4468 -1.0898
 6172SOL     OW18973   0.190   5.301   2.566 -0.6687  0.8711  0.4391
 6172SOL    HW118974   0.190   5.380   2.512  0.5237  0.3404 -0.3895
 6172SOL    HW218975   0.276   5.263   2.553 -1.4081 -0.8866  0.3325
 6173SOL     OW18976   4.488   5.236   2.391  0.2812  0.4887 -0.0628
 6173SOL    HW118977   4.448   5.276   2.468 -0.0904  1.0559 -0.5321
 6173SOL    HW218978   4.522   5.311   2.341  0.5670  0.1237 -0.4161
 6174SOL     OW18979   4.879   0.488   1.382 -0.7971  0.4990  0.0105
 6174SOL    HW118980   4.805   0.528   1.428 -0.0114  0.9698  0.9030
 6174SOL    HW218981   4.952   0.547   1.398  0.0204 -0.4843  0.0026
 6175SOL     OW18982   5.695   0.043   1.121  0.4062 -0.0220 -0.3912
 6175SOL    HW118983   5.618   0.084   1.160 -0.2503 -1.1744 -0.4297
 6175SOL    HW218984   5.661  -0.010   1.050  1.2383 -0.5384 -0.4170
 6176SOL     OW18985   2.057   3.920   4.828 -0.2125 -0.3310  0.1175
 6176SOL    HW118986   2.104   3.940   4.747  0.4809 -1.1261  0.3111
 6176SOL    HW218987   1.991   3.856   4.802  0.6898 -1.3891  0.3431
 6177SOL     OW18988   0.101   0.692   4.276  0.3208  0.2210 -0.3172
 6177SOL    HW118989   0.121   0.621   4.337 -0.7251  0.9918  1.0034
 6177SOL    HW218990   0.161   0.679   4.203 -1.9449 -3.9349 -1.7790
 6178SOL     OW18991   1.799   2.382   4.756  0.0202  0.6091 -0.2330
 6178SOL    HW118992   1.747   2.301   4.762 -0.8992  1.2089  0.1390
 6178SOL    HW218993   1.846   2.374   4.673  0.4314 -0.5938  0.0986
 6179SOL     OW18994   0.794   2.971   4.535  0.2321  0.4480  0.4655
 6179SOL    HW118995   0.734   3.025   4.482 -2.3941 -2.8457 -0.2689
 6179SOL    HW218996   0.755   2.971   4.622 -0.2209 -0.8084  0.2727
 6180SOL     OW18997   5.512   3.868   3.608 -0.8353  0.4036 -0.2175
 6180SOL    HW118998   5.553   3.929   3.546 -0.0508 -0.6319 -0.7494
 6180SOL    HW218999   5.491   3.791   3.555 -3.4320  0.8413  0.0523
 6181SOL     OW19000   3.148   5.249   5.829  0.1894  0.6924 -0.2863
 6181SOL    HW119001   3.187   5.242   5.916 -1.1072 -1.4677  0.1925
 6181SOL    HW219002   3.053   5.251   5.846 -0.0839  0.0924 -1.6357
 6182SOL     OW19003   4.474   2.111   3.555 -0.0986  0.7261 -0.8419
 6182SOL    HW119004   4.397   2.059   3.534  0.3283 -0.3693  0.2053
 6182SOL    HW219005   4.448   2.163   3.631  0.8412 -1.3467  1.0009
 6183SOL     OW19006   3.974   1.795   6.068 -0.3781 -0.5951  0.5910
 6183SOL    HW119007   3.986   1.871   6.125  1.0551 -0.1742 -0.2330
 6183SOL    HW219008   3.943   1.832   5.985  2.9013 -0.5301 -0.7273
 6184SOL     OW19009   2.772   2.765   1.096 -0.0241 -0.4251  0.0843
 6184SOL    HW119010   2.711   2.794   1.029 -2.0970 -3.1127  0.6332
 6184SOL    HW219011   2.764   2.830   1.166  0.6778  1.3058 -1.3484
 6185SOL     OW19012   0.689   1.145   3.055  0.3167  0.2254  0.4740
 6185SOL    HW119013   0.658   1.151   2.965 -0.2509  0.1597  0.6592
 6185SOL    HW219014   0.612   1.163   3.108  0.2850 -1.2497  0.9747
 6186SOL     OW19015   5.183   5.139   1.475 -0.3802 -0.5234  0.2360
 6186SOL    HW119016   5.109   5.129   1.535 -0.0050 -0.7525  0.6677
 6186SOL    HW219017   5.174   5.065   1.414 -1.6343  0.5717 -0.9611
 6187SOL     OW19018   0.161   2.694   5.735  0.1518  0.5810  1.0406
 6187SOL    HW119019   0.161   2.630   5.806  2.1453 -0.7151 -0.0268
 6187SOL    HW219020   0.247   2.735   5.740 -0.5054  2.0839  0.7008
 6188SOL     OW19021   0.438   2.183   3.144 -0.5033 -0.2972  0.2206
 6188SOL    HW119022   0.413   2.246   3.212 -0.5091 -0.3051  0.2261
 6188SOL    HW219023   0.358   2.170   3.093 -0.7747 -1.0434  0.8149
 6189SOL     OW19024   4.048   2.547   5.071 -0.0988  0.4700  0.1613
 6189SOL    HW119025   4.124   2.541   5.013 -1.3388  0.4583 -1.5475
 6189SOL    HW219026   4.003   2.627   5.043 -0.5081  0.7100  1.4359
 6190SOL     OW19027   5.956   4.460   4.549 -0.4003 -0.0653 -0.0656
 6190SOL    HW119028   5.996   4.545   4.569 -0.9188  0.4444 -1.0664
 6190SOL    HW219029   5.936   4.421   4.634  0.4404  0.5300  0.4131
 6191SOL     OW19030   4.123   1.517   2.176  0.5017 -0.1039  0.8401
 6191SOL    HW119031   4.106   1.600   2.131  1.1316 -0.9111 -0.9573
 6191SOL    HW219032   4.131   1.542   2.269 -1.3990  1.5311  0.6424
 6192SOL     OW19033   4.550   0.262   3.930  0.5339 -0.4740 -0.3797
 6192SOL    HW119034   4.523   0.174   3.902  0.5517 -0.8826  0.8360
 6192SOL    HW219035   4.638   0.250   3.963  0.3188 -0.1076  0.3331
 6193SOL     OW19036   1.332   5.697   0.316  0.2226  0.6581 -0.1055
 6193SOL    HW119037   1.317   5.714   0.409 -0.0344 -0.8397  0.1482
 6193SOL    HW219038   1.250   5.721   0.274  1.3533  4.5477 -0.4815
 6194SOL     OW19039   3.107   0.874   0.735 -0.0117 -0.4395  0.5497
 6194SOL    HW119040   3.101   0.782   0.711  0.9889 -0.6983  1.2447
 6194SOL    HW219041   3.037   0.887   0.798 -0.9182 -0.4132 -0.4210
 6195SOL     OW19042   3.607   6.340   0.289  0.5002  0.1137 -0.2519
 6195SOL    HW119043   3.677   6.375   0.234 -0.3260 -0.9880 -2.0947
 6195SOL    HW219044   3.640   6.255   0.319  0.2172 -0.1226 -0.6011
 6196SOL     OW19045   0.389   0.331   3.119  0.0763 -0.1645 -0.4449
 6196SOL    HW119046   0.442   0.411   3.116  0.4203 -0.2830  1.4603
 6196SOL    HW219047   0.452   0.261   3.133 -0.3340 -0.6514 -0.9965
 6197SOL     OW19048   5.536   0.551   1.786  0.2910  0.1979  0.0931
 6197SOL    HW119049   5.502   0.515   1.704  1.5432  2.0920 -1.3489
 6197SOL    HW219050   5.539   0.476   1.845 -4.0119 -0.5725 -0.3409
 6198SOL     OW19051   6.030   1.632   0.538 -0.1446 -0.1766  0.1222
 6198SOL    HW119052   6.006   1.621   0.446 -0.1467  0.9510 -0.0275
 6198SOL    HW219053   5.948   1.653   0.582  0.3098  2.8990 -0.2594
 6199SOL     OW19054   0.141   5.796   4.354 -0.2711 -0.3873  0.2616
 6199SOL    HW119055   0.072   5.738   4.387 -0.8184  0.1794  0.1470
 6199SOL    HW219056   0.145   5.867   4.418 -0.5314  0.1207 -0.2710
 6200SOL     OW19057   3.684   3.799   4.850 -0.0917  0.0919  0.5350
 6200SOL    HW119058   3.714   3.714   4.881 -0.2069  0.1093  0.6944
 6200SOL    HW219059   3.765   3.849   4.836 -0.0507  0.5274  2.0565
 6201SOL     OW19060   3.899   5.337   6.023 -0.2138  0.3122 -0.0545
 6201SOL    HW119061   3.987   5.349   6.057 -0.2475  0.9307 -0.1745
 6201SOL    HW219062   3.885   5.242   6.025 -0.5336  0.3588  2.4284
 6202SOL     OW19063   2.740   5.295   2.103  0.2299 -0.4987 -0.1480
 6202SOL    HW119064   2.833   5.319   2.103  0.6028 -1.8494 -0.8952
 6202SOL    HW219065   2.725   5.257   2.016 -1.0288 -0.2792 -0.0418
 6203SOL     OW19066   4.553   0.903   2.413 -0.0488  0.3247  0.5509
 6203SOL    HW119067   4.477   0.956   2.437  1.4274  3.8154 -1.6872
 6203SOL    HW219068   4.529   0.864   2.329  1.1592  3.1256 -1.2366
 6204SOL     OW19069   6.076   1.707   4.495  0.4069 -0.3549  0.5780
 6204SOL    HW119070   6.006   1.771   4.493  0.9873  0.3225 -1.7560
 6204SOL    HW219071   6.098   1.698   4.587  0.3621  2.9066  1.0229
 6205SOL     OW19072   1.165   6.252   0.057  0.4907  0.1194  0.1348
 6205SOL    HW119073   1.099   6.185   0.074 -0.6008  0.4226 -2.4704
 6205SOL    HW219074   1.194   6.280   0.144 -0.9740 -1.7926  1.3154
 6206SOL     OW19075   3.954   5.913   5.963  0.3850 -0.2408 -0.2355
 6206SOL    HW119076   4.041   5.916   6.001 -0.1193  0.3886  0.9255
 6206SOL    HW219077   3.958   5.842   5.898  1.2571 -1.4268  1.0637
 6207SOL     OW19078   4.413   0.432   1.404  0.2021 -0.0263 -0.2669
 6207SOL    HW119079   4.454   0.384   1.332 -1.0609 -0.4903 -0.6960
 6207SOL    HW219080   4.416   0.524   1.377  1.2192 -0.0179 -0.1529
 6208SOL     OW19081   6.179   4.291   3.622 -0.1738  0.1363 -0.0183
 6208SOL    HW119082   6.136   4.212   3.590  0.3218 -0.7743  1.5109
 6208SOL    HW219083   6.116   4.361   3.604 -0.7214 -0.6106 -1.1639
 6209SOL     OW19084   0.160   5.581   5.691  0.1791 -0.3400  0.2322
 6209SOL    HW119085   0.252   5.577   5.717  0.4251  0.5346 -0.4493
 6209SOL    HW219086   0.117   5.627   5.764  0.1729 -1.2510  0.8117
 6210SOL     OW19087   4.728   6.054   1.005 -0.0806 -0.6636  0.1674
 6210SOL    HW119088   4.664   6.115   0.970  1.0415 -0.0427 -0.8562
 6210SOL    HW219089   4.682   6.011   1.078 -1.3829  0.3090 -0.0390
 6211SOL     OW19090   2.312   2.592   6.334 -0.6325 -0.2119 -0.4104
 6211SOL    HW119091   2.237   2.652   6.337  0.3000  1.0231 -1.0759
 6211SOL    HW219092   2.306   2.544   6.416 -1.9663  0.0922 -0.2936
 6212SOL     OW19093   3.224   3.417   3.826  0.0285  0.1088 -0.5390
 6212SOL    HW119094   3.265   3.365   3.895 -0.2560 -0.7636 -1.0154
 6212SOL    HW219095   3.295   3.471   3.791 -0.3763  2.8757  2.4423
 6213SOL     OW19096   3.794   4.218   1.043 -0.9836  0.4427  0.0269
 6213SOL    HW119097   3.823   4.273   0.970 -2.9595  0.6925 -0.6172
 6213SOL    HW219098   3.763   4.281   1.109  2.9233  0.3895  2.2331
 6214SOL     OW19099   2.753   5.911   1.012 -0.1490  0.0155 -0.0409
 6214SOL    HW119100   2.770   5.872   1.098  1.1743  0.0628 -0.2498
 6214SOL    HW219101   2.660   5.930   1.012 -0.0635  0.6228  1.6384
 6215SOL     OW19102   3.254   4.476   5.542  0.4480 -0.4373  0.2550
 6215SOL    HW119103   3.340   4.518   5.545  0.2049  0.1384 -0.6513
 6215SOL    HW219104   3.236   4.462   5.449 -0.7730  0.1482  0.3835
 6216SOL     OW19105   2.423   5.292   2.676  0.5235 -0.0772  0.4578
 6216SOL    HW119106   2.441   5.385   2.688  0.4407 -0.0171  0.1264
 6216SOL    HW219107   2.402   5.283   2.583  3.4331 -0.8929 -0.2266
 6217SOL     OW19108   6.193   0.684   5.057  0.4285 -0.1194  0.1879
 6217SOL    HW119109   6.115   0.633   5.034 -0.5476  0.6603  1.5998
 6217SOL    HW219110   6.189   0.761   5.000 -0.0444  0.0877  0.4912
 6218SOL     OW19111   2.847   2.544   3.331  0.9669 -0.2550 -0.1091
 6218SOL    HW119112   2.761   2.524   3.294  1.4363 -2.2110 -0.2374
 6218SOL    HW219113   2.879   2.461   3.365  2.5635  0.5576  0.5100
 6219SOL     OW19114   5.973   2.656   1.961 -1.1057  0.2530 -0.0605
 6219SOL    HW119115   5.942   2.708   1.887 -0.1187  2.1449  0.7705
 6219SOL    HW219116   5.906   2.667   2.029 -0.5922  1.0329  0.3410
 6220SOL     OW19117   2.674   0.117   4.451 -0.6312 -0.0380  0.8688
 6220SOL    HW119118   2.660   0.066   4.530 -1.1770 -0.1117  0.7261
 6220SOL    HW219119   2.743   0.179   4.475 -0.8569  0.0042  1.4323
 6221SOL     OW19120   1.703   4.192   5.456  0.1093 -0.7847  0.4072
 6221SOL    HW119121   1.797   4.212   5.459 -0.0108  0.0520 -0.5854
 6221SOL    HW219122   1.677   4.185   5.548  0.7743  0.9330  0.7800
 6222SOL     OW19123   2.344   5.925   4.797 -0.0607  0.2921  0.2458
 6222SOL    HW119124   2.266   5.923   4.852  1.4132 -0.9111  2.4375
 6222SOL    HW219125   2.405   5.984   4.842  0.7923  0.1830 -0.7066
 6223SOL     OW19126   5.234   5.616   4.989 -0.4455 -0.3742  0.5685
 6223SOL    HW119127   5.150   5.659   5.006  0.7987  1.4461  2.6490
 6223SOL    HW219128   5.290   5.643   5.062  1.4344 -3.0059  0.2372
 6224SOL     OW19129   2.358   4.734   3.559  0.6658  0.2240  0.0026
 6224SOL    HW119130   2.338   4.732   3.465  0.6677 -1.2906  0.0067
 6224SOL    HW219131   2.273   4.746   3.601  0.5155 -0.2760 -0.1571
 6225SOL     OW19132   5.148   2.974   4.468  0.2917 -0.4163 -0.1192
 6225SOL    HW119133   5.083   3.037   4.499  1.1676  0.8596 -0.8123
 6225SOL    HW219134   5.219   2.981   4.531  0.3281 -0.8546 -0.1059
 6226SOL     OW19135   3.944   4.722   0.785  0.5960 -0.0327 -0.2348
 6226SOL    HW119136   3.907   4.732   0.698  0.7134 -2.0671 -0.5808
 6226SOL    HW219137   4.036   4.698   0.770  0.3801 -1.3734  0.3647
 6227SOL     OW19138   1.012   3.833   2.022  0.7363  0.0958 -0.1125
 6227SOL    HW119139   0.995   3.767   1.954 -1.3879  1.8898 -1.4652
 6227SOL    HW219140   1.071   3.790   2.083  1.3528 -2.2172 -2.1860
 6228SOL     OW19141   0.498   6.178   5.689 -0.0217  0.0597  0.1612
 6228SOL    HW119142   0.480   6.150   5.778  1.6902 -0.1866  0.4716
 6228SOL    HW219143   0.474   6.270   5.687  0.8299  0.3202  1.1829
 6229SOL     OW19144   4.564   0.311   5.025  0.4126  0.2567  0.4380
 6229SOL    HW119145   4.469   0.317   5.023  0.4115  0.5081  0.8767
 6229SOL    HW219146   4.587   0.247   4.958 -0.2228 -1.6895  1.9929
 6230SOL     OW19147   0.385   1.047   3.816  0.1308  0.2049  0.3304
 6230SOL    HW119148   0.324   1.011   3.751 -0.5962 -0.1990  1.2213
 6230SOL    HW219149   0.427   1.120   3.771  0.4526 -0.7399 -0.9728
 6231SOL     OW19150   5.697   0.292   4.795  0.0503  0.2067  0.3084
 6231SOL    HW119151   5.747   0.223   4.839 -0.3194 -1.2969 -1.4900
 6231SOL    HW219152   5.763   0.352   4.761  0.4100  0.3445  1.2129
 6232SOL     OW19153   4.321   3.583   4.941 -0.4091 -0.2061 -0.5410
 6232SOL    HW119154   4.286   3.496   4.926 -1.3880 -0.0576  0.6978
 6232SOL    HW219155   4.244   3.639   4.948  0.1730  0.6116 -0.4786
 6233SOL     OW19156   2.758   4.869   5.192  0.4864 -0.6016  0.2693
 6233SOL    HW119157   2.714   4.952   5.207  1.7265  0.1692 -0.2335
 6233SOL    HW219158   2.691   4.803   5.212 -0.3745  0.4875  1.1359
 6234SOL     OW19159   0.184   0.207   6.373  0.2009  0.3228 -0.0445
 6234SOL    HW119160   0.228   0.278   6.421  1.8916  0.3234 -1.4972
 6234SOL    HW219161   0.137   0.251   6.303  0.3191  0.0891 -0.2706
 6235SOL     OW19162   4.020   0.079   2.544  0.0622 -0.2391  0.2013
 6235SOL    HW119163   4.077   0.050   2.472  1.9756 -2.2001  2.3293
 6235SOL    HW219164   3.950   0.128   2.501  1.5355 -0.5982 -2.8937
 6236SOL     OW19165   2.967   1.202   5.938 -0.3692 -0.0548  0.0782
 6236SOL    HW119166   2.879   1.199   5.901  0.3069 -1.3093 -1.5373
 6236SOL    HW219167   3.004   1.284   5.906 -0.3494 -0.3801 -0.7631
 6237SOL     OW19168   2.711   6.156   1.611  0.3972 -0.6607 -0.5389
 6237SOL    HW119169   2.760   6.237   1.623  0.9299 -1.1475  0.6717
 6237SOL    HW219170   2.681   6.160   1.520  2.0125  0.0113 -1.0717
 6238SOL     OW19171   4.406   5.867   5.570 -0.0475  0.4218 -0.3765
 6238SOL    HW119172   4.455   5.796   5.613  2.5221  2.2714 -0.0554
 6238SOL    HW219173   4.405   5.842   5.478  1.1175  0.1008 -0.3233
 6239SOL     OW19174   5.990   1.766   3.181 -0.2362 -0.1651 -0.8866
 6239SOL    HW119175   5.980   1.814   3.263 -0.9044  0.0328 -1.0777
 6239SOL    HW219176   5.969   1.831   3.113 -0.2121 -0.4718 -1.1877
 6240SOL     OW19177   1.265   4.983   5.862  0.0055  0.6614 -0.0954
 6240SOL    HW119178   1.284   4.951   5.773 -1.8013 -0.6395 -0.0669
 6240SOL    HW219179   1.340   4.953   5.914 -0.2044 -0.9911 -0.6700
 6241SOL     OW19180   1.483   3.321   1.967 -0.0994  0.1032 -0.1576
 6241SOL    HW119181   1.476   3.298   2.060 -2.8905  0.6235 -0.1509
 6241SOL    HW219182   1.474   3.238   1.921 -0.9857  0.0839  0.0287
 6242SOL     OW19183   2.602   0.175   1.999 -0.2452 -0.2602  0.5730
 6242SOL    HW119184   2.593   0.080   1.994 -0.7935 -0.1365 -2.2977
 6242SOL    HW219185   2.655   0.198   1.923  0.1557  1.7383  1.3875
 6243SOL     OW19186   3.108   1.488   4.829  0.4334  0.3670 -0.6669
 6243SOL    HW119187   3.077   1.403   4.861 -0.3214  0.7273 -0.4005
 6243SOL    HW219188   3.057   1.552   4.879  0.3684  0.9643 -1.4679
 6244SOL     OW19189   0.196   1.834   2.842  0.4665 -0.6086  0.7128
 6244SOL    HW119190   0.135   1.888   2.791 -0.8481 -0.3064  2.4940
 6244SOL    HW219191   0.280   1.880   2.835 -0.5468  1.6119  1.9197
 6245SOL     OW19192   1.343   1.753   3.857 -0.1205  0.7583 -0.1181
 6245SOL    HW119193   1.424   1.773   3.904  0.0495  1.8498 -0.8358
 6245SOL    HW219194   1.336   1.658   3.860  0.3423  0.7470  1.3361
 6246SOL     OW19195   6.000   0.403   0.778  0.2083 -0.2147  0.0717
 6246SOL    HW119196   5.935   0.377   0.843 -0.9249 -1.9647 -1.6134
 6246SOL    HW219197   6.041   0.320   0.752 -0.4831  0.1745 -2.5008
 6247SOL     OW19198   4.281   2.780   3.545  0.0940 -0.0545  0.8286
 6247SOL    HW119199   4.200   2.762   3.593  0.3689  0.6346  1.5803
 6247SOL    HW219200   4.252   2.804   3.457 -0.6283  1.3581  1.4150
 6248SOL     OW19201   1.615   0.531   4.642 -0.3665  0.0247 -0.3360
 6248SOL    HW119202   1.577   0.469   4.704 -0.0288 -0.3419 -0.4895
 6248SOL    HW219203   1.540   0.572   4.599 -0.6681  1.7122  1.6764
 6249SOL     OW19204   1.126   3.551   0.105  0.1957  0.1306 -0.4277
 6249SOL    HW119205   1.045   3.564   0.153 -0.7225 -1.0116 -1.5932
 6249SOL    HW219206   1.099   3.538   0.015  1.6201 -0.8496 -0.7545
 6250SOL     OW19207   4.846   3.059   4.243  0.3740 -0.1638  0.2509
 6250SOL    HW119208   4.937   3.080   4.220  0.5237 -0.1795  0.8212
 6250SOL    HW219209   4.815   3.137   4.289  0.1107 -0.1750  0.0913
 6251SOL     OW19210   1.854   6.092   1.059 -0.1862  0.3734  0.0802
 6251SOL    HW119211   1.840   6.088   0.964 -0.5226 -1.0286  0.1679
 6251SOL    HW219212   1.903   6.174   1.073  1.1981 -0.1437 -1.4707
 6252SOL     OW19213   4.728   4.583   5.149 -0.1724  0.3333  1.0096
 6252SOL    HW119214   4.751   4.505   5.201  1.2290  0.5203  0.7078
 6252SOL    HW219215   4.695   4.547   5.067 -1.8780  0.0425  1.7976
 6253SOL     OW19216   1.437   6.312   0.945 -0.1076  0.4341 -0.1887
 6253SOL    HW119217   1.477   6.237   0.990  1.2104  1.3329  0.1934
 6253SOL    HW219218   1.355   6.327   0.993  0.9567  0.9556  1.5622
 6254SOL     OW19219   5.527   0.097   0.192  0.2797  0.3239 -0.0193
 6254SOL    HW119220   5.551   0.063   0.106  0.2202  0.6694 -0.1757
 6254SOL    HW219221   5.501   0.020   0.243  0.8450  0.0558 -0.1353
 6255SOL     OW19222   2.311   3.635   5.174  0.1187  0.1117  0.1136
 6255SOL    HW119223   2.309   3.710   5.116  1.7091 -0.2596 -0.4478
 6255SOL    HW219224   2.298   3.672   5.262 -1.4908  0.7530 -0.3621
 6256SOL     OW19225   4.554   2.529   2.665  0.1970 -0.3899  0.0705
 6256SOL    HW119226   4.493   2.496   2.731 -0.8410 -1.9491 -1.5566
 6256SOL    HW219227   4.520   2.615   2.641 -0.2256 -0.4203  0.5564
 6257SOL     OW19228   1.901   1.187   0.840 -0.3596 -1.2845 -0.8163
 6257SOL    HW119229   1.889   1.138   0.921 -1.2667 -0.0127 -0.1424
 6257SOL    HW219230   1.988   1.227   0.848  0.2181 -2.4181 -1.1993
 6258SOL     OW19231   0.481   0.430   5.310 -0.4997 -0.3203  0.4434
 6258SOL    HW119232   0.440   0.511   5.281 -1.0536 -0.2789  1.3225
 6258SOL    HW219233   0.571   0.436   5.277 -0.2553  1.0752  1.2795
 6259SOL     OW19234   3.289   4.881   5.830 -0.3447  0.4223 -0.1497
 6259SOL    HW119235   3.210   4.852   5.784 -0.8451 -1.6432  1.8395
 6259SOL    HW219236   3.361   4.844   5.780 -0.8443 -1.0892  0.2053
 6260SOL     OW19237   6.056   2.921   5.674 -0.0597 -0.3471 -0.8736
 6260SOL    HW119238   6.017   2.974   5.605  1.6353  2.2854  0.0345
 6260SOL    HW219239   6.148   2.947   5.675  0.4272 -1.8848  0.9924
 6261SOL     OW19240   1.310   5.968   5.268  0.3453  0.3201  0.2695
 6261SOL    HW119241   1.350   5.884   5.288  0.0699  0.2021  0.3300
 6261SOL    HW219242   1.374   6.033   5.298  0.1420  0.1416  1.1075
 6262SOL     OW19243   6.373   1.269   4.729 -0.5103  0.6094  0.1076
 6262SOL    HW119244   6.377   1.332   4.657  0.8447  0.5167  0.0651
 6262SOL    HW219245   6.414   1.315   4.803  2.5273 -0.8500 -0.4895
 6263SOL     OW19246   4.749   0.153   2.031 -0.1479 -0.0587 -0.4089
 6263SOL    HW119247   4.728   0.101   2.109 -0.6308  1.2013  0.3261
 6263SOL    HW219248   4.815   0.101   1.985 -0.7471 -1.4054  0.1945
 6264SOL     OW19249   2.005   1.255   0.264 -0.1046 -0.4478  0.3488
 6264SOL    HW119250   2.072   1.250   0.332  0.4789  0.3062 -0.1569
 6264SOL    HW219251   1.925   1.280   0.310 -1.0444 -4.8812  1.6016
 6265SOL     OW19252   1.903   3.982   1.299  0.0062  0.4273  0.5175
 6265SOL    HW119253   1.878   3.893   1.273 -0.6015 -0.1310  2.8135
 6265SOL    HW219254   1.836   4.009   1.362  0.7180  2.1596  0.5965
 6266SOL     OW19255   4.372   4.137   0.200 -0.3212  0.3826 -0.6007
 6266SOL    HW119256   4.394   4.157   0.109 -0.0404  1.8874 -0.2187
 6266SOL    HW219257   4.404   4.212   0.250 -0.6516 -0.3282  0.7233
 6267SOL     OW19258   1.280   5.723   3.736  0.4702  0.3821  0.2910
 6267SOL    HW119259   1.218   5.761   3.674  2.2589  1.9518 -0.5970
 6267SOL    HW219260   1.243   5.637   3.756 -1.7574  1.0741 -0.5257
 6268SOL     OW19261   3.326   4.439   5.908  0.2535 -0.0825  0.0073
 6268SOL    HW119262   3.231   4.451   5.896  0.1217 -0.7815  0.2964
 6268SOL    HW219263   3.360   4.428   5.819 -0.0630 -0.6759 -0.0475
 6269SOL     OW19264   2.077   3.875   5.157 -0.3828  0.3335  0.2597
 6269SOL    HW119265   2.109   3.850   5.071 -0.7624  2.8106 -0.6651
 6269SOL    HW219266   2.153   3.913   5.201 -0.4749  0.1211  0.6147
 6270SOL     OW19267   1.684   5.403   0.229  0.2260 -0.0800 -0.3468
 6270SOL    HW119268   1.613   5.467   0.232 -0.1350 -0.4610 -0.6072
 6270SOL    HW219269   1.662   5.339   0.297 -1.0412 -1.5836 -2.0722
 6271SOL     OW19270   2.260   5.559   3.030 -0.4313 -0.1576  0.1625
 6271SOL    HW119271   2.341   5.510   3.019  0.0180  0.8695 -1.4545
 6271SOL    HW219272   2.287   5.641   3.070 -0.6602  0.2019 -0.4089
 6272SOL     OW19273   2.740   2.353   5.557  0.3786 -0.5026 -0.4011
 6272SOL    HW119274   2.733   2.424   5.492 -0.0208 -0.6845 -0.5544
 6272SOL    HW219275   2.833   2.330   5.556  0.4503 -0.2184 -0.6043
 6273SOL     OW19276   5.685   1.708   1.700 -0.0326 -0.3010 -0.3653
 6273SOL    HW119277   5.702   1.774   1.633  1.9595  0.7525  1.0866
 6273SOL    HW219278   5.762   1.652   1.698 -1.3080 -2.1321 -0.9654
 6274SOL     OW19279   2.364   1.683   4.104 -0.2037  0.3123  0.0059
 6274SOL    HW119280   2.364   1.743   4.179 -1.0351  1.1036 -0.6143
 6274SOL    HW219281   2.305   1.723   4.041 -0.3441 -0.8882 -0.6539
 6275SOL     OW19282   5.825   3.569   4.781 -0.1813  0.3404  0.0618
 6275SOL    HW119283   5.880   3.501   4.821  0.6513  0.3954 -0.9657
 6275SOL    HW219284   5.843   3.562   4.688  0.2803  2.3042 -0.0224
 6276SOL     OW19285   5.792   6.127   0.598 -0.3226  0.0497  0.2181
 6276SOL    HW119286   5.729   6.058   0.620 -0.0640 -0.1009  0.4874
 6276SOL    HW219287   5.739   6.206   0.592 -0.6776 -0.2333 -0.4448
 6277SOL     OW19288   2.227   0.256   4.013  0.4082  0.2367  1.0211
 6277SOL    HW119289   2.207   0.349   4.019 -1.2669 -0.0901  1.0301
 6277SOL    HW219290   2.169   0.214   4.076  2.2571 -0.7164  2.2037
 6278SOL     OW19291   2.984   6.068   1.126 -0.3903 -0.3405  0.2018
 6278SOL    HW119292   2.920   6.018   1.176 -0.7832 -0.0889 -0.0413
 6278SOL    HW219293   2.933   6.140   1.087  0.0138 -0.2129 -0.1000
 6279SOL     OW19294   1.291   2.830   0.703  0.3712 -0.5996  0.2815
 6279SOL    HW119295   1.219   2.787   0.750 -0.1239  0.3850  0.4303
 6279SOL    HW219296   1.326   2.894   0.765  0.6592 -0.2972 -0.1892
 6280SOL     OW19297   2.267   4.104   3.861 -0.6778  0.1486 -0.5103
 6280SOL    HW119298   2.246   4.161   3.935 -0.8141 -0.5970  0.0393
 6280SOL    HW219299   2.277   4.017   3.900  0.9044  0.0182 -1.1217
 6281SOL     OW19300   2.288   5.737   3.678  0.0173  0.4088  0.1809
 6281SOL    HW119301   2.344   5.660   3.691 -0.9367 -0.3056  0.1558
 6281SOL    HW219302   2.336   5.790   3.614  0.0591 -0.8299 -0.8641
 6282SOL     OW19303   0.702   4.379   3.525 -0.2285  1.0881  0.3665
 6282SOL    HW119304   0.769   4.411   3.586 -0.8951 -0.6764  2.1434
 6282SOL    HW219305   0.748   4.366   3.443  1.1901  1.6403  1.0422
 6283SOL     OW19306   3.945   0.476   5.635 -0.4008 -0.3061 -0.2836
 6283SOL    HW119307   3.933   0.455   5.728 -3.1593  1.7742 -0.0231
 6283SOL    HW219308   3.999   0.555   5.635  1.4585 -1.5077 -0.6656
 6284SOL     OW19309   2.244   3.926   5.740 -0.8513  0.7011  0.7821
 6284SOL    HW119310   2.249   3.987   5.813 -1.4180 -0.1000  1.5073
 6284SOL    HW219311   2.169   3.957   5.688 -1.2533  0.5286  1.2477
 6285SOL     OW19312   5.857   3.144   0.969 -0.4232  0.2036 -0.0462
 6285SOL    HW119313   5.834   3.108   0.883  1.9721 -3.1266  0.4981
 6285SOL    HW219314   5.787   3.112   1.027  1.3063 -3.4615  0.2943
 6286SOL     OW19315   1.707   5.107   6.199 -0.4954  0.9185 -0.1676
 6286SOL    HW119316   1.727   5.108   6.292  0.0152  2.5318 -0.2657
 6286SOL    HW219317   1.613   5.094   6.194 -0.3240 -0.8397  0.4962
 6287SOL     OW19318   2.498   5.112   1.212  0.6565 -0.0047 -0.0312
 6287SOL    HW119319   2.543   5.174   1.154  1.0280 -0.0194  0.2426
 6287SOL    HW219320   2.568   5.064   1.255  0.3833  0.1739  0.6179
 6288SOL     OW19321   1.648   2.031   3.103 -0.4249  0.8435  0.4608
 6288SOL    HW119322   1.715   1.963   3.098 -1.2169 -0.0573  1.5952
 6288SOL    HW219323   1.695   2.112   3.082  0.3772 -0.1011 -1.6288
 6289SOL     OW19324   2.484   1.800   1.927  0.1297 -0.0303 -0.2308
 6289SOL    HW119325   2.394   1.803   1.894  0.1996 -0.9294 -0.5185
 6289SOL    HW219326   2.527   1.873   1.882 -0.6361  0.9100  0.5071
 6290SOL     OW19327   0.906   3.680   3.633  0.0280 -0.5375 -0.8979
 6290SOL    HW119328   0.911   3.773   3.609  0.6544  0.1684  1.6863
 6290SOL    HW219329   0.992   3.661   3.670 -0.4674 -1.8360 -0.3728
 6291SOL     OW19330   1.510   5.496   4.090  0.2054  0.4245  0.6639
 6291SOL    HW119331   1.571   5.484   4.162 -0.7865  1.3139  1.6863
 6291SOL    HW219332   1.565   5.494   4.012  1.1907 -1.4560  1.3473
 6292SOL     OW19333   3.269   5.980   2.337 -0.3874  0.1082  0.1139
 6292SOL    HW119334   3.219   6.060   2.323 -2.2190 -1.1440 -1.0587
 6292SOL    HW219335   3.323   5.970   2.259  0.0297  0.3176  0.3728
 6293SOL     OW19336   3.807   4.877   4.553  0.2765  0.4856 -0.0037
 6293SOL    HW119337   3.748   4.923   4.614 -0.0269 -1.7025  1.4751
 6293SOL    HW219338   3.772   4.788   4.550  2.6227 -0.4760 -0.3110
 6294SOL     OW19339   5.612   0.607   3.570 -0.0556 -0.6974 -0.2753
 6294SOL    HW119340   5.627   0.686   3.520  1.0997 -0.3988  0.4976
 6294SOL    HW219341   5.684   0.549   3.546 -1.4212 -1.9474 -1.5857
 6295SOL     OW19342   3.552   0.632   2.432 -0.1188  0.6324 -0.0513
 6295SOL    HW119343   3.647   0.642   2.430 -0.0132 -0.2325  0.2484
 6295SOL    HW219344   3.538   0.537   2.441 -0.9840  0.8479  1.1065
 6296SOL     OW19345   2.721   3.555   2.019  0.2251 -0.0428  0.0072
 6296SOL    HW119346   2.660   3.485   2.043  0.5068 -0.2074  0.2352
 6296SOL    HW219347   2.719   3.615   2.093  0.4976 -0.1520  0.1017
 6297SOL     OW19348   2.734   1.966   5.946 -0.0321  0.4990  0.4014
 6297SOL    HW119349   2.749   1.923   6.030  0.4466  0.2881  0.2112
 6297SOL    HW219350   2.655   2.019   5.960 -0.6602 -0.4728  0.6241
 6298SOL     OW19351   0.380   0.178   5.354  0.0540  0.2112  0.3925
 6298SOL    HW119352   0.462   0.138   5.383 -0.4020 -0.1950  1.1745
 6298SOL    HW219353   0.403   0.267   5.329  0.8508 -0.1195 -0.0601
 6299SOL     OW19354   1.173   1.729   5.450  0.3263 -0.3196 -0.0894
 6299SOL    HW119355   1.114   1.800   5.427 -2.0482 -1.8897  0.7322
 6299SOL    HW219356   1.136   1.692   5.530  1.4457 -2.4543 -0.4743
 6300SOL     OW19357   3.819   5.062   2.164  0.8381  0.0901 -0.0407
 6300SOL    HW119358   3.797   4.984   2.114 -0.3539 -0.2399  0.9409
 6300SOL    HW219359   3.783   5.046   2.251 -0.7755  2.3304 -0.2017
 6301SOL     OW19360   5.939   1.938   5.425  0.0516 -0.0274 -0.4291
 6301SOL    HW119361   5.992   1.862   5.400 -0.0145 -0.2499  0.0993
 6301SOL    HW219362   5.853   1.901   5.446 -0.5276  0.4117 -1.9527
 6302SOL     OW19363   5.210   3.152   0.635  0.1329 -0.0188  0.0319
 6302SOL    HW119364   5.145   3.090   0.602  1.1690 -1.4984  0.6268
 6302SOL    HW219365   5.176   3.179   0.720 -0.6260  0.7495 -0.4950
 6303SOL     OW19366   5.516   2.633   1.930 -0.1113  0.1191 -0.0766
 6303SOL    HW119367   5.428   2.669   1.940  0.0041 -0.0564  2.0900
 6303SOL    HW219368   5.574   2.708   1.946  0.1424  0.1341 -1.0281
 6304SOL     OW19369   0.028   2.999   5.466 -0.2787 -0.0789  0.0392
 6304SOL    HW119370  -0.058   3.027   5.434 -0.4351 -0.3712  0.1962
 6304SOL    HW219371   0.040   3.045   5.549 -0.7841 -0.8916  0.5789
 6305SOL     OW19372   0.721   3.695   4.488 -0.4466 -0.0625 -0.2538
 6305SOL    HW119373   0.702   3.646   4.568  2.6792  0.2149  0.8354
 6305SOL    HW219374   0.706   3.633   4.417 -0.9553 -1.1074  0.7277
 6306SOL     OW19375   4.432   2.180   4.188  0.0239  0.2441  0.0678
 6306SOL    HW119376   4.527   2.186   4.203  0.2129 -0.1728 -0.8612
 6306SOL    HW219377   4.405   2.099   4.231 -0.1777  1.0626  1.5325
 6307SOL     OW19378   5.801   2.615   2.212 -0.5273  0.2408  0.3385
 6307SOL    HW119379   5.754   2.567   2.281 -0.3905 -0.7546 -0.2401
 6307SOL    HW219380   5.886   2.635   2.251 -0.3816 -0.4819  0.4038
 6308SOL     OW19381   1.198   2.410   4.034 -0.1932  0.1408 -0.6914
 6308SOL    HW119382   1.149   2.328   4.043 -0.1649 -0.1619 -2.7673
 6308SOL    HW219383   1.267   2.390   3.970  1.6222  1.0302  0.8691
 6309SOL     OW19384   2.567   1.142   3.817 -0.4804 -0.5931 -0.7401
 6309SOL    HW119385   2.615   1.224   3.829  1.6360 -1.6533 -1.4226
 6309SOL    HW219386   2.502   1.162   3.749 -1.8974  1.1972  1.0352
 6310SOL     OW19387   6.323   4.630   0.819 -0.2628  0.0418  0.2714
 6310SOL    HW119388   6.415   4.644   0.842 -0.2831  1.8626 -0.5664
 6310SOL    HW219389   6.298   4.709   0.772 -2.6292  0.1376  1.5564
 6311SOL     OW19390   1.939   1.544   2.673 -0.0120  0.0286  0.1829
 6311SOL    HW119391   1.953   1.612   2.607 -0.1667  0.2548  0.3814
 6311SOL    HW219392   2.016   1.549   2.729 -0.2155  0.3205  0.4407
 6312SOL     OW19393   2.737   5.684   0.551  0.7918  0.6589 -0.0124
 6312SOL    HW119394   2.691   5.625   0.491  2.9666 -0.2173 -0.8977
 6312SOL    HW219395   2.712   5.772   0.522 -0.2141  0.2284 -0.5172
 6313SOL     OW19396   2.414   1.305   1.621  0.0977  0.3582 -0.2261
 6313SOL    HW119397   2.433   1.217   1.652  0.5579  1.1877  1.9940
 6313SOL    HW219398   2.498   1.336   1.585  0.1513  0.1894 -0.2477
 6314SOL     OW19399   1.055   3.163   0.603  0.2494  0.3124  0.8962
 6314SOL    HW119400   1.091   3.081   0.569 -2.2733 -0.8385  0.7863
 6314SOL    HW219401   1.035   3.214   0.525  0.7388  0.5626  0.9287
 6315SOL     OW19402   4.243   4.595   2.375  0.3193  0.2115 -0.4709
 6315SOL    HW119403   4.173   4.602   2.310  0.0795 -0.5367 -0.2991
 6315SOL    HW219404   4.283   4.509   2.358 -0.1521 -0.2682  0.7804
 6316SOL     OW19405   1.255   0.197   6.082 -0.1310  0.4645  0.0760
 6316SOL    HW119406   1.235   0.108   6.054  0.5416 -0.0112  1.0278
 6316SOL    HW219407   1.219   0.253   6.014 -1.1563 -0.5043 -0.2060
 6317SOL     OW19408   0.612   0.180   2.419  0.0084 -0.2917  0.1573
 6317SOL    HW119409   0.539   0.236   2.444 -0.1811 -0.0332 -0.9459
 6317SOL    HW219410   0.609   0.176   2.324  1.3897 -0.3228  0.0846
 6318SOL     OW19411   5.728   1.867   6.137 -0.4815 -0.0954 -0.0412
 6318SOL    HW119412   5.692   1.804   6.075 -0.0430  0.3904 -0.8043
 6318SOL    HW219413   5.724   1.822   6.221  0.5997 -1.4754 -0.6871
 6319SOL     OW19414   3.080   4.853   2.251  0.8804 -0.4180  1.0044
 6319SOL    HW119415   3.056   4.820   2.337 -3.3292 -0.0679  0.1542
 6319SOL    HW219416   3.050   4.944   2.251  0.1035 -0.6238 -1.0245
 6320SOL     OW19417   1.391   4.917   3.620  0.2783 -0.7232 -0.1828
 6320SOL    HW119418   1.333   4.929   3.544  1.3178  2.1206 -0.6706
 6320SOL    HW219419   1.336   4.943   3.695  0.3761  0.3823 -0.4658
 6321SOL     OW19420   1.359   3.089   5.829 -0.0312 -0.2369  0.0309
 6321SOL    HW119421   1.422   3.133   5.886  1.5004 -0.5242 -1.3862
 6321SOL    HW219422   1.291   3.056   5.889  1.6339 -0.7455  1.7261
 6322SOL     OW19423   4.677   5.023   2.691  0.0678 -0.1553  0.5297
 6322SOL    HW119424   4.668   5.094   2.755 -0.0932  0.2647  0.0536
 6322SOL    HW219425   4.595   5.026   2.642 -0.1036 -0.9291  0.7516
 6323SOL     OW19426   5.101   0.911   3.757  0.2261 -0.1665 -0.0185
 6323SOL    HW119427   5.152   0.844   3.710 -0.9796  0.2130 -1.9727
 6323SOL    HW219428   5.084   0.872   3.843 -0.4400 -2.4082 -1.0874
 6324SOL     OW19429   2.941   3.172   2.049  0.6992  0.4888 -0.0774
 6324SOL    HW119430   2.864   3.196   2.101 -0.4173 -0.0923 -1.3736
 6324SOL    HW219431   3.012   3.224   2.086 -0.3141  1.0809  1.1462
 6325SOL     OW19432   4.507   3.990   3.698  0.0297 -0.2094  0.3559
 6325SOL    HW119433   4.467   4.042   3.628  1.0440  3.2934  2.1398
 6325SOL    HW219434   4.434   3.941   3.736 -1.3713  1.1479 -0.4543
 6326SOL     OW19435   4.449   0.552   2.726  0.6430 -0.4777  0.1305
 6326SOL    HW119436   4.521   0.522   2.781  0.6773 -0.1306  0.2782
 6326SOL    HW219437   4.487   0.560   2.639  0.3565 -1.9292 -0.1482
 6327SOL     OW19438   2.912   2.849   0.160  0.0634  0.2747  0.3465
 6327SOL    HW119439   3.007   2.854   0.169  0.0131  0.2487  0.9263
 6327SOL    HW219440   2.896   2.851   0.065  0.5430  2.1675  0.2554
 6328SOL     OW19441   2.873   2.831   5.399 -0.2683 -0.1751  0.6319
 6328SOL    HW119442   2.897   2.872   5.482  1.8569 -1.6539  0.8425
 6328SOL    HW219443   2.810   2.763   5.423 -0.5655  0.1702  0.8495
 6329SOL     OW19444   4.915   5.982   5.691  0.4187 -0.5172 -0.1467
 6329SOL    HW119445   4.939   5.985   5.598  1.5469 -2.2223  0.0434
 6329SOL    HW219446   4.847   5.915   5.696 -0.0147 -0.0587  0.1986
 6330SOL     OW19447   3.231   5.443   5.662  0.4607 -0.3170  0.4991
 6330SOL    HW119448   3.156   5.501   5.648  0.5487 -0.1937  0.5344
 6330SOL    HW219449   3.194   5.363   5.697  0.2097 -0.6875 -0.5578
 6331SOL     OW19450   1.105   3.943   4.727  0.2262  0.9798  0.2865
 6331SOL    HW119451   1.199   3.946   4.707  0.1788  1.1968  0.0825
 6331SOL    HW219452   1.070   3.878   4.666  0.5274 -0.4766  1.6032
 6332SOL     OW19453   3.586   3.702   1.170 -0.2151  0.0846 -0.3600
 6332SOL    HW119454   3.602   3.706   1.075  1.5697  1.1581 -0.0551
 6332SOL    HW219455   3.519   3.635   1.180 -0.1239 -0.3629 -2.3507
 6333SOL     OW19456   2.306   4.396   6.129  0.3393 -0.4003 -0.3881
 6333SOL    HW119457   2.252   4.454   6.183 -1.6595 -2.6305  0.1835
 6333SOL    HW219458   2.280   4.415   6.039 -1.9218 -1.8194 -0.0956
 6334SOL     OW19459   2.610   0.749   2.760 -0.3697 -0.0851 -0.0821
 6334SOL    HW119460   2.533   0.708   2.720  0.1680 -1.2523  0.0605
 6334SOL    HW219461   2.574   0.800   2.833 -0.9847 -0.9393  0.2338
 6335SOL     OW19462   4.050   1.457   5.704  0.6831 -0.1115 -0.5775
 6335SOL    HW119463   4.056   1.362   5.705  0.1264 -0.1508 -0.8238
 6335SOL    HW219464   4.141   1.487   5.712  0.7420 -0.6353  0.9812
 6336SOL     OW19465   1.746   2.875   6.229 -0.2256  0.1361  0.0569
 6336SOL    HW119466   1.831   2.844   6.196 -0.3113 -0.8604  0.7408
 6336SOL    HW219467   1.766   2.913   6.314 -0.1354  1.9691 -0.7272
 6337SOL     OW19468   1.703   3.613   2.897 -0.2302  0.0604 -0.0908
 6337SOL    HW119469   1.701   3.678   2.827 -0.1123  0.3712  0.1931
 6337SOL    HW219470   1.751   3.539   2.860 -0.4646  0.0867 -0.4527
 6338SOL     OW19471   5.592   2.365   4.762 -0.0925  0.6308 -0.2188
 6338SOL    HW119472   5.619   2.430   4.826  2.5160  1.2849 -1.8559
 6338SOL    HW219473   5.635   2.284   4.790  0.9200  0.8800 -1.0208
 6339SOL     OW19474   2.397   5.815   5.258  0.5347  0.5204  0.1580
 6339SOL    HW119475   2.407   5.733   5.210  0.6723  0.7798 -0.2647
 6339SOL    HW219476   2.482   5.828   5.302 -0.7131 -1.6314  3.6136
 6340SOL     OW19477   0.204   2.468   0.869 -0.2854 -0.5574  0.0912
 6340SOL    HW119478   0.188   2.417   0.948  2.2697  0.4495  1.3840
 6340SOL    HW219479   0.126   2.523   0.860 -0.9388 -1.1961  1.4810
 6341SOL     OW19480   1.364   0.629   3.273  0.5704  0.2645 -0.0144
 6341SOL    HW119481   1.397   0.647   3.185 -1.0123 -0.0340 -0.7017
 6341SOL    HW219482   1.274   0.599   3.259 -0.0270  1.1160  1.7731
 6342SOL     OW19483   4.032   4.348   2.017 -0.3505  0.5363 -0.3034
 6342SOL    HW119484   4.023   4.427   2.070  2.8688  0.8597 -0.0372
 6342SOL    HW219485   4.108   4.303   2.054 -2.2261 -2.9575 -0.2323
 6343SOL     OW19486   6.083   1.087   1.178 -0.2441  0.2780  0.2701
 6343SOL    HW119487   6.074   1.002   1.222  0.0048  0.6534  1.0642
 6343SOL    HW219488   6.025   1.080   1.102  0.1881 -0.7988  0.0103
 6344SOL     OW19489   3.804   5.820   5.047  0.3653  1.2320  0.2666
 6344SOL    HW119490   3.877   5.791   4.993 -1.0708  1.2157 -1.8088
 6344SOL    HW219491   3.834   5.903   5.085  1.5904  1.0358 -0.2223
 6345SOL     OW19492   4.335   5.851   2.344  0.7343  0.2861  0.3444
 6345SOL    HW119493   4.320   5.945   2.335  2.3773  0.4415 -1.1573
 6345SOL    HW219494   4.333   5.836   2.439  2.1763  2.1686  0.7284
 6346SOL     OW19495   3.309   1.697   1.563 -0.1988 -0.5656  0.1872
 6346SOL    HW119496   3.380   1.714   1.501 -0.0856 -0.0001  0.4710
 6346SOL    HW219497   3.324   1.606   1.591  0.5627 -0.3725  0.4338
 6347SOL     OW19498   4.906   2.780   6.333 -0.2760  0.0079  0.3657
 6347SOL    HW119499   4.887   2.691   6.363  1.4158 -0.2325  0.7930
 6347SOL    HW219500   4.901   2.775   6.237 -1.1744 -0.2923  0.4182
 6348SOL     OW19501   0.604   4.232   2.967 -0.1021 -0.3465  0.2995
 6348SOL    HW119502   0.582   4.144   2.935 -1.1739 -0.7321  1.9436
 6348SOL    HW219503   0.693   4.223   3.000 -0.3796 -0.9669  0.9103
 6349SOL     OW19504   1.726   5.800   1.543  0.3120  0.2563  0.2168
 6349SOL    HW119505   1.786   5.826   1.473 -1.1570  1.7975 -0.5572
 6349SOL    HW219506   1.709   5.707   1.528 -0.4270  0.6700 -1.9017
 6350SOL     OW19507   5.915   5.849   5.379 -0.2157 -0.1626  0.2413
 6350SOL    HW119508   6.000   5.881   5.349  0.3915 -1.5500  0.4272
 6350SOL    HW219509   5.926   5.833   5.473 -0.2825 -1.5348  0.0339
 6351SOL     OW19510   1.310   4.111   4.039 -0.1417 -0.6175 -0.2798
 6351SOL    HW119511   1.338   4.020   4.048 -0.3599 -0.6783 -0.2161
 6351SOL    HW219512   1.239   4.121   4.102 -1.1238 -0.8260 -1.3147
 6352SOL     OW19513   3.104   3.564   3.640 -0.6766 -0.9209 -0.8582
 6352SOL    HW119514   3.013   3.567   3.667 -0.4797 -1.9829 -0.0096
 6352SOL    HW219515   3.144   3.499   3.698  0.5801 -0.5837 -1.3200
 6353SOL     OW19516   6.367   0.841   0.789 -0.8268  0.4000 -0.3396
 6353SOL    HW119517   6.414   0.919   0.818  0.3879 -0.5573  0.3655
 6353SOL    HW219518   6.310   0.818   0.862 -1.1653  0.6132 -0.5369
 6354SOL     OW19519   2.131   5.356   1.351  0.2055  0.0645  0.7338
 6354SOL    HW119520   2.118   5.367   1.445  1.2287  0.0840  0.8880
 6354SOL    HW219521   2.172   5.269   1.344  0.3132  0.1495  0.3263
 6355SOL     OW19522   2.862   0.486   1.170 -0.6182  0.1593  0.2412
 6355SOL    HW119523   2.885   0.473   1.078 -1.0795  0.6573  0.0501
 6355SOL    HW219524   2.844   0.579   1.177 -0.6485  0.1125  0.8245
 6356SOL     OW19525   0.202   1.247   2.991 -0.1870 -0.0219  0.4699
 6356SOL    HW119526   0.236   1.225   3.078 -1.2443  0.9554  1.1578
 6356SOL    HW219527   0.280   1.256   2.937  0.5481  0.1900  1.5252
 6357SOL     OW19528   1.923   3.684   3.725  0.1248  0.0285  0.0881
 6357SOL    HW119529   1.929   3.607   3.782  1.4136  0.1792  0.2043
 6357SOL    HW219530   1.848   3.667   3.669  1.4935 -2.2746 -1.2219
 6358SOL     OW19531   2.110   3.755   2.725 -0.0563 -0.1398 -0.5457
 6358SOL    HW119532   2.051   3.694   2.680 -1.0052 -0.5812  1.1739
 6358SOL    HW219533   2.118   3.718   2.813  2.5806  0.0855 -0.6109
 6359SOL     OW19534   2.203   3.843   0.592  0.2685 -0.2650 -0.5334
 6359SOL    HW119535   2.174   3.934   0.588  0.2691 -0.0109  2.6503
 6359SOL    HW219536   2.125   3.794   0.619  0.8969 -0.7544  0.4643
 6360SOL     OW19537   1.643   1.771   3.756 -0.2709 -0.0518 -0.2348
 6360SOL    HW119538   1.598   1.814   3.684 -1.1415 -0.6466 -0.0606
 6360SOL    HW219539   1.597   1.801   3.834 -0.1165 -0.3528 -0.0264
 6361SOL     OW19540   5.355   3.251   2.673  0.0964  0.4457 -0.1026
 6361SOL    HW119541   5.427   3.237   2.611  0.2427  0.9870 -0.0584
 6361SOL    HW219542   5.364   3.179   2.736 -0.3398 -0.3863 -0.9654
 6362SOL     OW19543   1.190   2.129   5.789 -0.0270  0.0449 -0.9101
 6362SOL    HW119544   1.191   2.033   5.783 -0.6303 -0.0771  0.5826
 6362SOL    HW219545   1.160   2.147   5.878  0.0248  1.6312 -1.1926
 6363SOL     OW19546   0.763   5.488   2.686 -0.6039  0.3599  0.0825
 6363SOL    HW119547   0.812   5.447   2.757 -1.9709  0.4350  1.1064
 6363SOL    HW219548   0.800   5.575   2.677  1.3059 -0.5066 -1.0831
 6364SOL     OW19549   6.110   3.564   5.030 -0.1881 -0.0482  0.3573
 6364SOL    HW119550   6.119   3.470   5.014  1.4708 -0.1510  1.6767
 6364SOL    HW219551   6.042   3.571   5.097 -2.3359 -0.0556 -1.6920
 6365SOL     OW19552   1.045   1.871   1.265 -0.3325 -0.0479 -0.3882
 6365SOL    HW119553   1.092   1.931   1.322 -0.2279 -0.2118 -0.3014
 6365SOL    HW219554   1.008   1.805   1.324  0.9463 -1.0236 -0.6179
 6366SOL     OW19555   4.337   0.630   4.656  0.3686 -0.2504  0.1678
 6366SOL    HW119556   4.398   0.556   4.656  0.3748 -0.3066  2.5987
 6366SOL    HW219557   4.392   0.707   4.642  0.5095 -0.5563 -1.1452
 6367SOL     OW19558   3.862   4.837   0.437  0.3141 -0.3948  0.2805
 6367SOL    HW119559   3.797   4.813   0.370 -0.4420  1.1072  0.4290
 6367SOL    HW219560   3.810   4.851   0.516  1.0209 -0.6514  0.8017
 6368SOL     OW19561   4.804   2.626   2.903  0.2992 -0.4252 -0.1851
 6368SOL    HW119562   4.750   2.549   2.918  0.6040 -1.1977 -2.6191
 6368SOL    HW219563   4.887   2.606   2.946 -0.9834  0.5057  3.0257
 6369SOL     OW19564   2.707   0.733   0.769  0.2209  0.0588 -0.0571
 6369SOL    HW119565   2.746   0.775   0.845 -1.6831  0.8959  0.5231
 6369SOL    HW219566   2.691   0.643   0.797 -1.3155  0.5874  0.9417
 6370SOL     OW19567   4.689   1.905   3.396  0.4243  0.2045  0.2102
 6370SOL    HW119568   4.623   1.862   3.342 -0.7569  1.2479  0.7575
 6370SOL    HW219569   4.670   1.999   3.386  2.5475  0.6019 -0.4892
 6371SOL     OW19570   2.312   3.351   1.295  0.2348 -0.1635 -0.5809
 6371SOL    HW119571   2.401   3.343   1.329 -0.1058 -0.0894  0.3540
 6371SOL    HW219572   2.267   3.271   1.324  0.0978 -0.4007 -1.4008
 6372SOL     OW19573   3.701   5.490   5.455  0.1139 -0.0105 -0.1760
 6372SOL    HW119574   3.753   5.510   5.533 -0.7641 -0.0350  0.4344
 6372SOL    HW219575   3.613   5.519   5.478 -0.1079  0.1889 -1.2545
 6373SOL     OW19576   0.334   5.852   3.753  0.0059  0.2696 -0.5745
 6373SOL    HW119577   0.412   5.837   3.807 -0.7255  1.2980  0.8347
 6373SOL    HW219578   0.263   5.810   3.801 -0.6818  1.2617 -0.6979
 6374SOL     OW19579   3.190   6.035   4.630  0.0420 -0.5696 -0.6669
 6374SOL    HW119580   3.109   6.074   4.662  1.5535  0.1705  2.7987
 6374SOL    HW219581   3.177   5.941   4.641 -0.3856 -0.4557 -0.1576
 6375SOL     OW19582   3.239   0.712   5.846 -0.3464  0.4169 -0.2673
 6375SOL    HW119583   3.277   0.764   5.775 -0.8644 -0.6396 -1.3509
 6375SOL    HW219584   3.231   0.624   5.809  2.6566 -1.0802  2.2312
 6376SOL     OW19585   3.290   6.327   2.062 -0.0003  0.5668 -0.9539
 6376SOL    HW119586   3.220   6.386   2.033  0.4051  1.7012  0.2575
 6376SOL    HW219587   3.261   6.296   2.148 -0.5738 -1.6900 -1.8949
 6377SOL     OW19588   6.126   5.783   6.355  0.8004  0.1576  0.0825
 6377SOL    HW119589   6.162   5.708   6.309  0.6343  0.8200 -1.1913
 6377SOL    HW219590   6.202   5.829   6.390  0.9282 -0.3600  0.5007
 6378SOL     OW19591   0.484   6.012   2.147 -0.4211 -0.0614  0.6939
 6378SOL    HW119592   0.459   6.104   2.142  0.9821  0.2910 -0.2979
 6378SOL    HW219593   0.578   6.013   2.166 -0.1011 -1.2488 -0.6151
 6379SOL     OW19594   0.638   1.391   1.479  0.1005  0.2710  0.0592
 6379SOL    HW119595   0.713   1.395   1.421  0.9115 -1.9511  0.8669
 6379SOL    HW219596   0.644   1.471   1.531  0.5969  1.2132 -1.3899
 6380SOL     OW19597   0.391   0.826   5.481  0.3419  0.6260  0.6081
 6380SOL    HW119598   0.474   0.852   5.521  1.0440  0.6395 -0.8402
 6380SOL    HW219599   0.326   0.845   5.549  1.5712 -0.0360  2.0203
 6381SOL     OW19600   0.753   5.291   5.287  0.1969  0.4453  0.2359
 6381SOL    HW119601   0.817   5.360   5.275  0.0144  0.5497 -0.1480
 6381SOL    HW219602   0.720   5.272   5.199  0.4234 -0.3050  0.3010
 6382SOL     OW19603   5.676   5.492   2.107 -0.1976  0.0546  0.0399
 6382SOL    HW119604   5.683   5.560   2.040  0.8047 -0.7282 -0.6851
 6382SOL    HW219605   5.582   5.477   2.117 -0.4414 -2.0496 -3.5658
 6383SOL     OW19606   4.637   1.220   0.050  0.9199 -0.0820  0.3027
 6383SOL    HW119607   4.580   1.241  -0.024  0.9413 -2.1191 -0.3440
 6383SOL    HW219608   4.647   1.125   0.047  2.9096  0.0268  1.4686
 6384SOL     OW19609   3.547   5.606   1.529 -0.0425  0.2281 -0.6493
 6384SOL    HW119610   3.588   5.687   1.497  0.1267 -0.1975 -1.5351
 6384SOL    HW219611   3.459   5.634   1.556 -0.0401  0.6913 -1.0963
 6385SOL     OW19612   5.658   1.752   5.801 -0.4445  0.1053 -0.5363
 6385SOL    HW119613   5.596   1.679   5.791 -1.6729  0.2598  3.9124
 6385SOL    HW219614   5.603   1.830   5.801  0.1107  0.5137  0.3425
 6386SOL     OW19615   0.449   5.251   0.396  0.1853 -0.3551 -0.1655
 6386SOL    HW119616   0.533   5.259   0.351  0.4746 -1.4193  0.1645
 6386SOL    HW219617   0.461   5.301   0.477 -0.4538  1.8691 -1.3415
 6387SOL     OW19618   0.550   0.527   1.338  0.1145  0.0069 -0.0182
 6387SOL    HW119619   0.630   0.574   1.362  1.0483 -0.6682 -1.6440
 6387SOL    HW219620   0.488   0.597   1.313  0.5759  0.4904  0.1701
 6388SOL     OW19621   2.383   6.159   0.222  0.2693 -0.0477  0.4162
 6388SOL    HW119622   2.323   6.161   0.149 -0.6996 -3.5781  0.9126
 6388SOL    HW219623   2.470   6.161   0.182 -0.2419 -0.8003 -0.7830
 6389SOL     OW19624   3.697   4.349   1.325  0.1359  0.0273  0.1888
 6389SOL    HW119625   3.618   4.387   1.286 -0.4348 -0.9486  0.3624
 6389SOL    HW219626   3.671   4.322   1.413  0.9530  0.6363  0.6303
 6390SOL     OW19627   3.241   1.803   4.274  0.4113  0.4222  0.1405
 6390SOL    HW119628   3.159   1.765   4.240  0.6244 -0.0747  0.1752
 6390SOL    HW219629   3.300   1.728   4.284 -0.0346  0.3182  2.7817
 6391SOL     OW19630   5.563   0.172   2.537 -0.8609 -0.6555 -0.6790
 6391SOL    HW119631   5.499   0.242   2.528 -0.4133 -0.3556 -1.6086
 6391SOL    HW219632   5.515   0.101   2.580 -1.5574 -0.1044 -0.5290
 6392SOL     OW19633   4.583   5.987   1.224 -0.2259 -0.6318  0.4535
 6392SOL    HW119634   4.609   6.027   1.307  0.1996  1.6775 -0.7185
 6392SOL    HW219635   4.488   5.997   1.222 -0.0772  0.9137 -0.0680
 6393SOL     OW19636   1.550   2.185   5.628 -0.5113  0.4658 -0.3416
 6393SOL    HW119637   1.536   2.262   5.571  1.2391  1.2486  0.2263
 6393SOL    HW219638   1.602   2.125   5.575 -1.8217 -0.3511 -0.7599
 6394SOL     OW19639   5.067   1.340   0.882  0.0320  0.2171 -0.6720
 6394SOL    HW119640   4.997   1.406   0.890 -0.2978 -0.0039 -1.6495
 6394SOL    HW219641   5.142   1.380   0.925 -0.8862  0.1606  1.0716
 6395SOL     OW19642   1.604   2.996   5.386  0.0402 -0.0138  0.1334
 6395SOL    HW119643   1.676   3.058   5.375  0.0663 -0.0665  0.0037
 6395SOL    HW219644   1.582   3.001   5.479 -0.3751  0.6638  0.0087
 6396SOL     OW19645   3.596   0.966   3.978 -0.1196 -0.6071 -0.3325
 6396SOL    HW119646   3.503   0.979   3.960  0.1855  1.1855 -0.8191
 6396SOL    HW219647   3.610   1.009   4.062  0.2804 -0.8887 -0.2515
 6397SOL     OW19648   1.188   2.288   1.424 -0.3220  0.1709 -0.2072
 6397SOL    HW119649   1.171   2.199   1.454 -0.8318 -0.2420 -1.6430
 6397SOL    HW219650   1.270   2.282   1.376 -0.2272  0.5419 -0.0953
 6398SOL     OW19651   3.840   3.005   0.888 -0.1360  0.1769 -0.0181
 6398SOL    HW119652   3.911   3.037   0.943 -1.5272 -0.9527  2.6097
 6398SOL    HW219653   3.786   3.082   0.872 -1.6372 -0.0033  3.3837
 6399SOL     OW19654   0.134   2.779   1.262  0.1000  0.3217 -0.1700
 6399SOL    HW119655   0.149   2.685   1.264 -1.4364  0.0494  2.4181
 6399SOL    HW219656   0.085   2.793   1.181  1.6582 -0.8016 -1.3823
 6400SOL     OW19657   5.041   3.752   2.703 -0.1149  0.9277  0.2778
 6400SOL    HW119658   5.053   3.671   2.654 -2.2463  2.3854 -3.0158
 6400SOL    HW219659   4.973   3.731   2.767 -1.6818  0.3468 -1.4743
 6401SOL     OW19660   1.619   0.920   0.045  0.2323 -0.0178  0.0841
 6401SOL    HW119661   1.541   0.975   0.034 -0.0632 -0.7467 -1.8799
 6401SOL    HW219662   1.590   0.847   0.099 -0.3662 -0.0973 -0.3309
 6402SOL     OW19663   4.266   2.311   4.906 -0.1271 -0.5240  0.7238
 6402SOL    HW119664   4.242   2.376   4.840 -1.3239 -1.3796  0.2932
 6402SOL    HW219665   4.345   2.346   4.946 -0.5409  1.0180  0.2484
 6403SOL     OW19666   2.858   2.110   4.389 -0.5022  0.3323  0.1012
 6403SOL    HW119667   2.801   2.094   4.464 -1.1809 -1.2611 -0.7051
 6403SOL    HW219668   2.946   2.117   4.426 -0.5897 -2.0842  0.9576
 6404SOL     OW19669   4.931   2.917   2.958  0.0828  0.1475  0.4333
 6404SOL    HW119670   4.861   2.932   2.895 -0.1273 -0.4083  0.5259
 6404SOL    HW219671   4.991   2.857   2.913  1.7644  2.4382 -0.5705
 6405SOL     OW19672   3.772   5.954   1.151  0.1879  0.3080  0.3906
 6405SOL    HW119673   3.828   5.886   1.114  0.2779  0.8687 -0.5379
 6405SOL    HW219674   3.810   6.036   1.119  0.0308  0.8022  1.4230
 6406SOL     OW19675   5.079   0.995   0.755  0.1145 -0.8392 -0.2509
 6406SOL    HW119676   5.114   1.018   0.841 -1.5417 -0.9008  0.4786
 6406SOL    HW219677   5.045   1.077   0.720  1.1045 -0.7394 -1.0478
 6407SOL     OW19678   5.855   5.800   2.117  0.0765  0.7019 -0.0525
 6407SOL    HW119679   5.804   5.773   2.040 -1.0992  0.0971  0.9074
 6407SOL    HW219680   5.791   5.843   2.174  0.3084 -1.2362  1.7754
 6408SOL     OW19681   3.893   0.709   4.469  0.2174 -0.2317  0.5626
 6408SOL    HW119682   3.961   0.642   4.468  0.0952 -0.3529  0.2187
 6408SOL    HW219683   3.933   0.786   4.429  0.0840 -0.3745  0.1468
 6409SOL     OW19684   1.251   3.132   4.512 -0.0775  0.1361  0.1128
 6409SOL    HW119685   1.273   3.169   4.427 -0.5733  0.7202  0.2366
 6409SOL    HW219686   1.328   3.152   4.567 -0.1235  0.5273  0.0372
 6410SOL     OW19687   1.094   6.052   6.070  0.6226  0.2475  0.2632
 6410SOL    HW119688   1.137   6.018   5.992  1.2539 -0.7752  1.0333
 6410SOL    HW219689   1.116   5.990   6.139 -1.2147  0.2688  0.9310
 6411SOL     OW19690   5.154   2.221   5.227  0.9000 -0.4093 -0.0240
 6411SOL    HW119691   5.076   2.275   5.216 -0.1779 -1.3894  2.2639
 6411SOL    HW219692   5.168   2.182   5.141 -2.0184 -1.3440 -0.1788
 6412SOL     OW19693   5.189   3.987   3.000 -0.4457  0.1784 -0.3823
 6412SOL    HW119694   5.211   3.911   2.946 -0.6755  1.1781 -1.9567
 6412SOL    HW219695   5.095   3.999   2.986 -0.8337 -0.3785  1.4154
 6413SOL     OW19696   0.930   4.128   0.599  0.3410 -0.0624  0.3249
 6413SOL    HW119697   1.013   4.174   0.591  0.9907 -1.2610  0.0107
 6413SOL    HW219698   0.935   4.084   0.685 -0.2689  0.4309  0.6227
 6414SOL     OW19699   5.197   0.664   0.904  0.3274  0.4882 -0.0545
 6414SOL    HW119700   5.200   0.581   0.856  0.4600 -0.1166  0.9637
 6414SOL    HW219701   5.268   0.716   0.867  0.0847  0.2557 -0.8750
 6415SOL     OW19702   5.960   2.947   0.069  0.0503 -0.4169 -0.1055
 6415SOL    HW119703   5.896   2.970   0.002  0.3539  2.1241  0.3889
 6415SOL    HW219704   5.922   2.979   0.151  0.4602 -1.9503  0.7374
 6416SOL     OW19705   6.068   6.345   1.775 -0.3647 -0.4602  0.5449
 6416SOL    HW119706   6.028   6.399   1.707 -0.1346 -0.1920  0.6187
 6416SOL    HW219707   6.035   6.381   1.857 -0.8687 -0.9661  0.5705
 6417SOL     OW19708   5.236   2.675   3.696  0.1657 -0.1551 -0.3568
 6417SOL    HW119709   5.256   2.643   3.608 -0.3268  0.3431 -0.6604
 6417SOL    HW219710   5.313   2.654   3.748  1.2050  1.1109 -1.3245
 6418SOL     OW19711   0.266   3.872   3.528  0.2450 -0.4153  0.0690
 6418SOL    HW119712   0.330   3.936   3.559 -0.1380  0.0591 -0.0912
 6418SOL    HW219713   0.286   3.792   3.576  0.4451 -0.0457  0.6125
 6419SOL     OW19714   3.612   3.622   0.695  0.2225  0.2515 -0.1093
 6419SOL    HW119715   3.625   3.672   0.615 -1.6183 -1.3613 -1.4933
 6419SOL    HW219716   3.585   3.687   0.760  3.9603  1.9721 -0.0139
 6420SOL     OW19717   5.961   4.093   4.792  0.1700 -0.0595 -0.3226
 6420SOL    HW119718   5.974   4.004   4.825  0.8496 -0.0793 -0.6150
 6420SOL    HW219719   5.868   4.098   4.771  0.0126 -0.5136  0.2333
 6421SOL     OW19720   0.618   3.737   0.768  0.5965  0.1264  0.7024
 6421SOL    HW119721   0.707   3.749   0.733  0.3390  1.1596  0.3565
 6421SOL    HW219722   0.561   3.749   0.692  0.1794 -1.3521  0.7554
 6422SOL     OW19723   1.558   1.985   2.158 -0.6889 -0.3678  0.4035
 6422SOL    HW119724   1.539   2.072   2.124 -0.1075  0.3328  1.8003
 6422SOL    HW219725   1.530   1.988   2.250 -0.4563 -1.5767  0.5362
 6423SOL     OW19726   1.021   4.180   2.793 -0.0276  0.5815 -0.6060
 6423SOL    HW119727   0.971   4.177   2.712 -1.2016  0.1457  0.1147
 6423SOL    HW219728   1.065   4.095   2.797 -0.0648  0.5569 -0.7335
 6424SOL     OW19729   1.952   6.236   0.211 -0.0134 -0.1899 -0.3974
 6424SOL    HW119730   1.882   6.293   0.242  1.8106  1.7845  0.3395
 6424SOL    HW219731   1.955   6.164   0.274 -1.5201 -0.4676 -0.6126
 6425SOL     OW19732   6.144   1.487   3.354  0.3197 -0.3834 -0.1590
 6425SOL    HW119733   6.082   1.413   3.351  2.1660 -2.0083 -0.1476
 6425SOL    HW219734   6.115   1.539   3.429 -1.9097 -0.2180 -1.0526
 6426SOL     OW19735   2.063   5.260   0.263 -0.2785 -0.2153 -0.0923
 6426SOL    HW119736   2.154   5.231   0.264 -0.1608  0.0880  1.6726
 6426SOL    HW219737   2.038   5.259   0.170  1.7046  0.3058 -0.6759
 6427SOL     OW19738   6.288   4.189   2.178  0.5912  0.6750 -0.1436
 6427SOL    HW119739   6.256   4.108   2.216  0.9289  0.3188 -0.6132
 6427SOL    HW219740   6.271   4.180   2.084 -0.0064  1.4362 -0.1216
 6428SOL     OW19741   6.158   4.931   5.782  0.1355 -0.1502 -0.0838
 6428SOL    HW119742   6.181   4.849   5.826 -0.8843 -0.3495  0.1169
 6428SOL    HW219743   6.062   4.935   5.788  0.1229  0.7376 -0.6628
 6429SOL     OW19744   5.233   2.888   1.535 -0.2806 -0.2086  0.0920
 6429SOL    HW119745   5.210   2.955   1.600  1.0453 -1.7047  2.2651
 6429SOL    HW219746   5.219   2.930   1.451 -2.7150  1.6779  1.2847
 6430SOL     OW19747   1.874   5.740   6.336  0.2097  0.1160  0.5868
 6430SOL    HW119748   1.804   5.739   6.272 -0.4793 -0.8715  1.3272
 6430SOL    HW219749   1.923   5.820   6.317  1.1172 -1.0232 -2.3081
 6431SOL     OW19750   5.770   6.088   6.349  0.0728 -0.7842 -0.5024
 6431SOL    HW119751   5.782   6.120   6.439  0.7510 -2.2361 -0.0493
 6431SOL    HW219752   5.785   6.165   6.294 -1.7945  0.5010  0.6454
 6432SOL     OW19753   3.071   2.498   4.564 -0.0142  0.0558 -0.2418
 6432SOL    HW119754   3.001   2.459   4.616  0.6028  0.0054  0.5698
 6432SOL    HW219755   3.151   2.464   4.603  0.4895  0.9399 -0.4855
 6433SOL     OW19756   1.196   6.365   1.077  0.1581 -0.1619 -0.0504
 6433SOL    HW119757   1.130   6.296   1.068 -0.4304  0.4351 -0.4160
 6433SOL    HW219758   1.161   6.423   1.144  1.9139 -1.6205  2.2814
 6434SOL     OW19759   4.410   5.396   2.606 -0.0716 -0.0759 -0.2164
 6434SOL    HW119760   4.450   5.388   2.692 -1.4495 -1.4380  0.3578
 6434SOL    HW219761   4.347   5.468   2.614  1.1403  1.0788 -0.6880
 6435SOL     OW19762   0.813   0.959   0.362 -0.0348  0.1615 -0.5147
 6435SOL    HW119763   0.881   0.930   0.301  1.5445  2.5700 -0.0489
 6435SOL    HW219764   0.806   1.054   0.347 -2.2791  0.2107  0.4811
 6436SOL     OW19765   1.618   4.738   2.475  0.2842  0.2950  0.1632
 6436SOL    HW119766   1.620   4.833   2.483  0.0718  0.1609  2.2148
 6436SOL    HW219767   1.695   4.717   2.423  0.1824  1.5829 -0.5736
 6437SOL     OW19768   2.379   0.680   3.084  0.2175 -0.2639 -0.3967
 6437SOL    HW119769   2.395   0.587   3.069 -0.6291 -0.3162 -1.0660
 6437SOL    HW219770   2.383   0.691   3.179 -1.1277 -1.2606 -0.2047
 6438SOL     OW19771   1.787   5.821   2.816  0.4574 -0.2012  0.0407
 6438SOL    HW119772   1.703   5.822   2.862 -0.5735  2.9203 -1.6599
 6438SOL    HW219773   1.782   5.744   2.759 -0.6666 -0.8140  0.9361
 6439SOL     OW19774   1.134   5.678   1.771  0.1049 -0.0812  0.1037
 6439SOL    HW119775   1.059   5.676   1.829  1.2198 -0.9415  1.5678
 6439SOL    HW219776   1.166   5.768   1.776 -0.0871 -0.0323  0.4285
 6440SOL     OW19777   1.045   0.952   0.818 -0.1008  0.2829  0.6434
 6440SOL    HW119778   1.053   1.029   0.874 -0.0410  0.0515  0.9572
 6440SOL    HW219779   0.976   0.975   0.755 -0.0649  0.6007  0.7200
 6441SOL     OW19780   3.408   2.939   1.410  0.4218  0.5781  0.2937
 6441SOL    HW119781   3.503   2.949   1.414  0.5416  0.7389 -1.8841
 6441SOL    HW219782   3.395   2.845   1.392  0.1900  0.6206  0.2370
 6442SOL     OW19783   2.889   1.443   5.675 -0.5780  0.4022  0.5262
 6442SOL    HW119784   2.853   1.521   5.632 -2.0263  1.5233  3.4294
 6442SOL    HW219785   2.823   1.375   5.661 -1.1109  0.8016  1.0083
 6443SOL     OW19786   4.510   0.631   1.890 -0.1146 -0.0544  0.1412
 6443SOL    HW119787   4.605   0.641   1.882 -0.1628  0.9556  0.6315
 6443SOL    HW219788   4.475   0.718   1.869 -0.8493 -0.0699  1.2382
 6444SOL     OW19789   4.226   0.321   2.231 -0.4099 -0.0335 -0.5532
 6444SOL    HW119790   4.231   0.238   2.277  0.5871 -0.1981 -0.9175
 6444SOL    HW219791   4.216   0.297   2.139  0.4046  0.2161 -0.7221
 6445SOL     OW19792   3.547   0.287   5.699  0.3278 -0.5431 -0.6429
 6445SOL    HW119793   3.460   0.251   5.718  0.6973 -1.4494 -0.6331
 6445SOL    HW219794   3.592   0.218   5.651  0.9904 -0.0144 -0.7958
 6446SOL     OW19795   1.290   4.940   5.565  0.5246 -0.2473  0.2625
 6446SOL    HW119796   1.369   4.990   5.544  0.4494 -1.1103 -2.4293
 6446SOL    HW219797   1.219   5.004   5.561  0.6524 -0.1544 -1.3173
 6447SOL     OW19798   1.839   0.602   3.251  0.0652  0.1454 -0.1920
 6447SOL    HW119799   1.811   0.526   3.302 -0.2836  0.0706 -0.4872
 6447SOL    HW219800   1.932   0.611   3.270 -0.2871  0.8564  1.4174
 6448SOL     OW19801   0.569   1.464   0.595  0.1585 -0.3824  0.4903
 6448SOL    HW119802   0.628   1.519   0.544  0.0583  0.8887  1.7136
 6448SOL    HW219803   0.522   1.412   0.529  1.2991 -0.0817 -0.5952
 6449SOL     OW19804   1.599   2.899   2.072 -0.4922 -0.8629  0.0087
 6449SOL    HW119805   1.522   2.949   2.048 -0.1254 -0.5565 -0.5505
 6449SOL    HW219806   1.673   2.953   2.045 -0.0847 -1.4654 -0.1199
 6450SOL     OW19807   3.317   0.630   2.313 -0.7680  0.2857 -0.2048
 6450SOL    HW119808   3.325   0.540   2.343 -0.9856  0.1415 -0.5782
 6450SOL    HW219809   3.382   0.678   2.364  0.7582 -0.4134 -1.4061
 6451SOL     OW19810   2.812   0.633   3.550 -0.2422  0.4440  0.1675
 6451SOL    HW119811   2.794   0.610   3.641  0.1330  4.4191  1.4260
 6451SOL    HW219812   2.901   0.667   3.550  0.5514 -1.3426 -2.1952
 6452SOL     OW19813   0.959   0.393   6.139 -0.4655 -0.3561 -0.3214
 6452SOL    HW119814   0.891   0.450   6.103  0.4771  0.1436 -1.3456
 6452SOL    HW219815   0.999   0.350   6.063  0.4475 -0.5531  0.2466
 6453SOL     OW19816   1.512   2.271   0.558  0.1010 -0.3876  0.5073
 6453SOL    HW119817   1.514   2.177   0.540  0.5886 -0.2677 -0.1287
 6453SOL    HW219818   1.419   2.294   0.555  0.0047 -0.7886  0.3203
 6454SOL     OW19819   2.311   2.274   3.181  0.3518  1.1023  0.6168
 6454SOL    HW119820   2.344   2.185   3.168 -0.6226  0.7001  0.8715
 6454SOL    HW219821   2.323   2.316   3.096 -0.7637  0.2007 -0.0118
 6455SOL     OW19822   4.909   0.192   5.214 -0.5499 -0.1787  0.0894
 6455SOL    HW119823   4.884   0.182   5.122 -0.2067 -0.4806  0.0279
 6455SOL    HW219824   4.852   0.132   5.261  0.1524 -0.9922 -0.0690
 6456SOL     OW19825   0.690   1.360   2.627 -0.2356  0.0524 -0.4273
 6456SOL    HW119826   0.755   1.368   2.557  0.0785 -1.7850 -0.4045
 6456SOL    HW219827   0.606   1.350   2.582 -0.2846  0.7435 -0.4937
 6457SOL     OW19828   6.269   1.939   1.328  0.6435 -0.2321  0.3402
 6457SOL    HW119829   6.239   1.968   1.241  1.7703  1.8677  0.5751
 6457SOL    HW219830   6.193   1.895   1.366 -0.1607 -0.4041 -1.3536
 6458SOL     OW19831   1.718   6.127   5.765 -0.0864  0.0626 -0.1984
 6458SOL    HW119832   1.673   6.079   5.835 -0.2432  1.4422  0.6908
 6458SOL    HW219833   1.809   6.131   5.794  0.2866 -1.0902 -1.0890
 6459SOL     OW19834   3.524   0.807   2.178  0.1177  0.1208  0.3915
 6459SOL    HW119835   3.506   0.824   2.085 -0.3032  0.5303  0.5434
 6459SOL    HW219836   3.477   0.726   2.197  1.9163 -1.1646 -0.2699
 6460SOL     OW19837   6.266   3.602   4.652  0.2483  0.0893  0.2456
 6460SOL    HW119838   6.268   3.520   4.601  0.0335 -0.5177  1.1803
 6460SOL    HW219839   6.343   3.598   4.708  1.6019  1.6966 -1.4045
 6461SOL     OW19840   4.995   1.596   4.167 -0.8051  0.0570 -0.0083
 6461SOL    HW119841   4.904   1.587   4.137 -0.2248 -2.1613 -1.3468
 6461SOL    HW219842   5.036   1.653   4.102 -0.6639 -1.0076 -0.8807
 6462SOL     OW19843   4.605   0.101   2.936  0.3462 -0.2111 -0.1079
 6462SOL    HW119844   4.656   0.182   2.926  1.0016 -0.4896  0.8311
 6462SOL    HW219845   4.540   0.122   3.003  0.0840 -0.2572 -0.3492
 6463SOL     OW19846   0.289   1.803   5.246  0.2396  0.2419 -0.5878
 6463SOL    HW119847   0.353   1.750   5.295 -0.8798  0.0549  0.7504
 6463SOL    HW219848   0.277   1.881   5.301 -0.4961  0.3803 -0.9390
 6464SOL     OW19849   1.056   3.702   4.540 -0.7155  0.4776  0.0321
 6464SOL    HW119850   1.037   3.610   4.519  0.6586 -0.0727  1.0045
 6464SOL    HW219851   1.148   3.713   4.515 -0.4764  1.1878  1.1605
 6465SOL     OW19852   6.177   1.823   2.236 -0.0986  0.6584 -0.2132
 6465SOL    HW119853   6.212   1.908   2.260 -0.6616  0.5943  0.8993
 6465SOL    HW219854   6.089   1.822   2.274 -0.2697 -0.2420 -0.6102
 6466SOL     OW19855   1.958   1.782   0.491  0.4598 -0.3965 -0.1866
 6466SOL    HW119856   1.988   1.720   0.425 -1.2191 -0.2050 -1.1984
 6466SOL    HW219857   1.915   1.728   0.557 -1.6014 -0.3463 -1.4003
 6467SOL     OW19858   0.749   1.647   3.274 -0.0717 -0.1614 -0.4367
 6467SOL    HW119859   0.772   1.558   3.301  0.0426 -0.5341 -1.7058
 6467SOL    HW219860   0.718   1.638   3.184  1.1685  1.2476 -1.0521
 6468SOL     OW19861   0.735   6.068   2.279 -0.3478  0.4193 -0.2308
 6468SOL    HW119862   0.808   6.115   2.237  1.1780  1.0060  2.8254
 6468SOL    HW219863   0.711   6.123   2.354 -0.0752 -2.4650  2.1454
 6469SOL     OW19864   3.483   0.651   4.948  0.2633  0.2617  0.4431
 6469SOL    HW119865   3.482   0.685   4.858 -1.6380 -0.6668  0.0653
 6469SOL    HW219866   3.422   0.707   4.996 -0.0377 -0.3031  0.7257
 6470SOL     OW19867   5.684   4.850   6.273 -0.2934 -0.1954 -0.4990
 6470SOL    HW119868   5.628   4.928   6.271  0.4947  0.3988 -0.0431
 6470SOL    HW219869   5.639   4.787   6.216  0.2826  1.4245 -2.9026
 6471SOL     OW19870   2.257   5.624   2.485  0.2475  0.4999  0.5803
 6471SOL    HW119871   2.168   5.603   2.455  0.0070  1.3576  0.6795
 6471SOL    HW219872   2.244   5.661   2.573  0.7357  0.3163  0.7327
 6472SOL     OW19873   4.864   1.333   3.350 -0.2365 -0.3209  0.1168
 6472SOL    HW119874   4.862   1.418   3.307  0.2260  0.1300  0.9664
 6472SOL    HW219875   4.947   1.293   3.322 -0.4690 -0.5142 -0.3082
 6473SOL     OW19876   2.099   2.405   4.538 -0.1818 -0.2096 -0.1200
 6473SOL    HW119877   2.022   2.430   4.487  0.2160 -0.2125 -0.7245
 6473SOL    HW219878   2.171   2.454   4.499  0.0630  0.1053  0.7026
 6474SOL     OW19879   1.853   0.298   0.571 -0.3504 -0.0534 -1.6280
 6474SOL    HW119880   1.943   0.266   0.564 -0.7223 -1.0274 -2.1312
 6474SOL    HW219881   1.825   0.310   0.480 -0.3066  1.5200 -1.4665
 6475SOL     OW19882   4.612   3.298   2.777 -0.1261  0.0187  0.2161
 6475SOL    HW119883   4.617   3.389   2.747 -0.7422 -0.1717 -0.4922
 6475SOL    HW219884   4.597   3.305   2.871 -1.0041  0.6721  0.0398
 6476SOL     OW19885   3.149   1.109   3.661  0.1228  0.1157 -0.2647
 6476SOL    HW119886   3.099   1.036   3.698 -1.4504  0.1851 -2.1239
 6476SOL    HW219887   3.166   1.083   3.571 -1.5290  2.5093 -1.3530
 6477SOL     OW19888   1.401   0.591   6.172  0.1893 -0.5780 -0.4266
 6477SOL    HW119889   1.314   0.560   6.198  0.2698 -0.5144 -0.0698
 6477SOL    HW219890   1.386   0.680   6.140  0.1544 -0.4692 -0.1186
 6478SOL     OW19891   0.421   4.992   0.003 -0.3671  0.5253  0.0127
 6478SOL    HW119892   0.405   5.070  -0.051 -2.3689  0.0690 -0.1303
 6478SOL    HW219893   0.337   4.947   0.006  1.0724 -2.5752 -1.3201
 6479SOL     OW19894   5.553   4.770   4.084 -0.2787 -0.5393  0.1268
 6479SOL    HW119895   5.598   4.844   4.124  0.1817 -1.1831  0.8239
 6479SOL    HW219896   5.540   4.707   4.156  1.1685 -2.0111 -0.8327
 6480SOL     OW19897   0.863   6.361   3.764 -0.2782  1.1644  0.2064
 6480SOL    HW119898   0.819   6.417   3.700  1.1715  1.1640 -0.8396
 6480SOL    HW219899   0.955   6.389   3.760  0.2770 -0.5559  0.4617
 6481SOL     OW19900   0.422   1.770   5.010  0.2490  0.1327 -0.3197
 6481SOL    HW119901   0.375   1.795   5.089 -0.1281  0.0537 -0.5138
 6481SOL    HW219902   0.485   1.841   4.995 -1.6173  1.6259 -1.5421
 6482SOL     OW19903   3.695   4.982   2.392  0.0266  0.4611 -0.0611
 6482SOL    HW119904   3.645   5.039   2.450  1.3751  1.7046 -0.0691
 6482SOL    HW219905   3.761   4.942   2.448  2.0112  2.4613 -0.8264
 6483SOL     OW19906   2.325   3.687   4.754  0.1379  0.6261 -0.0441
 6483SOL    HW119907   2.251   3.734   4.715 -0.5004 -0.8694 -0.7223
 6483SOL    HW219908   2.384   3.672   4.681  0.3286  0.3773  0.1599
 6484SOL     OW19909   4.143   6.179   6.173  0.0539 -0.2782  0.2336
 6484SOL    HW119910   4.145   6.167   6.078  0.2523 -1.2705  0.3438
 6484SOL    HW219911   4.234   6.170   6.200 -0.0603 -0.5023  0.5614
 6485SOL     OW19912   4.094   0.587   4.212 -0.2019  0.5883  0.1856
 6485SOL    HW119913   4.167   0.636   4.176 -1.1293  1.9847  0.1218
 6485SOL    HW219914   4.111   0.586   4.306  0.2223  0.3487  0.1085
 6486SOL     OW19915   3.940   0.848   5.399 -0.4042  0.5878 -0.0859
 6486SOL    HW119916   4.028   0.884   5.415 -0.0364  0.7816 -2.2923
 6486SOL    HW219917   3.955   0.766   5.353 -1.3777  0.0955  0.4491
 6487SOL     OW19918   3.457   4.961   5.395  0.1855  0.1148 -0.4832
 6487SOL    HW119919   3.380   4.911   5.423  0.7760  0.0379  1.0658
 6487SOL    HW219920   3.424   5.050   5.382 -0.2421 -0.0007 -0.2134
 6488SOL     OW19921   3.996   5.856   0.247  0.3069  0.5584  0.5210
 6488SOL    HW119922   4.044   5.871   0.166 -0.5431 -2.0282 -0.5734
 6488SOL    HW219923   3.904   5.857   0.222 -0.0763  1.4838  1.8298
 6489SOL     OW19924   3.342   3.190   5.743  0.3198  0.3299 -0.3092
 6489SOL    HW119925   3.431   3.204   5.775  0.2318 -2.8305  1.7068
 6489SOL    HW219926   3.291   3.170   5.821 -2.0663  1.3288 -1.5011
 6490SOL     OW19927   5.429   0.440   2.454  0.5600  0.5563  0.3993
 6490SOL    HW119928   5.341   0.477   2.465 -0.2629 -1.0676 -0.3971
 6490SOL    HW219929   5.472   0.454   2.539 -1.0606 -0.1245  1.3744
 6491SOL     OW19930   4.156   4.706   4.316  0.1199 -0.6559 -0.1577
 6491SOL    HW119931   4.171   4.618   4.350 -0.2453 -1.1331 -1.2034
 6491SOL    HW219932   4.069   4.702   4.277  0.6966 -0.2424 -1.5171
 6492SOL     OW19933   3.228   4.584   4.697  0.1995 -0.1296  0.2050
 6492SOL    HW119934   3.238   4.611   4.788 -2.0253  0.5473  0.3134
 6492SOL    HW219935   3.167   4.510   4.701  0.2017 -0.1953 -0.7328
 6493SOL     OW19936   0.678   4.103   3.519 -0.3737  0.1064 -0.0746
 6493SOL    HW119937   0.725   4.185   3.533  0.9798 -0.5289 -0.6567
 6493SOL    HW219938   0.691   4.084   3.426  0.7635 -1.5759  0.3689
 6494SOL     OW19939   0.240   0.425   1.232  0.2441 -0.0541 -0.1396
 6494SOL    HW119940   0.277   0.485   1.168  1.0029 -0.1943  0.1572
 6494SOL    HW219941   0.235   0.476   1.313 -1.7999  0.4929 -0.5573
 6495SOL     OW19942   4.738   1.791   4.364  0.3554  0.5235  0.1399
 6495SOL    HW119943   4.828   1.820   4.351  0.6491  0.1809  1.2423
 6495SOL    HW219944   4.712   1.753   4.280  1.1552  0.8238 -0.2539
 6496SOL     OW19945   0.363   4.530   0.877  0.0313 -1.1472 -0.0534
 6496SOL    HW119946   0.309   4.603   0.909 -0.1950 -1.0908 -0.5623
 6496SOL    HW219947   0.451   4.551   0.910 -0.1627 -1.0024  0.3878
 6497SOL     OW19948   6.187   0.434   0.388  0.3901  0.0842  0.1411
 6497SOL    HW119949   6.164   0.341   0.396 -0.6316  0.4676  3.0139
 6497SOL    HW219950   6.271   0.441   0.434  1.3335  0.3435 -1.5613
 6498SOL     OW19951   0.252   0.576   2.606 -0.1559 -0.3523 -0.4059
 6498SOL    HW119952   0.256   0.561   2.700  0.6145 -0.1202 -0.3895
 6498SOL    HW219953   0.171   0.534   2.578 -0.5879 -0.0883  0.4169
 6499SOL     OW19954   0.731   4.078   1.627 -0.2519 -0.0651 -0.1751
 6499SOL    HW119955   0.661   4.141   1.614 -1.6355 -1.0563  1.9727
 6499SOL    HW219956   0.807   4.117   1.583 -1.4588  2.2576 -0.3447
 6500SOL     OW19957   2.554   5.760   3.966 -0.5899 -0.3009 -0.0470
 6500SOL    HW119958   2.620   5.825   3.940  0.0810 -1.1327 -0.4441
 6500SOL    HW219959   2.566   5.687   3.906  0.3119 -1.8509  1.8948
 6501SOL     OW19960   2.613   4.993   3.526 -0.5548 -0.0748  0.1538
 6501SOL    HW119961   2.665   4.989   3.606  0.6381  0.5628 -0.5537
 6501SOL    HW219962   2.594   5.086   3.514 -1.9053 -0.2985  0.4102
 6502SOL     OW19963   6.078   1.916   1.902 -0.3411  0.3758  0.1170
 6502SOL    HW119964   6.135   1.993   1.897 -0.8997  0.9123  1.3639
 6502SOL    HW219965   5.999   1.949   1.945 -1.9714 -0.1323 -2.3160
 6503SOL     OW19966   3.685   0.014   4.293 -0.2788 -0.3222  0.0155
 6503SOL    HW119967   3.690  -0.035   4.212  0.5932 -0.3019  0.0523
 6503SOL    HW219968   3.596  -0.002   4.326 -0.9976  0.4842 -1.4403
 6504SOL     OW19969   2.615   0.980   6.013  0.3460  0.1238  0.2341
 6504SOL    HW119970   2.563   0.900   6.016 -1.3788  1.2077  0.3830
 6504SOL    HW219971   2.699   0.955   6.051 -0.0092 -1.6982 -0.0708
 6505SOL     OW19972   1.907   0.616   4.530 -0.3010 -0.5425  0.3292
 6505SOL    HW119973   1.845   0.553   4.493 -0.5413  0.2345 -0.6434
 6505SOL    HW219974   1.855   0.664   4.595 -0.4662 -0.5202  0.1827
 6506SOL     OW19975   0.921   2.438   2.526  0.1679 -0.3137 -0.3717
 6506SOL    HW119976   0.850   2.377   2.548  0.2302  0.2925  1.8292
 6506SOL    HW219977   1.001   2.390   2.548  0.3235 -0.2168 -0.7288
 6507SOL     OW19978   6.009   5.378   3.332 -0.1071 -0.0911 -0.2643
 6507SOL    HW119979   6.061   5.369   3.412  0.3632 -0.0994 -0.5615
 6507SOL    HW219980   5.927   5.333   3.351 -0.7940  1.5207  0.8774
 6508SOL     OW19981   5.815   2.691   3.162  0.0913  0.0361 -0.4110
 6508SOL    HW119982   5.752   2.763   3.165  0.5866  0.4283  2.0255
 6508SOL    HW219983   5.769   2.623   3.113 -1.7813  0.7333  0.2575
 6509SOL     OW19984   0.828   0.662   3.163  0.2516 -0.0036 -0.6424
 6509SOL    HW119985   0.769   0.724   3.121  0.1589 -0.2233 -0.8346
 6509SOL    HW219986   0.780   0.580   3.166  0.4353 -0.1093 -0.5332
 6510SOL     OW19987   2.990   4.052   5.723 -0.1987  0.1269 -0.5202
 6510SOL    HW119988   3.068   4.105   5.716  0.5429 -0.9533 -0.6809
 6510SOL    HW219989   3.020   3.962   5.707 -1.3893 -0.3579 -0.1659
 6511SOL     OW19990   5.181   3.910   5.203  0.2675 -0.6298  0.5182
 6511SOL    HW119991   5.096   3.948   5.224  1.3154  1.3290  1.5581
 6511SOL    HW219992   5.227   3.980   5.155  0.7468 -2.2269 -1.4742
 6512SOL     OW19993   5.464   4.829   5.875  0.4734 -0.4785  0.0952
 6512SOL    HW119994   5.470   4.771   5.951 -2.6353  1.5071  2.0695
 6512SOL    HW219995   5.481   4.771   5.800  2.5157 -2.7679  2.1210
 6513SOL     OW19996   0.654   0.292   2.818 -0.6703  0.2377 -0.3089
 6513SOL    HW119997   0.732   0.344   2.835 -1.3376  1.0157  0.4993
 6513SOL    HW219998   0.672   0.207   2.858 -0.2559  0.4337 -0.0715
 6514SOL     OW19999   1.005   0.064   0.329 -0.4704 -0.2207 -0.0641
 6514SOL    HW120000   1.086   0.031   0.290 -1.8295 -0.8064 -2.6052
 6514SOL    HW220001   1.027   0.152   0.359  1.7460 -1.2748  1.7544
 6515SOL     OW20002   4.007   5.566   3.403  0.5450  0.0709 -0.2562
 6515SOL    HW120003   3.930   5.519   3.371  0.3027  1.8372 -2.5256
 6515SOL    HW220004   4.069   5.497   3.426 -0.9966 -1.3691 -0.2180
 6516SOL     OW20005   1.764   1.549   5.783  0.8063 -0.2680  0.5479
 6516SOL    HW120006   1.775   1.556   5.878  0.7424 -0.1479  0.5459
 6516SOL    HW220007   1.699   1.479   5.772  0.0814  0.3842  0.6271
 6517SOL     OW20008   5.288   5.727   0.555 -0.0012 -0.3694 -0.2798
 6517SOL    HW120009   5.301   5.742   0.649 -0.6440 -0.9605 -0.0906
 6517SOL    HW220010   5.234   5.649   0.550 -1.3880  0.5964 -1.0984
 6518SOL     OW20011   1.426   2.103   4.558  0.4078  0.0690 -1.0550
 6518SOL    HW120012   1.335   2.108   4.532 -0.0315 -0.8775  0.2244
 6518SOL    HW220013   1.456   2.195   4.559 -0.7654  0.4575 -0.6637
 6519SOL     OW20014   2.404   0.409   3.333 -0.0767  0.3081  0.2356
 6519SOL    HW120015   2.425   0.502   3.328  2.2207  0.5672  6.0873
 6519SOL    HW220016   2.489   0.367   3.351 -1.4772 -2.4147  1.0310
 6520SOL     OW20017   3.627   6.381   5.143  0.1347  0.2728 -0.3586
 6520SOL    HW120018   3.680   6.310   5.178  0.1811 -0.6466 -2.1454
 6520SOL    HW220019   3.539   6.344   5.135  0.0478  0.5726 -0.8420
 6521SOL     OW20020   5.218   2.197   4.558 -0.4249 -0.5436 -0.1057
 6521SOL    HW120021   5.221   2.249   4.638 -1.4938  1.3478 -1.2368
 6521SOL    HW220022   5.261   2.114   4.582  0.5023  0.4715  2.0168
 6522SOL     OW20023   2.368   4.875   2.626 -0.0622 -0.2516 -0.0030
 6522SOL    HW120024   2.460   4.848   2.626 -0.2424 -0.9136  0.5055
 6522SOL    HW220025   2.358   4.926   2.707 -0.2391 -0.5580  0.1720
 6523SOL     OW20026   2.744   2.158   1.555 -0.1159 -0.0618 -0.0577
 6523SOL    HW120027   2.725   2.166   1.461 -1.2137 -1.7020 -0.0108
 6523SOL    HW220028   2.752   2.064   1.570 -0.6513  0.1283  1.6207
 6524SOL     OW20029   3.496   0.323   4.905  0.0932  0.0650  0.2781
 6524SOL    HW120030   3.523   0.415   4.904 -0.1883  0.1484  0.4022
 6524SOL    HW220031   3.519   0.292   4.993 -1.2122  0.4349  0.7718
 6525SOL     OW20032   1.748   2.280   4.188  0.1843 -0.4214 -0.0290
 6525SOL    HW120033   1.839   2.299   4.165  0.4883 -1.9350 -0.1773
 6525SOL    HW220034   1.706   2.366   4.191  1.7932  0.3851  0.8313
 6526SOL     OW20035   2.961   6.217   1.401  0.2192  0.9661 -0.7374
 6526SOL    HW120036   3.027   6.155   1.433  1.2772  2.0650 -0.7150
 6526SOL    HW220037   2.933   6.264   1.480 -1.2874 -0.1020 -0.6000
 6527SOL     OW20038   4.388   5.935   1.724  0.2181  0.3277  0.3545
 6527SOL    HW120039   4.352   5.847   1.729  0.4675  0.1890 -0.2720
 6527SOL    HW220040   4.467   5.932   1.779  0.4226  0.0644  0.0479
 6528SOL     OW20041   3.064   2.448   5.110 -0.7164 -0.0943 -0.4868
 6528SOL    HW120042   3.136   2.401   5.069  0.2626 -1.4325  2.5001
 6528SOL    HW220043   2.987   2.394   5.094 -0.4776 -0.2803 -1.0302
 6529SOL     OW20044   5.443   2.411   0.393 -0.2538  0.2877  0.4139
 6529SOL    HW120045   5.447   2.499   0.430 -0.7118 -0.8340  3.3789
 6529SOL    HW220046   5.393   2.422   0.312  0.3468  2.8350  0.3041
 6530SOL     OW20047   6.376   2.700   1.823  0.5742  0.1552 -0.4147
 6530SOL    HW120048   6.404   2.747   1.744 -0.7676  0.1238 -0.9330
 6530SOL    HW220049   6.345   2.615   1.790 -1.1034  0.5750 -0.0360
 6531SOL     OW20050   5.990   6.152   0.426  0.3130  0.3340  0.0013
 6531SOL    HW120051   5.961   6.229   0.377  0.2936  1.0475  1.0951
 6531SOL    HW220052   5.926   6.143   0.497  0.4545 -0.5502  0.0317
 6532SOL     OW20053   5.477   1.942   0.054  0.2524  0.5221 -0.3369
 6532SOL    HW120054   5.415   1.873   0.032 -2.5419  1.2586  4.1485
 6532SOL    HW220055   5.425   2.022   0.058  1.8823  1.5819  1.5710
 6533SOL     OW20056   5.789   1.392   1.948  0.3021  0.4198  0.9184
 6533SOL    HW120057   5.752   1.473   1.982 -1.3084 -0.2948  0.9512
 6533SOL    HW220058   5.813   1.341   2.025  1.4941  0.9221  0.8966
 6534SOL     OW20059   4.387   3.779   6.034  0.2266 -0.0936 -0.6886
 6534SOL    HW120060   4.468   3.735   6.061  0.2993 -0.8296 -2.0074
 6534SOL    HW220061   4.410   3.872   6.034  0.8193 -0.2333 -0.2233
 6535SOL     OW20062   0.425   4.207   1.955 -0.0482  0.1134  0.4790
 6535SOL    HW120063   0.367   4.139   1.922 -0.3362  0.2265  0.7440
 6535SOL    HW220064   0.505   4.197   1.905  0.3680 -1.2304  1.3588
 6536SOL     OW20065   0.937   5.710   0.501  0.5051 -0.4042  1.0394
 6536SOL    HW120066   0.873   5.643   0.523  0.5156 -0.9554 -0.4847
 6536SOL    HW220067   0.892   5.793   0.516 -0.3262 -0.7761  0.6564
 6537SOL     OW20068   3.211   5.842   2.695 -0.4115  0.1205 -0.3347
 6537SOL    HW120069   3.136   5.833   2.754 -0.3867  0.8065 -0.1944
 6537SOL    HW220070   3.172   5.848   2.608 -0.4684 -0.4432 -0.3566
 6538SOL     OW20071   0.286   6.280   1.504 -0.2262  0.1373  0.2733
 6538SOL    HW120072   0.373   6.249   1.482 -0.6571 -0.4861 -0.5900
 6538SOL    HW220073   0.300   6.365   1.545  0.8251 -0.2468  0.7349
 6539SOL     OW20074   0.686   4.013   1.895 -0.6345 -0.1683 -0.2244
 6539SOL    HW120075   0.743   4.005   1.819  0.3646 -0.4006  0.5311
 6539SOL    HW220076   0.655   3.924   1.912  0.3900 -0.3942  0.5607
 6540SOL     OW20077   5.225   4.418   3.450  0.3137 -0.6814  0.0874
 6540SOL    HW120078   5.162   4.487   3.429 -0.3270 -1.1500  0.4408
 6540SOL    HW220079   5.172   4.339   3.460  0.9604 -1.0902  0.3647
 6541SOL     OW20080   2.463   3.734   2.541  0.0168 -0.1804  0.0783
 6541SOL    HW120081   2.464   3.714   2.634 -0.4691 -0.2033  0.0791
 6541SOL    HW220082   2.465   3.829   2.536  1.5951 -0.1795  0.0835
 6542SOL     OW20083   5.415   5.108   3.733 -0.1016 -0.4050  0.0323
 6542SOL    HW120084   5.439   5.170   3.802  0.1915 -0.3063 -0.1553
 6542SOL    HW220085   5.332   5.070   3.762  0.2067 -0.6473  0.6303
 6543SOL     OW20086   5.719   4.019   0.636  0.5678 -0.5453  0.1349
 6543SOL    HW120087   5.670   4.044   0.715  1.0955  0.3031  0.2039
 6543SOL    HW220088   5.651   3.998   0.572  0.0092  2.2817 -0.3348
 6544SOL     OW20089   0.880   3.938   3.690 -0.2441 -0.2577  0.3272
 6544SOL    HW120090   0.819   3.977   3.628  0.6163 -1.0200 -1.0570
 6544SOL    HW220091   0.841   3.954   3.776 -1.7276  0.3820 -0.4316
 6545SOL     OW20092   1.418   1.846   5.445  0.3058  0.2666  0.1245
 6545SOL    HW120093   1.420   1.861   5.350 -0.4091  3.0764  0.4748
 6545SOL    HW220094   1.344   1.786   5.458  0.4311 -0.1737 -1.0711
 6546SOL     OW20095   1.372   2.492   0.758  0.5973 -0.5467  0.3942
 6546SOL    HW120096   1.350   2.422   0.696  1.8018  0.0911 -0.8214
 6546SOL    HW220097   1.381   2.447   0.842 -0.7857 -1.4861  0.0762
 6547SOL     OW20098   1.959   4.259   5.503  0.3298  0.0713  0.0906
 6547SOL    HW120099   1.927   4.345   5.531 -0.8831 -0.5378  0.6534
 6547SOL    HW220100   2.051   4.274   5.481 -0.1061  1.7051 -0.7642
 6548SOL     OW20101   5.001   1.319   4.072 -0.1737  0.0493 -0.1236
 6548SOL    HW120102   4.976   1.270   4.150  0.7421 -0.4597 -0.1256
 6548SOL    HW220103   4.990   1.411   4.097  1.7953 -0.0219  1.2551
 6549SOL     OW20104   0.446   5.397   5.584  0.2821 -0.1902  0.2220
 6549SOL    HW120105   0.396   5.453   5.643  0.1395 -1.4440  1.3386
 6549SOL    HW220106   0.532   5.389   5.624  0.9898  0.8814 -1.0078
 6550SOL     OW20107   2.202   3.233   1.010 -0.4679  0.1155 -0.3425
 6550SOL    HW120108   2.186   3.326   0.997  0.6779  0.1450 -1.7767
 6550SOL    HW220109   2.145   3.190   0.946  1.1484 -0.0043 -1.7702
 6551SOL     OW20110   4.899   3.192   2.934 -0.1228 -0.6694  0.2339
 6551SOL    HW120111   4.814   3.236   2.946 -0.7692 -1.1225 -2.2028
 6551SOL    HW220112   4.879   3.099   2.943  0.2642 -0.7483  0.2977
 6552SOL     OW20113   0.593   2.273   2.903 -0.1835  0.9991  0.1978
 6552SOL    HW120114   0.530   2.239   2.966 -0.9063  1.1065 -0.4432
 6552SOL    HW220115   0.576   2.223   2.823  0.5892  0.9883  0.0339
 6553SOL     OW20116   5.284   4.505   0.808  0.9112  0.2023  0.1511
 6553SOL    HW120117   5.202   4.552   0.794 -0.0420 -0.9591  1.5051
 6553SOL    HW220118   5.348   4.574   0.828  0.2313  1.1101 -0.7149
 6554SOL     OW20119   4.601   3.034   3.519  0.3685  0.2265 -0.1378
 6554SOL    HW120120   4.569   2.972   3.453  2.0191 -0.7946 -0.0530
 6554SOL    HW220121   4.591   2.988   3.602 -1.6491  1.4910  0.3782
 6555SOL     OW20122   4.403   2.482   0.012  0.1086  0.0837 -0.2389
 6555SOL    HW120123   4.310   2.490  -0.009  0.1326  0.2793 -0.2745
 6555SOL    HW220124   4.404   2.445   0.100  0.0042 -0.4035 -0.4384
 6556SOL     OW20125   6.037   1.245   2.530 -0.2797  0.2843 -0.5275
 6556SOL    HW120126   6.042   1.276   2.439 -0.9542  2.0967  0.0176
 6556SOL    HW220127   6.125   1.259   2.565 -0.0800 -0.2040 -0.8153
 6557SOL     OW20128   4.055   4.059   1.418 -0.6442 -0.4480  0.2288
 6557SOL    HW120129   3.977   4.011   1.445 -0.7891 -1.7309 -2.1744
 6557SOL    HW220130   4.027   4.151   1.417 -1.8243 -0.7877  0.3443
 6558SOL     OW20131   3.694   4.838   6.359  0.1241 -0.2368 -0.3858
 6558SOL    HW120132   3.613   4.884   6.381  0.0652  1.0845 -3.0007
 6558SOL    HW220133   3.675   4.794   6.275  2.7831  2.3116 -2.5309
 6559SOL     OW20134   1.134   5.032   6.103  0.0840 -0.2914 -0.5522
 6559SOL    HW120135   1.170   5.031   6.014  1.8488 -0.1834  0.1141
 6559SOL    HW220136   1.168   4.953   6.143  0.5403  0.4003  0.4641
 6560SOL     OW20137   5.576   1.548   0.195 -0.6429 -0.4106  0.1916
 6560SOL    HW120138   5.622   1.589   0.122  2.5446 -1.7654  1.2474
 6560SOL    HW220139   5.616   1.462   0.203 -1.5368 -0.6677  2.9357
 6561SOL     OW20140   5.311   0.890   0.303  0.4801  0.3163 -0.1993
 6561SOL    HW120141   5.303   0.903   0.397  1.0991 -0.4395 -0.0368
 6561SOL    HW220142   5.381   0.826   0.293 -0.7765 -0.9926 -1.0925
 6562SOL     OW20143   4.318   4.224   1.416  0.3248  0.2976 -0.1419
 6562SOL    HW120144   4.232   4.245   1.380  0.2743  1.5542  0.6524
 6562SOL    HW220145   4.310   4.133   1.445 -1.1217  0.7266  0.9377
 6563SOL     OW20146   3.621   6.165   0.732 -0.2379 -0.1593  0.5319
 6563SOL    HW120147   3.530   6.147   0.708 -0.0000  0.0023 -0.5351
 6563SOL    HW220148   3.618   6.182   0.826 -1.3232 -0.0515  0.4892
 6564SOL     OW20149   3.505   2.113   5.596 -0.3470 -0.0865 -0.6795
 6564SOL    HW120150   3.448   2.172   5.547 -0.2245  1.7644  1.2415
 6564SOL    HW220151   3.469   2.026   5.580 -0.7458  0.4757 -3.3418
 6565SOL     OW20152   4.135   0.071   0.558  0.4356 -0.0829  0.2234
 6565SOL    HW120153   4.054   0.063   0.607 -0.9477  0.8854 -1.7655
 6565SOL    HW220154   4.201   0.096   0.623 -1.3567  1.4651  1.5494
 6566SOL     OW20155   1.853   1.080   5.647 -0.0477  0.0555  0.1491
 6566SOL    HW120156   1.769   1.121   5.629  0.4015  0.9573  0.0322
 6566SOL    HW220157   1.918   1.144   5.617  0.7155  0.5441  2.6408
 6567SOL     OW20158   1.795   1.051   0.300 -1.1887  0.0393 -0.2411
 6567SOL    HW120159   1.778   0.957   0.294  2.2305 -0.7635  0.4795
 6567SOL    HW220160   1.815   1.066   0.393  1.5378  0.6980 -0.8212
 6568SOL     OW20161   1.891   2.589   3.277  0.5543  0.5936  0.0541
 6568SOL    HW120162   1.849   2.514   3.234 -0.6364  0.3945  1.4691
 6568SOL    HW220163   1.985   2.575   3.263  0.2716  0.0540 -1.6215
 6569SOL     OW20164   3.783   5.119   1.258 -0.5253 -0.0327 -0.6028
 6569SOL    HW120165   3.830   5.057   1.314  0.1799 -0.0738 -1.2283
 6569SOL    HW220166   3.695   5.080   1.249 -1.0435  0.5473  1.3724
 6570SOL     OW20167   5.683   3.027   4.427 -0.2444 -0.1195  0.2145
 6570SOL    HW120168   5.730   2.945   4.442 -2.4413 -1.3081  1.1144
 6570SOL    HW220169   5.681   3.037   4.332  1.2899 -0.2990  0.1396
 6571SOL     OW20170   0.778   0.050   1.010 -0.1774 -0.3636  0.3213
 6571SOL    HW120171   0.758  -0.017   0.944 -0.3488  2.2561 -2.5274
 6571SOL    HW220172   0.874   0.058   1.007 -0.2065 -0.0553  0.1855
 6572SOL     OW20173   1.665   4.774   5.798 -0.3349  0.1758  0.3389
 6572SOL    HW120174   1.704   4.789   5.712  0.6587  0.0901  0.7621
 6572SOL    HW220175   1.726   4.715   5.842 -0.7087  0.4083  1.1943
 6573SOL     OW20176   5.599   3.426   5.900 -0.6697 -0.0755 -0.4388
 6573SOL    HW120177   5.662   3.469   5.842 -0.4496  0.5983  0.2793
 6573SOL    HW220178   5.536   3.385   5.841 -1.3211  1.8528 -1.1609
 6574SOL     OW20179   6.330   5.510   0.936  0.4242  0.5749  0.0184
 6574SOL    HW120180   6.239   5.485   0.953  0.2263  1.5067  0.3848
 6574SOL    HW220181   6.330   5.541   0.846  0.8111 -1.2931 -0.6846
 6575SOL     OW20182   0.359   2.264   6.030 -0.4084  0.4915 -1.1974
 6575SOL    HW120183   0.364   2.181   6.077 -0.8718  0.3975 -1.3148
 6575SOL    HW220184   0.450   2.296   6.029 -0.1947 -0.1065 -1.3328
 6576SOL     OW20185   4.440   1.233   4.644 -0.2682  0.0361 -0.3015
 6576SOL    HW120186   4.396   1.299   4.699  1.1821  0.2225  0.6879
 6576SOL    HW220187   4.396   1.151   4.667 -1.8373  0.5644 -1.2652
 6577SOL     OW20188   4.035   3.777   0.669 -0.2609 -0.0444 -0.5770
 6577SOL    HW120189   3.969   3.737   0.726 -1.8427 -0.6998 -2.7356
 6577SOL    HW220190   4.029   3.871   0.687 -0.5266 -0.2451  0.4784
 6578SOL     OW20191   4.693   2.609   5.268  0.4109 -0.0481  0.0055
 6578SOL    HW120192   4.616   2.659   5.295 -0.5284 -1.1250 -0.6037
 6578SOL    HW220193   4.666   2.518   5.276  1.5818 -0.4366 -0.3721
 6579SOL     OW20194   2.383   3.509   3.170  0.2450  0.1504 -0.4799
 6579SOL    HW120195   2.440   3.446   3.127  0.4244 -0.3663  0.4812
 6579SOL    HW220196   2.320   3.535   3.103  2.1376  1.4497 -1.8787
 6580SOL     OW20197   3.330   5.487   0.279  0.2485  0.7061  0.0591
 6580SOL    HW120198   3.317   5.478   0.185  2.6157 -1.6630 -0.1489
 6580SOL    HW220199   3.417   5.451   0.295 -0.4521  0.1431  3.2812
 6581SOL     OW20200   2.423   2.301   2.323  0.4423 -0.1290 -0.0729
 6581SOL    HW120201   2.350   2.252   2.286  0.9826 -0.0903 -1.2408
 6581SOL    HW220202   2.459   2.243   2.391  0.8630 -1.2359 -1.2044
 6582SOL     OW20203   1.095   5.683   4.331  0.0131 -0.5538  0.0379
 6582SOL    HW120204   1.066   5.623   4.400 -0.0769  1.0668  1.4528
 6582SOL    HW220205   1.187   5.659   4.316  0.3719 -0.2052  1.5300
 6583SOL     OW20206   3.823   1.901   1.658 -0.0610 -0.0772  0.5078
 6583SOL    HW120207   3.737   1.887   1.698 -0.2597  0.7587  0.4021
 6583SOL    HW220208   3.816   1.987   1.616  0.9715  0.1930  0.8631
 6584SOL     OW20209   4.402   2.464   2.887  0.4459  0.0576 -0.1173
 6584SOL    HW120210   4.316   2.428   2.867  0.8367 -0.0632 -1.6574
 6584SOL    HW220211   4.389   2.559   2.885  0.2977  0.0397 -0.0504
 6585SOL     OW20212   5.793   6.295   6.193  0.8843 -0.2004  0.0416
 6585SOL    HW120213   5.751   6.347   6.125  0.7590 -2.0123 -1.3595
 6585SOL    HW220214   5.882   6.330   6.198  0.1689  1.6590  0.8709
 6586SOL     OW20215   5.452   4.131   5.601  0.3063  0.4212  0.3033
 6586SOL    HW120216   5.448   4.207   5.660 -2.5315  0.1269  0.6466
 6586SOL    HW220217   5.406   4.161   5.522  1.9641  0.0285 -0.8552
 6587SOL     OW20218   0.745   3.940   5.754 -0.0080 -0.2418  0.0862
 6587SOL    HW120219   0.831   3.899   5.750 -0.1065 -0.4167 -0.2893
 6587SOL    HW220220   0.732   3.977   5.667  0.4256  1.3144  0.6413
 6588SOL     OW20221   3.863   3.747   0.880 -0.1516 -0.0586  0.7593
 6588SOL    HW120222   3.771   3.746   0.908  0.0220 -1.7872  1.3815
 6588SOL    HW220223   3.904   3.815   0.934 -0.1684 -2.2187  3.6930
 6589SOL     OW20224   0.862   3.376   0.053  0.2388 -0.4044  0.0295
 6589SOL    HW120225   0.805   3.303   0.075  0.1884 -1.1967 -2.4265
 6589SOL    HW220226   0.837   3.445   0.114 -4.3628 -0.2380 -1.6304
 6590SOL     OW20227   1.860   0.342   4.718 -0.5930 -0.0991 -0.4122
 6590SOL    HW120228   1.933   0.363   4.775 -0.3379  0.1370 -0.8202
 6590SOL    HW220229   1.875   0.394   4.639 -0.7110 -0.7351 -0.8670
 6591SOL     OW20230   3.497   5.485   2.704 -0.2506 -0.1336 -0.8547
 6591SOL    HW120231   3.426   5.478   2.639 -0.1646  1.0872 -1.1112
 6591SOL    HW220232   3.523   5.577   2.699 -0.2294 -0.0255  0.9102
 6592SOL     OW20233   0.094   5.884   2.558  0.0134  0.5033 -0.5176
 6592SOL    HW120234   0.075   5.791   2.545 -1.3391  0.4785  1.1605
 6592SOL    HW220235   0.017   5.929   2.523 -0.6320  0.7761  1.1403
 6593SOL     OW20236   0.816   4.177   4.965 -0.1799  0.2885 -0.5133
 6593SOL    HW120237   0.731   4.136   4.953  0.1419 -0.7243  0.5036
 6593SOL    HW220238   0.859   4.170   4.880 -1.1802  1.0380 -1.1052
 6594SOL     OW20239   3.470   4.640   5.444  0.2105 -0.2956  0.1697
 6594SOL    HW120240   3.447   4.682   5.360 -0.5449 -1.9843 -0.5144
 6594SOL    HW220241   3.548   4.588   5.424  0.5624  0.0054  0.7553
 6595SOL     OW20242   2.559   4.526   0.086  0.4842  0.2670  0.0312
 6595SOL    HW120243   2.493   4.569   0.031  0.8611 -0.1638 -0.7786
 6595SOL    HW220244   2.541   4.558   0.174 -0.5806  0.4350 -0.2318
 6596SOL     OW20245   2.613   3.596   6.380  0.2958  0.8521 -0.3916
 6596SOL    HW120246   2.571   3.642   6.453  0.5003 -0.5449  0.6485
 6596SOL    HW220247   2.704   3.587   6.407  0.0207 -1.1631 -0.0224
 6597SOL     OW20248   0.163   5.870   4.802  0.1072 -0.2820  0.1748
 6597SOL    HW120249   0.107   5.936   4.845  0.8368  0.7863 -0.4599
 6597SOL    HW220250   0.252   5.899   4.822  0.4916  0.5130 -2.3870
 6598SOL     OW20251   6.307   0.111   0.581  0.0929  0.5198 -0.1145
 6598SOL    HW120252   6.337   0.027   0.547  2.0195  1.1533 -0.0587
 6598SOL    HW220253   6.231   0.132   0.526 -0.0864 -0.9653 -0.5008
 6599SOL     OW20254   2.536   5.271   3.504  0.0136 -0.5430 -0.0163
 6599SOL    HW120255   2.478   5.344   3.522  2.6344  1.5500  0.5622
 6599SOL    HW220256   2.618   5.311   3.476  0.9392 -3.3500 -1.8007
 6600SOL     OW20257   5.936   5.465   1.241  0.1131 -0.1080  0.6712
 6600SOL    HW120258   5.935   5.544   1.294 -0.9672  0.1848  0.2400
 6600SOL    HW220259   5.862   5.476   1.180  2.8586  0.9002 -2.8136
 6601SOL     OW20260   3.489   0.508   5.210  0.4471 -0.1804 -0.4351
 6601SOL    HW120261   3.454   0.551   5.132 -0.3834 -0.6750 -0.3438
 6601SOL    HW220262   3.521   0.423   5.178  0.4190 -0.2417 -0.2998
 6602SOL     OW20263   0.691   6.112   5.102 -0.0517 -0.1893  0.0716
 6602SOL    HW120264   0.608   6.087   5.143 -0.4026  0.8550  0.0507
 6602SOL    HW220265   0.666   6.143   5.015  0.1086  1.7023  0.6446
 6603SOL     OW20266   4.918   0.006   0.353  0.0253 -0.1173 -0.2573
 6603SOL    HW120267   4.848  -0.020   0.413  0.1150  0.3514  0.0543
 6603SOL    HW220268   4.966   0.074   0.401  0.6277 -0.3633 -0.5101
 6604SOL     OW20269   5.776   5.310   0.555 -0.1006 -0.0242 -0.0697
 6604SOL    HW120270   5.736   5.395   0.575  0.5085 -0.0728  1.5532
 6604SOL    HW220271   5.754   5.256   0.631 -0.3675 -1.2879 -1.0263
 6605SOL     OW20272   0.793   4.811   5.326  0.0466  0.2644  0.2349
 6605SOL    HW120273   0.862   4.856   5.277  0.4239 -0.4361  0.1228
 6605SOL    HW220274   0.837   4.773   5.401 -0.3794  0.5759  0.6452
 6606SOL     OW20275   2.478   6.159   0.837  0.3340  0.2639  0.4185
 6606SOL    HW120276   2.562   6.124   0.868 -0.0533 -0.4720  0.6565
 6606SOL    HW220277   2.428   6.082   0.813  0.3814  0.7793 -1.4686
 6607SOL     OW20278   2.584   1.039   4.208  0.0863  0.2836 -0.2389
 6607SOL    HW120279   2.579   1.013   4.116  2.7151 -0.4920 -0.2509
 6607SOL    HW220280   2.678   1.037   4.228 -0.4352 -0.0169  2.5871
 6608SOL     OW20281   2.738   1.438   6.072  0.3536 -0.0272 -0.2769
 6608SOL    HW120282   2.692   1.381   6.010  0.0137  0.0867 -0.1343
 6608SOL    HW220283   2.757   1.381   6.146  3.4874 -1.0071 -1.6717
 6609SOL     OW20284   1.322   2.269   3.828 -0.2167 -0.4347 -0.2652
 6609SOL    HW120285   1.341   2.179   3.803  0.3859 -0.4574  0.2449
 6609SOL    HW220286   1.313   2.316   3.745  0.2373 -0.8062 -0.5309
 6610SOL     OW20287   5.175   4.384   4.928  0.0589 -0.1745  0.2939
 6610SOL    HW120288   5.162   4.476   4.953 -0.6335 -0.5211  1.2231
 6610SOL    HW220289   5.096   4.339   4.956 -0.5202 -0.7233 -1.9703
 6611SOL     OW20290   5.763   0.934   0.082 -0.0728 -0.0058 -0.0171
 6611SOL    HW120291   5.672   0.959   0.064 -0.2332  0.3632  1.2351
 6611SOL    HW220292   5.758   0.883   0.163  0.8934  0.4425  0.3303
 6612SOL     OW20293   4.504   3.996   1.720  0.7702 -1.0578  0.2356
 6612SOL    HW120294   4.429   4.035   1.764 -0.2502 -2.1694 -0.4739
 6612SOL    HW220295   4.544   3.938   1.785  1.7290  0.3757  0.9814
 6613SOL     OW20296   6.331   5.321   0.210 -0.4084  0.3497  0.1447
 6613SOL    HW120297   6.407   5.313   0.153  1.0250 -1.2351  2.1274
 6613SOL    HW220298   6.364   5.362   0.290 -1.0813 -2.1019  1.8157
 6614SOL     OW20299   4.594   4.547   6.291  0.1610  0.2333 -0.4918
 6614SOL    HW120300   4.551   4.462   6.290  3.4104 -1.5624 -0.5872
 6614SOL    HW220301   4.549   4.598   6.224 -1.8488 -1.3867 -0.4636
 6615SOL     OW20302   1.983   2.763   4.621 -0.0816 -0.6821  0.1362
 6615SOL    HW120303   2.005   2.822   4.548  0.4525  1.4421  1.8928
 6615SOL    HW220304   1.939   2.689   4.580 -1.1478  1.1157 -2.2161
 6616SOL     OW20305   4.442   1.711   3.270 -0.2822 -0.0949 -0.2499
 6616SOL    HW120306   4.508   1.674   3.211 -0.3484 -0.6632  0.0317
 6616SOL    HW220307   4.383   1.759   3.212 -1.1110 -1.7381 -0.8492
 6617SOL     OW20308   4.666   0.982   4.228 -0.8121  0.1279 -0.5321
 6617SOL    HW120309   4.734   0.922   4.259 -1.2275 -0.6105 -1.0151
 6617SOL    HW220310   4.649   1.039   4.303 -0.6815 -0.6106  0.0775
 6618SOL     OW20311   6.207   0.754   1.017 -0.5783 -0.1347  0.1780
 6618SOL    HW120312   6.252   0.773   1.099 -1.8876 -0.0540  0.9085
 6618SOL    HW220313   6.133   0.815   1.015 -1.2089 -0.8937 -0.5136
 6619SOL     OW20314   3.530   2.869   3.100 -0.1982 -0.5742  0.2092
 6619SOL    HW120315   3.452   2.822   3.070 -0.4454  0.3043 -0.5690
 6619SOL    HW220316   3.603   2.815   3.068 -0.4785 -0.3898 -0.7983
 6620SOL     OW20317   0.005   2.436   0.472 -0.5722  0.0445  0.0809
 6620SOL    HW120318   0.043   2.467   0.390  0.0957  1.0900  0.7644
 6620SOL    HW220319   0.080   2.414   0.527 -0.9589  1.0692  1.0496
 6621SOL     OW20320   2.144   0.738   2.542  0.2221  0.5911 -0.0898
 6621SOL    HW120321   2.106   0.682   2.609  0.5994 -0.1334 -0.4704
 6621SOL    HW220322   2.205   0.794   2.589 -1.6449  2.1428  0.6148
 6622SOL     OW20323   6.170   2.399   5.924  0.0316  0.4361 -0.2436
 6622SOL    HW120324   6.176   2.307   5.897 -0.4493  1.0455 -2.6814
 6622SOL    HW220325   6.076   2.418   5.926  0.1073  0.7802  0.6876
 6623SOL     OW20326   0.257   6.358   6.237  0.4024 -0.0813 -0.1915
 6623SOL    HW120327   0.346   6.343   6.271  0.7425 -0.4824 -1.2201
 6623SOL    HW220328   0.233   6.444   6.271  1.3804  0.2383 -0.2612
 6624SOL     OW20329   1.451   1.153   5.067  0.3866  0.2482  0.1154
 6624SOL    HW120330   1.396   1.229   5.087 -0.5188 -0.9265  2.4761
 6624SOL    HW220331   1.540   1.182   5.083  0.0851  0.9614  0.5206
 6625SOL     OW20332   0.406   0.780   1.372 -0.5363 -0.2228 -0.2257
 6625SOL    HW120333   0.315   0.749   1.370 -0.3660 -0.8273  0.7471
 6625SOL    HW220334   0.421   0.815   1.285 -1.7976  0.1469 -0.3148
 6626SOL     OW20335   4.897   0.523   2.744  0.4091 -0.1058  0.6315
 6626SOL    HW120336   4.908   0.428   2.755  0.7425 -0.5204 -2.3040
 6626SOL    HW220337   4.986   0.556   2.733  0.3155  0.6337  1.9133
 6627SOL     OW20338   4.767   3.249   1.296  0.2186 -0.0142  0.0233
 6627SOL    HW120339   4.743   3.162   1.328 -0.6848  0.3021  0.2296
 6627SOL    HW220340   4.778   3.238   1.202 -2.6997  0.1955 -0.4349
 6628SOL     OW20341   1.016   2.217   5.567  0.0508 -1.0843 -0.0320
 6628SOL    HW120342   1.084   2.250   5.509  1.4815  0.0412  2.1207
 6628SOL    HW220343   1.063   2.186   5.644 -1.7961 -1.5157  1.0010
 6629SOL     OW20344   1.458   1.451   5.960 -0.7704 -0.0460 -0.0660
 6629SOL    HW120345   1.413   1.505   6.025  0.1100 -1.2969  1.6786
 6629SOL    HW220346   1.444   1.361   5.989  0.8163 -0.5809 -0.8044
 6630SOL     OW20347   4.233   5.175   3.806  0.6781  0.2080 -0.0630
 6630SOL    HW120348   4.236   5.124   3.887 -1.0425  2.1102  1.2919
 6630SOL    HW220349   4.251   5.111   3.737  1.9002 -1.5452  1.7535
 6631SOL     OW20350   0.851   2.313   5.922 -0.5134  0.5999  0.4117
 6631SOL    HW120351   0.889   2.399   5.903 -0.6863  0.5963  0.0329
 6631SOL    HW220352   0.926   2.257   5.943 -0.4456  0.9769  1.2030
 6632SOL     OW20353   4.416   1.368   5.056  0.0284  0.8012  0.4787
 6632SOL    HW120354   4.381   1.449   5.021  2.0548  0.9304 -1.4923
 6632SOL    HW220355   4.506   1.364   5.022  0.4374 -1.6143  1.6153
 6633SOL     OW20356   1.405   3.101   0.561  0.0929 -0.2144 -0.3624
 6633SOL    HW120357   1.363   3.092   0.646 -0.5491  1.0854 -0.5228
 6633SOL    HW220358   1.495   3.126   0.581 -0.6255  2.4158 -0.0275
 6634SOL     OW20359   4.040   2.480   1.539 -0.6199  0.0131 -0.3629
 6634SOL    HW120360   4.114   2.523   1.497  0.1464 -1.3694 -0.4920
 6634SOL    HW220361   3.973   2.477   1.471 -0.1378 -0.3332 -0.8323
 6635SOL     OW20362   1.579   4.179   1.544  0.2402 -0.2346  0.6262
 6635SOL    HW120363   1.534   4.190   1.627  0.0109 -0.5671  0.5500
 6635SOL    HW220364   1.509   4.155   1.482  0.4779 -0.4764  0.4474
 6636SOL     OW20365   1.128   2.282   2.619  0.1084 -0.3219 -0.2684
 6636SOL    HW120366   1.152   2.197   2.583 -0.5881  0.1414 -1.9327
 6636SOL    HW220367   1.136   2.272   2.714  2.1703 -1.5598 -0.5361
 6637SOL     OW20368   1.902   1.046   1.048  0.2454  0.0377  0.0458
 6637SOL    HW120369   1.975   1.105   1.069  1.0107 -1.0905  0.6448
 6637SOL    HW220370   1.898   0.986   1.122 -1.9540  0.6657  0.5124
 6638SOL     OW20371   4.197   6.276   4.428  0.4340 -0.5120 -0.6600
 6638SOL    HW120372   4.152   6.327   4.361 -2.0852 -0.2835  1.0807
 6638SOL    HW220373   4.290   6.280   4.403 -0.2879  0.2417 -3.6083
 6639SOL     OW20374   5.029   0.994   2.034 -0.3439  0.4789  0.5374
 6639SOL    HW120375   5.086   0.934   2.082  0.2660  0.4332 -0.2435
 6639SOL    HW220376   5.088   1.046   1.979 -1.0089  0.7315  0.0501
 6640SOL     OW20377   0.319   2.420   2.431 -0.5892  0.1728 -0.4165
 6640SOL    HW120378   0.353   2.387   2.347  1.0959  0.9810 -0.1021
 6640SOL    HW220379   0.358   2.507   2.439 -1.6282  0.5520  0.7007
 6641SOL     OW20380   4.255   1.940   3.526 -0.2495  0.2002 -0.0469
 6641SOL    HW120381   4.170   1.938   3.569 -0.4848  1.2086 -0.4693
 6641SOL    HW220382   4.291   1.852   3.541 -0.3777  0.4598  2.1063
 6642SOL     OW20383   0.697   5.147   1.426 -0.5143  0.5249  0.2363
 6642SOL    HW120384   0.764   5.209   1.399  1.6761 -1.1377  1.5624
 6642SOL    HW220385   0.618   5.177   1.381  0.9361  2.9052 -0.9418
 6643SOL     OW20386   0.454   3.057   3.789 -0.5694  0.1026 -0.2136
 6643SOL    HW120387   0.376   3.011   3.756 -0.9339  0.2295  0.4563
 6643SOL    HW220388   0.425   3.099   3.870 -0.0764  1.0231 -0.5000
 6644SOL     OW20389   0.089   4.514   0.196 -0.1865  0.0943  0.0184
 6644SOL    HW120390   0.122   4.544   0.281  1.1033  1.6881 -0.9900
 6644SOL    HW220391   0.006   4.559   0.185 -1.7126 -2.1471  1.5361
 6645SOL     OW20392   1.615   1.197   5.586  0.2112 -0.1309  0.1737
 6645SOL    HW120393   1.563   1.127   5.548 -1.3593  0.2667  1.4824
 6645SOL    HW220394   1.551   1.263   5.614  1.3584  0.2950  2.0400
 6646SOL     OW20395   5.380   3.666   4.429  0.0939 -0.0393 -0.0502
 6646SOL    HW120396   5.368   3.699   4.518  0.3241  0.5684 -0.2339
 6646SOL    HW220397   5.356   3.574   4.434  3.1265 -0.8770  1.3664
 6647SOL     OW20398   2.151   5.113   0.638 -0.8982  0.4973  0.0059
 6647SOL    HW120399   2.188   5.047   0.579 -1.8371 -0.7935  0.7846
 6647SOL    HW220400   2.113   5.179   0.580  1.2424  1.1157 -0.8041
 6648SOL     OW20401   1.138   5.608   5.013  0.9641  0.1022 -0.0696
 6648SOL    HW120402   1.195   5.680   5.041  0.0034  0.5182  0.8848
 6648SOL    HW220403   1.184   5.529   5.038  1.6417  0.4005 -0.3492
 6649SOL     OW20404   3.012   5.956   2.048 -0.6793 -0.1790 -0.9728
 6649SOL    HW120405   3.009   6.051   2.048  2.7004  0.0697  0.3388
 6649SOL    HW220406   2.940   5.930   2.106 -0.8670  1.6142 -0.3350
 6650SOL     OW20407   0.395   3.095   2.815 -0.4247  0.0085  0.2510
 6650SOL    HW120408   0.317   3.150   2.804 -1.2286 -0.6599  2.1806
 6650SOL    HW220409   0.468   3.157   2.811 -0.9569  0.5819 -2.0911
 6651SOL     OW20410   4.559   3.442   6.023 -0.2145 -0.1169  0.0517
 6651SOL    HW120411   4.566   3.532   6.056  0.4082 -0.4959  0.9896
 6651SOL    HW220412   4.510   3.396   6.090  0.5745 -0.7662  0.2013
 6652SOL     OW20413   3.564   1.027   1.188 -0.0530  0.0594  0.3596
 6652SOL    HW120414   3.575   0.979   1.270 -2.2988  2.5839  2.3244
 6652SOL    HW220415   3.488   1.083   1.203 -0.1024  1.2022 -3.2248
 6653SOL     OW20416   5.475   4.740   3.401  0.0949  0.4897 -0.0047
 6653SOL    HW120417   5.569   4.735   3.421 -0.0817  0.7774  0.9320
 6653SOL    HW220418   5.472   4.742   3.306  1.0898  1.2385 -0.0442
 6654SOL     OW20419   2.865   4.317   4.801 -0.2085 -0.1995 -0.2271
 6654SOL    HW120420   2.830   4.234   4.831 -0.1384  0.3234  1.4065
 6654SOL    HW220421   2.821   4.383   4.855  1.1557  0.6708 -0.1133
 6655SOL     OW20422   6.066   1.953   2.944 -0.1893 -0.5979 -0.3594
 6655SOL    HW120423   6.114   1.994   3.016  0.1655  0.3151 -1.0918
 6655SOL    HW220424   6.129   1.893   2.904  0.3002  0.4427 -1.1884
 6656SOL     OW20425   3.138   0.921   1.574  1.1029 -0.2406  0.2951
 6656SOL    HW120426   3.142   0.887   1.485  0.4100 -1.7048  0.7914
 6656SOL    HW220427   3.063   0.876   1.613  1.7014 -0.0099  1.7682
 6657SOL     OW20428   1.781   1.929   4.467  0.3578  0.3702 -0.0441
 6657SOL    HW120429   1.787   1.839   4.499  0.3185  0.7388  1.0340
 6657SOL    HW220430   1.696   1.933   4.424 -0.1950  0.2140  0.9894
 6658SOL     OW20431   6.314   3.036   3.123  0.2623 -0.4700 -0.0450
 6658SOL    HW120432   6.363   2.988   3.190  2.1511  2.3822  0.8052
 6658SOL    HW220433   6.380   3.057   3.056 -0.9220 -0.5918 -1.2867
 6659SOL     OW20434   0.673   4.648   2.611  0.3047  0.2495  0.2109
 6659SOL    HW120435   0.738   4.609   2.670  2.3550  0.3309 -1.8685
 6659SOL    HW220436   0.621   4.573   2.581  0.1573  0.0147  1.0226
 6660SOL     OW20437   2.187   5.357   5.401  0.0836  0.5677  0.0667
 6660SOL    HW120438   2.201   5.391   5.313  1.0850 -1.2309 -0.5038
 6660SOL    HW220439   2.253   5.402   5.455 -1.2565  2.5166  0.1963
 6661SOL     OW20440   5.067   1.907   0.148 -0.2897  1.2405 -0.1696
 6661SOL    HW120441   5.010   1.833   0.125 -0.5886  1.6485 -0.7478
 6661SOL    HW220442   5.079   1.955   0.066  1.9348  0.4665 -0.3719
 6662SOL     OW20443   4.431   2.834   0.574 -0.2375  0.4780  0.5796
 6662SOL    HW120444   4.511   2.859   0.528  0.1902 -0.0570  1.0195
 6662SOL    HW220445   4.461   2.793   0.655 -0.8224 -2.6772 -0.6458
 6663SOL     OW20446   2.353   4.709   4.248  0.6119 -0.1446  0.4513
 6663SOL    HW120447   2.385   4.702   4.158 -0.2781 -0.4371  0.1563
 6663SOL    HW220448   2.267   4.667   4.247  0.5883 -0.1455  1.4377
 6664SOL     OW20449   2.366   0.539   3.727  0.5776 -0.1847  0.1549
 6664SOL    HW120450   2.353   0.631   3.703  1.4954  0.5291  2.1741
 6664SOL    HW220451   2.288   0.518   3.779  1.0835 -0.0460  0.9868
 6665SOL     OW20452   4.215   4.943   2.688  0.6965  0.2938  0.0236
 6665SOL    HW120453   4.283   4.995   2.645 -0.9934  0.0077 -3.2975
 6665SOL    HW220454   4.227   4.854   2.654  0.0948 -0.2677  1.2175
 6666SOL     OW20455   2.962   0.058   5.471  0.1630  0.3722  0.1080
 6666SOL    HW120456   3.044   0.047   5.519  0.2374 -0.1175 -0.1288
 6666SOL    HW220457   2.962   0.151   5.445  0.9948  0.2020 -0.5229
 6667SOL     OW20458   0.251   2.424   0.618 -0.2584  0.0568  0.3322
 6667SOL    HW120459   0.245   2.420   0.714  0.9709 -1.8959  0.3774
 6667SOL    HW220460   0.336   2.465   0.601 -0.3183  0.0698  0.0648
 6668SOL     OW20461   2.789   5.029   6.349  0.4993 -0.1215 -0.5560
 6668SOL    HW120462   2.718   5.037   6.414  0.6306  3.1503 -0.6810
 6668SOL    HW220463   2.748   5.053   6.266  1.2265 -0.5378 -1.0430
 6669SOL     OW20464   2.088   0.621   2.289 -0.3107 -0.4197  0.4788
 6669SOL    HW120465   2.121   0.660   2.370 -1.1975 -0.3076  0.7957
 6669SOL    HW220466   2.165   0.617   2.232 -0.1016  1.4897  0.5528
 6670SOL     OW20467   1.836   4.497   5.490 -0.4648  0.2527  0.5492
 6670SOL    HW120468   1.771   4.507   5.421 -2.6309 -1.6220  2.1768
 6670SOL    HW220469   1.786   4.499   5.571  0.9908 -4.0650  1.7900
 6671SOL     OW20470   4.696   1.367   1.900 -0.1098 -0.0789 -0.3052
 6671SOL    HW120471   4.649   1.320   1.831 -0.9661 -2.2005  1.5845
 6671SOL    HW220472   4.627   1.407   1.953  0.4125  0.1092  0.2532
 6672SOL     OW20473   3.410   2.651   5.337 -0.4585  0.2059  0.0983
 6672SOL    HW120474   3.334   2.599   5.364 -1.0706  0.2026 -1.5134
 6672SOL    HW220475   3.378   2.741   5.338 -0.8319  0.1173 -1.5828
 6673SOL     OW20476   2.658   5.761   5.997 -0.1675  0.0935 -0.5152
 6673SOL    HW120477   2.712   5.707   5.939 -0.5665 -1.0593  0.1684
 6673SOL    HW220478   2.586   5.791   5.942 -0.6185 -1.1096 -0.6105
 6674SOL     OW20479   1.975   0.596   1.311 -0.4264  0.2157 -0.2842
 6674SOL    HW120480   2.053   0.643   1.281  0.2192 -0.7125 -0.1094
 6674SOL    HW220481   1.989   0.506   1.282 -0.6118 -0.3369  1.2433
 6675SOL     OW20482   4.603   6.220   2.930  0.1532 -0.1521  0.1706
 6675SOL    HW120483   4.591   6.315   2.939 -0.5621 -0.0132 -1.6791
 6675SOL    HW220484   4.532   6.193   2.872 -0.4640 -2.0850  1.7428
 6676SOL     OW20485   3.862   2.805   4.033  0.2343 -0.8128 -0.4222
 6676SOL    HW120486   3.818   2.818   3.950  1.8318  3.5302 -0.8289
 6676SOL    HW220487   3.810   2.853   4.097  1.7689  0.3925 -0.0084
 6677SOL     OW20488   0.077   5.354   4.088 -0.2224  0.0920 -0.1851
 6677SOL    HW120489   0.130   5.343   4.167  0.5123 -0.8940 -0.7929
 6677SOL    HW220490   0.141   5.374   4.019 -0.8574  0.9713 -0.5369
 6678SOL     OW20491   5.668   3.992   5.649  0.3703  0.5263 -0.2244
 6678SOL    HW120492   5.677   3.974   5.556 -0.4797  0.5432 -0.3226
 6678SOL    HW220493   5.587   4.043   5.656  1.3362  2.0435  0.3344
 6679SOL     OW20494   2.761   1.149   2.574  0.2689  0.0072 -0.0182
 6679SOL    HW120495   2.777   1.055   2.574  1.1234  0.0896  2.2574
 6679SOL    HW220496   2.680   1.159   2.624  0.2588  0.4898 -0.1296
 6680SOL     OW20497   5.783   0.339   2.263 -0.7139 -0.0933 -0.4718
 6680SOL    HW120498   5.728   0.417   2.271 -1.1580 -0.3457 -0.9297
 6680SOL    HW220499   5.759   0.285   2.338  0.0620  0.4869  0.2000
 6681SOL     OW20500   4.530   2.590   3.343 -0.1822 -0.0887  0.1844
 6681SOL    HW120501   4.592   2.519   3.359 -0.3355 -0.1899  0.3350
 6681SOL    HW220502   4.450   2.546   3.313 -0.5422 -0.0491  1.0405
 6682SOL     OW20503   4.860   4.177   0.366  0.4975  0.0704  0.0705
 6682SOL    HW120504   4.854   4.186   0.271  0.0370 -0.9087 -0.0013
 6682SOL    HW220505   4.787   4.120   0.390  1.8645 -1.4744  0.7454
 6683SOL     OW20506   4.342   1.156   2.946  0.1003  1.0267  0.2838
 6683SOL    HW120507   4.418   1.109   2.911 -0.2931  1.1286 -0.7417
 6683SOL    HW220508   4.371   1.247   2.952 -0.5868  1.4956 -2.2415
 6684SOL     OW20509   1.144   4.369   5.106 -0.2055 -0.1998  0.2726
 6684SOL    HW120510   1.161   4.336   5.194  0.5950  0.5595  0.4199
 6684SOL    HW220511   1.196   4.450   5.100 -2.0497  1.0377 -0.0670
 6685SOL     OW20512   5.646   2.471   5.369  0.2590 -0.4981  0.2622
 6685SOL    HW120513   5.714   2.519   5.416 -0.1489 -0.0014  0.3579
 6685SOL    HW220514   5.685   2.386   5.350  1.2969  0.1786 -0.6853
 6686SOL     OW20515   2.611   3.871   5.336 -0.7690  0.0334  0.0250
 6686SOL    HW120516   2.670   3.796   5.344  0.7350  1.3735  2.9733
 6686SOL    HW220517   2.557   3.868   5.415 -0.0376  2.5101  0.6957
 6687SOL     OW20518   1.086   6.062   3.199  0.2790 -0.0808 -0.1048
 6687SOL    HW120519   1.085   6.036   3.291 -1.6245  0.6693  0.1197
 6687SOL    HW220520   1.133   6.145   3.197  1.0661 -0.5119  0.0442
 6688SOL     OW20521   5.003   6.090   1.024 -0.2647 -0.0779 -0.5467
 6688SOL    HW120522   5.037   6.042   1.100  0.4587  1.1903 -0.0339
 6688SOL    HW220523   4.910   6.070   1.023  0.0325 -1.5697 -0.4250
 6689SOL     OW20524   2.645   3.313   1.349 -0.1422  0.9192  0.1805
 6689SOL    HW120525   2.659   3.372   1.275 -0.4045  1.2193  0.3696
 6689SOL    HW220526   2.719   3.328   1.407 -0.2490  1.1165  0.2651
 6690SOL     OW20527   2.727   1.697   4.345  0.1035  0.2456  0.2839
 6690SOL    HW120528   2.814   1.710   4.384  0.0524  0.2520  0.3948
 6690SOL    HW220529   2.722   1.764   4.276  0.4970 -0.2602 -0.2449
 6691SOL     OW20530   2.666   3.545   3.650 -0.1624  0.3432  1.0137
 6691SOL    HW120531   2.738   3.504   3.698 -0.1212 -1.1682 -0.2605
 6691SOL    HW220532   2.627   3.474   3.600  0.2989  1.9664 -1.8310
 6692SOL     OW20533   5.362   2.865   4.693 -0.0555  0.2676  0.6692
 6692SOL    HW120534   5.386   2.947   4.649  1.0521 -0.8261 -0.9024
 6692SOL    HW220535   5.441   2.811   4.686 -0.6411 -0.8100  2.0104
 6693SOL     OW20536   3.507   2.659   2.618 -0.3453 -0.0031 -0.4693
 6693SOL    HW120537   3.536   2.611   2.696  0.2556 -0.6681 -1.0866
 6693SOL    HW220538   3.412   2.643   2.614 -0.2082 -0.8773 -0.4745
 6694SOL     OW20539   4.949   2.309   1.179  0.2953 -0.2845  0.0283
 6694SOL    HW120540   4.929   2.233   1.233 -0.2992  0.5978  1.0972
 6694SOL    HW220541   4.877   2.314   1.116  0.5987 -0.8771 -0.3797
 6695SOL     OW20542   1.908   3.454   5.680 -0.4874 -0.4324 -0.3462
 6695SOL    HW120543   1.874   3.474   5.593 -1.6974 -2.4828 -0.3958
 6695SOL    HW220544   1.885   3.363   5.695  1.6864 -0.8166  1.2207
 6696SOL     OW20545   3.900   4.656   0.053  0.7196 -0.7594  0.2868
 6696SOL    HW120546   3.966   4.627  -0.010  1.2240 -0.3239  0.6009
 6696SOL    HW220547   3.855   4.728   0.009  0.1668 -1.3253 -0.0889
 6697SOL     OW20548   1.625   0.382   4.993  0.0301  0.2351  0.1569
 6697SOL    HW120549   1.588   0.296   5.011  1.2738 -0.0565  1.5657
 6697SOL    HW220550   1.637   0.384   4.898  0.4116 -1.3416  0.1477
 6698SOL     OW20551   2.734   2.215   0.534 -0.0518  0.1031 -0.5496
 6698SOL    HW120552   2.690   2.154   0.475 -1.5190 -0.0323  0.6132
 6698SOL    HW220553   2.726   2.175   0.621  0.4274  1.1394 -0.0060
 6699SOL     OW20554   1.958   5.568   2.511 -0.0191 -0.1548 -0.4186
 6699SOL    HW120555   1.973   5.516   2.590  0.3969  1.7815  0.8244
 6699SOL    HW220556   1.873   5.610   2.526  0.1148  0.3224 -0.9687
 6700SOL     OW20557   0.440   2.033   6.156  0.2397 -0.2380 -0.1396
 6700SOL    HW120558   0.476   2.018   6.069 -1.3428  0.9350 -1.0580
 6700SOL    HW220559   0.390   1.954   6.176  0.5451 -0.4771 -0.3227
 6701SOL     OW20560   4.433   0.717   1.278 -0.3429  0.2618  0.1082
 6701SOL    HW120561   4.416   0.696   1.186 -0.7210  3.1936 -0.6183
 6701SOL    HW220562   4.493   0.792   1.274 -1.8865  1.7095  2.1558
 6702SOL     OW20563   5.248   0.237   3.406  0.3256 -0.2643 -0.1855
 6702SOL    HW120564   5.315   0.304   3.412  0.0210 -0.0336  0.7741
 6702SOL    HW220565   5.168   0.285   3.384  0.0663 -0.2770  0.6985
 6703SOL     OW20566   0.446   5.311   5.106  0.2857  0.4900  0.2798
 6703SOL    HW120567   0.399   5.381   5.151  0.1348  0.3720  0.3070
 6703SOL    HW220568   0.535   5.345   5.094  0.2291  0.6613  0.3467
 6704SOL     OW20569   4.580   4.617   2.189  0.4679  0.1055 -0.4144
 6704SOL    HW120570   4.539   4.535   2.215  0.3014  0.3619  0.1488
 6704SOL    HW220571   4.617   4.653   2.270 -0.7321  1.2943 -0.3589
 6705SOL     OW20572   5.617   3.360   1.289  0.6442 -0.5128 -0.1153
 6705SOL    HW120573   5.656   3.288   1.240  0.7159  0.4249 -1.4701
 6705SOL    HW220574   5.534   3.324   1.321  1.2246 -1.5657  0.2655
 6706SOL     OW20575   5.918   2.041   2.694  0.3293 -0.3110 -0.1415
 6706SOL    HW120576   5.881   2.129   2.696  0.9626 -0.0415  1.5754
 6706SOL    HW220577   6.009   2.053   2.720  0.2282 -1.5360  0.8823
 6707SOL     OW20578   4.985   5.083   1.705 -0.2717  0.0392  0.9224
 6707SOL    HW120579   4.936   5.137   1.768 -1.9565 -0.8390  0.4138
 6707SOL    HW220580   4.930   5.006   1.692  0.8411 -0.5610 -0.3923
 6708SOL     OW20581   1.149   5.883   3.513 -0.0854  0.1149  0.1386
 6708SOL    HW120582   1.228   5.915   3.470  0.6870 -1.2791  0.4495
 6708SOL    HW220583   1.096   5.961   3.528  0.9568  0.9993 -0.6209
 6709SOL     OW20584   3.595   3.204   5.891  0.0789 -0.8579  0.0035
 6709SOL    HW120585   3.608   3.112   5.865 -0.5312 -0.2700 -2.6490
 6709SOL    HW220586   3.673   3.249   5.859 -0.2736 -0.2113  0.0424
 6710SOL     OW20587   3.885   0.339   0.023  0.6638  0.5101  0.4366
 6710SOL    HW120588   3.971   0.304  -0.001  1.8869  2.9547  0.8837
 6710SOL    HW220589   3.904   0.427   0.057 -2.0012  1.0043  0.8515
 6711SOL     OW20590   3.093   2.933   6.109  0.6929  0.1613  0.0178
 6711SOL    HW120591   3.013   2.928   6.161 -0.2759  1.2109 -1.2929
 6711SOL    HW220592   3.164   2.916   6.171 -0.4876  0.1541  1.4001
 6712SOL     OW20593   1.135   5.216   5.800  0.9633  0.0152  0.3825
 6712SOL    HW120594   1.152   5.128   5.834 -0.6495 -1.3760 -2.0921
 6712SOL    HW220595   1.221   5.247   5.770  1.9509  0.2795  3.2092
 6713SOL     OW20596   0.694   2.962   4.793  0.0673 -0.2163  0.7513
 6713SOL    HW120597   0.604   2.994   4.790  0.3127  0.5047  0.8679
 6713SOL    HW220598   0.712   2.952   4.887  1.3159  3.2247  1.0010
 6714SOL     OW20599   2.619   4.407   5.377  0.1222 -0.1683 -0.4954
 6714SOL    HW120600   2.653   4.318   5.369 -0.6284 -0.4162 -1.0542
 6714SOL    HW220601   2.538   4.407   5.326  1.8464  1.7694 -3.5815
 6715SOL     OW20602   0.570   0.178   0.901 -0.1904  0.3144 -0.0542
 6715SOL    HW120603   0.612   0.260   0.875 -0.5578  0.2503 -0.8922
 6715SOL    HW220604   0.633   0.135   0.959  0.6061  0.5414 -0.7394
 6716SOL     OW20605   5.973   4.633   2.765  0.0071 -0.3641  0.0652
 6716SOL    HW120606   5.883   4.609   2.787 -0.2670  0.3722 -0.2320
 6716SOL    HW220607   6.017   4.549   2.749 -0.4411 -0.7654  0.8993
 6717SOL     OW20608   5.564   1.163   3.036 -0.1334 -0.6826  0.7537
 6717SOL    HW120609   5.476   1.187   3.007  0.0227 -0.6340  0.3213
 6717SOL    HW220610   5.610   1.137   2.956  0.0786 -1.2272  1.0470
 6718SOL     OW20611   1.522   1.845   1.443  0.2292  0.0335  0.6281
 6718SOL    HW120612   1.590   1.829   1.378 -1.0172 -0.9303 -0.4841
 6718SOL    HW220613   1.567   1.895   1.512  2.2404 -1.2167  0.3090
 6719SOL     OW20614   0.784   6.226   1.997  0.4048  0.0292 -0.4673
 6719SOL    HW120615   0.721   6.180   1.941  0.7904  0.3571 -1.1893
 6719SOL    HW220616   0.839   6.156   2.032 -2.0560 -0.6365  2.5144
 6720SOL     OW20617   3.695   1.485   1.930  0.0525 -0.0653  0.3164
 6720SOL    HW120618   3.625   1.442   1.978 -1.8732 -0.0489 -2.2549
 6720SOL    HW220619   3.756   1.415   1.908  0.6038 -0.1781  2.0899
 6721SOL     OW20620   0.475   1.314   3.767 -0.6315 -0.0588  0.5156
 6721SOL    HW120621   0.560   1.358   3.756 -0.4110 -0.7829 -0.8873
 6721SOL    HW220622   0.411   1.385   3.771 -0.2060  0.4336 -0.9286
 6722SOL     OW20623   1.944   4.726   4.163  0.1165 -0.2563  0.3579
 6722SOL    HW120624   1.877   4.662   4.140  0.6635 -0.5482 -0.5150
 6722SOL    HW220625   1.992   4.686   4.236 -1.4270  0.5195  1.8481
 6723SOL     OW20626   3.270   2.341   4.925  0.5265 -0.5514 -0.0411
 6723SOL    HW120627   3.297   2.347   4.834  1.2557  0.6252  0.2370
 6723SOL    HW220628   3.317   2.412   4.969 -2.8214  1.5666  0.5180
 6724SOL     OW20629   0.443   6.371   1.998  0.1788 -0.3221  0.1895
 6724SOL    HW120630   0.475   6.334   1.915  1.3450 -1.6065  1.1693
 6724SOL    HW220631   0.351   6.344   2.002  0.2280 -0.6138 -0.4961
 6725SOL     OW20632   1.258   4.123   6.260  0.1036 -0.2790 -0.2631
 6725SOL    HW120633   1.299   4.155   6.179  2.0790 -2.6760 -0.3468
 6725SOL    HW220634   1.181   4.076   6.230  0.3875 -0.4878 -0.6865
 6726SOL     OW20635   4.337   4.184   3.542  0.3739 -0.6437 -0.0519
 6726SOL    HW120636   4.260   4.228   3.576  0.5070 -0.1003 -0.4403
 6726SOL    HW220637   4.328   4.190   3.447  2.1877  1.7915 -0.1721
 6727SOL     OW20638   3.501   5.308   2.388  0.1669 -0.7795  0.8534
 6727SOL    HW120639   3.407   5.317   2.404 -0.2637 -1.4416 -1.0917
 6727SOL    HW220640   3.534   5.398   2.384 -0.7876 -0.4625 -0.5457
 6728SOL     OW20641   1.920   4.231   1.901 -0.0678 -0.1957  0.4132
 6728SOL    HW120642   1.945   4.141   1.921 -2.0119 -1.1932 -1.2385
 6728SOL    HW220643   1.965   4.250   1.818 -0.0913  0.1467  0.4779
 6729SOL     OW20644   4.521   3.639   5.081 -0.1291 -0.4193 -0.0754
 6729SOL    HW120645   4.491   3.568   5.138 -2.3602  1.7674  1.6669
 6729SOL    HW220646   4.474   3.625   4.999 -1.6051 -0.2692  0.7071
 6730SOL     OW20647   4.368   0.614   0.759 -0.2183  0.2461  0.4540
 6730SOL    HW120648   4.313   0.608   0.681  1.6359  1.4333 -1.0450
 6730SOL    HW220649   4.404   0.703   0.756  1.3485 -0.3029  1.6538
 6731SOL     OW20650   0.898   1.265   4.119 -0.2401  0.4070  0.0921
 6731SOL    HW120651   0.884   1.302   4.206  1.7383  0.6657  0.3343
 6731SOL    HW220652   0.910   1.340   4.062  0.0352  0.2063 -0.1170
 6732SOL     OW20653   1.851   5.188   4.808  0.1060 -0.2577 -0.1388
 6732SOL    HW120654   1.780   5.246   4.835  0.7607  0.3991  0.2061
 6732SOL    HW220655   1.889   5.230   4.731 -0.5291 -1.1435 -0.9594
 6733SOL     OW20656   4.514   5.929   6.104  0.1160  0.3910 -0.0564
 6733SOL    HW120657   4.582   5.885   6.053 -0.5437  0.6780 -1.2168
 6733SOL    HW220658   4.538   6.022   6.100 -0.4183  0.5133 -0.6127
 6734SOL     OW20659   2.906   0.093   4.183 -0.0870 -0.2768 -0.1991
 6734SOL    HW120660   2.968   0.130   4.246  0.0899 -3.1927  1.5288
 6734SOL    HW220661   2.852   0.167   4.156  2.7708  2.0049 -0.2256
 6735SOL     OW20662   1.281   6.214   0.559 -0.0102 -0.5154 -0.5074
 6735SOL    HW120663   1.363   6.182   0.596 -0.0022 -1.5791 -1.4047
 6735SOL    HW220664   1.227   6.136   0.550 -0.8795  0.0789 -0.5450
 6736SOL     OW20665   5.209   5.293   5.211 -0.4274 -0.0616  0.0892
 6736SOL    HW120666   5.161   5.272   5.291 -0.1857  0.8660  0.4935
 6736SOL    HW220667   5.279   5.228   5.207 -1.3106 -1.0169 -0.1558
 6737SOL     OW20668   0.693   2.062   1.101  0.0341  0.4090 -0.6079
 6737SOL    HW120669   0.633   2.014   1.045 -0.9358  0.6227  0.2116
 6737SOL    HW220670   0.695   2.011   1.183  0.2405  0.9028 -0.3002
 6738SOL     OW20671   1.774   5.732   5.382  0.3359  0.2858 -0.5624
 6738SOL    HW120672   1.762   5.752   5.289  0.2177 -1.5181 -0.9645
 6738SOL    HW220673   1.740   5.810   5.427  0.5691  1.2741 -2.0144
 6739SOL     OW20674   3.561   3.616   1.474  0.0669 -0.6298  0.0407
 6739SOL    HW120675   3.631   3.666   1.432  0.4987 -1.1851  0.0882
 6739SOL    HW220676   3.484   3.672   1.466 -0.0786 -1.0426 -2.2640
 6740SOL     OW20677   2.586   4.018   6.265  0.4622  0.6562 -0.5698
 6740SOL    HW120678   2.511   4.076   6.275  1.1204  1.2609  1.5792
 6740SOL    HW220679   2.582   3.987   6.175 -1.6998  1.5539 -0.8291
 6741SOL     OW20680   0.554   2.604   2.850  0.0357  0.1097 -0.1697
 6741SOL    HW120681   0.590   2.545   2.784 -0.0619 -0.3228  0.1573
 6741SOL    HW220682   0.561   2.691   2.811 -0.2080 -0.1571 -0.8337
 6742SOL     OW20683   2.687   5.148   4.115 -0.0811 -0.2486 -0.0171
 6742SOL    HW120684   2.602   5.109   4.136  0.0004 -0.8972 -0.8197
 6742SOL    HW220685   2.698   5.217   4.180 -1.1486 -0.2580  0.2039
 6743SOL     OW20686   2.457   1.503   0.136 -0.1957  0.5890 -0.3174
 6743SOL    HW120687   2.400   1.467   0.068 -0.6340 -1.8665  1.2354
 6743SOL    HW220688   2.534   1.447   0.135  0.0251  0.8435  0.8572
 6744SOL     OW20689   1.905   1.467   5.396  0.0755  0.2704 -0.0724
 6744SOL    HW120690   1.891   1.562   5.395 -0.8888  0.1754 -2.3634
 6744SOL    HW220691   1.830   1.431   5.348  0.2899 -1.6953  0.9504
 6745SOL     OW20692   5.313   0.671   3.163 -0.4707  0.3842  0.2924
 6745SOL    HW120693   5.272   0.585   3.156 -0.2171  0.2564  0.3750
 6745SOL    HW220694   5.342   0.692   3.074 -1.6497  0.9421  0.0241
 6746SOL     OW20695   4.087   5.701   3.715  0.0946 -0.1972 -0.0172
 6746SOL    HW120696   4.025   5.773   3.701  1.9905  1.6855  0.7810
 6746SOL    HW220697   4.036   5.634   3.761 -1.8036  0.4920 -1.0136
 6747SOL     OW20698   1.022   2.460   3.454  0.1249  0.9550 -0.3245
 6747SOL    HW120699   0.983   2.497   3.533 -0.8244  0.2087 -0.4178
 6747SOL    HW220700   0.989   2.514   3.383 -1.5207 -0.1810 -0.4941
 6748SOL     OW20701   0.025   3.157   3.789  0.1953  0.5105  0.1639
 6748SOL    HW120702   0.073   3.092   3.738  0.0646  0.9603 -0.5445
 6748SOL    HW220703  -0.031   3.105   3.847 -0.1149 -0.0115 -0.5937
 6749SOL     OW20704   0.373   1.844   3.138 -0.1355 -0.1430  0.1891
 6749SOL    HW120705   0.351   1.881   3.052  0.4992  1.3511  0.6537
 6749SOL    HW220706   0.396   1.753   3.119  1.4222  0.5340 -1.4642
 6750SOL     OW20707   0.446   6.155   5.972  0.6643  0.0113  0.6516
 6750SOL    HW120708   0.473   6.177   6.061 -0.7566  0.8659  0.9023
 6750SOL    HW220709   0.371   6.211   5.955  0.7076 -0.3668 -0.9818
 6751SOL     OW20710   1.967   4.462   2.064  0.2623  0.3655 -0.4397
 6751SOL    HW120711   2.056   4.495   2.052  0.0642  1.0810 -0.0034
 6751SOL    HW220712   1.965   4.380   2.016  1.1322  0.3918 -0.5315
 6752SOL     OW20713   1.493   1.212   2.399 -0.3185 -0.2353  0.3659
 6752SOL    HW120714   1.555   1.278   2.431 -1.7009  0.1600  2.3421
 6752SOL    HW220715   1.427   1.205   2.467 -0.7070 -3.0546 -0.1902
 6753SOL     OW20716   1.124   3.584   4.864 -0.4192  0.8005 -0.1617
 6753SOL    HW120717   1.138   3.512   4.926 -1.8099  0.5493 -0.1015
 6753SOL    HW220718   1.193   3.573   4.799 -1.0153 -1.0396 -0.5406
 6754SOL     OW20719   5.262   6.020   3.623  0.3695  0.0996  0.5788
 6754SOL    HW120720   5.234   6.102   3.664  0.8605  0.7176 -0.2958
 6754SOL    HW220721   5.187   5.993   3.570  0.9023  1.0607 -0.7179
 6755SOL     OW20722   0.467   0.908   4.412 -0.1296 -0.3948 -0.3193
 6755SOL    HW120723   0.397   0.903   4.477  0.6111  2.1641  0.7899
 6755SOL    HW220724   0.542   0.864   4.453 -0.1645 -0.3295 -0.1871
 6756SOL     OW20725   4.140   4.198   2.471 -0.3870  0.4189 -0.2707
 6756SOL    HW120726   4.182   4.143   2.405 -2.5591  1.4158 -2.6536
 6756SOL    HW220727   4.106   4.136   2.535 -1.0700 -0.9217 -1.8520
 6757SOL     OW20728   4.956   1.922   3.459 -0.2339  0.0820  0.0917
 6757SOL    HW120729   4.996   1.915   3.373  2.1942  1.5500  0.9995
 6757SOL    HW220730   4.863   1.904   3.444  0.2208 -0.4060 -2.6673
 6758SOL     OW20731   1.623   0.119   0.851 -0.1774  0.5529 -0.3306
 6758SOL    HW120732   1.568   0.166   0.788 -0.8539 -0.9125 -0.8730
 6758SOL    HW220733   1.563   0.057   0.894  1.2517 -2.2430 -2.0512
 6759SOL     OW20734   5.686   3.764   1.247 -0.3651 -0.2299  0.6065
 6759SOL    HW120735   5.754   3.753   1.313 -1.0784 -1.1055  1.2102
 6759SOL    HW220736   5.609   3.792   1.296 -0.8804 -0.8036  0.1331
 6760SOL     OW20737   6.060   3.551   5.595 -0.1067  0.0597  0.2322
 6760SOL    HW120738   6.048   3.472   5.543  0.1422  0.8380 -1.0508
 6760SOL    HW220739   6.067   3.622   5.530  1.6605  0.8834  1.2557
 6761SOL     OW20740   5.758   3.302   3.788 -0.2742 -0.7434 -0.3236
 6761SOL    HW120741   5.672   3.341   3.771  0.7148  1.2398 -1.1435
 6761SOL    HW220742   5.777   3.251   3.709 -1.0544 -1.9714  0.2478
 6762SOL     OW20743   5.035   4.008   0.053  0.3477  0.8506  0.4938
 6762SOL    HW120744   5.031   4.101   0.032  1.3473  0.6553 -0.6502
 6762SOL    HW220745   5.127   3.991   0.070  0.2255 -0.0020  0.3438
 6763SOL     OW20746   4.891   4.702   0.021 -0.0139 -0.1412  0.0224
 6763SOL    HW120747   4.815   4.745   0.061  0.4264 -1.1759  2.1385
 6763SOL    HW220748   4.953   4.772   0.005 -0.0881  0.3118  1.5430
 6764SOL     OW20749   1.594   1.824   4.919  0.7145 -0.1116  1.0576
 6764SOL    HW120750   1.581   1.897   4.979  1.1016  0.5533  0.3367
 6764SOL    HW220751   1.687   1.827   4.897  0.7791 -0.9503  1.1749
 6765SOL     OW20752   4.718   4.926   3.558  0.0828  0.3678 -0.3276
 6765SOL    HW120753   4.693   4.996   3.498 -1.4110  0.8844  0.8516
 6765SOL    HW220754   4.811   4.942   3.575  0.7171 -0.1572 -2.9264
 6766SOL     OW20755   3.870   0.863   1.204 -0.3197 -0.1557  0.0756
 6766SOL    HW120756   3.891   0.770   1.210  0.9539  0.0381 -0.9333
 6766SOL    HW220757   3.830   0.885   1.288  0.6688 -1.2910  0.8627
 6767SOL     OW20758   2.363   1.238   2.583  0.4533 -0.5964 -0.2357
 6767SOL    HW120759   2.394   1.202   2.500  2.5658 -0.0061  0.2372
 6767SOL    HW220760   2.352   1.332   2.566 -1.3975 -0.8129 -0.4442
 6768SOL     OW20761   2.906   4.989   5.895  0.5835  0.4472  0.2995
 6768SOL    HW120762   2.870   4.987   5.983  1.6889  0.0816  0.7530
 6768SOL    HW220763   2.975   4.922   5.895  0.7523  0.5962 -0.7701
 6769SOL     OW20764   5.466   0.574   4.999  0.0970  0.5763 -0.0094
 6769SOL    HW120765   5.395   0.635   5.018  0.3796  1.0398 -0.4221
 6769SOL    HW220766   5.531   0.590   5.067 -0.5111 -0.3825  0.8263
 6770SOL     OW20767   2.439   0.456   4.806  0.2211  0.1367 -0.0307
 6770SOL    HW120768   2.498   0.443   4.731 -1.0558  2.0272 -1.4720
 6770SOL    HW220769   2.497   0.466   4.881  1.5799 -1.1713 -0.8514
 6771SOL     OW20770   2.582   3.888   5.984  0.0243 -0.0419 -0.3268
 6771SOL    HW120771   2.516   3.950   5.953 -0.3501  0.4962  1.4200
 6771SOL    HW220772   2.666   3.931   5.968 -0.2502  2.3857  3.3891
 6772SOL     OW20773   2.535   2.953   0.033 -0.1965  0.1873 -0.2181
 6772SOL    HW120774   2.619   2.998   0.025 -0.1148 -0.0814 -0.9862
 6772SOL    HW220775   2.494   2.991   0.111  0.2424  0.9771 -0.3655
 6773SOL     OW20776   0.007   1.057   2.947 -0.8548 -0.1453 -0.3290
 6773SOL    HW120777   0.064   1.122   2.987 -1.4459  0.8027 -0.9757
 6773SOL    HW220778   0.039   0.973   2.980  1.3535  0.2850 -1.1876
 6774SOL     OW20779   0.048   1.523   3.307  0.0943  0.1001  0.2950
 6774SOL    HW120780   0.099   1.585   3.358  0.0829  0.5500 -0.2264
 6774SOL    HW220781  -0.042   1.537   3.333  0.2190 -0.6447  1.1644
 6775SOL     OW20782   4.391   1.219   2.143  0.4505  0.4426  0.6829
 6775SOL    HW120783   4.364   1.244   2.054 -0.8284 -0.8354  0.6802
 6775SOL    HW220784   4.320   1.163   2.175  1.1461  0.4483  2.3254
 6776SOL     OW20785   0.189   5.964   2.791  0.9884  0.3598 -0.0760
 6776SOL    HW120786   0.161   5.932   2.706  0.3729 -1.1718  0.6586
 6776SOL    HW220787   0.273   6.007   2.774  0.8592  0.1130 -1.4426
 6777SOL     OW20788   4.607   2.724   3.049  0.0963 -0.3461 -0.6141
 6777SOL    HW120789   4.696   2.704   3.019  0.1805 -0.7417 -0.1227
 6777SOL    HW220790   4.588   2.656   3.113 -1.3710 -1.5423 -2.2377
 6778SOL     OW20791   3.467   2.137   5.924  0.6148 -0.0633  0.0000
 6778SOL    HW120792   3.533   2.157   5.990  1.6546 -0.3253 -0.9417
 6778SOL    HW220793   3.505   2.165   5.842 -0.5093 -0.0970 -0.5493
 6779SOL     OW20794   3.806   2.058   0.635  0.7903  0.2069  0.1077
 6779SOL    HW120795   3.894   2.029   0.609  0.8823  0.2226  0.3936
 6779SOL    HW220796   3.808   2.056   0.731 -0.0429 -1.3242  0.1206
 6780SOL     OW20797   3.027   0.632   5.480 -0.5269 -0.2933  0.3367
 6780SOL    HW120798   2.989   0.720   5.482  1.3679  0.7103 -2.1366
 6780SOL    HW220799   3.118   0.645   5.506 -0.0885 -1.4362 -0.5668
 6781SOL     OW20800   4.532   5.148   3.736  0.2078  0.2888  0.4688
 6781SOL    HW120801   4.489   5.149   3.650 -0.5559  0.6630  0.8464
 6781SOL    HW220802   4.491   5.076   3.783 -1.1446  1.5955  1.3801
 6782SOL     OW20803   1.201   4.010   5.666 -0.1563 -0.2212 -1.0335
 6782SOL    HW120804   1.157   4.088   5.698  0.7529  0.7916 -2.1426
 6782SOL    HW220805   1.251   3.978   5.741 -0.6139  0.2071 -0.5387
 6783SOL     OW20806   5.119   0.338   5.122  0.0988 -0.0295  0.1961
 6783SOL    HW120807   5.176   0.295   5.185  0.7976 -1.0559 -1.0950
 6783SOL    HW220808   5.042   0.281   5.117  0.8244 -0.9417 -1.1718
 6784SOL     OW20809   4.946   5.122   4.268 -0.5849 -0.0200  0.7004
 6784SOL    HW120810   4.970   5.031   4.284  1.4289  0.6671  2.0397
 6784SOL    HW220811   5.012   5.153   4.206 -0.8104  0.7039  0.8168
 6785SOL     OW20812   5.428   3.287   5.479  0.4698  0.2430 -0.0278
 6785SOL    HW120813   5.448   3.378   5.501  0.6940 -0.0515  1.0209
 6785SOL    HW220814   5.333   3.284   5.473  0.4988  0.7347 -0.9484
 6786SOL     OW20815   0.062   4.611   4.907  0.4875 -0.5754  0.7783
 6786SOL    HW120816   0.034   4.687   4.959  0.1137 -1.2886  1.6473
 6786SOL    HW220817   0.156   4.606   4.921  0.4917 -0.3577  0.8330
 6787SOL     OW20818   5.342   5.842   5.547  0.2826 -0.0692  0.3525
 6787SOL    HW120819   5.373   5.877   5.463  2.1730 -0.2263  0.9546
 6787SOL    HW220820   5.300   5.760   5.524 -0.0080  0.3126 -0.5371
 6788SOL     OW20821   1.079   0.671   5.496  0.2202  0.6732  0.2325
 6788SOL    HW120822   1.159   0.718   5.470  0.3960  0.1153 -0.2664
 6788SOL    HW220823   1.083   0.589   5.447 -0.6487  0.6264  0.2341
 6789SOL     OW20824   3.701   4.488   3.687 -0.0627  0.2039 -0.0941
 6789SOL    HW120825   3.735   4.577   3.698  1.6951 -0.1505 -2.0170
 6789SOL    HW220826   3.606   4.499   3.685  0.1152  2.0212 -0.1902
 6790SOL     OW20827   6.221   5.908   4.580  0.3854  0.6275 -0.1851
 6790SOL    HW120828   6.191   5.890   4.491 -1.5603 -0.3432  0.6063
 6790SOL    HW220829   6.275   5.833   4.603 -0.4690  0.0512  0.0017
 6791SOL     OW20830   5.953   3.189   1.391 -0.2951 -0.5873  0.0072
 6791SOL    HW120831   5.974   3.125   1.323  2.1708 -1.5550  1.5331
 6791SOL    HW220832   5.934   3.269   1.343 -1.2640 -1.8579 -1.8800
 6792SOL     OW20833   0.308   3.400   4.907 -0.2825  0.2369 -0.4699
 6792SOL    HW120834   0.346   3.395   4.995  0.6816 -1.0668 -0.9320
 6792SOL    HW220835   0.363   3.342   4.854 -2.0031 -0.5073 -1.5073
 6793SOL     OW20836   4.439   4.619   1.785 -0.1160 -0.3095 -0.2847
 6793SOL    HW120837   4.406   4.537   1.747  0.9700 -0.5268 -0.8076
 6793SOL    HW220838   4.403   4.687   1.729 -2.3834 -0.2736  1.1213
 6794SOL     OW20839   0.445   5.752   4.525 -0.3894 -0.2814 -0.2307
 6794SOL    HW120840   0.517   5.729   4.584  0.4927 -1.0969 -1.5732
 6794SOL    HW220841   0.416   5.668   4.489 -1.0467  0.1772 -0.7988
 6795SOL     OW20842   3.860   0.421   1.577  0.5031  0.2059  0.0628
 6795SOL    HW120843   3.832   0.342   1.624  0.3828  0.2411  0.0496
 6795SOL    HW220844   3.945   0.443   1.616 -0.3537  1.2082  1.4615
 6796SOL     OW20845   1.454   3.109   4.711  0.0972  0.3847 -0.0131
 6796SOL    HW120846   1.516   3.178   4.733 -0.2215  0.0366  2.2840
 6796SOL    HW220847   1.508   3.036   4.681  0.7892  0.3439  1.2562
 6797SOL     OW20848   3.559   5.936   4.461  0.1548 -0.6063  0.2480
 6797SOL    HW120849   3.555   5.853   4.413  0.5364 -0.5423  0.1037
 6797SOL    HW220850   3.486   5.987   4.427 -0.1192 -0.9012  0.3779
 6798SOL     OW20851   1.050   2.781   6.146 -1.0300 -0.1846  0.2437
 6798SOL    HW120852   0.978   2.844   6.154  0.0738  0.9954  1.4125
 6798SOL    HW220853   1.103   2.794   6.225  0.8941 -0.4555 -0.9224
 6799SOL     OW20854   3.233   3.246   0.988 -0.0042  0.0063 -0.7138
 6799SOL    HW120855   3.222   3.234   0.893 -0.9256 -1.2997 -0.4703
 6799SOL    HW220856   3.327   3.231   1.002  0.4242  1.5823 -1.5645
 6800SOL     OW20857   3.613   0.645   0.714  0.0044  0.4809 -0.4291
 6800SOL    HW120858   3.599   0.740   0.723 -0.8996  0.4026 -0.9423
 6800SOL    HW220859   3.549   0.606   0.773  0.5019  0.1839 -0.0765
 6801SOL     OW20860   4.682   3.491   1.852 -0.6644  0.3025  0.0643
 6801SOL    HW120861   4.705   3.431   1.924 -0.6235  0.9865  0.6342
 6801SOL    HW220862   4.709   3.445   1.773  3.6271  1.3709  0.6559
 6802SOL     OW20863   4.500   5.530   0.422 -0.1514 -0.6841 -0.0819
 6802SOL    HW120864   4.483   5.474   0.346 -1.4213 -1.8445  1.0037
 6802SOL    HW220865   4.416   5.536   0.467  0.3472  0.7849  0.7092
 6803SOL     OW20866   4.423   3.454   5.268  0.2944 -0.5051 -0.1270
 6803SOL    HW120867   4.408   3.360   5.274 -0.4554 -0.5278 -1.7885
 6803SOL    HW220868   4.474   3.475   5.346 -1.3986 -1.8968  1.4604
 6804SOL     OW20869   0.486   2.961   1.015  0.2061  0.2893 -0.2929
 6804SOL    HW120870   0.480   2.866   1.008 -0.2503  0.1566  1.4035
 6804SOL    HW220871   0.547   2.975   1.088 -0.7555  1.2532  0.3583
 6805SOL     OW20872   3.848   5.821   4.166  0.4028 -0.5126 -0.3919
 6805SOL    HW120873   3.910   5.750   4.188  0.9568  0.6203  2.0944
 6805SOL    HW220874   3.836   5.814   4.072  1.5773 -2.9986 -0.4426
 6806SOL     OW20875   0.647   4.436   3.850  0.0420  0.1691  0.3268
 6806SOL    HW120876   0.741   4.446   3.860  0.0769  1.0603 -0.6362
 6806SOL    HW220877   0.628   4.473   3.764 -1.1315 -0.3906  0.3171
 6807SOL     OW20878   5.987   4.438   0.957  0.2459  0.0877  0.2068
 6807SOL    HW120879   6.008   4.355   0.915 -0.4101 -0.1837  0.4071
 6807SOL    HW220880   5.896   4.455   0.933  0.2202  0.4988  0.5755
 6808SOL     OW20881   4.792   4.094   3.524 -0.0963  0.0158 -0.7047
 6808SOL    HW120882   4.731   4.045   3.579 -0.2636  1.1464  0.1379
 6808SOL    HW220883   4.740   4.120   3.448 -0.4962  0.4104 -0.3015
 6809SOL     OW20884   5.159   0.471   4.584 -0.5488  0.0103 -0.5909
 6809SOL    HW120885   5.134   0.535   4.651 -1.3183 -0.1825 -0.6932
 6809SOL    HW220886   5.255   0.475   4.583 -0.5614  0.6796 -0.1270
 6810SOL     OW20887   5.273   0.617   1.168 -0.1087 -0.3209 -0.1332
 6810SOL    HW120888   5.360   0.657   1.178 -0.1407 -0.1626 -0.4674
 6810SOL    HW220889   5.241   0.650   1.084 -1.5966  1.7019  1.1500
 6811SOL     OW20890   3.538   6.274   1.966 -0.9145  0.2235  0.2178
 6811SOL    HW120891   3.596   6.335   2.012  0.1790 -0.5284 -0.1326
 6811SOL    HW220892   3.453   6.286   2.008 -0.5137  1.3280  0.7664
 6812SOL     OW20893   3.514   0.516   0.976  0.3534  0.2905 -0.4709
 6812SOL    HW120894   3.420   0.526   0.988  0.4600  0.9111 -0.1322
 6812SOL    HW220895   3.554   0.577   1.038  1.0228 -1.1536  0.5931
 6813SOL     OW20896   1.375   0.134   3.349  0.0932  0.4752 -0.1036
 6813SOL    HW120897   1.358   0.219   3.388  3.8599  0.3994  2.2606
 6813SOL    HW220898   1.471   0.129   3.345 -0.0095 -2.5680 -2.7751
 6814SOL     OW20899   4.601   6.209   6.056 -0.2878  0.0931  0.6569
 6814SOL    HW120900   4.655   6.245   6.126  0.1012  0.2480  0.2804
 6814SOL    HW220901   4.654   6.219   5.977  0.5952 -2.8693  0.7484
 6815SOL     OW20902   4.121   1.532   2.497  0.5317  0.4619 -0.3616
 6815SOL    HW120903   4.081   1.446   2.486 -1.7006  1.6714 -2.7319
 6815SOL    HW220904   4.073   1.572   2.569 -0.0155  0.5531 -0.7737
 6816SOL     OW20905   3.918   1.062   4.821  0.3192 -0.2081  0.5641
 6816SOL    HW120906   3.869   0.980   4.832  1.0849 -0.4600  2.3535
 6816SOL    HW220907   3.923   1.099   4.909 -1.2642  2.5587 -0.3836
 6817SOL     OW20908   4.691   5.908   2.791  0.0221 -0.0409 -0.2398
 6817SOL    HW120909   4.705   5.837   2.855 -1.4177 -0.9128 -0.8302
 6817SOL    HW220910   4.729   5.985   2.832 -1.7898 -0.3318  2.1978
 6818SOL     OW20911   2.301   0.378   2.440  0.0964 -0.3826  0.0202
 6818SOL    HW120912   2.317   0.461   2.395 -1.2040  0.1788  0.5470
 6818SOL    HW220913   2.276   0.318   2.371 -0.6489  0.1420 -0.1850
 6819SOL     OW20914   4.062   5.048   0.292 -0.2849 -0.3409  0.5092
 6819SOL    HW120915   4.065   4.968   0.344  0.8069 -0.3744  0.4152
 6819SOL    HW220916   3.979   5.042   0.244 -0.3403 -1.2918  0.7020
 6820SOL     OW20917   0.300   4.603   2.761  0.3380 -0.1934  0.0183
 6820SOL    HW120918   0.377   4.640   2.804  0.7695 -0.3848 -0.5637
 6820SOL    HW220919   0.311   4.508   2.770 -0.9715 -0.2174  1.8665
 6821SOL     OW20920   1.785   1.404   3.630  0.1266  0.0042 -0.3286
 6821SOL    HW120921   1.751   1.387   3.718  3.0463 -0.8953  0.7503
 6821SOL    HW220922   1.859   1.463   3.644  0.1491  0.5128 -2.2964
 6822SOL     OW20923   4.843   2.134   5.342  0.0162 -0.0364 -0.3170
 6822SOL    HW120924   4.779   2.128   5.414 -1.1972 -0.4604 -1.3800
 6822SOL    HW220925   4.826   2.055   5.289  1.0082  0.1725 -0.9669
 6823SOL     OW20926   3.350   1.162   2.248  0.0306  0.1093 -0.1007
 6823SOL    HW120927   3.380   1.083   2.203 -2.4521 -0.3929 -1.0345
 6823SOL    HW220928   3.430   1.201   2.285  1.5628 -1.8046 -1.2257
 6824SOL     OW20929   5.791   5.391   1.591 -0.0430  0.0430 -0.4368
 6824SOL    HW120930   5.727   5.355   1.652  0.6188 -1.9694 -0.8677
 6824SOL    HW220931   5.838   5.315   1.558  0.5597  1.2023 -2.3987
 6825SOL     OW20932   2.632   1.674   4.713  0.1071  0.3599 -0.3218
 6825SOL    HW120933   2.663   1.590   4.680  0.6917  0.4760 -0.0816
 6825SOL    HW220934   2.711   1.728   4.720  0.1401  0.1238  1.8935
 6826SOL     OW20935   3.847   2.188   4.096  0.2595 -0.1859 -0.2116
 6826SOL    HW120936   3.820   2.133   4.169 -0.3316  0.1335 -0.1808
 6826SOL    HW220937   3.815   2.142   4.018 -1.0330  0.5312 -0.1385
 6827SOL     OW20938   1.200   3.035   5.329  0.0236  0.3485 -0.4783
 6827SOL    HW120939   1.148   3.108   5.295  0.0206  0.4116 -0.3385
 6827SOL    HW220940   1.213   3.056   5.422  1.1091  0.8002 -0.7173
 6828SOL     OW20941   2.043   5.108   5.518  0.4562  0.0009 -0.4357
 6828SOL    HW120942   2.064   5.195   5.483 -0.9068  0.5487  0.0262
 6828SOL    HW220943   2.000   5.126   5.601 -0.9354 -1.0568 -0.8864
 6829SOL     OW20944   1.532   0.487   1.942  0.2352 -0.3169  0.2643
 6829SOL    HW120945   1.537   0.582   1.956  0.3574 -0.3607  0.5179
 6829SOL    HW220946   1.549   0.476   1.849 -0.1468 -0.0582  0.1602
 6830SOL     OW20947   2.291   5.406   4.435  1.0212 -0.0112  0.1260
 6830SOL    HW120948   2.334   5.446   4.511  1.1662  1.3063 -0.6126
 6830SOL    HW220949   2.262   5.481   4.383  3.7128 -0.7428 -2.7429
 6831SOL     OW20950   4.611   1.177   4.440  0.5784 -0.5323 -0.0734
 6831SOL    HW120951   4.591   1.248   4.378 -0.7151 -0.6535  0.1958
 6831SOL    HW220952   4.561   1.198   4.518  2.0626 -0.4813  0.9075
 6832SOL     OW20953   2.185   6.126   1.354  0.2803 -0.0720 -0.2689
 6832SOL    HW120954   2.190   6.174   1.436  1.0975  1.3235 -1.0927
 6832SOL    HW220955   2.134   6.048   1.374 -3.3239  2.2770  0.5829
 6833SOL     OW20956   5.938   1.336   1.250 -0.7834 -0.3630  0.0634
 6833SOL    HW120957   5.919   1.402   1.317  0.5671  0.6502 -0.4989
 6833SOL    HW220958   5.948   1.254   1.299  0.1296  0.3504  1.1275
 6834SOL     OW20959   2.212   3.506   2.435 -0.0286 -0.0703  0.2041
 6834SOL    HW120960   2.208   3.527   2.342 -1.0697 -1.7753 -0.1905
 6834SOL    HW220961   2.299   3.534   2.463  0.3118  0.4286 -1.2892
 6835SOL     OW20962   5.484   4.431   2.000 -0.0851  0.0195 -0.0823
 6835SOL    HW120963   5.404   4.436   2.052 -0.0407 -0.7210  0.0710
 6835SOL    HW220964   5.503   4.337   1.995 -1.2783 -0.1731 -3.2463
 6836SOL     OW20965   0.853   3.093   6.174 -0.3099  0.1869 -0.4247
 6836SOL    HW120966   0.824   3.147   6.247  0.0801  1.2063 -1.0108
 6836SOL    HW220967   0.779   3.035   6.156 -0.7060  0.4688  0.2613
 6837SOL     OW20968   2.553   3.707   0.775  0.2254  0.2797 -0.5789
 6837SOL    HW120969   2.638   3.725   0.814  0.4965 -1.6505 -0.2080
 6837SOL    HW220970   2.533   3.617   0.800 -1.3559  0.2695 -1.7220
 6838SOL     OW20971   0.280   0.626   4.029  0.0411 -0.4860 -0.5816
 6838SOL    HW120972   0.356   0.613   4.087  0.1774  0.4060 -0.5534
 6838SOL    HW220973   0.318   0.634   3.942 -0.1202 -1.2054 -0.7286
 6839SOL     OW20974   1.830   1.309   6.086  0.3931 -0.1853  0.4008
 6839SOL    HW120975   1.848   1.311   5.992 -1.4467 -1.2698 -0.0150
 6839SOL    HW220976   1.818   1.216   6.107 -1.4371  0.1795  1.2205
 6840SOL     OW20977   2.418   4.432   0.772 -0.2867  0.5016 -0.3584
 6840SOL    HW120978   2.386   4.512   0.731 -1.9593 -0.6592 -1.4472
 6840SOL    HW220979   2.380   4.361   0.720  0.6952 -1.0156  0.8936
 6841SOL     OW20980   2.096   1.504   5.156 -0.5035 -0.7240 -0.3751
 6841SOL    HW120981   2.045   1.563   5.099 -0.4208 -0.6406 -0.3619
 6841SOL    HW220982   2.045   1.500   5.237  0.0047  0.1319 -0.0016
 6842SOL     OW20983   2.290   6.181   5.416 -0.0980 -0.7157  0.1538
 6842SOL    HW120984   2.331   6.263   5.389 -0.3711 -0.3438  0.8462
 6842SOL    HW220985   2.226   6.207   5.482 -1.6360 -1.2701 -1.0796
 6843SOL     OW20986   2.604   4.987   1.607  0.0443 -0.4195  0.2772
 6843SOL    HW120987   2.580   5.070   1.565 -0.8396 -1.3818 -1.2084
 6843SOL    HW220988   2.699   4.989   1.613  0.0723  0.4160 -0.3442
 6844SOL     OW20989   0.105   1.722   6.159 -0.3061  0.1648 -0.2863
 6844SOL    HW120990   0.032   1.784   6.168 -1.4134 -1.1229 -0.0608
 6844SOL    HW220991   0.113   1.682   6.245  0.6635  0.2501 -0.3250
 6845SOL     OW20992   2.505   4.237   1.970 -0.2585 -0.0566  0.1599
 6845SOL    HW120993   2.600   4.243   1.980 -0.1666  0.6963 -0.9975
 6845SOL    HW220994   2.492   4.201   1.883 -1.0312  1.3762 -0.3426
 6846SOL     OW20995   0.074   4.316   6.369 -0.0929  0.2122 -0.1195
 6846SOL    HW120996   0.118   4.383   6.421  0.9059 -1.9141  1.9423
 6846SOL    HW220997  -0.008   4.357   6.343  1.2824  2.8847 -0.6198
 6847SOL     OW20998   3.687   1.368   4.972  0.2027 -0.0642  0.1943
 6847SOL    HW120999   3.648   1.283   4.990  0.8554 -0.5018 -0.4186
 6847SOL    HW221000   3.758   1.350   4.910 -0.1152  1.0154 -0.5205
 6848SOL     OW21001   6.014   6.045   4.675 -0.2257 -0.0687  0.2501
 6848SOL    HW121002   6.085   5.988   4.646 -0.3802 -0.0785 -0.1216
 6848SOL    HW221003   5.982   6.004   4.755 -1.3219 -1.3987 -0.7933
 6849SOL     OW21004   2.177   3.223   6.231  0.0811  0.0013 -0.3039
 6849SOL    HW121005   2.188   3.303   6.179  0.8742  0.7652  0.9717
 6849SOL    HW221006   2.101   3.240   6.286  0.9983  0.4292  0.8758
 6850SOL     OW21007   1.556   5.036   5.646  0.0929  0.6526 -0.3760
 6850SOL    HW121008   1.613   5.062   5.573  0.7127  2.3988  0.6529
 6850SOL    HW221009   1.613   4.988   5.705 -0.3334 -0.4778 -0.8490
 6851SOL     OW21010   5.917   2.119   2.201 -0.3096 -0.5160  0.4003
 6851SOL    HW121011   5.872   2.074   2.130 -0.4948 -0.6269  0.5877
 6851SOL    HW221012   5.872   2.203   2.209 -0.9275 -0.8941  1.0336
 6852SOL     OW21013   2.862   1.302   5.408  0.7983 -0.0271  0.1681
 6852SOL    HW121014   2.921   1.376   5.427 -1.3230  1.7144  0.4195
 6852SOL    HW221015   2.884   1.277   5.318 -0.9853  3.6485 -1.5036
 6853SOL     OW21016   2.747   6.249   3.311 -0.2811  0.0803  0.2176
 6853SOL    HW121017   2.741   6.209   3.224 -0.5807  1.3593 -0.3643
 6853SOL    HW221018   2.711   6.182   3.370 -1.6536 -0.1748 -0.8462
 6854SOL     OW21019   4.234   2.755   6.255 -0.0492  0.0825  0.3879
 6854SOL    HW121020   4.279   2.785   6.176 -1.4097 -0.1430 -0.5237
 6854SOL    HW221021   4.191   2.674   6.229 -1.8807  0.8434  0.8353
 6855SOL     OW21022   3.061   4.118   4.520 -1.1974  0.0867  0.0207
 6855SOL    HW121023   2.984   4.068   4.544 -1.9961  1.0432 -0.4482
 6855SOL    HW221024   3.134   4.071   4.559 -1.8692 -1.5918 -0.6538
 6856SOL     OW21025   3.510   5.774   2.703  0.0024 -0.1308  0.1116
 6856SOL    HW121026   3.567   5.807   2.772 -0.2703  0.9527 -0.1642
 6856SOL    HW221027   3.421   5.784   2.738 -0.0586 -1.8753  0.5734
 6857SOL     OW21028   3.271   1.216   6.139  0.2375 -0.4749 -0.3311
 6857SOL    HW121029   3.281   1.132   6.183  1.2104 -1.0452 -1.5697
 6857SOL    HW221030   3.281   1.196   6.046 -0.2594  0.9055 -0.7159
 6858SOL     OW21031   1.800   4.295   1.270 -0.4381 -0.0660 -0.4615
 6858SOL    HW121032   1.759   4.304   1.356  0.3481 -3.4308  0.4089
 6858SOL    HW221033   1.800   4.201   1.252  1.3946  0.3124 -3.1795
 6859SOL     OW21034   3.336   5.652   3.447 -0.1295 -0.3856 -0.1877
 6859SOL    HW121035   3.348   5.558   3.461 -0.1163 -0.0670  2.7624
 6859SOL    HW221036   3.424   5.686   3.430  0.3300 -0.6344  1.4327
 6860SOL     OW21037   5.966   4.023   2.527 -0.8436  0.1225 -0.3036
 6860SOL    HW121038   6.015   3.972   2.592 -3.9830  1.5997  3.6257
 6860SOL    HW221039   5.992   4.113   2.543  0.5467  0.4395 -3.4426
 6861SOL     OW21040   5.792   3.675   1.831  0.4958 -0.1058 -0.1106
 6861SOL    HW121041   5.816   3.583   1.825  0.5432 -0.0375 -1.1158
 6861SOL    HW221042   5.843   3.708   1.906 -0.1148 -1.0526  0.7544
 6862SOL     OW21043   0.867   1.470   1.916  0.2081  0.2007  0.0105
 6862SOL    HW121044   0.912   1.541   1.871 -0.2012  0.2191 -0.3736
 6862SOL    HW221045   0.936   1.406   1.935  0.6221  0.8066  0.5790
 6863SOL     OW21046   0.531   3.235   4.805 -0.5273 -0.5476 -0.0681
 6863SOL    HW121047   0.626   3.233   4.808 -0.5341 -1.5523 -0.2852
 6863SOL    HW221048   0.503   3.151   4.841 -1.3249 -0.4078 -0.3316
 6864SOL     OW21049   1.346   1.519   0.712  0.1463  0.4545 -0.4335
 6864SOL    HW121050   1.421   1.486   0.662  0.5999  1.2476 -0.2946
 6864SOL    HW221051   1.378   1.524   0.802 -0.7356 -1.1728 -0.0089
 6865SOL     OW21052   2.579   2.472   5.318  0.4165 -0.3943  0.9729
 6865SOL    HW121053   2.538   2.549   5.357  1.4736 -0.0326  1.4063
 6865SOL    HW221054   2.664   2.503   5.286 -0.0804 -0.8653 -0.9190
 6866SOL     OW21055   4.934   2.807   3.930 -0.1373 -0.1148 -0.2912
 6866SOL    HW121056   4.965   2.720   3.905 -0.0507 -0.2007  0.0971
 6866SOL    HW221057   5.014   2.860   3.935  0.1641 -0.6529  1.9786
 6867SOL     OW21058   2.315   1.611   0.357  0.4093 -0.0266  0.1752
 6867SOL    HW121059   2.328   1.597   0.263 -1.2790  0.9752 -0.2523
 6867SOL    HW221060   2.280   1.528   0.390  1.0020 -0.3784 -0.0796
 6868SOL     OW21061   1.976   6.321   6.305 -0.1279 -0.1207 -0.1528
 6868SOL    HW121062   1.931   6.298   6.224  0.7463  0.1288 -0.7313
 6868SOL    HW221063   1.913   6.303   6.374 -1.0551  0.0911 -0.9220
 6869SOL     OW21064   2.055   1.074   1.720 -0.2031  0.5489 -0.2680
 6869SOL    HW121065   2.070   1.163   1.689 -0.3351  0.3238 -1.0193
 6869SOL    HW221066   2.107   1.019   1.661 -0.6510  0.0841 -0.2442
 6870SOL     OW21067   4.609   5.675   0.771 -0.5161  0.6077 -0.2677
 6870SOL    HW121068   4.648   5.759   0.748 -0.7267  0.5399 -0.8985
 6870SOL    HW221069   4.514   5.691   0.767 -0.5627  0.6128  0.6540
 6871SOL     OW21070   5.363   5.547   2.725  0.3824  0.5760  0.0553
 6871SOL    HW121071   5.300   5.476   2.710 -1.2995  1.9144  0.3587
 6871SOL    HW221072   5.407   5.558   2.642  0.4532 -0.6133 -0.0842
 6872SOL     OW21073   0.715   4.871   2.909 -0.1424 -0.0600  0.1853
 6872SOL    HW121074   0.729   4.827   2.993 -0.3743 -2.0242 -0.7549
 6872SOL    HW221075   0.647   4.819   2.866  0.1050  0.8015 -1.3021
 6873SOL     OW21076   3.098   4.726   0.215  0.3385 -0.4020 -0.5638
 6873SOL    HW121077   3.184   4.768   0.224 -0.4649  1.5034 -1.1930
 6873SOL    HW221078   3.117   4.632   0.212  2.1794 -0.2050  1.6966
 6874SOL     OW21079   0.578   1.847   6.360  0.3621  0.0368 -0.5204
 6874SOL    HW121080   0.664   1.814   6.335  0.4616 -0.1672  0.0797
 6874SOL    HW221081   0.533   1.862   6.277  1.3455  1.1312 -0.8834
 6875SOL     OW21082   3.873   1.281   1.817  0.2725 -0.5336  0.5804
 6875SOL    HW121083   3.949   1.278   1.758  1.0153 -0.7412  1.5383
 6875SOL    HW221084   3.894   1.220   1.887 -1.8811 -2.5534 -0.3876
 6876SOL     OW21085   2.606   1.557   1.887  0.2926  0.4215 -0.2232
 6876SOL    HW121086   2.606   1.620   1.960 -0.1460  0.1345  0.0286
 6876SOL    HW221087   2.515   1.553   1.859  0.7163  1.9219 -2.0278
 6877SOL     OW21088   3.351   4.362   6.347  0.4887  0.0361 -0.5670
 6877SOL    HW121089   3.370   4.441   6.399 -0.0804 -1.2689  1.7405
 6877SOL    HW221090   3.301   4.306   6.406 -1.4506 -0.9810 -3.0486
 6878SOL     OW21091   5.671   3.344   4.964 -0.1644 -0.0872  0.1654
 6878SOL    HW121092   5.709   3.431   4.978 -1.1428  0.6367 -1.3589
 6878SOL    HW221093   5.738   3.297   4.914 -0.2850  0.3651 -0.4373
 6879SOL     OW21094   2.475   5.708   4.901  0.1974 -0.0039  0.3580
 6879SOL    HW121095   2.413   5.770   4.862 -0.6503 -1.0030  0.0575
 6879SOL    HW221096   2.546   5.701   4.837 -0.7968 -1.0351 -0.6673
 6880SOL     OW21097   6.016   4.833   0.823  0.4249  0.1213  0.2045
 6880SOL    HW121098   6.010   4.807   0.731 -3.2476 -1.7350  0.7829
 6880SOL    HW221099   5.996   4.752   0.872  0.3656  1.4644  2.5481
 6881SOL     OW21100   5.491   5.478   1.097  0.3728 -0.8772 -0.3994
 6881SOL    HW121101   5.459   5.477   1.187 -1.0306 -3.3798 -0.8305
 6881SOL    HW221102   5.546   5.399   1.091  2.3884  0.5168 -1.1325
 6882SOL     OW21103   2.207   2.963   6.305  0.0760 -0.0291  0.1588
 6882SOL    HW121104   2.220   3.058   6.300  1.0242 -0.2253 -1.7173
 6882SOL    HW221105   2.288   2.931   6.346  0.3980 -0.1508 -0.5616
 6883SOL     OW21106   5.142   1.388   1.398  0.0049 -0.2740  0.0117
 6883SOL    HW121107   5.232   1.419   1.386 -1.0491  2.5095 -1.6217
 6883SOL    HW221108   5.088   1.456   1.359 -2.8774 -1.6345  1.3430
 6884SOL     OW21109   4.950   5.336   3.178 -0.4433 -0.5056  0.1288
 6884SOL    HW121110   5.018   5.348   3.112 -2.6027  0.6340 -2.0383
 6884SOL    HW221111   4.969   5.251   3.217  1.4581 -0.7857 -1.2704
 6885SOL     OW21112   1.674   5.241   0.437  0.4987 -0.1918  0.2374
 6885SOL    HW121113   1.631   5.198   0.512 -0.1571 -0.4670 -0.2840
 6885SOL    HW221114   1.767   5.226   0.452  0.3121 -1.4973  0.2668
 6886SOL     OW21115   5.436   0.131   1.250  0.2148  0.1875  0.0820
 6886SOL    HW121116   5.379   0.055   1.237  0.0675  0.6937 -2.9782
 6886SOL    HW221117   5.386   0.189   1.307 -1.8396  0.0409 -1.4634
 6887SOL     OW21118   3.842   0.034   2.911  0.6958  0.8713 -0.2175
 6887SOL    HW121119   3.775   0.086   2.865 -0.8630 -1.2272 -0.4639
 6887SOL    HW221120   3.915   0.030   2.849  0.7020  2.3458 -0.3619
 6888SOL     OW21121   4.694   1.267   4.913 -0.0980 -0.7005  0.2427
 6888SOL    HW121122   4.691   1.235   4.823 -1.2474 -0.8727  0.3145
 6888SOL    HW221123   4.727   1.192   4.964 -1.6915 -1.4493  0.2540
 6889SOL     OW21124   5.143   3.837   1.818  0.6832  0.3403  0.3713
 6889SOL    HW121125   5.065   3.855   1.765  1.2541  1.9104  0.0201
 6889SOL    HW221126   5.197   3.915   1.809  1.0875  0.4225  2.7930
 6890SOL     OW21127   5.722   4.923   1.656 -0.3964 -0.3812 -0.0831
 6890SOL    HW121128   5.803   4.969   1.677 -1.6389  1.4941  0.8145
 6890SOL    HW221129   5.743   4.875   1.576  1.1860  1.2448 -0.7231
 6891SOL     OW21130   4.532   4.724   0.458 -0.5903  0.5766  0.3115
 6891SOL    HW121131   4.527   4.640   0.504  1.0938  0.5585  0.5360
 6891SOL    HW221132   4.446   4.763   0.471 -1.0910 -0.6847  1.0408
 6892SOL     OW21133   6.093   1.207   2.093 -0.1663  0.8420 -0.1824
 6892SOL    HW121134   6.156   1.198   2.164 -0.0850  3.3665  0.1550
 6892SOL    HW221135   6.141   1.256   2.025 -0.8080  0.0687 -1.2155
 6893SOL     OW21136   0.450   1.902   2.837 -0.5879  0.5200  0.1302
 6893SOL    HW121137   0.541   1.921   2.859 -0.7050  0.2252  0.9012
 6893SOL    HW221138   0.452   1.813   2.801 -0.8186 -0.2726  1.9854
 6894SOL     OW21139   1.678   2.611   5.205  0.2705  0.4112 -0.8808
 6894SOL    HW121140   1.673   2.556   5.284 -0.1210  0.7297 -0.6813
 6894SOL    HW221141   1.659   2.551   5.133 -1.4978  0.5377 -0.5602
 6895SOL     OW21142   2.817   4.372   6.381 -0.0298  0.0968 -0.4892
 6895SOL    HW121143   2.842   4.437   6.315 -1.1146  0.8859 -0.1408
 6895SOL    HW221144   2.744   4.411   6.427  0.8898 -0.3231  1.4170
 6896SOL     OW21145   3.534   3.973   0.184  0.0889 -0.0280  0.0004
 6896SOL    HW121146   3.528   4.038   0.114  0.4525  1.3812  1.2328
 6896SOL    HW221147   3.565   3.894   0.140  1.9481  1.2741 -1.1989
 6897SOL     OW21148   5.984   2.396   1.934  0.2868  0.3041  0.2364
 6897SOL    HW121149   6.007   2.485   1.962  1.3711  0.4054 -0.9048
 6897SOL    HW221150   5.917   2.409   1.867  0.5182  0.2633 -0.0018
 6898SOL     OW21151   5.444   4.254   0.797  0.3144  0.5332  0.4654
 6898SOL    HW121152   5.365   4.309   0.801 -0.4597 -0.6147  1.5378
 6898SOL    HW221153   5.443   4.218   0.708 -1.6425 -1.1907  1.0939
 6899SOL     OW21154   3.668   3.615   5.309  0.5794 -0.4132  0.4457
 6899SOL    HW121155   3.755   3.625   5.269  0.6679  0.3448  0.7987
 6899SOL    HW221156   3.672   3.670   5.387 -0.1264 -0.6022  0.6187
 6900SOL     OW21157   2.243   4.850   3.954 -0.2493  0.2941  0.2169
 6900SOL    HW121158   2.288   4.897   3.883 -0.8128  0.3578 -0.0986
 6900SOL    HW221159   2.247   4.758   3.927  1.2582  0.0754  1.0531
 6901SOL     OW21160   1.692   4.423   0.296  0.2577  0.4504  0.3243
 6901SOL    HW121161   1.733   4.406   0.382  0.1325  0.4208  0.3783
 6901SOL    HW221162   1.606   4.381   0.302  0.8414 -0.9029 -0.3634
 6902SOL     OW21163   4.441   2.696   4.827 -0.0823 -0.5969  0.7312
 6902SOL    HW121164   4.512   2.655   4.876  0.5132  0.3506  0.6840
 6902SOL    HW221165   4.477   2.711   4.739  0.0766  0.9150  1.0233
 6903SOL     OW21166   4.945   6.225   4.526  0.0711  0.2760  0.2175
 6903SOL    HW121167   4.876   6.170   4.490  0.9801 -1.3425  0.8500
 6903SOL    HW221168   4.925   6.232   4.619  1.3992 -1.2964  0.6705
 6904SOL     OW21169   6.334   2.763   4.462 -0.4481  0.2399  0.3593
 6904SOL    HW121170   6.302   2.736   4.376 -1.4484 -0.4786  0.9441
 6904SOL    HW221171   6.387   2.690   4.492 -0.8136  0.1187  0.7172
 6905SOL     OW21172   2.605   2.923   2.278 -0.1936  0.1131 -0.5032
 6905SOL    HW121173   2.700   2.910   2.282  0.2270  2.7529  0.3463
 6905SOL    HW221174   2.592   2.981   2.203 -1.1804 -0.3022 -0.6727
 6906SOL     OW21175   3.875   0.975   3.023 -0.0119 -0.6761  0.2860
 6906SOL    HW121176   3.915   0.921   3.092  1.1856  0.4676  0.5300
 6906SOL    HW221177   3.929   1.054   3.021 -1.1072  0.0684 -0.7671
 6907SOL     OW21178   5.689   5.034   6.008 -0.0979  0.1422 -0.4661
 6907SOL    HW121179   5.623   4.966   5.993 -0.7922  0.5457  0.6423
 6907SOL    HW221180   5.645   5.100   6.061  1.1416  0.5202  0.1461
 6908SOL     OW21181   4.928   5.968   5.405  0.5171 -0.0403  0.1050
 6908SOL    HW121182   4.848   5.995   5.360  0.0655 -0.7922  0.4498
 6908SOL    HW221183   4.998   5.996   5.347 -0.0294 -0.2689 -0.6790
 6909SOL     OW21184   1.147   2.827   3.222  0.3046  0.9414  0.1382
 6909SOL    HW121185   1.089   2.833   3.298  0.2039 -0.6373  0.2138
 6909SOL    HW221186   1.101   2.873   3.152 -0.6620  0.3941  0.4098
 6910SOL     OW21187   4.022   3.065   3.971 -0.1039 -0.0630  0.4686
 6910SOL    HW121188   3.987   2.981   3.998 -1.8841  0.6921  0.6409
 6910SOL    HW221189   3.949   3.126   3.980  0.3467  1.0129 -2.2057
 6911SOL     OW21190   5.405   4.743   3.139 -0.2302 -0.5804 -0.4511
 6911SOL    HW121191   5.424   4.810   3.073  0.3806  0.9204  1.1662
 6911SOL    HW221192   5.407   4.660   3.091 -1.1189  0.5489 -2.5485
 6912SOL     OW21193   2.422   0.021   0.743  0.2090 -0.3501 -0.1754
 6912SOL    HW121194   2.374   0.067   0.811  1.7865 -0.1950  0.9018
 6912SOL    HW221195   2.455  -0.058   0.786  0.1727 -0.8941 -1.1189
 6913SOL     OW21196   6.220   3.436   0.762  0.4434 -0.0455  0.1935
 6913SOL    HW121197   6.257   3.388   0.836 -1.5366 -0.7314  0.8101
 6913SOL    HW221198   6.228   3.375   0.689  0.2067 -0.3267  0.4007
 6914SOL     OW21199   3.303   3.562   1.974 -0.2369 -0.6142 -0.1365
 6914SOL    HW121200   3.398   3.563   1.987 -0.2481  2.5683  0.4871
 6914SOL    HW221201   3.268   3.608   2.050 -1.9170  1.5498 -2.0973
 6915SOL     OW21202   2.058   4.357   0.863 -0.4978 -0.7994 -0.1164
 6915SOL    HW121203   2.100   4.398   0.939 -1.3989 -2.1066  1.1243
 6915SOL    HW221204   2.101   4.272   0.854  1.3591  0.2473 -2.6877
 6916SOL     OW21205   5.436   5.716   0.301 -0.3719 -0.3707  0.2070
 6916SOL    HW121206   5.422   5.624   0.278 -1.8691 -0.0642 -0.2507
 6916SOL    HW221207   5.389   5.727   0.384 -1.5238  0.3147 -0.5093
 6917SOL     OW21208   2.363   0.399   3.065  0.1748  0.1373  0.2263
 6917SOL    HW121209   2.436   0.351   3.025 -1.1121 -0.6049 -1.3238
 6917SOL    HW221210   2.351   0.358   3.151  1.2632 -0.0266  0.3186
 6918SOL     OW21211   1.084   4.583   2.260 -0.3184 -0.3224  0.1817
 6918SOL    HW121212   1.134   4.648   2.310  0.2547  0.0725 -0.8683
 6918SOL    HW221213   1.097   4.501   2.307  3.4463 -0.7993 -1.3443
 6919SOL     OW21214   1.812   1.649   5.099  0.2314  0.1305  0.0668
 6919SOL    HW121215   1.722   1.645   5.131  0.2107  0.6777  0.0833
 6919SOL    HW221216   1.853   1.717   5.151  0.4571  0.3812 -0.4332
 6920SOL     OW21217   5.347   3.374   0.651 -0.0490  0.0989 -0.1062
 6920SOL    HW121218   5.434   3.342   0.677 -0.2517 -0.7311 -0.4076
 6920SOL    HW221219   5.296   3.295   0.635 -0.8252  0.5821 -0.0779
 6921SOL     OW21220   0.645   3.856   6.153 -0.3057  0.0581  0.1945
 6921SOL    HW121221   0.630   3.930   6.212  3.0103  1.7989 -0.8821
 6921SOL    HW221222   0.582   3.870   6.081  0.8656  2.4806 -0.4612
 6922SOL     OW21223   6.277   5.028   0.185 -0.2724  0.0089 -0.1127
 6922SOL    HW121224   6.350   4.989   0.136  0.9721 -1.5797  2.7881
 6922SOL    HW221225   6.305   5.118   0.201  0.2260 -0.0531 -0.5893
 6923SOL     OW21226   3.612   1.059   0.565  0.1341 -0.3383 -0.6642
 6923SOL    HW121227   3.694   1.025   0.529  0.9308 -0.3291  1.0502
 6923SOL    HW221228   3.588   0.996   0.634 -0.1428  0.7787  0.2854
 6924SOL     OW21229   5.586   2.392   5.946 -0.0022  0.4437  0.5575
 6924SOL    HW121230   5.653   2.459   5.955  0.6954 -0.3759  1.6639
 6924SOL    HW221231   5.505   2.441   5.929  0.9552  1.4140 -1.5493
 6925SOL     OW21232   0.149   1.047   1.273  0.0592  0.0991 -0.2864
 6925SOL    HW121233   0.213   1.042   1.202 -1.2397 -0.4285 -1.4644
 6925SOL    HW221234   0.178   1.121   1.327  1.9188 -0.4415 -0.4960
 6926SOL     OW21235   5.904   3.135   5.122 -0.3219  0.2868 -0.2725
 6926SOL    HW121236   5.881   3.177   5.039 -1.8317  1.1328  0.5372
 6926SOL    HW221237   5.924   3.045   5.098 -0.1530  0.6619 -1.6333
 6927SOL     OW21238   1.576   3.691   3.899 -0.4493 -0.1173 -0.6241
 6927SOL    HW121239   1.582   3.760   3.966  1.0724  0.6544 -1.5059
 6927SOL    HW221240   1.514   3.628   3.936  0.6425  0.0636  1.7332
 6928SOL     OW21241   3.534   6.017   5.733  0.1323 -0.3741 -0.0607
 6928SOL    HW121242   3.570   5.932   5.760  2.7221  1.0624  1.3636
 6928SOL    HW221243   3.459   6.030   5.792 -0.5068 -1.7634 -0.5159
 6929SOL     OW21244   6.285   0.266   5.168 -0.6521 -0.1912 -0.5969
 6929SOL    HW121245   6.309   0.349   5.208 -1.5268  0.6818 -1.8208
 6929SOL    HW221246   6.348   0.203   5.203 -0.5437  0.7835  1.0660
 6930SOL     OW21247   0.027   2.879   2.224  0.1054  0.5487 -0.0698
 6930SOL    HW121248  -0.007   2.962   2.258  1.7588  1.3031 -0.1765
 6930SOL    HW221249  -0.036   2.853   2.157 -1.1948  0.9678  0.9455
 6931SOL     OW21250   5.473   5.090   0.869 -0.4925 -0.0241  0.0723
 6931SOL    HW121251   5.421   5.123   0.942  0.8167 -0.7178  1.3678
 6931SOL    HW221252   5.463   4.994   0.874 -1.2020 -0.0602 -1.3168
 6932SOL     OW21253   6.208   1.332   3.958 -0.2746 -0.1201 -0.3202
 6932SOL    HW121254   6.136   1.269   3.957  0.7413 -1.3250 -1.7901
 6932SOL    HW221255   6.272   1.294   4.018 -0.9005  1.0741  1.1874
 6933SOL     OW21256   2.450   1.767   3.260  0.7607  0.0133  0.8340
 6933SOL    HW121257   2.508   1.748   3.333 -0.6495  0.1579  2.0267
 6933SOL    HW221258   2.393   1.837   3.291  0.2655  0.2330 -0.4794
 6934SOL     OW21259   4.649   3.356   4.067  0.0410  0.1553 -0.4587
 6934SOL    HW121260   4.657   3.317   4.154 -2.0355  0.1775 -0.2147
 6934SOL    HW221261   4.567   3.405   4.070 -0.2414 -0.1050 -2.5316
 6935SOL     OW21262   0.757   4.897   2.510 -0.0811  0.2097  0.3405
 6935SOL    HW121263   0.847   4.880   2.482 -0.3320 -1.4046  0.4385
 6935SOL    HW221264   0.719   4.810   2.522 -1.4775  0.8743  0.8851
 6936SOL     OW21265   0.124   0.441   4.416  0.0015  0.2000 -0.1163
 6936SOL    HW121266   0.167   0.370   4.463 -1.0772  0.4866  1.3987
 6936SOL    HW221267   0.062   0.398   4.357 -0.4414 -0.1319  0.5866
 6937SOL     OW21268   3.799   6.265   1.254 -0.2211 -0.3803 -0.3441
 6937SOL    HW121269   3.806   6.199   1.323 -0.1535 -0.1881 -0.1658
 6937SOL    HW221270   3.866   6.240   1.190 -2.1098 -2.2216 -1.7703
 6938SOL     OW21271   6.160   6.298   5.303  0.0106  0.2303  0.7632
 6938SOL    HW121272   6.119   6.270   5.386  0.2824  0.6224  1.0318
 6938SOL    HW221273   6.095   6.356   5.263  0.4814  1.2173  1.4072
 6939SOL     OW21274   5.606   3.421   4.441 -0.1795  0.0868 -0.0482
 6939SOL    HW121275   5.527   3.463   4.474 -0.3817  0.2016 -0.6598
 6939SOL    HW221276   5.606   3.441   4.347  0.1756 -0.5479 -0.1878
 6940SOL     OW21277   4.599   2.807   0.328  0.4395  0.4806 -0.0680
 6940SOL    HW121278   4.685   2.835   0.295  1.1937 -2.3563 -0.7274
 6940SOL    HW221279   4.562   2.754   0.257 -0.1876 -1.4378  1.6001
 6941SOL     OW21280   1.394   3.910   2.985  0.1576 -0.0551 -0.1095
 6941SOL    HW121281   1.305   3.885   2.960 -0.3015  2.4405 -1.2597
 6941SOL    HW221282   1.441   3.918   2.902 -0.2159  4.1739 -0.1464
 6942SOL     OW21283   3.684   5.682   1.176  0.1202  0.0122 -0.0761
 6942SOL    HW121284   3.636   5.761   1.150  0.0574  0.1939  0.5605
 6942SOL    HW221285   3.670   5.620   1.105 -0.4047  0.3410 -0.2608
 6943SOL     OW21286   2.050   5.939   6.228 -0.5667 -0.1757  0.2744
 6943SOL    HW121287   2.073   5.992   6.304  0.8074 -0.6020  0.1779
 6943SOL    HW221288   1.981   5.989   6.184 -1.8024 -0.1849  2.0814
 6944SOL     OW21289   4.096   2.653   2.136  0.0622 -0.2397 -0.0299
 6944SOL    HW121290   4.085   2.677   2.228 -0.1983 -0.0921 -0.0954
 6944SOL    HW221291   4.046   2.572   2.126 -0.0428 -0.1698 -0.0760
 6945SOL     OW21292   3.361   1.455   2.903  0.1417 -0.5172  0.2091
 6945SOL    HW121293   3.278   1.487   2.939  0.5715 -0.0115  0.7760
 6945SOL    HW221294   3.422   1.527   2.918  0.6371 -0.8034 -0.4001
 6946SOL     OW21295   3.416   3.245   4.012 -0.3326  0.1482  0.1967
 6946SOL    HW121296   3.442   3.168   3.961  1.3168  1.1338 -0.5380
 6946SOL    HW221297   3.457   3.231   4.098  2.8462  1.6380 -0.9183
 6947SOL     OW21298   4.321   5.220   5.561 -0.3185  0.3380 -0.3653
 6947SOL    HW121299   4.306   5.290   5.497  0.2267  0.5279 -0.2900
 6947SOL    HW221300   4.394   5.170   5.525 -0.6985 -0.1941 -0.4136
 6948SOL     OW21301   2.897   2.550   6.206 -0.6322 -0.2566 -0.2453
 6948SOL    HW121302   2.802   2.541   6.201 -0.7298 -0.5964  1.4278
 6948SOL    HW221303   2.922   2.499   6.283  0.7340  0.9926  0.1975
 6949SOL     OW21304   4.137   0.733   0.582  0.1673 -0.4273 -0.2292
 6949SOL    HW121305   4.082   0.801   0.621  1.0021  0.2199 -0.1684
 6949SOL    HW221306   4.082   0.654   0.584  0.3852 -0.6561  3.0125
 6950SOL     OW21307   3.074   2.240   3.667  0.6579 -0.3994 -0.1443
 6950SOL    HW121308   3.113   2.248   3.580 -2.2153 -0.3140 -1.5409
 6950SOL    HW221309   3.003   2.176   3.655  1.1965 -1.6234  2.5610
 6951SOL     OW21310   4.383   3.335   0.777  0.4726  0.1075 -0.8623
 6951SOL    HW121311   4.433   3.281   0.716  2.0069 -0.8388  1.1331
 6951SOL    HW221312   4.434   3.416   0.784  1.0106 -0.3051  0.1210
 6952SOL     OW21313   5.904   2.142   1.170 -0.2339  0.2884  0.6473
 6952SOL    HW121314   5.844   2.216   1.161  0.0965  0.4974  0.1382
 6952SOL    HW221315   5.933   2.146   1.261 -2.0228 -0.6242  1.3213
 6953SOL     OW21316   3.116   4.604   5.747 -0.1708  0.0496  0.0784
 6953SOL    HW121317   3.034   4.622   5.702  0.1114 -0.3496 -0.6040
 6953SOL    HW221318   3.167   4.553   5.685  0.3338 -0.2745  0.7437
 6954SOL     OW21319   5.183   0.990   5.561  0.1815  0.2909  0.1762
 6954SOL    HW121320   5.144   1.061   5.611  1.8553  0.3196  1.5208
 6954SOL    HW221321   5.208   1.030   5.478  1.4557  1.4284  1.0576
 6955SOL     OW21322   5.428   0.499   1.529 -0.3783 -0.1993  0.1573
 6955SOL    HW121323   5.469   0.585   1.522 -0.9962  0.0151 -1.2170
 6955SOL    HW221324   5.398   0.480   1.440 -1.9834 -0.9724  0.8270
 6956SOL     OW21325   4.361   5.127   0.786 -0.2113 -0.1971  0.2680
 6956SOL    HW121326   4.291   5.108   0.848 -1.0545  0.5298 -0.4262
 6956SOL    HW221327   4.319   5.120   0.700  0.2131  1.5183 -0.1219
 6957SOL     OW21328   3.783   1.805   2.920  0.2000 -0.3977  0.7537
 6957SOL    HW121329   3.792   1.857   3.000 -0.5475  0.0321  0.5690
 6957SOL    HW221330   3.820   1.720   2.942  1.2351  0.1349  1.1311
 6958SOL     OW21331   0.813   0.693   0.138 -0.2269  0.3141  0.0253
 6958SOL    HW121332   0.816   0.682   0.043 -0.4100 -0.8925  0.1401
 6958SOL    HW221333   0.887   0.750   0.158 -1.2079  2.0496 -0.9958
 6959SOL     OW21334   0.155   6.324   5.065 -0.6923  0.0415 -0.5671
 6959SOL    HW121335   0.247   6.314   5.042 -0.4714 -0.6427  0.5161
 6959SOL    HW221336   0.108   6.319   4.982  0.2376  0.3938 -1.1291
 6960SOL     OW21337   1.688   2.858   4.499 -0.2849 -0.4181 -0.3870
 6960SOL    HW121338   1.695   2.873   4.593 -1.1119  1.4488 -0.5987
 6960SOL    HW221339   1.634   2.930   4.466 -2.3602 -2.5109 -1.9084
 6961SOL     OW21340   2.330   1.639   5.242 -0.0761  0.1343  0.0761
 6961SOL    HW121341   2.332   1.718   5.297  0.0912  0.9932 -1.1209
 6961SOL    HW221342   2.248   1.596   5.266  0.4452 -0.0285  1.6740
 6962SOL     OW21343   4.979   5.236   3.760  0.2244  0.2918  0.6326
 6962SOL    HW121344   4.909   5.187   3.802  0.1818 -0.0219  0.1994
 6962SOL    HW221345   5.054   5.227   3.819 -0.0007  0.3502  0.9299
 6963SOL     OW21346   4.303   1.847   2.751  0.6949  0.0933 -0.7618
 6963SOL    HW121347   4.288   1.820   2.660 -0.2218  2.8246 -1.5342
 6963SOL    HW221348   4.246   1.923   2.762 -0.4901 -1.0969  2.6760
 6964SOL     OW21349   1.184   5.747   3.107 -0.3427 -0.1952  0.2208
 6964SOL    HW121350   1.109   5.709   3.062 -0.5129 -1.5315  1.5239
 6964SOL    HW221351   1.256   5.686   3.091  0.3037  0.7013 -0.4192
 6965SOL     OW21352   3.884   4.984   4.285  0.0147  0.5653  0.2014
 6965SOL    HW121353   3.845   4.972   4.371  0.1277 -1.2160  0.0428
 6965SOL    HW221354   3.880   4.898   4.244  1.3756  1.0129 -0.9847
 6966SOL     OW21355   3.553   5.399   6.205  0.0547  0.2400  0.3171
 6966SOL    HW121356   3.527   5.450   6.129 -0.1837  2.3316  1.7093
 6966SOL    HW221357   3.546   5.307   6.177 -0.4101  0.9355 -2.0055
 6967SOL     OW21358   1.004   2.660   1.881 -0.2494 -0.2035 -0.9051
 6967SOL    HW121359   1.097   2.678   1.870 -0.0666 -0.9564 -0.7083
 6967SOL    HW221360   0.961   2.743   1.865  0.6780  1.0047  2.1483
 6968SOL     OW21361   5.468   4.748   0.830  1.2679 -0.4162  0.7286
 6968SOL    HW121362   5.462   4.791   0.745  0.3195  0.9681  1.4605
 6968SOL    HW221363   5.560   4.723   0.838  1.1656 -1.6354 -1.1686
 6969SOL     OW21364   2.161   1.640   2.787  0.3700  0.5272 -0.7556
 6969SOL    HW121365   2.147   1.723   2.742  1.6334  1.1364 -0.0877
 6969SOL    HW221366   2.248   1.649   2.827 -0.0371 -0.6051  0.4512
 6970SOL     OW21367   2.534   1.054   1.694  0.3508 -0.0713  0.1680
 6970SOL    HW121368   2.499   1.003   1.767  0.4828 -1.3443 -0.6188
 6970SOL    HW221369   2.497   1.012   1.616  0.8515  0.7497 -0.5229
 6971SOL     OW21370   5.407   4.715   2.007 -0.0705  0.5261  0.5662
 6971SOL    HW121371   5.431   4.624   1.989  0.0215  0.7349 -0.4318
 6971SOL    HW221372   5.334   4.733   1.947  0.7520  1.4873 -0.1866
 6972SOL     OW21373   0.418   0.307   4.510  0.1614 -0.2448 -0.6781
 6972SOL    HW121374   0.444   0.391   4.547 -1.4197 -0.4867  1.1058
 6972SOL    HW221375   0.351   0.273   4.570 -0.5288 -1.9604 -2.3057
 6973SOL     OW21376   0.342   2.681   4.783 -0.0563 -0.0644  0.4592
 6973SOL    HW121377   0.392   2.722   4.853  0.6500 -1.8210  1.0439
 6973SOL    HW221378   0.250   2.691   4.809  0.0435  1.6532  0.2500
 6974SOL     OW21379   0.985   3.744   2.537 -0.0150 -0.5595 -0.3177
 6974SOL    HW121380   0.936   3.779   2.462  1.3500  0.4050 -0.8033
 6974SOL    HW221381   1.073   3.730   2.503  0.5201 -0.5082  1.0061
 6975SOL     OW21382   4.227   5.117   5.262  0.3649 -0.7788 -0.0443
 6975SOL    HW121383   4.187   5.101   5.347  0.0143  0.0328 -0.0438
 6975SOL    HW221384   4.184   5.196   5.230  2.5680  0.6431  0.3229
 6976SOL     OW21385   6.028   0.101   2.471  0.5891  0.1792 -0.2765
 6976SOL    HW121386   5.938   0.093   2.440 -0.0385  2.2510  0.8211
 6976SOL    HW221387   6.064   0.013   2.465 -1.5921 -0.7399 -0.4852
 6977SOL     OW21388   4.005   3.481   3.428 -0.4033  0.2763 -0.4817
 6977SOL    HW121389   4.039   3.477   3.517 -2.2044  0.2125  0.2339
 6977SOL    HW221390   3.914   3.508   3.437 -0.6903  0.0947 -2.2919
 6978SOL     OW21391   4.030   2.367   4.087 -0.0794 -0.3596  0.4445
 6978SOL    HW121392   3.975   2.444   4.077  1.0092  0.1792 -2.4042
 6978SOL    HW221393   3.969   2.293   4.089 -1.0237  0.4241  1.0235
 6979SOL     OW21394   6.308   1.674   0.251  0.3123  0.1114  0.4056
 6979SOL    HW121395   6.290   1.645   0.161 -2.3163 -0.7985  1.1197
 6979SOL    HW221396   6.350   1.599   0.293 -0.0509 -0.1160  0.3710
 6980SOL     OW21397   4.597   2.075   1.105 -0.5277 -0.0473  0.1092
 6980SOL    HW121398   4.542   1.999   1.088 -2.6129  1.4351 -0.1410
 6980SOL    HW221399   4.620   2.068   1.198 -2.1277 -0.1428  0.5331
 6981SOL     OW21400   2.867   5.214   3.935 -0.2132 -0.3166 -0.3230
 6981SOL    HW121401   2.837   5.303   3.950 -1.5394 -0.5481 -1.3874
 6981SOL    HW221402   2.831   5.163   4.007 -1.9871 -0.4879 -1.2857
 6982SOL     OW21403   1.137   2.029   4.787  0.0715  0.0058  0.6385
 6982SOL    HW121404   1.177   2.094   4.730  1.1200 -0.2643  1.0485
 6982SOL    HW221405   1.043   2.035   4.769  0.3029  0.5885 -0.4020
 6983SOL     OW21406   2.308   1.428   6.278  0.4322  0.0529  0.1004
 6983SOL    HW121407   2.345   1.404   6.193  1.2528  0.5549  0.2984
 6983SOL    HW221408   2.231   1.480   6.257  2.1124  2.5102 -0.4196
 6984SOL     OW21409   3.251   2.814   0.568  0.0563  0.6097  0.6697
 6984SOL    HW121410   3.272   2.731   0.610 -2.4340  0.5433  2.0213
 6984SOL    HW221411   3.330   2.867   0.576  1.2049 -1.1169  1.0927
 6985SOL     OW21412   4.172   6.080   3.629 -0.2363  0.1269 -0.2960
 6985SOL    HW121413   4.133   6.041   3.707  2.3853 -2.0262  0.0604
 6985SOL    HW221414   4.104   6.070   3.562 -1.1629 -1.4520  0.8081
 6986SOL     OW21415   0.588   1.580   4.426  0.3586 -0.0752  0.2134
 6986SOL    HW121416   0.599   1.611   4.516  0.1347  1.3904 -0.2344
 6986SOL    HW221417   0.617   1.654   4.372 -3.2259  0.6504 -0.9596
 6987SOL     OW21418   4.192   5.944   2.864  0.5083  0.2591 -0.1094
 6987SOL    HW121419   4.096   5.953   2.864  0.4350 -0.4331 -0.1694
 6987SOL    HW221420   4.208   5.864   2.915  1.0815  0.6050  0.2615
 6988SOL     OW21421   5.568   3.738   5.206  0.4086 -0.1684  0.5357
 6988SOL    HW121422   5.528   3.652   5.212  0.3912 -0.2363 -0.4560
 6988SOL    HW221423   5.507   3.797   5.251 -0.5269 -0.3629 -0.4558
 6989SOL     OW21424   4.394   5.832   0.444 -0.3298  0.4285 -0.6621
 6989SOL    HW121425   4.375   5.813   0.353 -2.0626  1.1339 -0.4769
 6989SOL    HW221426   4.311   5.861   0.481  0.2268 -0.2180  1.2464
 6990SOL     OW21427   5.538   4.359   3.400 -0.1149  0.0661 -0.2595
 6990SOL    HW121428   5.448   4.390   3.396 -0.9330 -2.2625 -2.6029
 6990SOL    HW221429   5.536   4.287   3.463  0.0927 -0.0598 -0.3964
 6991SOL     OW21430   4.375   4.378   1.641  0.0322 -0.0737 -0.8295
 6991SOL    HW121431   4.333   4.295   1.664  0.5447 -0.2835 -0.6281
 6991SOL    HW221432   4.346   4.396   1.552 -1.1880  0.2396 -0.3824
 6992SOL     OW21433   5.822   1.999   1.955  0.2217  0.0037 -0.3177
 6992SOL    HW121434   5.827   2.041   1.869 -0.1077  0.0569 -0.3127
 6992SOL    HW221435   5.735   1.959   1.957  0.0893  0.3090  0.1313
 6993SOL     OW21436   5.854   2.517   3.705 -0.2047  0.4278  0.2851
 6993SOL    HW121437   5.768   2.482   3.731 -0.1180 -0.1255 -0.1430
 6993SOL    HW221438   5.915   2.447   3.727  0.1090  0.7126  0.3286
 6994SOL     OW21439   0.681   2.661   1.853  0.3964 -0.1901 -0.6320
 6994SOL    HW121440   0.771   2.654   1.887  1.0057 -0.6085 -2.2411
 6994SOL    HW221441   0.647   2.572   1.858 -0.8516  0.3129  2.1718
 6995SOL     OW21442   5.523   6.035   6.266 -0.0274 -0.1274 -0.4182
 6995SOL    HW121443   5.477   6.004   6.344 -0.5167  0.4797 -0.4588
 6995SOL    HW221444   5.609   6.062   6.297 -0.0739 -0.2742 -0.1598
 6996SOL     OW21445   1.310   3.431   3.876 -0.0142  0.0984  0.0551
 6996SOL    HW121446   1.344   3.430   3.965 -1.4333 -0.1518  0.6220
 6996SOL    HW221447   1.355   3.359   3.832  0.2600 -0.1563  0.7469
 6997SOL     OW21448   1.023   1.477   6.114 -0.2744  0.3301 -0.7857
 6997SOL    HW121449   0.979   1.525   6.044 -0.3520 -1.3642 -1.9798
 6997SOL    HW221450   1.107   1.451   6.075  0.1048  0.1894  0.1034
 6998SOL     OW21451   0.996   1.685   1.800 -0.2611 -0.5788 -0.2566
 6998SOL    HW121452   0.951   1.762   1.835 -0.4699 -0.8068 -0.0132
 6998SOL    HW221453   1.070   1.720   1.751  0.0821 -0.2488  0.4801
 6999SOL     OW21454   0.162   3.381   2.286 -0.0887  1.0094  0.2776
 6999SOL    HW121455   0.087   3.350   2.337 -0.7813  2.7763  0.3777
 6999SOL    HW221456   0.237   3.368   2.344  0.0422 -2.4327 -0.4607
 7000SOL     OW21457   1.886   1.071   0.545 -0.0256 -0.1310  0.6426
 7000SOL    HW121458   1.957   1.134   0.559  0.0331 -0.0011 -0.2147
 7000SOL    HW221459   1.912   0.994   0.595  0.5971  0.0109  0.5409
 7001SOL     OW21460   0.341   5.139   4.034 -0.2926 -0.1843  0.0147
 7001SOL    HW121461   0.417   5.091   4.001 -1.5740 -1.7835 -0.7682
 7001SOL    HW221462   0.321   5.098   4.118 -0.2589  0.2679  0.2446
 7002SOL     OW21463   0.022   2.272   0.128 -0.8513  0.0655 -0.2192
 7002SOL    HW121464  -0.038   2.345   0.113 -1.1375  0.1106  0.9850
 7002SOL    HW221465  -0.036   2.196   0.136 -0.5634 -0.2931 -1.3618
 7003SOL     OW21466   3.128   0.611   4.892 -0.7320  0.6648 -0.1382
 7003SOL    HW121467   3.158   0.584   4.978 -2.2278 -0.4811  0.0624
 7003SOL    HW221468   3.195   0.672   4.861  0.8015 -0.3671  1.0132
 7004SOL     OW21469   6.047   4.799   6.089  0.2506 -0.1394 -0.1560
 7004SOL    HW121470   5.979   4.737   6.065  0.2569 -0.5202  0.7427
 7004SOL    HW221471   6.098   4.754   6.157 -0.5626  1.3247  1.5288
 7005SOL     OW21472   2.816   2.548   4.383  0.0826  0.1528  0.3793
 7005SOL    HW121473   2.911   2.542   4.389  0.1172  0.1505 -0.1140
 7005SOL    HW221474   2.791   2.480   4.320 -0.2026  0.4216  0.1961
 7006SOL     OW21475   4.603   0.007   1.129 -0.2811  0.0611 -0.0569
 7006SOL    HW121476   4.659  -0.027   1.199 -0.5389  0.4358  0.3428
 7006SOL    HW221477   4.655  -0.002   1.049  0.1790  0.0091  0.2446
 7007SOL     OW21478   5.955   0.151   4.601  0.1019  0.4627 -0.5827
 7007SOL    HW121479   5.996   0.065   4.614  0.1372  0.5888  0.1723
 7007SOL    HW221480   6.014   0.212   4.646 -1.7738  0.4551  2.0550
 7008SOL     OW21481   3.471   1.321   1.030 -0.2158 -0.1076 -0.1552
 7008SOL    HW121482   3.450   1.272   0.950 -2.2531  0.1065  0.1973
 7008SOL    HW221483   3.435   1.268   1.101 -1.1909  1.1714  0.3468
 7009SOL     OW21484   2.237   2.873   3.479 -0.1700 -0.0366 -0.2602
 7009SOL    HW121485   2.316   2.898   3.528  0.3495 -0.9139 -0.6310
 7009SOL    HW221486   2.174   2.848   3.547 -0.1501  0.7004  0.0394
 7010SOL     OW21487   3.401   2.341   4.682  0.1516 -0.3461  0.9713
 7010SOL    HW121488   3.462   2.395   4.632  1.1069  0.2557  2.6788
 7010SOL    HW221489   3.431   2.251   4.667  0.5740 -0.1578  0.6634
 7011SOL     OW21490   1.784   5.259   5.966 -0.2778  0.6799  0.2741
 7011SOL    HW121491   1.702   5.309   5.968 -0.8295 -0.2144  2.0316
 7011SOL    HW221492   1.775   5.194   6.036  0.2516 -2.1950 -2.1186
 7012SOL     OW21493   1.885   4.099   4.672 -0.4047 -0.6053 -0.6085
 7012SOL    HW121494   1.970   4.141   4.660 -0.1835 -0.7842  0.3011
 7012SOL    HW221495   1.873   4.046   4.593  0.7088 -1.2372 -0.3657
 7013SOL     OW21496   4.481   0.132   4.835  0.3846 -0.4925 -0.4241
 7013SOL    HW121497   4.485   0.115   4.741 -1.7033  1.6873 -1.0024
 7013SOL    HW221498   4.388   0.123   4.857  0.1118  3.1197  0.4840
 7014SOL     OW21499   3.012   0.926   3.762  0.6502 -0.1428 -0.2245
 7014SOL    HW121500   3.048   0.936   3.850 -0.7130  2.2121  0.1523
 7014SOL    HW221501   2.941   0.862   3.772  1.0881 -0.5727  0.1785
 7015SOL     OW21502   1.049   1.859   0.139 -0.0688  0.5784 -0.3497
 7015SOL    HW121503   1.107   1.820   0.205 -0.8861 -0.7647 -0.3736
 7015SOL    HW221504   0.965   1.813   0.151 -0.7708  1.6265 -1.1013
 7016SOL     OW21505   1.495   0.054   2.995 -0.3138 -0.1925 -0.1702
 7016SOL    HW121506   1.526   0.001   3.069  1.8927 -0.2120 -1.0348
 7016SOL    HW221507   1.399   0.053   3.004 -0.1397  0.3295  3.0145
 7017SOL     OW21508   5.340   6.382   5.707 -0.9659 -0.3040 -0.7278
 7017SOL    HW121509   5.255   6.423   5.691 -1.7647 -1.6623 -0.1263
 7017SOL    HW221510   5.334   6.296   5.665 -0.0613 -0.5974 -0.2962
 7018SOL     OW21511   1.559   0.429   0.975 -0.2661  0.1773  0.1880
 7018SOL    HW121512   1.580   0.336   0.968 -0.7282 -0.0468  1.5313
 7018SOL    HW221513   1.578   0.452   1.066  2.1447  2.0178 -0.6593
 7019SOL     OW21514   5.525   3.435   0.056  0.2996  0.1307 -0.1576
 7019SOL    HW121515   5.448   3.379   0.049  0.7059 -0.7614  1.6700
 7019SOL    HW221516   5.565   3.434  -0.031 -1.5153  0.3020 -1.0312
 7020SOL     OW21517   5.472   3.359   3.216  0.3294 -0.7034  0.1919
 7020SOL    HW121518   5.425   3.282   3.183  2.7601 -1.4469 -1.8664
 7020SOL    HW221519   5.451   3.428   3.154  0.8933 -0.6607  0.0515
 7021SOL     OW21520   2.201   4.655   0.418  0.2237 -0.2646 -0.1910
 7021SOL    HW121521   2.198   4.741   0.375 -1.8805 -1.0286 -1.7601
 7021SOL    HW221522   2.254   4.601   0.358 -1.2184 -0.8688 -0.9669
 7022SOL     OW21523   3.075   0.562   0.261 -0.4586  0.7626 -0.1635
 7022SOL    HW121524   3.047   0.590   0.174 -1.2632 -0.3655 -0.2858
 7022SOL    HW221525   3.148   0.621   0.283  0.5230  0.3262 -2.0802
 7023SOL     OW21526   3.574   2.041   0.448  0.5325 -0.5834  0.0196
 7023SOL    HW121527   3.537   2.128   0.431 -0.1827 -0.6569  1.1068
 7023SOL    HW221528   3.502   1.981   0.432  1.1116 -1.0166 -1.0211
 7024SOL     OW21529   3.543   0.641   1.481 -0.3104 -0.4632  0.2402
 7024SOL    HW121530   3.610   0.616   1.545  1.4474 -2.0060 -2.0479
 7024SOL    HW221531   3.465   0.660   1.534  1.6070  0.4232  2.9388
 7025SOL     OW21532   5.950   5.623   4.447 -0.4539  0.0608 -0.5315
 7025SOL    HW121533   5.877   5.677   4.417 -1.0381  1.9854  3.6503
 7025SOL    HW221534   6.028   5.665   4.410 -1.1256  1.8497 -0.0135
 7026SOL     OW21535   6.053   2.431   2.332  0.0489 -0.3669 -0.3001
 7026SOL    HW121536   6.011   2.478   2.404  1.1670  1.0617 -0.5132
 7026SOL    HW221537   6.068   2.343   2.365  1.6557  0.5806  1.7391
 7027SOL     OW21538   4.033   6.032   3.854 -0.3753  0.4882 -0.8045
 7027SOL    HW121539   4.023   6.070   3.941 -2.1040  0.3006 -0.8688
 7027SOL    HW221540   3.970   6.080   3.800  1.1460  1.0560 -2.1294
 7028SOL     OW21541   3.727   3.774   2.183  0.5080  0.2481  0.2631
 7028SOL    HW121542   3.644   3.776   2.232 -0.2848  2.5062 -1.0165
 7028SOL    HW221543   3.789   3.821   2.239 -0.4728  3.0941 -0.8193
 7029SOL     OW21544   0.126   6.086   5.268  0.4112  0.0603 -0.0615
 7029SOL    HW121545   0.041   6.130   5.273  0.2282 -0.1295 -1.1189
 7029SOL    HW221546   0.170   6.130   5.195 -0.4187 -2.4956 -2.2738
 7030SOL     OW21547   5.522   4.884   1.206  0.3137  0.5807 -0.1977
 7030SOL    HW121548   5.588   4.816   1.210  2.1642  1.9726 -3.5639
 7030SOL    HW221549   5.449   4.844   1.159  0.6555  0.3583 -0.5478
 7031SOL     OW21550   3.022   4.787   5.160 -0.0716  0.0948  0.2181
 7031SOL    HW121551   3.066   4.863   5.197  0.7574 -0.6854  0.8928
 7031SOL    HW221552   2.929   4.804   5.173  0.1179  0.8236  0.6942
 7032SOL     OW21553   2.329   3.018   5.308  0.2453 -0.2791 -0.0374
 7032SOL    HW121554   2.298   3.051   5.224 -0.2629  0.1885  0.3259
 7032SOL    HW221555   2.332   2.923   5.296  1.1920 -0.1519 -0.9097
 7033SOL     OW21556   2.589   0.261   3.020  0.5990 -0.2283 -0.1097
 7033SOL    HW121557   2.654   0.330   3.003 -1.4371  1.7126 -0.4609
 7033SOL    HW221558   2.622   0.217   3.098  0.7637  2.8480  1.7490
 7034SOL     OW21559   2.031   2.800   0.779 -0.0749  0.1513 -0.1158
 7034SOL    HW121560   1.994   2.819   0.693  1.9527 -0.6407 -1.2221
 7034SOL    HW221561   2.109   2.747   0.761  0.5959  0.2330  2.1881
 7035SOL     OW21562   0.267   5.022   3.344 -0.1171 -0.2810  0.2123
 7035SOL    HW121563   0.293   4.936   3.311  1.0875  0.3454 -0.5374
 7035SOL    HW221564   0.241   5.071   3.266  0.4709  0.4547  0.4641
 7036SOL     OW21565   5.799   1.114   1.378 -0.0723  0.0261 -0.1125
 7036SOL    HW121566   5.709   1.145   1.390 -0.2746 -0.8453  0.7561
 7036SOL    HW221567   5.821   1.072   1.462  0.6470 -1.0072 -0.7939
 7037SOL     OW21568   0.616   4.295   4.707 -0.0413 -0.1428  0.0219
 7037SOL    HW121569   0.567   4.272   4.786 -1.9050  2.1899 -0.3125
 7037SOL    HW221570   0.671   4.368   4.733  0.3009 -0.1928 -0.5417
 7038SOL     OW21571   4.011   3.513   0.551 -0.2343  0.3493  0.1498
 7038SOL    HW121572   4.072   3.480   0.616 -2.5422  0.0315  2.2831
 7038SOL    HW221573   4.013   3.609   0.562  0.9759  0.4757 -0.9006
 7039SOL     OW21574   2.887   3.007   5.873  0.4495 -0.2072  0.1544
 7039SOL    HW121575   2.804   2.969   5.902  0.4361 -1.2503 -1.1658
 7039SOL    HW221576   2.951   2.973   5.935 -0.0043  0.1386  0.8342
 7040SOL     OW21577   3.650   1.072   2.064 -0.2895 -0.5165 -0.3732
 7040SOL    HW121578   3.615   1.161   2.065 -2.0461 -1.1276  1.7053
 7040SOL    HW221579   3.580   1.020   2.025  0.6778 -1.0454 -1.4702
 7041SOL     OW21580   4.252   5.676   1.288 -0.5958  0.5473  0.2294
 7041SOL    HW121581   4.196   5.602   1.311  0.7880 -1.2737 -1.8302
 7041SOL    HW221582   4.335   5.659   1.334 -0.3207  0.9098 -0.1201
 7042SOL     OW21583   1.615   2.481   3.918 -0.8456  0.1369 -0.2827
 7042SOL    HW121584   1.623   2.473   4.013  0.2431  0.8686 -0.2839
 7042SOL    HW221585   1.661   2.404   3.884  1.2975  1.2930 -0.2082
 7043SOL     OW21586   2.490   5.166   3.203  0.5406  0.1855 -0.1129
 7043SOL    HW121587   2.396   5.184   3.201  0.2334 -1.2428 -1.9555
 7043SOL    HW221588   2.532   5.252   3.211 -0.9030  0.9614 -0.5778
 7044SOL     OW21589   5.815   0.545   6.327 -0.1212  0.0257 -0.4065
 7044SOL    HW121590   5.724   0.516   6.317 -0.1527  0.4311 -1.3856
 7044SOL    HW221591   5.864   0.464   6.342 -0.6562 -0.1761  0.3626
 7045SOL     OW21592   4.629   6.178   1.504 -0.8143  0.1903 -0.2403
 7045SOL    HW121593   4.640   6.203   1.596  0.2800  0.4509 -0.4362
 7045SOL    HW221594   4.561   6.110   1.506  1.2002 -1.9118  1.1179
 7046SOL     OW21595   5.529   2.390   3.646 -0.2833  0.5471  0.7655
 7046SOL    HW121596   5.549   2.412   3.737 -0.3781  0.0407  0.9094
 7046SOL    HW221597   5.439   2.357   3.648  0.3393 -1.2682  0.8079
 7047SOL     OW21598   0.475   4.872   0.673  0.4743 -0.3675 -0.5046
 7047SOL    HW121599   0.560   4.903   0.643  0.1768 -0.9041 -1.9616
 7047SOL    HW221600   0.413   4.900   0.605 -0.8017  1.3923  1.2547
 7048SOL     OW21601   2.171   3.365   5.796  0.0673 -0.2129  0.1011
 7048SOL    HW121602   2.119   3.285   5.801 -0.9822  0.4584  5.2066
 7048SOL    HW221603   2.259   3.334   5.773 -0.5231 -2.7214  0.8599
 7049SOL     OW21604   1.556   5.785   4.901 -0.3894 -0.3281 -0.9213
 7049SOL    HW121605   1.554   5.873   4.937 -0.8448  0.1030 -1.9668
 7049SOL    HW221606   1.622   5.788   4.832  0.3960 -1.1163 -0.2419
 7050SOL     OW21607   4.823   1.735   5.704  0.4547 -0.2415  0.3146
 7050SOL    HW121608   4.857   1.780   5.627  2.6531  0.9876  1.8755
 7050SOL    HW221609   4.889   1.670   5.725  0.4155  0.1389  1.7114
 7051SOL     OW21610   1.561   5.285   2.069 -0.2648  0.3264  0.8185
 7051SOL    HW121611   1.576   5.234   1.989 -1.4284  2.4763 -0.8575
 7051SOL    HW221612   1.499   5.352   2.043 -1.8442  0.2230  3.9623
 7052SOL     OW21613   0.427   2.808   1.699 -0.0253 -0.5373  0.0068
 7052SOL    HW121614   0.376   2.801   1.780 -2.2084  0.6620 -1.1566
 7052SOL    HW221615   0.398   2.733   1.646 -0.2757 -0.1007 -0.4867
 7053SOL     OW21616   1.362   5.503   2.021  0.3743 -0.1671  0.1361
 7053SOL    HW121617   1.409   5.580   2.054  0.4690 -0.1747  0.0174
 7053SOL    HW221618   1.280   5.503   2.070 -1.0546  1.8261 -2.0123
 7054SOL     OW21619   5.249   6.339   0.769 -0.2734 -0.2595  0.0008
 7054SOL    HW121620   5.195   6.409   0.734 -0.5106 -0.3775  0.1271
 7054SOL    HW221621   5.338   6.363   0.746 -0.4091 -0.2291 -0.4992
 7055SOL     OW21622   5.783   4.085   4.231 -0.2235  0.9796  0.0533
 7055SOL    HW121623   5.830   4.157   4.274 -0.3137  0.0620  1.7650
 7055SOL    HW221624   5.691   4.109   4.236 -0.1313  1.7010 -1.2617
 7056SOL     OW21625   1.850   4.582   3.615 -0.5843  0.1173 -0.3667
 7056SOL    HW121626   1.875   4.617   3.700 -0.0291  1.1340 -0.9298
 7056SOL    HW221627   1.788   4.646   3.580 -1.0126 -0.4252 -0.6279
 7057SOL     OW21628   2.411   5.551   3.440  0.3401 -0.1663 -0.0186
 7057SOL    HW121629   2.315   5.552   3.431  0.3401  0.7755 -0.0251
 7057SOL    HW221630   2.438   5.639   3.417  1.0975 -0.0387  1.2380
 7058SOL     OW21631   5.284   4.879   5.204 -0.4101  0.0862 -0.6334
 7058SOL    HW121632   5.286   4.920   5.117  0.5374 -0.4011 -0.8547
 7058SOL    HW221633   5.345   4.931   5.256 -0.3908 -0.0930 -0.4761
 7059SOL     OW21634   0.432   5.745   1.890 -0.1374 -0.3952  0.1993
 7059SOL    HW121635   0.352   5.695   1.905 -0.6105  0.6354  1.2810
 7059SOL    HW221636   0.502   5.683   1.911 -0.7281  0.1455  4.7188
 7060SOL     OW21637   5.142   3.875   3.570  0.0846  0.0136  0.4650
 7060SOL    HW121638   5.195   3.830   3.504  0.4058  0.4100  0.4501
 7060SOL    HW221639   5.195   3.873   3.649 -0.2367 -0.3263  0.6747
 7061SOL     OW21640   0.385   2.899   1.307 -0.1018  0.2064  0.1816
 7061SOL    HW121641   0.307   2.850   1.279  1.4622 -0.8025 -2.8262
 7061SOL    HW221642   0.385   2.977   1.252  1.6538 -0.4786 -0.8713
 7062SOL     OW21643   0.947   3.807   4.912 -0.8271 -1.0053 -0.7177
 7062SOL    HW121644   1.008   3.734   4.909  0.1971 -0.2679  1.0704
 7062SOL    HW221645   0.992   3.878   4.866 -0.5364 -0.6151  0.1575
 7063SOL     OW21646   2.814   4.538   4.094 -0.3856  0.1504 -0.0517
 7063SOL    HW121647   2.855   4.504   4.014 -0.1427  0.1117  0.0900
 7063SOL    HW221648   2.814   4.464   4.155 -2.0766 -0.3257 -0.5656
 7064SOL     OW21649   1.035   1.073   2.720 -0.2370  0.2279  0.3983
 7064SOL    HW121650   1.058   0.981   2.715 -0.7665  0.0582  0.9532
 7064SOL    HW221651   1.003   1.085   2.810 -1.1813  0.7101  0.0164
 7065SOL     OW21652   3.883   0.801   0.787  0.3010 -0.4582  0.2007
 7065SOL    HW121653   3.806   0.817   0.841  0.0808  0.6084 -0.3853
 7065SOL    HW221654   3.957   0.816   0.846  0.0630  0.2342  0.3373
 7066SOL     OW21655   0.302   2.818   0.510 -0.1221 -0.5733  0.2878
 7066SOL    HW121656   0.213   2.827   0.476 -0.4561 -1.5927  0.8782
 7066SOL    HW221657   0.292   2.824   0.605  0.8928  3.1186  0.3429
 7067SOL     OW21658   2.110   3.274   3.651 -0.4092 -0.8243  0.1579
 7067SOL    HW121659   2.188   3.324   3.675  0.7438 -2.5014  0.0251
 7067SOL    HW221660   2.121   3.255   3.557 -0.3525 -2.0905  0.4019
 7068SOL     OW21661   0.424   4.075   1.060 -0.2022  0.5394  0.1655
 7068SOL    HW121662   0.368   4.143   1.021 -1.3402 -0.5459 -0.1807
 7068SOL    HW221663   0.476   4.121   1.125 -2.5627  1.4031  1.5755
 7069SOL     OW21664   2.064   2.403   0.392 -0.3818 -0.1023  0.6525
 7069SOL    HW121665   2.138   2.386   0.450 -0.6096  0.0183  0.9840
 7069SOL    HW221666   2.104   2.422   0.307  0.1323  2.2088  1.3274
 7070SOL     OW21667   0.330   1.466   4.557 -0.3408  0.5518  0.0430
 7070SOL    HW121668   0.265   1.398   4.537  0.1088 -0.0155  0.4488
 7070SOL    HW221669   0.406   1.442   4.503  0.5138 -0.4039  1.6023
 7071SOL     OW21670   1.484   3.888   1.831  0.9851 -0.4505  0.2632
 7071SOL    HW121671   1.416   3.922   1.889  0.3065 -0.5124 -0.4705
 7071SOL    HW221672   1.436   3.850   1.758  1.7304 -2.5708  0.8146
 7072SOL     OW21673   3.522   2.350   0.776  0.2099  0.5904 -0.4813
 7072SOL    HW121674   3.557   2.341   0.687 -0.5809  1.6499 -0.9223
 7072SOL    HW221675   3.491   2.262   0.798 -0.7280  0.5783 -1.7588
 7073SOL     OW21676   3.753   3.476   1.770 -0.0354  0.6767  0.0910
 7073SOL    HW121677   3.723   3.387   1.788  0.4336  0.2560 -1.1295
 7073SOL    HW221678   3.814   3.467   1.697  1.4694  1.7677  1.1386
 7074SOL     OW21679   3.557   4.653   5.061 -0.3532 -0.6409  0.2536
 7074SOL    HW121680   3.515   4.569   5.078 -0.4870 -0.3613  1.4101
 7074SOL    HW221681   3.491   4.704   5.015 -0.4359 -1.0120 -0.0391
 7075SOL     OW21682   3.158   1.209   1.575  0.4548 -0.2308  0.1874
 7075SOL    HW121683   3.075   1.163   1.586 -0.1053  0.5929 -0.4527
 7075SOL    HW221684   3.220   1.160   1.629 -0.7430 -0.0369  1.8427
 7076SOL     OW21685   1.117   0.500   4.383 -0.2193  0.7231  0.1770
 7076SOL    HW121686   1.196   0.511   4.329 -1.4885  0.1857 -1.8863
 7076SOL    HW221687   1.071   0.427   4.343 -1.3874  0.5059  1.8524
 7077SOL     OW21688   6.358   6.370   1.509  0.8678 -0.0602 -0.3933
 7077SOL    HW121689   6.392   6.455   1.538  1.3905 -0.4024  0.0427
 7077SOL    HW221690   6.425   6.337   1.449  1.4242 -0.8177  0.6000
 7078SOL     OW21691   5.253   5.963   4.520  0.2110 -0.5895 -0.0678
 7078SOL    HW121692   5.188   5.905   4.479 -0.6309 -0.0698  0.4980
 7078SOL    HW221693   5.270   5.923   4.605 -0.1763 -0.1473  0.2173
 7079SOL     OW21694   5.987   2.746   0.325 -0.3296 -0.4870 -0.4195
 7079SOL    HW121695   6.070   2.703   0.346 -0.6784 -0.6686  0.6078
 7079SOL    HW221696   5.926   2.675   0.307 -0.3332 -0.3593 -0.9247
 7080SOL     OW21697   2.833   4.740   4.326 -0.1673 -0.0385 -0.1574
 7080SOL    HW121698   2.907   4.715   4.381  0.0799  1.3163  0.1532
 7080SOL    HW221699   2.864   4.730   4.237  0.4358  0.6327 -0.0278
 7081SOL     OW21700   6.187   2.992   2.525  0.2769 -0.4919 -0.6875
 7081SOL    HW121701   6.197   2.898   2.538  0.1532 -0.6957 -1.9531
 7081SOL    HW221702   6.093   3.004   2.508  0.5047 -0.3435 -1.9293
 7082SOL     OW21703   1.215   0.360   3.381 -0.1663  0.2035 -0.4381
 7082SOL    HW121704   1.146   0.294   3.374  0.7255 -0.5765 -2.9824
 7082SOL    HW221705   1.189   0.428   3.320  0.6223  0.5794 -0.3625
 7083SOL     OW21706   3.519   4.766   3.860  0.5162  0.4288  0.0175
 7083SOL    HW121707   3.444   4.825   3.861  0.1408 -0.0066  2.2040
 7083SOL    HW221708   3.501   4.704   3.789  0.0356  1.8069 -1.0866
 7084SOL     OW21709   5.996   4.092   0.370  0.1616 -0.2992  0.2499
 7084SOL    HW121710   5.964   4.135   0.291  0.1010 -0.1789  0.3399
 7084SOL    HW221711   5.954   4.138   0.442 -1.2811 -1.6482  0.3083
 7085SOL     OW21712   4.348   0.915   5.944  0.2128  0.5234 -0.0937
 7085SOL    HW121713   4.264   0.869   5.937  0.8577 -0.7742  0.4077
 7085SOL    HW221714   4.414   0.846   5.934  1.2240  0.9778  2.7314
 7086SOL     OW21715   1.939   2.030   0.632  0.3522 -0.0996 -0.8280
 7086SOL    HW121716   1.921   2.106   0.578 -1.4413  1.1126  1.3231
 7086SOL    HW221717   1.918   1.955   0.577 -0.3692  1.0374 -2.1458
 7087SOL     OW21718   6.091   6.302   4.580  0.0134 -0.3113  0.2684
 7087SOL    HW121719   6.139   6.269   4.504 -3.2280  0.3384 -2.2534
 7087SOL    HW221720   6.051   6.225   4.619 -1.2604 -0.3059 -0.9558
 7088SOL     OW21721   6.177   1.417   0.233 -0.4167 -0.4569 -0.0481
 7088SOL    HW121722   6.166   1.323   0.215 -0.1413 -0.3990 -0.5162
 7088SOL    HW221723   6.172   1.459   0.147 -0.6195 -0.0297  0.1678
 7089SOL     OW21724   2.100   0.260   0.467  0.2814 -0.3821 -0.6068
 7089SOL    HW121725   2.090   0.285   0.375  2.9958 -0.0239 -0.8937
 7089SOL    HW221726   2.151   0.180   0.464  0.0981 -0.5554  0.6038
 7090SOL     OW21727   3.478   0.478   3.783 -0.8221 -0.0380  0.7476
 7090SOL    HW121728   3.386   0.503   3.773 -0.4563  0.5398 -2.2605
 7090SOL    HW221729   3.482   0.388   3.750 -0.2348  0.1688  0.2286
 7091SOL     OW21730   3.831   0.745   1.655 -0.3645 -0.0804 -0.4992
 7091SOL    HW121731   3.847   0.831   1.615 -1.7058  0.8414  0.8372
 7091SOL    HW221732   3.914   0.698   1.645 -0.4263  0.2655 -3.8328
 7092SOL     OW21733   0.759   5.176   5.546  0.2109  0.2719  0.3946
 7092SOL    HW121734   0.781   5.260   5.587 -1.2689  0.8988 -0.0278
 7092SOL    HW221735   0.779   5.188   5.453 -0.0925  0.2012  0.3172
 7093SOL     OW21736   2.852   0.549   0.435 -0.4727  0.1505 -0.3417
 7093SOL    HW121737   2.929   0.565   0.381 -0.8895 -1.5837 -1.5535
 7093SOL    HW221738   2.778   0.557   0.375 -1.3427  2.4343  0.9442
 7094SOL     OW21739   4.546   0.669   0.047 -0.1927  0.3574  0.5864
 7094SOL    HW121740   4.518   0.672   0.139 -0.3225  0.6868  0.5387
 7094SOL    HW221741   4.580   0.581   0.035  0.3581  0.4917  1.1091
 7095SOL     OW21742   4.897   0.202   4.934 -0.4950 -0.2382  0.3409
 7095SOL    HW121743   4.853   0.185   4.851 -0.7601 -0.5750  0.5503
 7095SOL    HW221744   4.925   0.294   4.927 -1.4811  0.0709  0.3271
 7096SOL     OW21745   3.553   4.559   2.965 -0.5921  0.3315 -0.2556
 7096SOL    HW121746   3.647   4.556   2.946 -0.6944 -0.8145 -0.6982
 7096SOL    HW221747   3.532   4.469   2.991 -1.4745  0.6917  0.3044
 7097SOL     OW21748   3.974   0.879   4.107  0.7939 -0.1383  0.1650
 7097SOL    HW121749   4.062   0.881   4.068  0.5079 -0.7400 -0.5410
 7097SOL    HW221750   3.932   0.804   4.065  0.3405 -0.5791  1.3639
 7098SOL     OW21751   0.023   4.359   5.024 -0.0084  0.1898 -0.2876
 7098SOL    HW121752   0.053   4.433   4.971 -0.6394 -0.1675 -1.1670
 7098SOL    HW221753   0.096   4.298   5.025  0.0724  0.2834 -0.5870
 7099SOL     OW21754   1.280   6.365   0.295 -0.3992  0.7473  0.1784
 7099SOL    HW121755   1.281   6.335   0.386 -1.0753  0.2876  0.0409
 7099SOL    HW221756   1.348   6.432   0.291 -0.0967  0.4895  0.9272
 7100SOL     OW21757   1.841   1.833   3.059  0.3006 -0.1830 -0.3759
 7100SOL    HW121758   1.828   1.756   3.113  2.6900 -1.3062 -1.3002
 7100SOL    HW221759   1.800   1.811   2.975  0.1147 -0.0358 -0.3253
 7101SOL     OW21760   2.664   2.120   5.415 -0.2250  0.4646  0.1265
 7101SOL    HW121761   2.686   2.187   5.480 -1.6425  1.4646 -0.3790
 7101SOL    HW221762   2.746   2.073   5.401  0.5664  1.4537  1.2265
 7102SOL     OW21763   5.131   2.982   3.234  0.5939 -0.1833 -0.0245
 7102SOL    HW121764   5.203   3.026   3.188  0.5307 -0.5365 -0.4586
 7102SOL    HW221765   5.143   2.889   3.215  1.8334 -0.6074  2.4255
 7103SOL     OW21766   6.378   4.362   1.069  0.5843 -0.3098  0.5482
 7103SOL    HW121767   6.362   4.292   1.133 -0.9688 -0.8980 -0.4437
 7103SOL    HW221768   6.308   4.425   1.083  0.5540 -0.1660 -0.1984
 7104SOL     OW21769   5.484   2.840   1.237 -0.5220 -0.1591 -0.4001
 7104SOL    HW121770   5.522   2.831   1.324 -1.9019 -1.6504  0.1032
 7104SOL    HW221771   5.527   2.773   1.184  0.5632  0.9726 -0.9890
 7105SOL     OW21772   3.914   5.786   2.650  0.1407  0.6782  0.5218
 7105SOL    HW121773   3.945   5.750   2.734 -2.9994 -0.1117  1.4706
 7105SOL    HW221774   3.833   5.831   2.672 -0.4419  1.0011 -2.0176
 7106SOL     OW21775   4.335   1.902   0.982  0.0511  0.4705 -0.6114
 7106SOL    HW121776   4.380   1.830   1.027 -0.5204  0.6972  0.3557
 7106SOL    HW221777   4.263   1.859   0.935  0.2897  0.2961 -0.8181
 7107SOL     OW21778   4.845   3.303   0.732  0.5495  0.0141 -0.4449
 7107SOL    HW121779   4.868   3.303   0.639 -0.3800 -2.9728 -0.7895
 7107SOL    HW221780   4.796   3.221   0.744 -0.9631  1.1925  2.3043
 7108SOL     OW21781   3.624   3.756   5.975 -0.1212 -0.4912 -0.7089
 7108SOL    HW121782   3.608   3.678   5.922 -0.0405 -0.5189 -0.6931
 7108SOL    HW221783   3.594   3.731   6.063 -1.9422  0.1654 -1.1171
 7109SOL     OW21784   3.413   0.574   4.597 -0.4527  0.2808 -0.1770
 7109SOL    HW121785   3.477   0.520   4.550  0.7541 -0.9606  2.6423
 7109SOL    HW221786   3.450   0.662   4.593  0.3530 -0.0486 -0.3910
 7110SOL     OW21787   1.639   4.061   0.537 -0.0116  0.8421 -0.1047
 7110SOL    HW121788   1.618   4.154   0.529  0.0305  1.0044  1.3900
 7110SOL    HW221789   1.572   4.026   0.595 -0.1847 -0.1366 -0.8659
 7111SOL     OW21790   1.229   2.124   0.362  0.2449  0.3589  0.2422
 7111SOL    HW121791   1.260   2.083   0.443  1.5935  0.7793 -0.0240
 7111SOL    HW221792   1.309   2.156   0.320 -0.3913 -0.1055 -1.4030
 7112SOL     OW21793   1.660   1.395   6.360  0.1302 -0.3659  0.6604
 7112SOL    HW121794   1.683   1.477   6.317 -1.5162 -0.5386 -0.6917
 7112SOL    HW221795   1.645   1.419   6.451 -0.6800  0.9412  0.2227
 7113SOL     OW21796   5.217   5.688   2.897  0.1931  0.4260  0.4465
 7113SOL    HW121797   5.260   5.758   2.945  0.5395  2.0552 -2.0786
 7113SOL    HW221798   5.288   5.628   2.873  0.4415  1.0375 -0.3499
 7114SOL     OW21799   0.119   3.287   1.706  0.3723 -0.2972 -0.0041
 7114SOL    HW121800   0.157   3.201   1.686 -1.1345 -0.9677 -0.1730
 7114SOL    HW221801   0.123   3.334   1.622 -0.6591 -0.9856 -0.4690
 7115SOL     OW21802   2.768   0.992   3.531  0.3649  0.8013 -0.5511
 7115SOL    HW121803   2.780   0.940   3.611 -0.8415  0.2842 -0.6906
 7115SOL    HW221804   2.857   1.011   3.502  0.8471 -0.9947 -0.3674
 7116SOL     OW21805   0.012   1.938   5.928  0.3365 -0.6183 -0.0108
 7116SOL    HW121806  -0.077   1.904   5.915 -0.4440 -0.1918  3.2855
 7116SOL    HW221807   0.069   1.868   5.897 -1.2065 -2.2908  0.7614
 7117SOL     OW21808   5.149   3.250   5.202 -0.3799 -0.2038  0.5027
 7117SOL    HW121809   5.150   3.241   5.297  0.6232  0.4593  0.5691
 7117SOL    HW221810   5.219   3.194   5.171  1.8421  2.3632  0.4821
 7118SOL     OW21811   4.674   3.802   5.703  0.4406 -0.4600 -0.0783
 7118SOL    HW121812   4.694   3.856   5.779  0.7914 -1.5000  0.5869
 7118SOL    HW221813   4.592   3.758   5.725  0.2039 -0.2785 -0.5744
 7119SOL     OW21814   3.407   4.952   4.697 -0.5995 -0.6097  0.4227
 7119SOL    HW121815   3.496   4.986   4.706 -0.9483  0.3966  0.1532
 7119SOL    HW221816   3.358   5.024   4.658 -1.2945 -1.5262 -0.4266
 7120SOL     OW21817   0.816   6.029   4.082  0.3904  0.2336  0.0834
 7120SOL    HW121818   0.880   6.094   4.113  1.8203 -0.6548 -0.9181
 7120SOL    HW221819   0.779   6.067   4.003  0.9063  0.0217 -0.2605
 7121SOL     OW21820   0.554   0.805   6.337 -0.3159  0.2987  0.1724
 7121SOL    HW121821   0.466   0.797   6.375 -1.2390  0.9871 -1.6806
 7121SOL    HW221822   0.588   0.715   6.339 -1.3186 -0.1012  0.3357
 7122SOL     OW21823   3.580   1.184   4.568  1.0137  0.4466 -0.1918
 7122SOL    HW121824   3.627   1.104   4.547  1.4135  1.0480 -1.7082
 7122SOL    HW221825   3.575   1.232   4.485  1.1854  2.2047  0.7670
 7123SOL     OW21826   4.076   0.294   4.161 -0.6030  0.5330 -0.0130
 7123SOL    HW121827   4.100   0.386   4.174  0.6581  0.1319  0.6965
 7123SOL    HW221828   3.988   0.288   4.198 -0.9750  1.5855 -0.6678
 7124SOL     OW21829   4.184   4.795   0.469  0.0942 -0.3432  0.5413
 7124SOL    HW121830   4.147   4.743   0.398  0.4792  0.7260 -0.4584
 7124SOL    HW221831   4.151   4.753   0.549  0.0169 -1.8268 -0.2417
 7125SOL     OW21832   2.001   3.865   3.915 -0.1582  0.0612  0.3608
 7125SOL    HW121833   2.083   3.819   3.932  0.0562  0.9157  1.7474
 7125SOL    HW221834   1.963   3.819   3.839  1.7174 -0.1663 -0.4850
 7126SOL     OW21835   1.123   4.863   5.191 -0.2829 -0.6363  0.0573
 7126SOL    HW121836   1.064   4.936   5.211 -0.2023 -0.2025 -1.2224
 7126SOL    HW221837   1.210   4.902   5.188 -0.2079 -0.8380 -0.3925
 7127SOL     OW21838   4.051   5.287   5.169 -0.5500  0.0620  0.5640
 7127SOL    HW121839   4.006   5.349   5.226  0.2519  1.4930 -0.2822
 7127SOL    HW221840   3.981   5.251   5.113 -1.1109 -0.2398  1.4423
 7128SOL     OW21841   2.247   5.099   3.516 -0.5760 -0.5371  1.0409
 7128SOL    HW121842   2.335   5.135   3.504 -1.2804  1.0715  0.4866
 7128SOL    HW221843   2.262   5.006   3.535  1.1931 -0.5839 -0.2638
 7129SOL     OW21844   0.637   5.180   4.160  0.9323  0.0439  0.6989
 7129SOL    HW121845   0.637   5.084   4.156  1.8505 -0.0017  1.5098
 7129SOL    HW221846   0.688   5.207   4.084  0.9159 -0.1246  0.6280
 7130SOL     OW21847   0.126   1.023   4.791 -0.1431  0.2128  0.5019
 7130SOL    HW121848   0.188   1.064   4.851  0.9123 -0.9555  0.2560
 7130SOL    HW221849   0.074   1.096   4.757 -0.8355  0.9005  2.8635
 7131SOL     OW21850   5.846   1.500   3.262 -0.2937  0.1923  0.3439
 7131SOL    HW121851   5.878   1.585   3.233 -1.8371  0.5184 -0.5404
 7131SOL    HW221852   5.844   1.447   3.183  0.6053 -0.6756  0.8782
 7132SOL     OW21853   6.306   2.475   6.144  0.0179  0.1838 -0.3192
 7132SOL    HW121854   6.273   2.473   6.054 -1.4527  0.0529  0.1973
 7132SOL    HW221855   6.382   2.417   6.143  0.3765  0.6624 -1.6092
 7133SOL     OW21856   5.619   4.093   3.480  0.4359 -0.2718  0.1436
 7133SOL    HW121857   5.596   4.099   3.387 -0.8749 -0.3245  0.4600
 7133SOL    HW221858   5.707   4.055   3.479  0.7602  0.4196 -1.1048
 7134SOL     OW21859   2.864   2.383   2.471  0.1743  0.2749  0.5857
 7134SOL    HW121860   2.841   2.348   2.558  1.8784 -1.7383  0.3143
 7134SOL    HW221861   2.911   2.311   2.428  0.3650  1.6169 -1.5971
 7135SOL     OW21862   5.785   3.110   6.286  0.4324 -0.2528  0.5228
 7135SOL    HW121863   5.742   3.032   6.252 -1.2255  0.4670  0.8398
 7135SOL    HW221864   5.714   3.161   6.325  1.8265  0.2938  2.5071
 7136SOL     OW21865   4.410   1.087   0.852 -0.2096 -0.8364  0.2542
 7136SOL    HW121866   4.486   1.121   0.900  0.1916 -0.6851 -0.4677
 7136SOL    HW221867   4.393   1.153   0.785 -2.4667  0.3132  1.8378
 7137SOL     OW21868   0.181   0.211   2.056  0.0091 -0.1891 -0.1524
 7137SOL    HW121869   0.117   0.262   2.105  0.4549 -1.2301  1.5897
 7137SOL    HW221870   0.130   0.142   2.014 -0.2694  0.2545 -0.5618
 7138SOL     OW21871   4.301   4.247   3.271  0.5886  0.3648  0.0687
 7138SOL    HW121872   4.236   4.180   3.250  0.4382  0.3428  0.5917
 7138SOL    HW221873   4.287   4.315   3.206 -0.3129  0.5974  0.4934
 7139SOL     OW21874   0.930   1.027   4.270  0.3700  0.2349  0.4648
 7139SOL    HW121875   0.861   1.033   4.337  0.2593 -2.0396  0.6326
 7139SOL    HW221876   0.891   1.067   4.192  0.0532  1.8110  1.3818
 7140SOL     OW21877   1.977   1.879   6.323  0.1807 -0.5254  0.0985
 7140SOL    HW121878   2.019   1.919   6.399  0.8210 -0.3697 -0.3360
 7140SOL    HW221879   1.983   1.944   6.254 -0.1099 -0.7921 -0.1845
 7141SOL     OW21880   2.920   2.160   2.955  0.0164 -0.3199  0.8925
 7141SOL    HW121881   2.888   2.165   2.865  0.1609  1.4831  0.9028
 7141SOL    HW221882   2.842   2.170   3.010  0.1884  0.9106  0.9353
 7142SOL     OW21883   1.565   3.639   2.179  0.0525  0.5957 -0.7231
 7142SOL    HW121884   1.484   3.684   2.155  0.4170  1.9444  0.4588
 7142SOL    HW221885   1.629   3.671   2.116  0.2555  1.5905 -0.0315
 7143SOL     OW21886   5.872   1.709   4.841  0.0303 -0.0096 -0.2409
 7143SOL    HW121887   5.822   1.749   4.771 -2.7733  0.5263  1.8961
 7143SOL    HW221888   5.820   1.633   4.868  1.5012 -0.7508  0.6687
 7144SOL     OW21889   5.363   4.200   3.008 -0.2281 -0.2841  0.5862
 7144SOL    HW121890   5.312   4.120   3.005 -1.4096  0.4608  0.0252
 7144SOL    HW221891   5.306   4.264   3.051 -1.0162  1.3482 -2.5329
 7145SOL     OW21892   0.749   2.768   1.036  0.4966 -0.0671 -0.2692
 7145SOL    HW121893   0.782   2.834   0.975  1.7180 -1.2943 -1.0009
 7145SOL    HW221894   0.736   2.690   0.982  1.9781 -1.3121  1.0551
 7146SOL     OW21895   2.793   3.708   0.208  0.0055 -0.0669 -0.6692
 7146SOL    HW121896   2.740   3.740   0.135  0.8251 -0.7589 -1.5835
 7146SOL    HW221897   2.864   3.772   0.216 -1.8657  1.9386  1.7792
 7147SOL     OW21898   1.029   1.519   4.433  0.2688 -0.6132 -0.2499
 7147SOL    HW121899   1.082   1.450   4.473  0.4501  0.2533  1.0375
 7147SOL    HW221900   1.025   1.588   4.499 -1.2762 -0.0636 -0.8816
 7148SOL     OW21901   2.082   0.389   2.616  0.4555  0.4031 -0.3011
 7148SOL    HW121902   2.084   0.329   2.690 -0.0488  0.3237 -0.3501
 7148SOL    HW221903   2.153   0.358   2.559  0.1977 -0.1546 -0.3305
 7149SOL     OW21904   0.818   0.271   3.115  0.0419 -0.2912  0.1498
 7149SOL    HW121905   0.848   0.326   3.043 -0.0742  0.4607  0.6668
 7149SOL    HW221906   0.876   0.195   3.114  0.5975  0.1386 -0.1864
 7150SOL     OW21907   1.043   3.199   4.720  0.2319 -0.3632  0.7065
 7150SOL    HW121908   1.096   3.174   4.644 -1.8980 -1.0517 -0.6534
 7150SOL    HW221909   1.085   3.155   4.794  0.2945 -2.7991 -0.6631
 7151SOL     OW21910   4.858   3.913   1.067  0.4593  0.1218  0.4823
 7151SOL    HW121911   4.827   3.949   1.150  1.2776  3.0737 -0.3950
 7151SOL    HW221912   4.954   3.916   1.075  0.5414 -0.0629 -0.3737
 7152SOL     OW21913   4.908   4.470   6.285 -0.2501  0.0664 -0.5487
 7152SOL    HW121914   4.881   4.555   6.321 -2.0591 -0.5171 -0.4289
 7152SOL    HW221915   4.825   4.424   6.269  0.6814 -1.4159 -1.2494
 7153SOL     OW21916   6.089   1.217   1.516  0.4941 -0.4908  1.2656
 7153SOL    HW121917   5.995   1.222   1.534  0.3630 -2.3076  1.2829
 7153SOL    HW221918   6.100   1.138   1.464  1.7716  0.8501 -0.6642
 7154SOL     OW21919   3.746   2.096   5.732 -0.0238  0.6497 -0.1468
 7154SOL    HW121920   3.745   2.190   5.751 -1.3063  0.3217  1.7199
 7154SOL    HW221921   3.661   2.078   5.692 -0.8090 -0.0618  1.7271
 7155SOL     OW21922   3.976   6.087   3.459 -0.0489  0.3878  0.5032
 7155SOL    HW121923   3.925   6.158   3.419  1.1595  0.7521 -0.4207
 7155SOL    HW221924   4.027   6.050   3.387  1.5830  0.5434  1.5292
 7156SOL     OW21925   2.698   5.035   3.785 -0.2375  0.1050 -0.1732
 7156SOL    HW121926   2.732   5.123   3.802 -0.4166  0.1905 -0.2603
 7156SOL    HW221927   2.773   4.978   3.801  0.0036  0.3094 -0.5463
 7157SOL     OW21928   5.261   0.177   3.831 -0.6535 -0.0956 -0.0710
 7157SOL    HW121929   5.314   0.256   3.817 -2.0079  0.9423  0.3984
 7157SOL    HW221930   5.219   0.161   3.747  0.5018 -1.0327 -0.4988
 7158SOL     OW21931   3.763   5.139   4.070 -0.5071  0.4825 -0.0101
 7158SOL    HW121932   3.669   5.152   4.074 -0.2918  2.0024  1.2257
 7158SOL    HW221933   3.779   5.062   4.126 -1.0458 -0.2305 -0.8030
 7159SOL     OW21934   2.786   1.826   2.634  0.1113  0.5214  0.9438
 7159SOL    HW121935   2.690   1.830   2.631  0.1176  0.8418  1.1763
 7159SOL    HW221936   2.815   1.917   2.633  0.4998  0.4177 -1.4271
 7160SOL     OW21937   6.187   0.993   6.329 -0.6442 -0.3415 -0.3461
 7160SOL    HW121938   6.123   0.928   6.299  0.6834 -1.3216 -1.1707
 7160SOL    HW221939   6.259   0.941   6.364  1.4527  0.4839 -3.0517
 7161SOL     OW21940   4.522   4.732   4.210 -0.5983  0.0920  0.0379
 7161SOL    HW121941   4.430   4.740   4.185 -1.1072 -0.8162  1.4624
 7161SOL    HW221942   4.533   4.797   4.280 -0.1870  0.1218 -0.0539
 7162SOL     OW21943   1.687   1.973   5.453  0.2548  0.5633 -0.4533
 7162SOL    HW121944   1.594   1.954   5.443 -0.0154  1.5869  0.0321
 7162SOL    HW221945   1.731   1.889   5.437 -0.6519  0.3724 -2.0567
 7163SOL     OW21946   2.352   3.415   1.829 -0.8872  0.2230  0.3526
 7163SOL    HW121947   2.288   3.475   1.793 -1.7231  1.4167  3.4605
 7163SOL    HW221948   2.437   3.456   1.811 -1.2150  0.5052 -0.5839
 7164SOL     OW21949   3.023   3.595   2.587  0.3358 -0.2644  0.0512
 7164SOL    HW121950   2.984   3.531   2.526  0.0346  2.5631 -2.9869
 7164SOL    HW221951   2.956   3.606   2.655  0.1815 -2.6913  0.4151
 7165SOL     OW21952   3.600   3.890   5.121 -0.3522  0.3480  0.1023
 7165SOL    HW121953   3.610   3.867   5.029 -0.8853  2.8767 -0.6580
 7165SOL    HW221954   3.688   3.910   5.151 -0.4010  1.3557 -0.4065
 7166SOL     OW21955   0.131   3.618   6.293  0.1076  0.2346  0.8209
 7166SOL    HW121956   0.084   3.628   6.210 -2.5558  2.3060  2.3860
 7166SOL    HW221957   0.199   3.685   6.291 -1.0725  1.4937  0.9073
 7167SOL     OW21958   2.380   5.370   2.411  0.0886  1.0175 -0.3022
 7167SOL    HW121959   2.331   5.450   2.427  1.1616  1.5440  0.4364
 7167SOL    HW221960   2.451   5.396   2.353  0.2842  0.5438 -0.2817
 7168SOL     OW21961   3.086   0.243   2.510 -0.2873 -0.4140 -0.5063
 7168SOL    HW121962   3.121   0.326   2.478  0.0916 -0.2041  0.4180
 7168SOL    HW221963   3.045   0.265   2.594 -0.6886 -1.0628 -0.5232
 7169SOL     OW21964   0.716   4.661   5.072 -0.5802  0.1940 -0.9143
 7169SOL    HW121965   0.753   4.693   5.153 -2.0547 -1.2943  0.4314
 7169SOL    HW221966   0.769   4.584   5.050 -2.2201 -1.4859  0.6073
 7170SOL     OW21967   3.990   1.679   3.311 -0.3118 -0.3074  0.6065
 7170SOL    HW121968   3.940   1.744   3.360 -1.0110 -1.4254  1.4089
 7170SOL    HW221969   4.022   1.618   3.377 -0.6047 -1.3965 -0.2393
 7171SOL     OW21970   1.577   1.239   1.272  0.2503  0.2407  0.7017
 7171SOL    HW121971   1.543   1.170   1.216  0.1828 -0.7955  1.9777
 7171SOL    HW221972   1.637   1.194   1.333  1.3741  1.5287  0.6026
 7172SOL     OW21973   4.905   0.193   3.628  0.7143 -0.2097  0.2007
 7172SOL    HW121974   4.911   0.126   3.696 -1.2578 -0.5758  0.0596
 7172SOL    HW221975   4.895   0.145   3.546  0.8888  0.2619 -0.1077
 7173SOL     OW21976   4.175   4.425   0.049 -0.5542  0.5311  0.0054
 7173SOL    HW121977   4.265   4.392   0.045 -0.5178  0.5547  0.5150
 7173SOL    HW221978   4.185   4.520   0.059 -0.6366  0.5433 -0.0301
 7174SOL     OW21979   4.335   1.938   4.310 -0.7484  0.0601 -0.2824
 7174SOL    HW121980   4.337   1.973   4.399 -1.9224  0.2741 -0.3245
 7174SOL    HW221981   4.253   1.889   4.306 -0.7854  0.1905 -1.2989
 7175SOL     OW21982   2.497   4.834   1.835  0.1110  0.0806  0.0909
 7175SOL    HW121983   2.536   4.883   1.763 -0.9787 -1.4900 -1.6926
 7175SOL    HW221984   2.418   4.796   1.797 -0.9352 -0.1852  2.3802
 7176SOL     OW21985   2.723   2.997   0.372  0.0631  0.3492 -0.8058
 7176SOL    HW121986   2.786   2.966   0.307 -1.8607 -1.6065 -1.8888
 7176SOL    HW221987   2.749   2.956   0.454  1.0856  0.8269 -0.8873
 7177SOL     OW21988   4.365   2.319   5.221 -0.1309  0.1571  0.1894
 7177SOL    HW121989   4.324   2.394   5.178 -0.0971 -0.6457 -1.3624
 7177SOL    HW221990   4.411   2.355   5.296 -2.4188  1.3059  1.1577
 7178SOL     OW21991   2.405   5.513   3.775  0.2470  0.0918  0.1866
 7178SOL    HW121992   2.357   5.528   3.857  2.0052 -0.0659  1.2833
 7178SOL    HW221993   2.385   5.423   3.752 -0.6664  0.2896  0.1381
 7179SOL     OW21994   4.714   0.749   0.592 -0.1387  0.1093 -0.1829
 7179SOL    HW121995   4.788   0.733   0.650 -0.4075  0.5881  0.2922
 7179SOL    HW221996   4.727   0.688   0.519  0.6415  0.0876 -0.0301
 7180SOL     OW21997   2.351   0.899   5.249  0.5834 -0.7476 -0.2095
 7180SOL    HW121998   2.391   0.855   5.324  1.5917  0.5952  0.0790
 7180SOL    HW221999   2.407   0.975   5.233 -0.7802  0.1339 -1.0204
 7181SOL     OW22000   1.591   3.955   1.302 -0.1413 -0.2302  0.4488
 7181SOL    HW122001   1.520   4.018   1.310 -0.3981 -0.0901 -2.1181
 7181SOL    HW222002   1.549   3.874   1.272  0.2561 -1.5368  3.1489
 7182SOL     OW22003   2.206   2.191   2.224 -0.3859 -0.3481  0.0356
 7182SOL    HW122004   2.123   2.210   2.268 -0.0106 -1.2088  1.1602
 7182SOL    HW222005   2.211   2.255   2.152 -1.1823  0.8686  1.0328
 7183SOL     OW22006   2.786   3.849   4.030  0.1725 -0.3283 -0.6272
 7183SOL    HW122007   2.731   3.789   3.978  0.1392 -2.2558  1.4877
 7183SOL    HW222008   2.748   3.846   4.118  2.6838 -0.4778  0.5182
 7184SOL     OW22009   6.284   4.455   3.340 -0.0478 -0.3522  0.0709
 7184SOL    HW122010   6.314   4.385   3.282  0.7064 -0.0402  0.0782
 7184SOL    HW222011   6.207   4.491   3.295  0.0730 -0.6210 -0.3591
 7185SOL     OW22012   0.352   4.657   1.173  0.3762 -0.6521 -0.6804
 7185SOL    HW122013   0.377   4.615   1.255  1.0667  0.0769 -0.5133
 7185SOL    HW222014   0.274   4.609   1.144 -0.4705 -0.2684  0.9010
 7186SOL     OW22015   3.964   1.051   0.565 -0.4137 -0.4828 -0.0120
 7186SOL    HW122016   4.000   1.121   0.510 -2.7673  0.5583 -0.3091
 7186SOL    HW222017   3.926   1.096   0.640  0.3935 -1.6967  1.1744
 7187SOL     OW22018   4.633   4.006   0.969 -0.2234 -0.3303 -0.0608
 7187SOL    HW122019   4.607   4.037   1.055 -0.8914 -1.7727  0.2826
 7187SOL    HW222020   4.717   3.962   0.983  1.2951  2.1198 -0.7361
 7188SOL     OW22021   2.298   3.521   0.695  0.1287 -0.1415 -0.3574
 7188SOL    HW122022   2.327   3.567   0.616  0.9843 -0.2691 -0.1233
 7188SOL    HW222023   2.379   3.493   0.738 -0.3604 -2.1132 -0.6333
 7189SOL     OW22024   0.073   1.218   2.063 -0.0999  0.2785  0.2026
 7189SOL    HW122025   0.150   1.179   2.105  1.0525  0.1161 -1.9479
 7189SOL    HW222026   0.074   1.309   2.092  1.5994  0.5781 -0.6609
 7190SOL     OW22027   4.874   0.578   4.607  0.1605 -0.4413  0.2276
 7190SOL    HW122028   4.849   0.654   4.659  0.2129 -1.0541  1.1711
 7190SOL    HW222029   4.836   0.595   4.520  0.4845  0.8165  0.3155
 7191SOL     OW22030   5.673   2.318   0.001  0.2200  0.2046  0.3268
 7191SOL    HW122031   5.592   2.280  -0.034  1.3610 -0.8996 -1.3040
 7191SOL    HW222032   5.696   2.262   0.075 -0.7325  0.8200  1.1089
 7192SOL     OW22033   4.137   3.677   6.047  0.0609  0.5872 -0.1076
 7192SOL    HW122034   4.110   3.636   6.129  1.1343  0.3213  0.1362
 7192SOL    HW222035   4.229   3.701   6.062  1.3111 -2.3141 -2.2797
 7193SOL     OW22036   5.352   0.772   5.240 -0.6092  0.0197  0.0877
 7193SOL    HW122037   5.277   0.715   5.257 -0.6851 -0.3062 -1.2347
 7193SOL    HW222038   5.428   0.718   5.261 -0.7193  0.0708  0.6308
 7194SOL     OW22039   1.671   3.273   3.915 -0.0756 -0.4202 -0.4063
 7194SOL    HW122040   1.687   3.213   3.988 -1.3175  0.2122  0.4088
 7194SOL    HW222041   1.736   3.342   3.926 -0.8610  0.1770  0.6940
 7195SOL     OW22042   1.326   4.426   2.344  0.1105 -0.1142  0.2170
 7195SOL    HW122043   1.362   4.350   2.391  0.7091 -0.2126 -0.3829
 7195SOL    HW222044   1.380   4.499   2.372  0.4171 -0.1588 -0.2529
 7196SOL     OW22045   5.169   4.952   0.914 -0.5630  0.3170 -0.0523
 7196SOL    HW122046   5.191   5.036   0.955  1.6312  1.1127 -2.5710
 7196SOL    HW222047   5.102   4.975   0.849 -1.9358 -0.4372  1.0302
 7197SOL     OW22048   5.875   3.206   4.034  0.7739 -0.3581 -0.6492
 7197SOL    HW122049   5.817   3.235   3.963 -2.0116 -1.4680  0.9811
 7197SOL    HW222050   5.885   3.112   4.020  1.5324 -0.3043 -0.4677
 7198SOL     OW22051   3.803   3.886   6.186 -0.0990  0.4707  0.5004
 7198SOL    HW122052   3.808   3.812   6.246 -1.1649  0.6166  0.7987
 7198SOL    HW222053   3.778   3.848   6.102  2.5790  0.1126 -0.2189
 7199SOL     OW22054   2.936   4.773   6.380 -0.1398 -0.5830 -0.1168
 7199SOL    HW122055   2.975   4.754   6.466 -0.4235 -0.7473 -0.0231
 7199SOL    HW222056   2.876   4.846   6.397 -1.4465 -1.6894  0.1667
 7200SOL     OW22057   0.540   1.942   4.739 -0.2169  0.0583  0.3744
 7200SOL    HW122058   0.449   1.913   4.731 -0.4117  0.8663 -0.5288
 7200SOL    HW222059   0.536   2.036   4.723  1.0341 -0.2066 -1.7964
 7201SOL     OW22060   5.171   5.356   3.026  0.0166 -0.0814  0.0695
 7201SOL    HW122061   5.203   5.445   3.043  1.2120 -0.4745 -0.0302
 7201SOL    HW222062   5.197   5.338   2.936  1.8372 -1.3546  0.7984
 7202SOL     OW22063   5.807   5.224   3.389  0.0673  0.4960 -0.5294
 7202SOL    HW122064   5.832   5.132   3.392 -0.4045  0.3604 -0.5805
 7202SOL    HW222065   5.721   5.227   3.430  0.0010  0.8884 -0.6831
 7203SOL     OW22066   4.958   4.999   2.029 -0.0704 -0.1949 -0.1240
 7203SOL    HW122067   4.924   4.914   2.003  1.5812 -1.4566  1.6048
 7203SOL    HW222068   5.052   4.992   2.018  0.2556  0.8234  1.5545
 7204SOL     OW22069   1.618   3.590   4.806 -0.0319 -0.1700  0.3245
 7204SOL    HW122070   1.669   3.658   4.763 -1.4787  0.2239 -0.8328
 7204SOL    HW222071   1.631   3.606   4.900  1.6304  0.1392  0.0767
 7205SOL     OW22072   3.545   4.402   4.000  0.0659 -0.1569  0.2247
 7205SOL    HW122073   3.638   4.411   4.021  0.0652  1.5445 -0.3141
 7205SOL    HW222074   3.530   4.308   3.999  2.1814 -0.5674 -1.3137
 7206SOL     OW22075   4.111   0.859   5.064  0.0054  0.0040  0.2654
 7206SOL    HW122076   4.162   0.887   4.988  1.0038 -0.7349  0.6318
 7206SOL    HW222077   4.127   0.927   5.130 -1.0911  0.7902 -0.2734
 7207SOL     OW22078   6.155   5.598   3.685 -0.4743 -0.1306 -0.2282
 7207SOL    HW122079   6.086   5.658   3.716  0.1840 -0.4722  2.1067
 7207SOL    HW222080   6.236   5.646   3.700 -0.0780 -0.6799 -0.6125
 7208SOL     OW22081   3.078   5.878   0.515  0.0216  0.1798 -0.9160
 7208SOL    HW122082   3.131   5.839   0.445 -0.1369 -1.2480 -0.2897
 7208SOL    HW222083   3.082   5.813   0.586 -0.2182  1.3680  0.2220
 7209SOL     OW22084   2.962   3.501   5.869 -0.4584  0.0371 -0.2825
 7209SOL    HW122085   2.993   3.518   5.780 -0.6229  0.9751 -0.1695
 7209SOL    HW222086   2.916   3.417   5.862 -1.1392  0.4648 -1.2617
 7210SOL     OW22087   3.611   1.379   5.981 -0.0577 -0.2233  0.2801
 7210SOL    HW122088   3.579   1.465   5.955  0.4458  0.0940  0.6810
 7210SOL    HW222089   3.574   1.366   6.069  0.1605 -0.2584  0.3663
 7211SOL     OW22090   4.701   2.298   5.605 -0.6320 -0.2104  0.1424
 7211SOL    HW122091   4.783   2.306   5.556 -2.3103 -0.5369 -3.0260
 7211SOL    HW222092   4.704   2.211   5.643  0.1888 -0.5447 -0.6504
 7212SOL     OW22093   2.473   2.100   5.906 -0.1947  0.4424 -0.1565
 7212SOL    HW122094   2.379   2.086   5.913 -0.2395  1.1343  0.8342
 7212SOL    HW222095   2.490   2.178   5.959  0.9107  0.4283 -0.4584
 7213SOL     OW22096   3.974   6.197   1.499  0.0433 -0.1920  0.1558
 7213SOL    HW122097   3.925   6.170   1.576  0.9547 -0.8239  0.5242
 7213SOL    HW222098   4.062   6.215   1.531  0.6824 -1.3427 -0.8622
 7214SOL     OW22099   1.061   0.559   3.221 -0.4039 -0.0253 -0.6713
 7214SOL    HW122100   1.090   0.555   3.130 -0.4147  0.7751 -0.7199
 7214SOL    HW222101   0.980   0.610   3.218 -0.1371  0.4400 -0.1517
 7215SOL     OW22102   2.884   3.275   4.766  0.2142 -0.0205 -0.1670
 7215SOL    HW122103   2.843   3.251   4.849  0.4651 -0.7214 -0.2369
 7215SOL    HW222104   2.811   3.280   4.704  0.0667  0.1518  0.0216
 7216SOL     OW22105   4.449   4.694   0.929  0.0269 -0.1053  0.1735
 7216SOL    HW122106   4.532   4.691   0.880 -0.6396  0.6819 -1.0622
 7216SOL    HW222107   4.474   4.717   1.018  1.0083  2.3394 -0.6413
 7217SOL     OW22108   4.591   3.789   3.061  0.3304  0.0247 -0.4645
 7217SOL    HW122109   4.518   3.826   3.109  0.1485  0.0911 -0.7877
 7217SOL    HW222110   4.665   3.845   3.083  0.0583  0.5854 -0.9477
 7218SOL     OW22111   0.622   3.265   2.840  0.0812 -0.0792 -0.0018
 7218SOL    HW122112   0.641   3.279   2.748  1.3967  0.2530  0.2942
 7218SOL    HW222113   0.705   3.235   2.878 -0.1272  0.8579  1.2814
 7219SOL     OW22114   3.530   0.044   2.746 -0.0389  0.2492  0.0522
 7219SOL    HW122115   3.597   0.111   2.736  0.6975 -0.5619 -0.6361
 7219SOL    HW222116   3.476   0.052   2.667  0.2578 -0.1877 -0.1967
 7220SOL     OW22117   0.950   4.073   2.522  0.2599 -0.1689 -0.2918
 7220SOL    HW122118   0.994   3.988   2.521 -0.1082 -0.3701  0.4594
 7220SOL    HW222119   0.892   4.071   2.446  0.0261 -0.7141 -0.1015
 7221SOL     OW22120   0.134   3.548   4.767 -0.2289 -0.0469 -0.1470
 7221SOL    HW122121   0.190   3.610   4.720  1.4923 -0.6967  0.9485
 7221SOL    HW222122   0.189   3.515   4.838 -2.3881  0.1777  1.7808
 7222SOL     OW22123   4.880   3.406   0.470  0.9490 -0.1197 -0.2980
 7222SOL    HW122124   4.845   3.369   0.389  2.6874  0.8619 -1.5778
 7222SOL    HW222125   4.817   3.474   0.494  0.3194 -0.5449 -0.7070
 7223SOL     OW22126   1.878   5.462   5.067 -0.2531  0.2087  0.0077
 7223SOL    HW122127   1.852   5.554   5.061 -1.3361 -0.0184  0.7750
 7223SOL    HW222128   1.824   5.417   5.002 -0.5549 -0.0308  0.4144
 7224SOL     OW22129   4.362   4.391   5.034 -0.2687 -0.4105 -0.5831
 7224SOL    HW122130   4.344   4.377   5.127  4.7797  0.2959  0.8169
 7224SOL    HW222131   4.367   4.303   4.997 -0.2901 -0.8155  0.3411
 7225SOL     OW22132   2.658   1.005   3.154 -0.7599  0.1452 -0.1069
 7225SOL    HW122133   2.665   1.083   3.210  0.5961 -1.1965  1.7082
 7225SOL    HW222134   2.642   0.933   3.216 -1.1707 -1.1404 -1.6566
 7226SOL     OW22135   0.059   4.110   2.949  0.4006  0.3138  0.3012
 7226SOL    HW122136   0.081   4.018   2.963  0.8547  0.4667  0.5958
 7226SOL    HW222137   0.140   4.150   2.917 -0.3175  0.1944 -1.8303
 7227SOL     OW22138   4.640   4.204   4.194 -0.1940 -0.1419 -0.0476
 7227SOL    HW122139   4.572   4.145   4.161 -0.8937  0.3776  0.4460
 7227SOL    HW222140   4.662   4.168   4.280 -0.4141  0.1467  0.1298
 7228SOL     OW22141   1.415   4.703   3.923 -0.2844  0.8083  0.2289
 7228SOL    HW122142   1.342   4.763   3.909 -2.6928 -1.6869  1.2570
 7228SOL    HW222143   1.453   4.729   4.007 -0.4483  1.6659  0.0436
 7229SOL     OW22144   2.510   0.000   5.142 -0.1890 -0.0836  0.2333
 7229SOL    HW122145   2.570   0.075   5.141  0.8213 -0.8083  1.5960
 7229SOL    HW222146   2.451   0.018   5.215 -1.0178  0.1523 -0.4818
 7230SOL     OW22147   1.080   2.166   4.068  0.2506  0.6022 -0.1070
 7230SOL    HW122148   1.021   2.180   3.993  0.0569  0.6260  0.0477
 7230SOL    HW222149   1.147   2.107   4.034 -0.1659  0.1315 -0.1381
 7231SOL     OW22150   4.141   1.772   4.348 -0.2155  0.0838 -0.4210
 7231SOL    HW122151   4.180   1.687   4.367  0.9605  0.2652 -1.8975
 7231SOL    HW222152   4.074   1.754   4.282 -0.7467  0.1517  0.0961
 7232SOL     OW22153   3.707   4.868   5.531  0.6623  0.5357 -0.2126
 7232SOL    HW122154   3.709   4.797   5.467 -0.4010  0.4048 -0.1234
 7232SOL    HW222155   3.657   4.938   5.488 -0.4893  0.2655  0.6201
 7233SOL     OW22156   5.917   0.081   0.606 -0.3583  0.7714 -0.0426
 7233SOL    HW122157   5.898   0.064   0.698  2.2764 -0.7251  0.3271
 7233SOL    HW222158   5.835   0.063   0.561 -1.8333  1.9295  1.9945
 7234SOL     OW22159   1.582   3.631   3.347  0.0397  0.2670 -0.1164
 7234SOL    HW122160   1.578   3.550   3.398  0.5235  0.1064 -0.3242
 7234SOL    HW222161   1.670   3.631   3.310 -0.0928  0.6971 -0.4358
 7235SOL     OW22162   3.094   4.339   4.671 -0.2594 -0.2367  0.2425
 7235SOL    HW122163   3.013   4.334   4.721 -0.1336 -0.0918  0.4605
 7235SOL    HW222164   3.085   4.273   4.603 -0.9195  0.3468 -0.2464
 7236SOL     OW22165   2.989   1.185   1.978 -0.0752 -0.5532  0.2468
 7236SOL    HW122166   2.975   1.098   2.014 -0.1800 -0.6551 -0.0349
 7236SOL    HW222167   2.901   1.223   1.972  0.1941  0.7338  3.1939
 7237SOL     OW22168   5.679   3.000   4.729 -0.1426 -0.2163 -0.3602
 7237SOL    HW122169   5.587   3.022   4.736 -0.0995 -0.4441  1.7455
 7237SOL    HW222170   5.723   3.082   4.707 -0.8224 -0.1269 -1.4513
 7238SOL     OW22171   5.767   5.974   1.013 -0.6963 -0.4991  0.2299
 7238SOL    HW122172   5.826   6.036   0.971 -0.1476 -1.0118  0.2313
 7238SOL    HW222173   5.717   6.026   1.076 -2.8940  0.6881 -2.3049
 7239SOL     OW22174   6.282   0.231   5.847  0.2034  0.1985  0.3993
 7239SOL    HW122175   6.320   0.272   5.768 -0.1150  0.6945  0.4995
 7239SOL    HW222176   6.257   0.143   5.818 -0.1458  0.4634 -0.1282
 7240SOL     OW22177   4.985   4.621   2.381  0.0549  0.7599  0.1189
 7240SOL    HW122178   4.913   4.627   2.444 -0.9843  2.8759 -1.1742
 7240SOL    HW222179   4.962   4.546   2.326  0.0080  0.0582  1.0662
 7241SOL     OW22180   0.291   2.797   0.147  0.3007 -0.8870 -0.5381
 7241SOL    HW122181   0.272   2.756   0.231 -2.3425 -0.4272 -0.8080
 7241SOL    HW222182   0.336   2.730   0.096  0.7920 -1.5908  0.7909
 7242SOL     OW22183   4.939   4.675   5.523  0.9835  0.4170  0.1620
 7242SOL    HW122184   4.997   4.656   5.597  2.5747 -0.2271 -1.1794
 7242SOL    HW222185   4.871   4.730   5.560  2.1769  0.8040  1.9411
 7243SOL     OW22186   5.075   4.640   3.381  0.0528  0.4214 -0.2907
 7243SOL    HW122187   5.110   4.725   3.409 -0.5662  0.6631 -0.2368
 7243SOL    HW222188   5.104   4.631   3.290  1.4385 -0.0292  0.1606
 7244SOL     OW22189   0.882   1.646   2.340  0.6633 -0.2601 -0.0722
 7244SOL    HW122190   0.931   1.590   2.400  1.4263  1.2920  0.8096
 7244SOL    HW222191   0.946   1.711   2.310  0.4544 -1.2759 -3.0201
 7245SOL     OW22192   3.531   3.056   3.502 -0.3544 -0.0998 -0.4806
 7245SOL    HW122193   3.549   3.080   3.411  2.3324  2.5234  0.5665
 7245SOL    HW222194   3.463   3.118   3.530  1.8842  2.1586  0.3620
 7246SOL     OW22195   0.238   5.229   0.677 -0.5611 -0.2812 -0.3470
 7246SOL    HW122196   0.319   5.280   0.676  0.0368 -1.1995 -2.3189
 7246SOL    HW222197   0.194   5.256   0.758  0.3681  2.3260 -0.6202
 7247SOL     OW22198   2.920   1.903   3.677  0.3493  0.4631  0.1026
 7247SOL    HW122199   2.965   1.895   3.761 -1.3855 -1.5814  0.9277
 7247SOL    HW222200   2.982   1.870   3.613  0.9034 -0.0467  0.8878
 7248SOL     OW22201   1.703   0.404   2.351 -0.3552 -0.0452  0.4278
 7248SOL    HW122202   1.622   0.366   2.316  0.4779 -1.4645 -0.0365
 7248SOL    HW222203   1.750   0.435   2.274 -0.0981  0.0293  0.6160
 7249SOL     OW22204   5.018   3.358   4.260  0.2105 -0.0840  0.1808
 7249SOL    HW122205   4.972   3.426   4.210  1.1017  0.4034 -0.0054
 7249SOL    HW222206   5.031   3.397   4.346  1.3540  0.2980 -0.1352
 7250SOL     OW22207   2.884   1.570   0.713 -0.1608  0.3632 -0.3412
 7250SOL    HW122208   2.915   1.645   0.764 -0.9751  0.6327 -0.2211
 7250SOL    HW222209   2.833   1.609   0.642  1.1746  0.0059 -1.5445
 7251SOL     OW22210   4.737   2.982   5.937 -0.3444  0.0702  0.1638
 7251SOL    HW122211   4.659   3.037   5.930  0.3561  0.9184 -1.3904
 7251SOL    HW222212   4.763   2.965   5.847  0.3536 -1.5603  0.6371
 7252SOL     OW22213   4.632   0.872   1.126 -0.1651 -0.3207  0.0600
 7252SOL    HW122214   4.701   0.872   1.061 -0.7040 -1.0887 -0.5339
 7252SOL    HW222215   4.657   0.941   1.188  0.4123  0.3422 -0.8839
 7253SOL     OW22216   4.680   4.667   1.921 -0.4927  0.1458 -0.0131
 7253SOL    HW122217   4.600   4.666   1.868  0.1223  1.2924 -1.0226
 7253SOL    HW222218   4.652   4.636   2.008 -1.5355 -1.7193 -0.9514
 7254SOL     OW22219   3.793   6.291   6.203  0.8333 -0.0524 -0.0219
 7254SOL    HW122220   3.815   6.270   6.294  0.2488 -1.9992 -0.2665
 7254SOL    HW222221   3.756   6.379   6.206  2.7709  0.7814  1.2837
 7255SOL     OW22222   5.204   4.368   3.733  0.4170 -0.0078 -0.7140
 7255SOL    HW122223   5.188   4.316   3.654  2.7742 -3.9645  1.1097
 7255SOL    HW222224   5.297   4.391   3.728  0.4215  0.3405  0.5937
 7256SOL     OW22225   5.622   0.915   1.567  0.1201 -0.8389 -0.2468
 7256SOL    HW122226   5.582   1.002   1.558  0.8140 -0.5821 -0.9917
 7256SOL    HW222227   5.664   0.918   1.653 -0.9256 -0.9007  0.2827
 7257SOL     OW22228   3.991   0.300   4.568 -0.2004  0.5444 -0.6578
 7257SOL    HW122229   3.987   0.211   4.604  3.3817 -0.2574 -1.7567
 7257SOL    HW222230   3.967   0.289   4.476  0.6900  0.5756 -0.9058
 7258SOL     OW22231   5.734   4.031   5.007  0.3105  0.3664  0.1142
 7258SOL    HW122232   5.671   4.056   4.939  0.5396  2.1953  0.5308
 7258SOL    HW222233   5.763   3.943   4.981 -0.1823  0.6993 -1.7279
 7259SOL     OW22234   1.141   2.630   2.440 -0.0518  0.1237 -0.2717
 7259SOL    HW122235   1.074   2.580   2.486 -3.3377  1.5271 -3.0742
 7259SOL    HW222236   1.165   2.574   2.366  1.3540 -0.0463  0.2976
 7260SOL     OW22237   1.089   6.173   4.628  0.4228 -0.0557  0.0308
 7260SOL    HW122238   1.175   6.159   4.669  0.7876 -0.8908 -0.9798
 7260SOL    HW222239   1.091   6.264   4.599  0.8980 -0.0208  0.1566
 7261SOL     OW22240   3.327   3.133   2.981 -0.6735  0.3649  0.2425
 7261SOL    HW122241   3.317   3.064   2.915 -0.1227 -0.0577  0.5859
 7261SOL    HW222242   3.240   3.171   2.990 -0.2741  2.2274 -2.6472
 7262SOL     OW22243   1.468   5.141   4.153 -0.1979 -0.5108  0.3918
 7262SOL    HW122244   1.415   5.149   4.232 -0.9184 -0.3705 -0.0998
 7262SOL    HW222245   1.439   5.212   4.097  1.8384  0.7656  0.8443
 7263SOL     OW22246   2.169   0.221   4.803 -0.0149 -0.1653 -0.0382
 7263SOL    HW122247   2.217   0.253   4.879 -0.6675  1.5347 -0.3102
 7263SOL    HW222248   2.198   0.275   4.730  1.1901 -2.2856 -1.2273
 7264SOL     OW22249   1.814   5.341   3.999 -0.2864 -0.1988 -0.8092
 7264SOL    HW122250   1.875   5.297   3.940 -0.4159  1.3880 -2.1955
 7264SOL    HW222251   1.775   5.411   3.946 -1.5346  0.3357  0.7350
 7265SOL     OW22252   2.673   0.755   3.316 -0.2385  0.0888 -0.4474
 7265SOL    HW122253   2.732   0.705   3.261  0.2483  1.2847 -1.0365
 7265SOL    HW222254   2.712   0.752   3.403  0.6831  0.8305 -0.8224
 7266SOL     OW22255   1.715   6.208   6.373 -0.3217  0.3128 -0.0856
 7266SOL    HW122256   1.716   6.113   6.379 -0.2263  0.2174 -1.4444
 7266SOL    HW222257   1.637   6.234   6.422  0.0087 -0.4046  0.8594
 7267SOL     OW22258   4.344   3.805   1.123 -0.4398 -0.1765  0.8010
 7267SOL    HW122259   4.253   3.823   1.148 -0.3920 -0.5113  1.2298
 7267SOL    HW222260   4.392   3.807   1.206  0.0109  0.3582  0.5375
 7268SOL     OW22261   4.267   5.373   4.653  0.3752 -0.0580 -0.1399
 7268SOL    HW122262   4.283   5.290   4.609  1.0827  0.2051 -0.3951
 7268SOL    HW222263   4.199   5.354   4.718  1.3521 -1.1025  0.6007
 7269SOL     OW22264   3.588   5.598   3.066  0.1551 -0.1748 -0.0150
 7269SOL    HW122265   3.512   5.619   3.011  1.4495  0.7279 -1.5429
 7269SOL    HW222266   3.620   5.515   3.031 -0.0949 -0.5251  0.5888
 7270SOL     OW22267   2.816   1.040   1.695 -0.1997  0.0058 -0.1928
 7270SOL    HW122268   2.853   1.108   1.752  0.3153 -0.1807 -0.3022
 7270SOL    HW222269   2.721   1.053   1.701 -0.3115 -1.2874  2.3226
 7271SOL     OW22270   4.258   1.072   1.798 -0.3029  0.0836 -0.2176
 7271SOL    HW122271   4.326   1.067   1.731  0.4298  0.7350  0.4536
 7271SOL    HW222272   4.301   1.040   1.877 -0.1862  2.1448  0.6276
 7272SOL     OW22273   0.430   3.129   0.135 -0.8639 -0.0063 -0.1753
 7272SOL    HW122274   0.481   3.208   0.117  3.4392 -2.1795  1.0992
 7272SOL    HW222275   0.404   3.097   0.048 -2.0650  2.2854 -0.7493
 7273SOL     OW22276   2.157   5.160   1.769  0.1667 -0.2878  0.4319
 7273SOL    HW122277   2.239   5.129   1.808 -0.1326 -0.1500  1.1822
 7273SOL    HW222278   2.109   5.080   1.747 -0.3115 -0.3835  1.7446
 7274SOL     OW22279   2.181   0.975   0.852  1.0157 -0.1624 -0.0981
 7274SOL    HW122280   2.256   0.966   0.793  0.2824 -1.3240 -0.9244
 7274SOL    HW222281   2.106   0.944   0.799  0.0161  0.6334  0.8092
 7275SOL     OW22282   6.114   2.330   6.272 -0.4337 -0.4955 -0.0189
 7275SOL    HW122283   6.170   2.367   6.204  0.0680  0.0162  0.6567
 7275SOL    HW222284   6.150   2.365   6.354 -0.6462 -1.5830  0.5573
 7276SOL     OW22285   6.204   0.429   1.108 -0.8390 -0.1325 -1.2217
 7276SOL    HW122286   6.111   0.449   1.097 -1.3021 -1.2321  0.3599
 7276SOL    HW222287   6.230   0.479   1.186  0.0769  0.6492 -1.9980
 7277SOL     OW22288   6.162   6.249   3.596  0.1393  0.1243  0.4419
 7277SOL    HW122289   6.078   6.214   3.568 -0.2119 -0.7558  2.3905
 7277SOL    HW222290   6.202   6.177   3.645  1.9328  0.6054 -0.2542
 7278SOL     OW22291   4.900   4.290   5.595  0.3105  0.1233 -0.2623
 7278SOL    HW122292   4.993   4.310   5.604 -0.1156  1.6216  1.3855
 7278SOL    HW222293   4.886   4.217   5.655  0.8715 -2.0097 -2.5350
 7279SOL     OW22294   2.089   0.572   3.352 -0.4757 -0.5202 -0.4650
 7279SOL    HW122295   2.092   0.575   3.447  1.2245  0.6310 -0.5136
 7279SOL    HW222296   2.177   0.548   3.325 -0.7768 -0.2639 -1.7716
 7280SOL     OW22297   3.272   3.907   6.105 -0.6165 -0.1845  0.4024
 7280SOL    HW122298   3.297   3.954   6.025 -0.7902  1.1858  1.1244
 7280SOL    HW222299   3.177   3.914   6.109 -0.6075 -0.2346  0.7347
 7281SOL     OW22300   4.793   0.196   4.679 -0.2489 -0.2607 -0.0125
 7281SOL    HW122301   4.865   0.240   4.635 -0.0504 -1.1508 -0.6052
 7281SOL    HW222302   4.745   0.152   4.608 -1.5284  0.5158  0.3336
 7282SOL     OW22303   3.839   3.807   1.269  0.1566  0.8290 -0.9919
 7282SOL    HW122304   3.790   3.769   1.197  0.2235 -0.8098 -0.2167
 7282SOL    HW222305   3.792   3.888   1.290 -1.5830 -0.1259 -1.0132
 7283SOL     OW22306   3.643   6.083   5.089  0.4210 -0.0614 -0.3119
 7283SOL    HW122307   3.607   6.111   5.005 -1.8884 -1.4824  0.1113
 7283SOL    HW222308   3.700   6.009   5.068 -1.0281 -1.1475 -0.5838
 7284SOL     OW22309   6.213   5.861   4.907 -0.4345  0.1354  0.0695
 7284SOL    HW122310   6.160   5.825   4.836 -0.4976 -0.7414  0.5435
 7284SOL    HW222311   6.178   5.819   4.986  1.2773 -0.8540  0.3411
 7285SOL     OW22312   1.805   5.917   1.271 -0.1296 -0.3692  0.1614
 7285SOL    HW122313   1.838   5.979   1.206  1.1209  0.8936  1.9152
 7285SOL    HW222314   1.714   5.901   1.244 -0.0375  1.0933 -1.1667
 7286SOL     OW22315   2.134   0.869   5.086  0.0397  0.2740 -0.4286
 7286SOL    HW122316   2.130   0.774   5.090  0.7638  0.2948  2.2755
 7286SOL    HW222317   2.211   0.892   5.139 -0.3069  2.3814 -0.7647
 7287SOL     OW22318   4.687   1.166   3.523  0.0307 -0.1601 -0.1131
 7287SOL    HW122319   4.772   1.133   3.553 -0.5067 -0.6218  0.9896
 7287SOL    HW222320   4.708   1.230   3.455  1.2740 -0.0984  0.3005
 7288SOL     OW22321   3.164   3.645   5.280 -0.6277 -0.0037  0.3047
 7288SOL    HW122322   3.249   3.623   5.242 -0.4151  1.2635  0.0009
 7288SOL    HW222323   3.100   3.605   5.221 -0.2470 -1.1129  0.6336
 7289SOL     OW22324   0.002   2.766   1.040 -0.4944 -0.1943  0.4078
 7289SOL    HW122325   0.008   2.831   0.970  1.1984 -0.3141  0.3902
 7289SOL    HW222326  -0.043   2.691   1.001 -1.7746  0.6590  0.2049
 7290SOL     OW22327   1.375   5.247   3.440 -0.5604  0.4612  0.1286
 7290SOL    HW122328   1.358   5.158   3.408  0.7896  0.3717 -0.4404
 7290SOL    HW222329   1.351   5.304   3.367  2.4076  0.2640 -1.1440
 7291SOL     OW22330   3.177   6.045   5.486  0.3992 -0.2317 -0.1764
 7291SOL    HW122331   3.258   6.037   5.435 -0.1553 -3.2835 -0.7587
 7291SOL    HW222332   3.108   6.050   5.421 -0.0442  0.2976  0.3231
 7292SOL     OW22333   4.386   1.931   2.352  0.3242 -0.1052 -0.3812
 7292SOL    HW122334   4.374   1.878   2.273 -0.9156 -0.4392  0.0082
 7292SOL    HW222335   4.310   1.911   2.406  0.3240  1.3464  0.2067
 7293SOL     OW22336   0.576   5.683   3.346  0.0789 -0.1500  0.3533
 7293SOL    HW122337   0.495   5.716   3.383  0.0385 -2.9754  3.1399
 7293SOL    HW222338   0.640   5.692   3.416  1.6091 -0.1852 -0.9737
 7294SOL     OW22339   5.236   5.870   3.979  0.1232 -0.2112 -0.3116
 7294SOL    HW122340   5.158   5.896   3.930 -2.5464 -0.4174  3.4794
 7294SOL    HW222341   5.262   5.949   4.027  1.1268 -0.6524 -0.0866
 7295SOL     OW22342   2.012   0.609   0.538 -0.0207 -0.2868 -0.5459
 7295SOL    HW122343   2.091   0.564   0.508 -1.4446 -2.4029 -1.3477
 7295SOL    HW222344   1.965   0.632   0.458  0.7516  3.0122 -0.1898
 7296SOL     OW22345   4.147   5.100   0.981 -0.0132  0.0532 -0.0167
 7296SOL    HW122346   4.129   5.032   1.046  0.6178  1.6934  1.9825
 7296SOL    HW222347   4.065   5.110   0.933 -1.0954  0.0102  1.7434
 7297SOL     OW22348   5.844   2.036   0.516 -0.1498  0.4870 -0.2536
 7297SOL    HW122349   5.831   1.986   0.435  1.3353 -0.4199  0.0356
 7297SOL    HW222350   5.761   2.082   0.529 -1.0141 -0.6764 -1.3852
 7298SOL     OW22351   4.047   0.122   0.245 -0.0672 -0.0165  0.1300
 7298SOL    HW122352   4.096   0.133   0.164 -1.3347  2.5194 -0.4009
 7298SOL    HW222353   4.091   0.179   0.308  1.6055 -2.8105  1.7026
 7299SOL     OW22354   3.060   2.855   3.551 -1.0487 -0.4357  0.9285
 7299SOL    HW122355   3.086   2.825   3.464 -0.1941 -0.4540  1.1807
 7299SOL    HW222356   2.989   2.796   3.576 -1.4902 -0.2542  0.1348
 7300SOL     OW22357   4.564   0.467   2.460 -0.0321 -0.0267 -0.1404
 7300SOL    HW122358   4.613   0.453   2.379  1.6004  0.6344  0.7047
 7300SOL    HW222359   4.577   0.386   2.510  0.8320  0.4300  0.3906
 7301SOL     OW22360   3.864   1.366   2.821  0.0471 -0.5354  0.3381
 7301SOL    HW122361   3.839   1.435   2.882  0.2231  0.3487 -0.5752
 7301SOL    HW222362   3.931   1.316   2.867  0.9248  0.7423  0.4983
 7302SOL     OW22363   6.014   1.671   5.415 -0.6235 -0.0662  0.2492
 7302SOL    HW122364   6.013   1.680   5.320  0.1576  1.0276  0.3206
 7302SOL    HW222365   5.989   1.580   5.431 -1.4634 -0.0815 -0.9606
 7303SOL     OW22366   4.591   6.290   4.947  0.3398 -0.3924  0.2687
 7303SOL    HW122367   4.521   6.273   5.010  0.2226 -0.1848  0.1970
 7303SOL    HW222368   4.582   6.383   4.926  1.1225 -0.1815  0.8319
 7304SOL     OW22369   0.646   4.193   4.310 -0.2701 -0.2814  0.3066
 7304SOL    HW122370   0.574   4.167   4.367 -0.6678 -0.3716 -0.2320
 7304SOL    HW222371   0.604   4.219   4.228  0.3709 -1.4190 -0.4142
 7305SOL     OW22372   3.005   3.602   4.879  0.8422  0.2380 -0.6829
 7305SOL    HW122373   3.089   3.561   4.855  1.2290  1.5900 -1.7428
 7305SOL    HW222374   2.971   3.547   4.949  1.7201 -1.4339 -1.5096
 7306SOL     OW22375   5.877   5.699   5.151 -0.0857 -0.2148 -0.0313
 7306SOL    HW122376   5.959   5.703   5.102 -0.1560  1.4383 -0.0679
 7306SOL    HW222377   5.888   5.763   5.222 -0.0680 -2.3949  2.0469
 7307SOL     OW22378   0.349   1.795   4.502 -0.0150  0.1367 -0.1369
 7307SOL    HW122379   0.361   1.708   4.540  1.7477  0.8475  1.1129
 7307SOL    HW222380   0.377   1.786   4.411 -3.9088 -1.5011 -1.3569
 7308SOL     OW22381   0.047   3.602   1.140 -0.1089  0.5211 -0.3018
 7308SOL    HW122382   0.094   3.553   1.073 -0.5078  0.6792 -0.7015
 7308SOL    HW222383  -0.022   3.649   1.092  0.5392  1.8201  0.0007
 7309SOL     OW22384   5.767   4.859   0.665  0.1813  0.0484  0.8524
 7309SOL    HW122385   5.758   4.781   0.720 -0.6417 -0.6609 -0.2461
 7309SOL    HW222386   5.837   4.838   0.604 -1.0095 -0.4480 -0.3913
 7310SOL     OW22387   2.338   0.792   4.700 -0.3818 -0.4227 -0.0026
 7310SOL    HW122388   2.297   0.871   4.736  0.1986  0.6847 -1.6489
 7310SOL    HW222389   2.267   0.747   4.654 -0.3130  0.1678 -0.7027
 7311SOL     OW22390   3.281   0.840   5.223 -0.3786  0.3557 -0.1294
 7311SOL    HW122391   3.376   0.847   5.229 -0.5159  2.1144  0.4593
 7311SOL    HW222392   3.260   0.764   5.277  0.7960 -1.1216 -1.6444
 7312SOL     OW22393   5.096   6.003   2.679  0.0219  0.2586 -0.1881
 7312SOL    HW122394   5.051   6.024   2.596 -0.8793  0.2640  0.2900
 7312SOL    HW222395   5.124   5.912   2.668  0.9159  0.6088 -0.9349
 7313SOL     OW22396   1.050   1.880   2.443 -0.3763  0.0926  0.3440
 7313SOL    HW122397   1.075   1.966   2.409 -1.0852  0.5022  0.8067
 7313SOL    HW222398   1.122   1.822   2.419 -0.7836  0.3690 -1.7496
 7314SOL     OW22399   5.427   2.126   4.807  0.5466 -0.4416  0.2158
 7314SOL    HW122400   5.395   2.049   4.854  0.9035 -0.8602 -0.2097
 7314SOL    HW222401   5.350   2.182   4.797  0.5317 -0.1912  1.5653
 7315SOL     OW22402   1.459   5.161   4.945 -0.6598 -0.3767  0.2086
 7315SOL    HW122403   1.370   5.153   4.979 -0.3462 -1.7979  0.7893
 7315SOL    HW222404   1.473   5.080   4.895  0.2117 -0.0577 -0.0798
 7316SOL     OW22405   6.145   3.776   4.844  0.3897  0.1667 -0.3124
 7316SOL    HW122406   6.171   3.726   4.766  0.8218 -0.1096  0.0041
 7316SOL    HW222407   6.167   3.719   4.917  2.0797  1.2996  0.1307
 7317SOL     OW22408   1.095   3.859   3.970 -0.1593 -0.4626  0.5258
 7317SOL    HW122409   1.114   3.774   4.009 -1.0048 -0.7865  0.2763
 7317SOL    HW222410   1.168   3.875   3.910  0.6676 -0.3911  1.5202
 7318SOL     OW22411   4.088   5.740   4.975  0.0197  0.0140 -0.3840
 7318SOL    HW122412   4.158   5.687   5.013 -0.1248  0.4317  0.5008
 7318SOL    HW222413   4.129   5.825   4.959 -0.3478  0.3566  0.4290
 7319SOL     OW22414   3.869   4.182   0.560 -0.0323 -0.5639 -0.4219
 7319SOL    HW122415   3.910   4.151   0.479 -1.8056 -1.5103 -1.0100
 7319SOL    HW222416   3.796   4.237   0.531  0.7997  1.1668  0.5996
 7320SOL     OW22417   5.419   0.436   3.434 -0.1496 -0.4321 -0.0461
 7320SOL    HW122418   5.474   0.512   3.456 -3.4951  2.4475 -0.7587
 7320SOL    HW222419   5.455   0.404   3.351  1.3583  0.3434  0.2713
 7321SOL     OW22420   3.588   3.362   0.590 -0.1839 -0.0714  0.6559
 7321SOL    HW122421   3.622   3.452   0.592  1.8511 -0.6397 -1.8955
 7321SOL    HW222422   3.495   3.372   0.573  0.3128  1.6377 -1.6282
 7322SOL     OW22423   1.689   2.904   4.775 -0.0290 -0.2336  0.1624
 7322SOL    HW122424   1.700   2.965   4.847  3.4631  0.9443 -1.1930
 7322SOL    HW222425   1.754   2.836   4.791 -2.3178 -2.5379  0.4212
 7323SOL     OW22426   2.803   4.304   4.226  0.2584  0.2387 -0.3231
 7323SOL    HW122427   2.785   4.276   4.315 -1.2154  0.8331 -0.3963
 7323SOL    HW222428   2.897   4.289   4.213 -0.0434 -2.7572  0.2870
 7324SOL     OW22429   0.027   4.989   3.908 -0.5085  0.1469  0.2820
 7324SOL    HW122430   0.085   5.062   3.930  0.0777  0.8462 -2.9846
 7324SOL    HW222431   0.081   4.930   3.856 -1.6664 -1.3367  0.6876
 7325SOL     OW22432   6.066   1.218   3.310 -0.4592 -0.0719 -0.2358
 7325SOL    HW122433   6.126   1.154   3.272 -0.4715 -1.2417  1.5925
 7325SOL    HW222434   5.981   1.197   3.272 -0.1900 -0.1378 -0.8093
 7326SOL     OW22435   5.615   0.291   3.814  0.4306 -0.5807  0.4426
 7326SOL    HW122436   5.543   0.346   3.782 -1.0522 -2.3915  0.4772
 7326SOL    HW222437   5.670   0.351   3.864 -1.1350  0.8793  0.5324
 7327SOL     OW22438   5.660   2.441   3.100 -0.2825  0.3495  0.0856
 7327SOL    HW122439   5.571   2.452   3.133 -0.2221 -0.6092  0.6364
 7327SOL    HW222440   5.678   2.347   3.111  0.6506  0.4562 -0.3829
 7328SOL     OW22441   3.043   1.531   3.718  0.3127  0.3938  0.2752
 7328SOL    HW122442   3.098   1.483   3.656  0.8594 -0.1160  1.1300
 7328SOL    HW222443   3.102   1.551   3.791 -0.9016 -1.2545  1.8029
 7329SOL     OW22444   3.883   3.684   0.023  0.1202  0.1128 -0.1829
 7329SOL    HW122445   3.955   3.647  -0.027 -1.0454 -1.2486 -0.9307
 7329SOL    HW222446   3.910   3.675   0.114  0.7474 -0.7024 -0.4380
 7330SOL     OW22447   1.257   2.490   4.587  0.1658  0.1974  0.3432
 7330SOL    HW122448   1.268   2.570   4.535  1.3147  0.5838  1.1440
 7330SOL    HW222449   1.163   2.484   4.600 -0.0190  0.9450 -0.4547
 7331SOL     OW22450   0.068   1.475   2.211 -0.1542  0.1794  0.2209
 7331SOL    HW122451   0.016   1.544   2.170 -0.1906 -0.0047 -0.0525
 7331SOL    HW222452   0.124   1.520   2.273 -0.8162  0.3548  0.7013
 7332SOL     OW22453   0.960   1.296   0.668  0.3546 -0.3143  0.0375
 7332SOL    HW122454   0.887   1.331   0.719  1.7504 -0.9907  2.6950
 7332SOL    HW222455   0.939   1.203   0.657 -0.0606 -0.1211 -0.9025
 7333SOL     OW22456   4.037   3.141   1.034 -0.3106 -0.1890  0.4307
 7333SOL    HW122457   4.073   3.198   0.966  1.9416 -1.1700  0.7103
 7333SOL    HW222458   4.012   3.200   1.105  0.5156  0.5738  0.1040
 7334SOL     OW22459   1.485   4.756   2.865 -0.6036 -0.3874  0.2102
 7334SOL    HW122460   1.394   4.728   2.868 -0.6965 -0.0974  0.1427
 7334SOL    HW222461   1.484   4.834   2.809 -0.1133 -1.1807 -0.9495
 7335SOL     OW22462   5.766   5.779   4.315  0.0243  0.0611 -0.6287
 7335SOL    HW122463   5.825   5.827   4.257  0.4124 -2.1235 -2.1964
 7335SOL    HW222464   5.678   5.807   4.289  0.2394 -0.0628 -1.5371
 7336SOL     OW22465   5.228   3.726   4.964 -0.3207 -0.0339 -0.1623
 7336SOL    HW122466   5.229   3.651   5.023 -2.6298  0.3639  0.4650
 7336SOL    HW222467   5.229   3.802   5.022  2.4921  0.5158 -0.7937
 7337SOL     OW22468   1.545   1.938   3.986  0.2264 -0.2953 -0.1794
 7337SOL    HW122469   1.523   2.010   4.046 -2.0996 -2.2309  1.4927
 7337SOL    HW222470   1.617   1.892   4.030 -1.1260 -1.4038  0.9561
 7338SOL     OW22471   1.679   3.421   2.314 -0.1403  0.2274 -0.2766
 7338SOL    HW122472   1.633   3.360   2.258 -0.9911 -0.7461  1.4123
 7338SOL    HW222473   1.652   3.508   2.284 -0.2023 -0.2513 -1.6339
 7339SOL     OW22474   3.496   2.993   6.106  0.5550  0.2984  0.3191
 7339SOL    HW122475   3.469   3.071   6.155  0.1201 -0.9234  2.1180
 7339SOL    HW222476   3.582   2.970   6.143  0.8390  0.1193 -0.4417
 7340SOL     OW22477   2.730   2.620   5.005 -0.6210  0.2698 -0.1694
 7340SOL    HW122478   2.778   2.678   4.946 -0.8187  1.2437  0.6009
 7340SOL    HW222479   2.713   2.541   4.953  1.2275  0.1461 -0.6726
 7341SOL     OW22480   1.318   4.638   3.218  0.3010  0.0005 -0.1894
 7341SOL    HW122481   1.380   4.677   3.156 -0.5176  0.5185 -0.6949
 7341SOL    HW222482   1.347   4.547   3.226  0.7800  0.0817 -0.8570
 7342SOL     OW22483   1.172   0.475   6.275 -0.0167  0.4903  0.1012
 7342SOL    HW122484   1.182   0.389   6.316 -0.5427  0.8115  0.9358
 7342SOL    HW222485   1.099   0.463   6.213  0.3731  0.1653 -0.3068
 7343SOL     OW22486   3.339   1.995   5.171  0.0536 -0.4495  0.5133
 7343SOL    HW122487   3.291   2.012   5.090 -1.0225 -0.1051  1.2036
 7343SOL    HW222488   3.418   2.049   5.164 -0.0922 -0.3182 -0.2377
 7344SOL     OW22489   5.967   4.960   2.054 -0.8832 -0.2061 -0.0115
 7344SOL    HW122490   6.060   4.966   2.036 -0.8784 -0.1548  0.0296
 7344SOL    HW222491   5.933   4.901   1.987 -0.4579 -1.9820  1.2480
 7345SOL     OW22492   3.233   6.166   6.254 -0.2546  0.6967  0.1507
 7345SOL    HW122493   3.267   6.199   6.337  0.9418  1.2840 -0.5403
 7345SOL    HW222494   3.311   6.135   6.208 -0.9353  0.1487 -0.6532
 7346SOL     OW22495   6.231   2.927   5.058 -0.2816  0.2449 -0.5441
 7346SOL    HW122496   6.241   2.868   5.133  0.1378  0.2328 -0.6042
 7346SOL    HW222497   6.141   2.914   5.028  0.7779 -3.0835 -2.8285
 7347SOL     OW22498   5.488   1.772   4.873 -0.2885 -0.2553  0.6067
 7347SOL    HW122499   5.552   1.792   4.804 -0.7846  0.1156  0.2419
 7347SOL    HW222500   5.496   1.677   4.886  0.6331 -0.1495  0.8744
 7348SOL     OW22501   4.920   5.077   0.160  0.0399  0.0001  0.2445
 7348SOL    HW122502   4.847   5.028   0.196  0.0043  0.8426  1.3863
 7348SOL    HW222503   4.909   5.166   0.195  1.1756  0.3312 -0.1820
 7349SOL     OW22504   2.944   3.438   1.890 -0.1123 -0.1691  0.3335
 7349SOL    HW122505   2.867   3.487   1.920  0.0276  1.4343 -1.6709
 7349SOL    HW222506   2.999   3.429   1.967 -1.6987 -0.1997  1.5226
 7350SOL     OW22507   4.595   0.794   6.012  0.3170  0.5872  0.1993
 7350SOL    HW122508   4.657   0.785   5.939  1.4340  1.8551  0.9298
 7350SOL    HW222509   4.619   0.877   6.053  0.0211 -0.2959  2.2879
 7351SOL     OW22510   5.573   0.691   3.279 -0.3829 -0.5900 -0.1742
 7351SOL    HW122511   5.597   0.615   3.226  1.4331  1.1644 -2.0690
 7351SOL    HW222512   5.491   0.722   3.241 -1.1185 -1.5373  0.5916
 7352SOL     OW22513   3.471   3.563   0.299  0.3317 -0.4519 -0.9915
 7352SOL    HW122514   3.384   3.583   0.334  0.2160 -1.8804 -0.3804
 7352SOL    HW222515   3.520   3.644   0.307 -0.7258  0.1670 -0.6486
 7353SOL     OW22516   2.340   1.622   4.513  0.0618 -0.4811 -0.0131
 7353SOL    HW122517   2.419   1.661   4.473 -0.6240 -0.2160 -1.1528
 7353SOL    HW222518   2.361   1.529   4.521 -0.1675 -0.7506 -2.0484
 7354SOL     OW22519   4.296   3.198   4.843 -0.0327  0.1451  0.6393
 7354SOL    HW122520   4.370   3.139   4.833  0.7277  1.0268  0.9702
 7354SOL    HW222521   4.234   3.150   4.897 -0.5839 -1.3733 -1.2226
 7355SOL     OW22522   3.330   3.884   3.669  0.6164  0.5398 -0.9455
 7355SOL    HW122523   3.249   3.933   3.659  1.0165  1.1569 -1.2760
 7355SOL    HW222524   3.316   3.802   3.623 -0.4030 -0.0807  0.4053
 7356SOL     OW22525   1.822   6.109   2.949  0.0344 -0.2265 -0.9617
 7356SOL    HW122526   1.737   6.069   2.966 -0.7878  1.7902  0.1169
 7356SOL    HW222527   1.802   6.203   2.943  2.0466  0.1850 -1.7527
 7357SOL     OW22528   0.601   1.252   1.951 -0.2105 -0.1229  0.1762
 7357SOL    HW122529   0.616   1.200   1.872  1.3059  0.4525  0.0436
 7357SOL    HW222530   0.648   1.206   2.020 -3.1826 -1.7419  1.2964
 7358SOL     OW22531   5.688   4.067   4.662 -0.5639  0.4800 -0.4743
 7358SOL    HW122532   5.599   4.035   4.678 -0.6497  0.2303 -1.4029
 7358SOL    HW222533   5.736   3.991   4.630  0.2074  0.4274  0.7305
 7359SOL     OW22534   3.241   3.791   4.717  0.2568  0.0746  0.2949
 7359SOL    HW122535   3.166   3.843   4.746  0.6483  0.3071  0.9133
 7359SOL    HW222536   3.203   3.708   4.689 -0.2568  0.2689  0.4105
 7360SOL     OW22537   5.441   2.859   6.107 -0.2323  0.0547 -0.6714
 7360SOL    HW122538   5.346   2.863   6.093 -0.1922  0.2323 -0.8951
 7360SOL    HW222539   5.478   2.883   6.022  0.0138 -0.7688 -0.8049
 7361SOL     OW22540   2.277   1.956   3.331  0.6298  0.4929  0.1003
 7361SOL    HW122541   2.184   1.947   3.311  0.9907 -0.5452 -1.2211
 7361SOL    HW222542   2.278   1.996   3.418 -1.0449  0.2719  0.2682
 7362SOL     OW22543   2.667   3.818   4.621  0.1694  0.4355  0.1265
 7362SOL    HW122544   2.618   3.885   4.573 -2.1351 -0.4420  1.1019
 7362SOL    HW222545   2.653   3.839   4.713  2.0375  0.3678  0.4660
 7363SOL     OW22546   4.071   3.807   4.381 -0.2868  0.5352 -0.0886
 7363SOL    HW122547   4.138   3.766   4.435 -0.3698 -0.1518 -0.4891
 7363SOL    HW222548   3.988   3.777   4.420 -0.3469  0.1781 -0.4775
 7364SOL     OW22549   1.537   1.753   0.446 -0.2183 -0.2571  0.1181
 7364SOL    HW122550   1.468   1.688   0.429 -1.6566  0.3160  3.1840
 7364SOL    HW222551   1.590   1.714   0.515  0.8654  0.5229 -0.2472
 7365SOL     OW22552   3.108   0.990   2.889 -0.3537 -0.4451 -0.0271
 7365SOL    HW122553   3.032   1.041   2.860 -0.1806 -0.1163  0.0972
 7365SOL    HW222554   3.167   1.055   2.927  0.9715 -0.3561 -2.1159
 7366SOL     OW22555   1.106   5.908   5.117  0.2577 -0.4826  0.2955
 7366SOL    HW122556   1.184   5.922   5.172 -0.1081 -0.2661  0.7638
 7366SOL    HW222557   1.081   5.996   5.088 -2.1212  0.0137  3.3488
 7367SOL     OW22558   0.440   2.115   0.065 -0.1091  0.6434  0.2584
 7367SOL    HW122559   0.392   2.037   0.092 -0.9645  0.8043 -0.7454
 7367SOL    HW222560   0.453   2.104  -0.029  1.5627  0.7566  0.4421
 7368SOL     OW22561   1.326   4.629   2.012 -0.3582 -0.2046  0.4385
 7368SOL    HW122562   1.329   4.680   2.092 -0.3416  0.7351 -0.1488
 7368SOL    HW222563   1.285   4.687   1.947 -0.2813 -0.9043 -0.2588
 7369SOL     OW22564   2.150   4.278   0.268  0.2428  0.0188 -0.1751
 7369SOL    HW122565   2.235   4.309   0.236  0.3346 -1.9538 -2.0520
 7369SOL    HW222566   2.088   4.347   0.241  0.9305  0.3620 -0.9288
 7370SOL     OW22567   5.366   3.794   5.595 -0.0668 -0.1918 -0.1236
 7370SOL    HW122568   5.414   3.869   5.630  0.0233 -0.0974 -0.4471
 7370SOL    HW222569   5.317   3.760   5.670 -1.8526  1.5204 -0.4292
 7371SOL     OW22570   1.981   0.700   6.106  0.2618  0.0457 -0.2512
 7371SOL    HW122571   1.920   0.627   6.106  0.5386 -0.2204  1.5716
 7371SOL    HW222572   1.930   0.774   6.072 -0.3815 -0.6930 -0.9210
 7372SOL     OW22573   3.223   6.126   1.233  0.1836  0.0853  0.4787
 7372SOL    HW122574   3.209   6.165   1.320 -1.1226 -0.2108  0.4262
 7372SOL    HW222575   3.135   6.108   1.201  0.6610  0.0432 -0.8550
 7373SOL     OW22576   4.950   5.246   5.730  0.0125 -0.5050 -0.2878
 7373SOL    HW122577   5.006   5.322   5.746 -0.3842 -0.5362  1.4661
 7373SOL    HW222578   4.874   5.282   5.683  1.8710 -0.6404 -3.6715
 7374SOL     OW22579   1.121   0.183   2.651  0.2966  0.0947  0.0146
 7374SOL    HW122580   1.032   0.218   2.644  0.0666 -0.1876  1.2389
 7374SOL    HW222581   1.162   0.202   2.566 -1.4328 -1.2145 -1.1921
 7375SOL     OW22582   5.468   2.710   4.118  0.2234  0.5717  0.1068
 7375SOL    HW122583   5.481   2.689   4.211  1.1750 -0.8597 -0.3089
 7375SOL    HW222584   5.542   2.767   4.096  0.9229 -0.3945 -0.1298
 7376SOL     OW22585   2.063   2.764   1.221  0.0225 -0.0578  0.7784
 7376SOL    HW122586   2.130   2.784   1.155  0.8385 -1.9314  0.9818
 7376SOL    HW222587   2.110   2.760   1.304 -0.2232 -1.7929  0.8697
 7377SOL     OW22588   6.236   3.869   1.540 -0.3657  0.4843 -0.1499
 7377SOL    HW122589   6.290   3.842   1.465 -1.6467 -1.7490 -0.3629
 7377SOL    HW222590   6.257   3.961   1.552  2.5153  0.0461 -1.0095
 7378SOL     OW22591   3.990   1.713   2.046 -0.6574  0.1431 -0.1071
 7378SOL    HW122592   3.897   1.694   2.056 -1.1387  1.4604 -1.5900
 7378SOL    HW222593   4.001   1.731   1.953  1.2476 -0.7188 -0.0991
 7379SOL     OW22594   2.031   1.211   3.409  0.0974  0.2472  0.7673
 7379SOL    HW122595   1.985   1.142   3.362  0.0746  0.4050  0.5589
 7379SOL    HW222596   1.981   1.222   3.491 -2.2069  2.6373 -0.7936
 7380SOL     OW22597   5.926   1.875   2.361 -0.0100  0.8172 -0.4183
 7380SOL    HW122598   5.905   1.948   2.303  0.7278  0.2301 -1.4589
 7380SOL    HW222599   5.848   1.819   2.358 -0.0335  0.8641 -0.7244
 7381SOL     OW22600   3.471   1.067   0.239 -0.5492  0.6296  0.0934
 7381SOL    HW122601   3.498   1.039   0.151 -0.2283  2.2965 -0.3749
 7381SOL    HW222602   3.500   0.996   0.297  1.4791  0.6282 -0.8432
 7382SOL     OW22603   2.279   5.505   4.022  0.3592  0.1747  0.6834
 7382SOL    HW122604   2.224   5.426   4.021  0.5806  0.0124 -0.7317
 7382SOL    HW222605   2.219   5.576   4.044 -0.1351 -0.1944  0.5479
 7383SOL     OW22606   4.732   0.284   0.241  0.1849 -0.0881 -0.1020
 7383SOL    HW122607   4.707   0.193   0.224  1.3850 -0.4447 -0.0286
 7383SOL    HW222608   4.693   0.333   0.168  0.0138 -0.7422 -0.4621
 7384SOL     OW22609   1.354   0.530   2.390 -0.0910  0.9123  0.6082
 7384SOL    HW122610   1.443   0.556   2.366  0.0232 -2.1379 -3.1848
 7384SOL    HW222611   1.298   0.594   2.345  0.1757  1.1812  0.6548
 7385SOL     OW22612   4.781   2.518   3.830  0.2497  0.0789  0.6377
 7385SOL    HW122613   4.768   2.502   3.737  0.4957 -3.4999  1.0883
 7385SOL    HW222614   4.875   2.535   3.839  0.1135  1.1503  0.1977
 7386SOL     OW22615   1.110   1.328   5.406 -0.0193 -0.5988 -0.4521
 7386SOL    HW122616   1.189   1.379   5.420 -1.6327  1.5438  1.5919
 7386SOL    HW222617   1.082   1.352   5.318  1.3859 -1.1571 -1.0839
 7387SOL     OW22618   1.250   0.424   0.230 -0.6857  0.0024 -0.0443
 7387SOL    HW122619   1.282   0.425   0.320  0.3361 -1.4000 -0.3638
 7387SOL    HW222620   1.279   0.508   0.193  1.0020 -0.4261  0.2490
 7388SOL     OW22621   5.101   0.005   3.979 -0.5405  0.4819 -0.1689
 7388SOL    HW122622   5.029  -0.015   3.919 -0.9287 -0.6987  0.6524
 7388SOL    HW222623   5.161   0.060   3.928 -0.9268 -0.3756 -1.5831
 7389SOL     OW22624   3.292   3.021   4.188 -0.0112  0.8989 -0.2313
 7389SOL    HW122625   3.252   3.107   4.200 -1.1080  0.3630  0.0235
 7389SOL    HW222626   3.314   3.018   4.095  0.4321  1.6076 -0.1630
 7390SOL     OW22627   1.976   3.703   0.713  0.3992 -0.1930  0.1947
 7390SOL    HW122628   1.894   3.738   0.750 -0.2533 -1.8690  0.3949
 7390SOL    HW222629   1.991   3.621   0.760 -0.9279 -2.9367 -3.6556
 7391SOL     OW22630   2.831   5.262   5.134  0.4474  0.1000  0.1960
 7391SOL    HW122631   2.882   5.263   5.053  0.3719 -1.0397  0.1147
 7391SOL    HW222632   2.868   5.333   5.187 -0.3264  1.7177 -1.3140
 7392SOL     OW22633   4.340   5.149   4.440 -0.1937  0.1075 -0.3535
 7392SOL    HW122634   4.314   5.210   4.372 -0.4115  0.3364 -0.0690
 7392SOL    HW222635   4.262   5.096   4.456 -0.5085  0.8002  0.5076
 7393SOL     OW22636   0.228   5.858   5.371 -0.6047 -0.1784  0.5283
 7393SOL    HW122637   0.283   5.898   5.439  0.9327 -1.3501  0.0434
 7393SOL    HW222638   0.176   5.930   5.336  1.4500  1.2644  0.2492
 7394SOL     OW22639   5.326   5.175   4.084 -0.3121 -0.1493  0.2914
 7394SOL    HW122640   5.397   5.238   4.070 -0.6276  0.1827  0.1557
 7394SOL    HW222641   5.360   5.114   4.149 -0.0542  0.2465  0.5308
 7395SOL     OW22642   3.914   1.828   4.535  0.4626  0.2956  0.1350
 7395SOL    HW122643   3.956   1.758   4.585  0.2916  0.3380  0.3359
 7395SOL    HW222644   3.981   1.855   4.472 -0.0969 -1.3965 -1.3052
 7396SOL     OW22645   3.508   3.251   1.115  0.4632  0.4855 -0.0852
 7396SOL    HW122646   3.598   3.272   1.088  0.3661  0.4603 -0.4341
 7396SOL    HW222647   3.505   3.275   1.208  1.1430 -0.4976  0.2112
 7397SOL     OW22648   1.209   5.499   5.669 -0.1175  0.4988 -0.2836
 7397SOL    HW122649   1.178   5.471   5.583 -2.0019  1.9525 -0.1419
 7397SOL    HW222650   1.245   5.420   5.709  0.1413 -0.3565 -2.1090
 7398SOL     OW22651   2.910   3.053   1.790  0.4011  0.2183  0.0480
 7398SOL    HW122652   2.965   3.112   1.738  0.4988 -1.0188 -1.3206
 7398SOL    HW222653   2.920   3.084   1.880  3.1225  0.2168 -0.1725
 7399SOL     OW22654   5.937   2.521   1.243  0.3196  0.7254 -0.2837
 7399SOL    HW122655   5.883   2.485   1.173  0.2317  1.2474 -0.4883
 7399SOL    HW222656   5.878   2.580   1.290  0.0626 -0.4145  0.8912
 7400SOL     OW22657   4.129   4.958   4.485  0.4857  0.2161  0.0520
 7400SOL    HW122658   4.064   4.974   4.553  0.2599  1.2169 -0.3732
 7400SOL    HW222659   4.077   4.950   4.405  0.8563  0.7021 -0.2410
 7401SOL     OW22660   2.800   4.068   5.926  0.2764 -0.5748 -0.4261
 7401SOL    HW122661   2.880   4.058   5.875  0.2814 -1.4353 -0.2758
 7401SOL    HW222662   2.819   4.138   5.989  1.6188 -2.0433  0.9044
 7402SOL     OW22663   3.924   3.023   3.335 -0.4406  0.1857 -0.5081
 7402SOL    HW122664   3.851   3.033   3.273  0.0281  2.5195 -0.7927
 7402SOL    HW222665   3.982   3.096   3.314  0.6640 -0.0744  1.4710
 7403SOL     OW22666   2.497   4.658   0.306 -0.0960  0.1383  0.1807
 7403SOL    HW122667   2.485   4.753   0.306  0.3256  0.1922  0.6407
 7403SOL    HW222668   2.544   4.639   0.388 -0.4487 -0.4976  0.2464
 7404SOL     OW22669   5.123   3.932   1.099 -0.2678 -0.1967  0.4137
 7404SOL    HW122670   5.183   3.864   1.071  0.5551  0.4160  0.6399
 7404SOL    HW222671   5.177   4.011   1.105 -0.5962 -0.0810  2.7202
 7405SOL     OW22672   4.165   5.971   4.206  0.3375  0.1390 -0.3342
 7405SOL    HW122673   4.255   5.971   4.238 -0.2851  0.5055  1.5554
 7405SOL    HW222674   4.165   5.908   4.134  1.7945 -0.9758  0.5758
 7406SOL     OW22675   3.679   4.336   0.440  0.4409  0.1531  0.7203
 7406SOL    HW122676   3.701   4.388   0.362 -0.0607  1.5965  1.5073
 7406SOL    HW222677   3.602   4.286   0.415 -0.0922  1.0750  0.4598
 7407SOL     OW22678   2.395   1.468   3.120  0.4427  0.0096 -0.0162
 7407SOL    HW122679   2.392   1.498   3.029  0.5745  0.0964  0.0087
 7407SOL    HW222680   2.488   1.462   3.141  0.4647 -1.9482 -0.5179
 7408SOL     OW22681   4.828   2.540   1.930  0.5648 -0.3855 -0.1680
 7408SOL    HW122682   4.738   2.508   1.918  0.6746 -0.0871 -2.1125
 7408SOL    HW222683   4.882   2.461   1.923  0.5101 -0.4894  0.4749
 7409SOL     OW22684   4.762   0.125   5.855 -0.2104 -0.1135 -0.5722
 7409SOL    HW122685   4.786   0.131   5.947  1.1239  0.7641 -0.9420
 7409SOL    HW222686   4.667   0.139   5.854 -0.1016  0.9406  0.5800
 7410SOL     OW22687   2.161   3.975   1.381  0.3786 -0.2418 -0.1931
 7410SOL    HW122688   2.077   3.952   1.341  0.0209 -0.3610  0.6046
 7410SOL    HW222689   2.150   4.067   1.406 -0.1745 -0.7092  1.4659
 7411SOL     OW22690   4.273   6.288   3.997  0.1600  0.3153  0.5613
 7411SOL    HW122691   4.223   6.294   3.916 -0.6072  0.1915  1.0144
 7411SOL    HW222692   4.339   6.221   3.980 -2.2863 -2.4561  1.1952
 7412SOL     OW22693   0.053   3.623   0.629  0.0186 -0.0687  0.1243
 7412SOL    HW122694   0.030   3.573   0.551  1.1977 -0.2841 -0.1035
 7412SOL    HW222695   0.007   3.706   0.620  0.3897  0.0269 -0.9556
 7413SOL     OW22696   5.658   5.353   6.030 -0.4540  0.2669  0.5776
 7413SOL    HW122697   5.591   5.391   6.086 -0.4354  1.5666 -0.2356
 7413SOL    HW222698   5.712   5.427   6.003  1.8225 -0.8356  1.8373
 7414SOL     OW22699   5.617   4.246   2.421  0.6931 -0.3994  0.1699
 7414SOL    HW122700   5.676   4.245   2.496 -0.5977  0.7434  1.2745
 7414SOL    HW222701   5.557   4.173   2.438  1.2038 -0.9695 -0.4549
 7415SOL     OW22702   5.231   2.210   3.920 -0.4313 -0.6262 -0.7676
 7415SOL    HW122703   5.222   2.274   3.991 -0.1748 -0.1189 -1.1753
 7415SOL    HW222704   5.225   2.125   3.962 -1.5360 -0.3302 -0.3062
 7416SOL     OW22705   2.255   2.316   0.558  0.5318 -0.2593 -0.3099
 7416SOL    HW122706   2.281   2.226   0.578  1.3927  0.4195  1.8157
 7416SOL    HW222707   2.334   2.368   0.572 -0.2320  0.9805 -0.4513
 7417SOL     OW22708   5.776   1.477   4.943  0.4272  0.0466 -0.1487
 7417SOL    HW122709   5.812   1.478   5.032 -3.9199 -0.0299  1.9193
 7417SOL    HW222710   5.840   1.429   4.891  2.6746 -0.9871  3.2264
 7418SOL     OW22711   3.653   0.177   6.158 -0.1876  0.1460 -0.0543
 7418SOL    HW122712   3.593   0.109   6.129 -0.2335 -0.7704  2.0172
 7418SOL    HW222713   3.599   0.256   6.165 -0.8804 -0.3737  0.5652
 7419SOL     OW22714   5.651   2.965   5.462  0.4075  0.0587 -0.0735
 7419SOL    HW122715   5.600   2.982   5.383  1.6144  0.4488 -0.7872
 7419SOL    HW222716   5.618   3.028   5.526 -1.1792 -0.8250  0.0529
 7420SOL     OW22717   2.059   3.176   5.169  0.3260  0.5709  0.9581
 7420SOL    HW122718   2.140   3.167   5.119  0.2708  0.7328  0.8375
 7420SOL    HW222719   2.044   3.271   5.174  0.2664  0.5492  1.1763
 7421SOL     OW22720   2.934   4.857   3.687  0.4189  0.5852 -0.2109
 7421SOL    HW122721   3.020   4.817   3.680  0.2691  0.4184 -1.2342
 7421SOL    HW222722   2.874   4.793   3.648 -0.2328  0.5328  0.8215
 7422SOL     OW22723   5.591   5.708   3.261  0.1398 -0.4719 -0.1215
 7422SOL    HW122724   5.580   5.677   3.170  2.3496 -0.9466 -0.2753
 7422SOL    HW222725   5.560   5.798   3.259 -0.2575 -0.6138 -1.2445
 7423SOL     OW22726   4.350   4.812   5.497  0.4872 -0.3927 -0.2294
 7423SOL    HW122727   4.289   4.867   5.545  0.3956  0.6654 -1.5208
 7423SOL    HW222728   4.423   4.798   5.559 -0.8140 -1.3517  1.1799
 7424SOL     OW22729   2.922   6.085   4.639 -0.1232 -0.1053 -0.1469
 7424SOL    HW122730   2.853   6.085   4.705  0.3350 -1.3857  0.3694
 7424SOL    HW222731   2.897   6.015   4.578 -0.5333  1.0533 -1.3541
 7425SOL     OW22732   3.055   3.932   2.298  0.6483  0.2742  0.1534
 7425SOL    HW122733   3.068   3.987   2.221  1.4062  0.1305  0.1645
 7425SOL    HW222734   3.105   3.852   2.279  0.9636  0.2959  0.8470
 7426SOL     OW22735   0.383   1.349   5.167  0.8678 -0.5311  0.2674
 7426SOL    HW122736   0.417   1.261   5.183 -0.0944 -0.7691  1.1619
 7426SOL    HW222737   0.425   1.377   5.085  0.1688 -2.3460 -0.7674
 7427SOL     OW22738   6.347   2.156   2.875 -0.2532  0.3831 -0.5373
 7427SOL    HW122739   6.271   2.173   2.930 -0.7747  0.0930 -1.1667
 7427SOL    HW222740   6.320   2.085   2.817  0.5924  0.0694 -0.5720
 7428SOL     OW22741   5.914   5.322   5.194  0.6808 -0.4646  0.0360
 7428SOL    HW122742   5.968   5.338   5.117  2.0254 -2.1789  0.5437
 7428SOL    HW222743   5.951   5.379   5.262 -0.4038  0.9274 -0.5034
 7429SOL     OW22744   1.601   4.070   5.699  0.2144  0.5790 -0.3498
 7429SOL    HW122745   1.573   3.979   5.690  0.1538  0.6514 -0.9254
 7429SOL    HW222746   1.551   4.104   5.773 -0.1464  0.2922 -0.4613
 7430SOL     OW22747   2.862   5.401   0.233  0.3241  0.5319  0.0040
 7430SOL    HW122748   2.885   5.412   0.141  3.2837 -3.0499  0.0899
 7430SOL    HW222749   2.784   5.346   0.232 -0.8150  2.0941 -0.2834
 7431SOL     OW22750   5.102   5.706   1.026  0.5786  0.2661 -0.0962
 7431SOL    HW122751   5.093   5.754   1.109 -1.9836  1.2248 -0.8227
 7431SOL    HW222752   5.013   5.702   0.991  1.5650 -0.1311 -2.8025
 7432SOL     OW22753   4.911   5.595   0.293 -0.1011  0.3784  0.1905
 7432SOL    HW122754   4.850   5.669   0.300 -0.5318  0.1152 -0.6654
 7432SOL    HW222755   4.956   5.593   0.377 -0.7817  1.0134  0.5800
 7433SOL     OW22756   2.297   4.345   2.482 -0.9202 -0.2245  0.4407
 7433SOL    HW122757   2.325   4.402   2.554 -0.7492  0.0575  0.1514
 7433SOL    HW222758   2.369   4.349   2.419 -1.8661  1.0321 -0.6116
 7434SOL     OW22759   1.810   3.763   6.312 -0.1346 -0.0493 -0.4065
 7434SOL    HW122760   1.876   3.789   6.249  0.1376  0.5078  0.1049
 7434SOL    HW222761   1.756   3.841   6.325  0.9949  0.4758  1.5155
 7435SOL     OW22762   5.395   3.235   2.138  0.0592  0.4709  0.2391
 7435SOL    HW122763   5.449   3.313   2.138 -0.5760  0.9972  2.9495
 7435SOL    HW222764   5.450   3.167   2.176  0.3087 -0.2126 -1.2791
 7436SOL     OW22765   4.783   3.147   3.692  0.1711 -0.4765 -0.1866
 7436SOL    HW122766   4.740   3.147   3.606 -0.2972  0.5708  0.0341
 7436SOL    HW222767   4.735   3.080   3.741  0.7609 -1.4400 -0.8710
 7437SOL     OW22768   3.009   0.000   1.015 -0.5340  0.0093 -0.1707
 7437SOL    HW122769   3.023   0.036   1.103 -0.1450 -0.4961 -0.0203
 7437SOL    HW222770   2.947   0.060   0.974 -1.6765 -0.4118  0.8774
 7438SOL     OW22771   5.402   6.083   2.470 -0.1326 -0.5103  0.0365
 7438SOL    HW122772   5.475   6.138   2.497 -0.1045  0.7259 -2.3106
 7438SOL    HW222773   5.336   6.096   2.538  0.5612  1.0124  0.4596
 7439SOL     OW22774   0.895   5.391   2.927  0.0984  0.2754  0.1403
 7439SOL    HW122775   0.840   5.316   2.947 -1.8938  1.9213  1.0815
 7439SOL    HW222776   0.964   5.389   2.994 -1.1239  0.4133  1.4455
 7440SOL     OW22777   4.829   1.633   4.571 -0.1072  0.3534 -0.4765
 7440SOL    HW122778   4.810   1.571   4.500 -1.8955 -0.1563  0.4011
 7440SOL    HW222779   4.793   1.716   4.540 -2.4091 -0.2151  0.4139
 7441SOL     OW22780   4.869   5.317   0.272  0.2155 -0.3963 -0.1480
 7441SOL    HW122781   4.886   5.407   0.243 -0.7557 -0.6056 -1.4837
 7441SOL    HW222782   4.825   5.327   0.357 -1.6974  0.5217 -1.1668
 7442SOL     OW22783   3.864   5.290   0.660  0.1354 -0.0217  0.3618
 7442SOL    HW122784   3.858   5.216   0.720  0.4624 -0.0695  0.3378
 7442SOL    HW222785   3.957   5.294   0.635  0.1831  0.5945  0.6185
 7443SOL     OW22786   3.340   6.174   0.777 -0.3249  0.2390 -0.2503
 7443SOL    HW122787   3.302   6.097   0.820 -0.0178 -0.5806 -1.4025
 7443SOL    HW222788   3.348   6.239   0.847 -2.7463  0.0506  0.2646
 7444SOL     OW22789   0.709   3.407   1.260  0.6178  0.2699  0.2615
 7444SOL    HW122790   0.698   3.451   1.176  0.6085  1.4673  0.8737
 7444SOL    HW222791   0.800   3.376   1.259  0.0447 -1.5371 -1.0033
 7445SOL     OW22792   1.526   0.703   3.986  0.2982  0.3710  0.6230
 7445SOL    HW122793   1.443   0.750   3.990  0.0796 -0.0349  0.8618
 7445SOL    HW222794   1.503   0.611   4.000  0.7890  0.2602  0.7200
 7446SOL     OW22795   1.606   1.528   3.436 -0.7297  0.0099 -0.8686
 7446SOL    HW122796   1.544   1.456   3.446 -1.7963  1.0940  1.1590
 7446SOL    HW222797   1.683   1.501   3.487 -2.4109  1.5118  2.8383
 7447SOL     OW22798   0.151   2.320   6.193 -0.0472 -0.0313  0.2155
 7447SOL    HW122799   0.206   2.298   6.118  0.7482 -0.0493  0.7934
 7447SOL    HW222800   0.199   2.390   6.238 -1.2609  1.0887 -0.1379
 7448SOL     OW22801   5.701   3.602   2.135 -0.1868 -0.0441 -0.2100
 7448SOL    HW122802   5.763   3.673   2.120 -0.2108 -0.3730 -2.0494
 7448SOL    HW222803   5.750   3.536   2.184  0.1115  0.8197  0.6801
 7449SOL     OW22804   0.548   2.241   1.303 -0.0152 -0.1510  0.0736
 7449SOL    HW122805   0.638   2.222   1.276 -0.3200 -0.8623 -0.4799
 7449SOL    HW222806   0.540   2.200   1.390 -0.1114 -0.9992 -0.3250
 7450SOL     OW22807   1.436   3.826   6.341 -0.4599  0.0201 -0.2610
 7450SOL    HW122808   1.420   3.757   6.277  1.0143 -0.3072 -0.3101
 7450SOL    HW222809   1.512   3.873   6.308  0.4621 -0.2747  1.3253
 7451SOL     OW22810   3.407   2.093   1.964 -0.2599  0.2642  0.2341
 7451SOL    HW122811   3.400   2.005   2.002  0.6220  0.1649  0.1760
 7451SOL    HW222812   3.382   2.151   2.036  0.5741  0.0366  0.7167
 7452SOL     OW22813   2.475   0.460   2.019  0.6427 -0.2849 -0.4536
 7452SOL    HW122814   2.519   0.498   1.943  2.3994 -0.5942  0.3661
 7452SOL    HW222815   2.537   0.396   2.053 -0.7154 -1.1885  0.4096
 7453SOL     OW22816   4.701   0.503   3.876 -0.2198  0.0691 -0.6511
 7453SOL    HW122817   4.760   0.502   3.801 -1.6674  2.3156 -1.9424
 7453SOL    HW222818   4.690   0.411   3.899  0.0464 -0.7546 -3.4078
 7454SOL     OW22819   2.503   4.355   2.295 -0.2059 -0.3909 -0.4425
 7454SOL    HW122820   2.544   4.437   2.322  0.5613 -1.1185  0.7125
 7454SOL    HW222821   2.562   4.287   2.327 -1.5061 -1.4337 -0.1440
 7455SOL     OW22822   5.819   4.684   4.818  0.1373  0.5424  0.6143
 7455SOL    HW122823   5.897   4.693   4.763 -0.6629  1.6857 -0.3809
 7455SOL    HW222824   5.844   4.724   4.901  0.5705  1.0267  0.2569
 7456SOL     OW22825   4.816   0.442   4.359  0.1885 -0.0091 -0.0758
 7456SOL    HW122826   4.726   0.466   4.379  0.6916  0.9075  1.2192
 7456SOL    HW222827   4.863   0.525   4.353  1.5112 -0.5161  2.2167
 7457SOL     OW22828   1.324   2.460   0.247 -0.4279 -0.3348  0.0937
 7457SOL    HW122829   1.341   2.534   0.304  0.0749  2.0434 -2.9066
 7457SOL    HW222830   1.252   2.489   0.190  0.8788 -1.4111 -2.2627
 7458SOL     OW22831   2.566   1.118   2.786 -0.2333 -0.1786 -0.1728
 7458SOL    HW122832   2.488   1.166   2.813 -1.8431 -3.1178  0.8056
 7458SOL    HW222833   2.558   1.032   2.828  1.9985 -1.6676 -2.4617
 7459SOL     OW22834   5.600   4.239   2.874  0.9791  0.3792  0.1781
 7459SOL    HW122835   5.529   4.212   2.932  1.8842 -1.0701  0.6796
 7459SOL    HW222836   5.592   4.181   2.798  1.8026 -0.0238  0.3885
 7460SOL     OW22837   2.991   3.006   4.783  0.1294  0.3048 -0.1664
 7460SOL    HW122838   2.937   3.081   4.809  0.0095  0.1909 -0.0873
 7460SOL    HW222839   3.025   2.971   4.865 -1.1534 -0.7382 -0.0625
 7461SOL     OW22840   5.732   5.685   1.913 -0.6374 -0.4024  0.5810
 7461SOL    HW122841   5.640   5.685   1.887 -0.7004  1.4023  0.6624
 7461SOL    HW222842   5.781   5.701   1.832 -0.5359  0.6265  0.8359
 7462SOL     OW22843   6.378   2.782   2.550 -0.6618  0.5083  0.0645
 7462SOL    HW122844   6.401   2.690   2.533 -1.3961 -0.2844  2.8870
 7462SOL    HW222845   6.444   2.832   2.502  1.5881 -1.5548  0.8138
 7463SOL     OW22846   1.545   5.437   3.567  0.9506 -0.3491  0.5179
 7463SOL    HW122847   1.533   5.361   3.511  3.5318 -0.8291  0.4917
 7463SOL    HW222848   1.469   5.435   3.626 -0.2302 -1.5801 -0.9487
 7464SOL     OW22849   3.593   3.352   5.479 -0.5334  0.5134 -0.0409
 7464SOL    HW122850   3.551   3.413   5.540  1.5720  1.1682  0.8476
 7464SOL    HW222851   3.657   3.405   5.432 -0.5525 -0.4684 -1.2233
 7465SOL     OW22852   2.982   5.198   3.401 -0.1297  0.4381  0.2804
 7465SOL    HW122853   3.033   5.167   3.476  2.7181 -0.1508 -1.7221
 7465SOL    HW222854   2.939   5.119   3.367  0.0864  0.3499  0.2134
 7466SOL     OW22855   5.921   1.754   0.915  0.3401  0.4409  0.2615
 7466SOL    HW122856   5.845   1.716   0.957  0.8693 -1.3709 -0.3205
 7466SOL    HW222857   5.996   1.721   0.965  0.8253  0.6107 -0.3337
 7467SOL     OW22858   0.679   5.739   5.083  0.4017 -0.9051  0.2448
 7467SOL    HW122859   0.756   5.737   5.026 -0.0601 -0.7852 -0.3983
 7467SOL    HW222860   0.702   5.801   5.152  0.3478  0.2434 -0.7298
 7468SOL     OW22861   2.774   0.566   6.241 -0.1587 -0.4484 -0.4486
 7468SOL    HW122862   2.693   0.605   6.209  0.9844  1.2136 -1.4991
 7468SOL    HW222863   2.807   0.514   6.167 -0.0353 -0.7200 -0.2028
 7469SOL     OW22864   5.210   2.558   6.366 -0.6111 -0.0410 -0.1323
 7469SOL    HW122865   5.255   2.570   6.282 -2.0186  0.3102 -0.8661
 7469SOL    HW222866   5.118   2.571   6.345 -0.9638  0.2408  1.5212
 7470SOL     OW22867   4.109   6.035   2.152  0.3438  0.1993  0.7530
 7470SOL    HW122868   4.022   6.068   2.172  0.3111  0.2403  0.5402
 7470SOL    HW222869   4.103   6.002   2.063  0.0843 -1.3455  1.2998
 7471SOL     OW22870   4.331   1.996   1.903  0.1936 -0.1925  0.6995
 7471SOL    HW122871   4.333   1.970   1.811  0.9432 -0.2284  0.7262
 7471SOL    HW222872   4.384   2.076   1.907 -2.0559  1.4102  0.6174
 7472SOL     OW22873   5.165   1.661   0.616  0.1471 -0.0508  0.6171
 7472SOL    HW122874   5.200   1.626   0.534  1.4147  0.7649  0.7809
 7472SOL    HW222875   5.099   1.597   0.644  0.9131 -1.2033 -0.1571
 7473SOL     OW22876   4.230   1.064   4.738  0.0748 -0.0782  0.3585
 7473SOL    HW122877   4.240   1.069   4.833 -0.7849  1.2476  0.4027
 7473SOL    HW222878   4.135   1.066   4.723  0.2165  1.2419 -0.5651
 7474SOL     OW22879   2.592   4.495   1.262 -0.5081  0.3859 -0.3162
 7474SOL    HW122880   2.575   4.581   1.299  3.1380  0.2608  2.1225
 7474SOL    HW222881   2.614   4.511   1.170 -2.5261  1.6003 -0.6543
 7475SOL     OW22882   1.235   3.090   4.857  0.3573  0.3188  0.0930
 7475SOL    HW122883   1.275   3.072   4.942 -0.2500  1.5253  0.6471
 7475SOL    HW222884   1.310   3.107   4.799  0.7320  0.6774  0.6724
 7476SOL     OW22885   2.414   0.296   1.749  0.1932 -0.3976 -0.5003
 7476SOL    HW122886   2.342   0.345   1.708  1.0346  2.1526  0.9107
 7476SOL    HW222887   2.385   0.281   1.839  0.6307 -1.1217 -0.4691
 7477SOL     OW22888   3.095   0.652   3.914  0.3305 -0.2113 -0.2605
 7477SOL    HW122889   3.171   0.695   3.874  0.5452 -1.9258 -1.7945
 7477SOL    HW222890   3.113   0.655   4.008  2.3679 -0.6706 -0.5842
 7478SOL     OW22891   4.625   2.612   5.005 -0.4624  0.2455  0.4098
 7478SOL    HW122892   4.653   2.613   5.097 -0.6651 -2.7190  0.5771
 7478SOL    HW222893   4.707   2.615   4.956 -0.2060 -0.8171  0.7538
 7479SOL     OW22894   0.812   2.046   6.125 -0.1391 -0.8154 -0.3691
 7479SOL    HW122895   0.734   2.089   6.089 -0.0797  1.0230  1.5476
 7479SOL    HW222896   0.785   1.955   6.136 -2.1514 -0.1878  0.4538
 7480SOL     OW22897   5.652   6.085   1.239  0.6510  0.1190  0.4093
 7480SOL    HW122898   5.729   6.136   1.263 -0.9454  1.9026  2.0529
 7480SOL    HW222899   5.657   6.007   1.294  2.0722 -0.6063 -0.6787
 7481SOL     OW22900   4.267   6.353   3.494 -0.2379 -0.7851 -0.3274
 7481SOL    HW122901   4.259   6.441   3.532  1.2801 -0.0791 -1.5244
 7481SOL    HW222902   4.254   6.294   3.568  0.8554  0.4936  0.9475
 7482SOL     OW22903   4.186   0.432   0.018 -0.8530 -0.0504 -0.2398
 7482SOL    HW122904   4.240   0.492  -0.033 -1.4346  0.0154 -0.7873
 7482SOL    HW222905   4.228   0.346   0.005 -0.2028  0.1756  0.2963
 7483SOL     OW22906   0.995   4.098   1.877  0.1575 -0.2151 -0.3635
 7483SOL    HW122907   0.936   4.174   1.875  2.5197  1.8459  1.4035
 7483SOL    HW222908   0.962   4.044   1.948 -1.3665 -0.7488 -1.4275
 7484SOL     OW22909   3.820   5.701   6.343 -0.1755  0.0953 -0.9971
 7484SOL    HW122910   3.731   5.718   6.312 -1.3446 -0.0537  2.0253
 7484SOL    HW222911   3.813   5.621   6.395  1.7943 -0.0506 -0.8879
 7485SOL     OW22912   0.928   2.602   3.947  0.1173 -0.2021 -0.0640
 7485SOL    HW122913   0.966   2.621   4.032  0.3665  2.6997 -0.7244
 7485SOL    HW222914   1.001   2.609   3.886 -0.6008  0.8444 -0.8373
 7486SOL     OW22915   4.162   3.264   4.150 -0.4949 -0.0359  0.6289
 7486SOL    HW122916   4.093   3.325   4.125 -0.6157  0.6434  2.4853
 7486SOL    HW222917   4.130   3.179   4.120 -0.7161  0.6584 -1.2206
 7487SOL     OW22918   0.915   5.318   1.366  0.7377 -0.8696  0.1728
 7487SOL    HW122919   0.963   5.341   1.286  0.4611  0.9107  0.4785
 7487SOL    HW222920   0.852   5.390   1.377 -1.1910 -2.5028  0.4546
 7488SOL     OW22921   4.933   4.076   2.915 -0.0206 -0.2381  0.4817
 7488SOL    HW122922   4.855   4.062   2.861  0.4901 -0.6343 -0.1635
 7488SOL    HW222923   4.930   4.169   2.936  2.1714  1.1976 -4.1550
 7489SOL     OW22924   3.488   3.778   4.316  0.7809  0.4452 -0.2545
 7489SOL    HW122925   3.528   3.861   4.291  2.6628 -0.1494  0.6465
 7489SOL    HW222926   3.498   3.773   4.411 -1.1923  0.0968 -0.0130
 7490SOL     OW22927   0.919   5.641   2.210  0.2259 -0.7099  0.2244
 7490SOL    HW122928   0.864   5.670   2.137  0.0880 -2.9471 -0.6730
 7490SOL    HW222929   0.858   5.622   2.281  0.3795  1.6899  1.0817
 7491SOL     OW22930   3.205   2.742   0.091  0.1248 -0.1110  0.3451
 7491SOL    HW122931   3.246   2.800   0.028 -0.3816 -0.7370 -0.5814
 7491SOL    HW222932   3.272   2.727   0.158  0.8630  0.1011 -0.3391
 7492SOL     OW22933   3.693   3.646   3.021 -0.1681 -0.1565 -0.4819
 7492SOL    HW122934   3.726   3.618   3.106 -0.6277  1.1816  0.1799
 7492SOL    HW222935   3.598   3.631   3.027 -0.4835  1.7665  0.0428
 7493SOL     OW22936   5.207   3.588   0.031 -0.0463 -0.2260 -0.2290
 7493SOL    HW122937   5.228   3.664   0.085 -0.7177  0.2065 -0.5600
 7493SOL    HW222938   5.270   3.592  -0.041 -0.0182 -0.0288 -0.1961
 7494SOL     OW22939   6.023   4.109   3.491 -0.0016  0.2063  0.5996
 7494SOL    HW122940   5.937   4.068   3.498 -0.4261  1.0659  0.5563
 7494SOL    HW222941   6.051   4.090   3.402  0.1679 -0.6573  0.8236
 7495SOL     OW22942   4.983   3.582   3.504 -0.6678  0.1392  0.4165
 7495SOL    HW122943   5.012   3.628   3.582 -2.3876  3.2793 -0.5939
 7495SOL    HW222944   4.972   3.651   3.438 -1.5968 -2.0241 -1.8823
 7496SOL     OW22945   5.629   2.892   6.276  0.0142 -0.4322  0.0062
 7496SOL    HW122946   5.673   2.816   6.238  2.3690  0.0946  1.4539
 7496SOL    HW222947   5.548   2.900   6.227  0.4475 -2.9002 -1.2653
 7497SOL     OW22948   2.333   5.375   6.147  0.4738 -0.3145  0.2668
 7497SOL    HW122949   2.244   5.410   6.142  0.2801 -0.9485 -1.1209
 7497SOL    HW222950   2.359   5.389   6.238 -0.5713  1.0088  0.3917
 7498SOL     OW22951   4.537   2.679   4.250  0.4598  0.0448  0.1675
 7498SOL    HW122952   4.630   2.672   4.274  0.2175  0.1917  1.1912
 7498SOL    HW222953   4.537   2.670   4.155  1.3007 -2.6082  0.3137
 7499SOL     OW22954   0.974   3.033   1.464 -0.5558 -0.3570 -0.1828
 7499SOL    HW122955   0.884   2.999   1.459 -0.6123 -0.3591  0.6750
 7499SOL    HW222956   1.029   2.955   1.461 -0.4465 -0.2825 -2.7274
 7500SOL     OW22957   3.964   2.707   4.707 -0.3467  0.3629 -0.0759
 7500SOL    HW122958   3.885   2.762   4.710 -0.6036  0.0028 -0.1826
 7500SOL    HW222959   4.034   2.768   4.686 -1.0067  0.2720 -2.9333
 7501SOL     OW22960   2.081   3.464   5.242 -0.3893 -0.0497 -0.2365
 7501SOL    HW122961   2.061   3.495   5.331  0.6396 -0.6188  0.2062
 7501SOL    HW222962   2.167   3.501   5.223 -0.4689 -0.1944 -0.8865
 7502SOL     OW22963   5.056   4.037   4.600  0.1019  0.0361 -0.2162
 7502SOL    HW122964   5.117   4.105   4.628 -0.1074 -0.3194  1.1981
 7502SOL    HW222965   5.048   3.979   4.677  0.4445 -1.7142 -1.4297
 7503SOL     OW22966   5.714   1.188   5.020  0.2091 -0.1627 -0.1030
 7503SOL    HW122967   5.806   1.164   5.012  0.1062 -0.7678  0.4473
 7503SOL    HW222968   5.715   1.283   5.031  0.8321 -0.2513  0.7128
 7504SOL     OW22969   6.197   6.171   0.169  0.5087  0.3718  0.1248
 7504SOL    HW122970   6.113   6.215   0.183 -0.2561 -0.6953 -0.8384
 7504SOL    HW222971   6.207   6.114   0.246  1.0323  1.4869  0.9000
 7505SOL     OW22972   1.636   3.317   4.737  0.3081 -0.5608  0.4359
 7505SOL    HW122973   1.619   3.409   4.760 -1.3428 -0.5994 -0.4494
 7505SOL    HW222974   1.706   3.290   4.796  2.7079  1.9937 -0.9561
 7506SOL     OW22975   5.016   4.534   5.298 -0.1069 -0.8140  0.5626
 7506SOL    HW122976   5.026   4.592   5.374  0.5131 -0.7910  0.4687
 7506SOL    HW222977   4.923   4.512   5.297 -0.4811  0.6833  0.2286
 7507SOL     OW22978   2.591   3.348   0.540 -0.2829  0.7684 -0.6190
 7507SOL    HW122979   2.649   3.367   0.466  2.0583  0.6345  1.0666
 7507SOL    HW222980   2.630   3.396   0.613 -0.6854 -1.5813  1.2418
 7508SOL     OW22981   2.806   2.427   1.584  0.5648 -0.1622  0.2240
 7508SOL    HW122982   2.791   2.335   1.565 -1.2133 -0.0581  0.9804
 7508SOL    HW222983   2.899   2.432   1.606  0.5678 -1.8730  0.7070
 7509SOL     OW22984   2.638   2.722   0.576  0.1324  0.3233 -0.0054
 7509SOL    HW122985   2.709   2.709   0.513 -0.1351 -0.7080 -0.1072
 7509SOL    HW222986   2.673   2.690   0.659  0.1115  0.6916  0.1478
 7510SOL     OW22987   0.890   1.254   4.651  0.3501  0.4421  0.0659
 7510SOL    HW122988   0.827   1.227   4.718 -0.2944  0.5857 -0.4667
 7510SOL    HW222989   0.888   1.350   4.653 -0.8259  0.4813 -1.1742
 7511SOL     OW22990   2.389   1.447   0.911 -0.1932 -0.1135 -0.0339
 7511SOL    HW122991   2.477   1.410   0.921  0.2245  0.8215 -0.1094
 7511SOL    HW222992   2.392   1.528   0.963 -0.4371  0.8478 -1.4560
 7512SOL     OW22993   5.392   4.366   2.725  0.2454 -0.0193 -0.0583
 7512SOL    HW122994   5.477   4.322   2.737  0.7907  0.6317 -1.3268
 7512SOL    HW222995   5.347   4.313   2.660 -0.9466 -1.1630  1.6266
 7513SOL     OW22996   5.547   5.415   1.854  0.8268  0.1408 -0.3952
 7513SOL    HW122997   5.507   5.327   1.849  2.7971 -0.7471 -2.0702
 7513SOL    HW222998   5.621   5.404   1.913  2.9476 -0.2387 -2.9337
 7514SOL     OW22999   5.921   3.866   0.554  0.3809 -0.0539  0.4193
 7514SOL    HW123000   5.843   3.902   0.596 -0.0817 -0.9911  0.3838
 7514SOL    HW223001   5.922   3.774   0.580  3.2514  0.5841  3.0931
 7515SOL     OW23002   0.805   1.769   0.235  0.4317 -0.1911 -0.7743
 7515SOL    HW123003   0.777   1.718   0.311 -0.2812 -1.5142 -1.8906
 7515SOL    HW223004   0.736   1.834   0.223  0.6316  0.1319 -0.1918
 7516SOL     OW23005   1.608   1.351   1.707  0.0707 -0.4244  0.8319
 7516SOL    HW123006   1.680   1.289   1.697  0.2914 -0.3425  1.7747
 7516SOL    HW223007   1.551   1.336   1.632  1.1521 -0.3796 -0.0026
 7517SOL     OW23008   3.084   3.548   0.901  0.2412  0.7414 -0.2757
 7517SOL    HW123009   3.021   3.565   0.971  2.1959  1.3658  1.4174
 7517SOL    HW223010   3.049   3.470   0.857 -1.7041  1.0790  0.5622
 7518SOL     OW23011   2.398   5.814   4.205  0.2761 -0.1421  0.7150
 7518SOL    HW123012   2.461   5.868   4.251 -0.3879  0.3493  1.0700
 7518SOL    HW223013   2.439   5.796   4.120  0.8080  0.3220  0.8674
 7519SOL     OW23014   3.744   2.437   6.261  0.4638 -0.1279  0.5064
 7519SOL    HW123015   3.704   2.426   6.174  0.4920  1.1614  0.3058
 7519SOL    HW223016   3.718   2.525   6.288  0.6337 -0.4364  1.7290
 7520SOL     OW23017   0.744   3.191   5.879  0.0656  0.2233 -0.1211
 7520SOL    HW123018   0.656   3.225   5.899  0.3590  1.0961 -0.2570
 7520SOL    HW223019   0.753   3.114   5.935 -2.0073 -1.7906 -2.3570
 7521SOL     OW23020   6.374   0.402   3.033  0.0841 -0.2964 -0.1776
 7521SOL    HW123021   6.367   0.318   2.986 -2.4293 -0.8268  0.9960
 7521SOL    HW223022   6.299   0.403   3.091  1.4505  1.6878  1.6992
 7522SOL     OW23023   2.082   4.504   5.352  0.0947  0.0272 -0.5386
 7522SOL    HW123024   1.998   4.521   5.393  0.0510 -0.5359 -0.3874
 7522SOL    HW223025   2.061   4.450   5.276  0.2642  0.3401 -0.8113
 7523SOL     OW23026   0.571   5.641   1.077  0.4055 -0.2091  0.4402
 7523SOL    HW123027   0.646   5.609   1.027  0.5626 -1.6381  1.5430
 7523SOL    HW223028   0.501   5.579   1.057  0.0234  0.0959  0.8165
 7524SOL     OW23029   4.999   6.169   3.665 -0.2688 -0.1835  0.2320
 7524SOL    HW123030   4.940   6.168   3.590 -1.2242 -0.2966  0.9800
 7524SOL    HW223031   4.963   6.235   3.724  0.6141  0.0862  0.4988
 7525SOL     OW23032   0.361   6.174   0.918  0.4735  0.2834 -0.3609
 7525SOL    HW123033   0.437   6.180   0.861 -0.7836  0.5982 -2.0970
 7525SOL    HW223034   0.382   6.230   0.993  0.8694  2.6674 -2.1411
 7526SOL     OW23035   2.908   2.677   2.446 -0.0719 -0.3921 -0.1798
 7526SOL    HW123036   2.852   2.604   2.417  1.2989 -1.4274 -0.3495
 7526SOL    HW223037   2.909   2.671   2.541 -1.6790  0.7766 -0.0466
 7527SOL     OW23038   6.234   5.272   6.189 -0.0811 -0.5446 -0.2384
 7527SOL    HW123039   6.193   5.191   6.159 -0.0914 -0.6548  0.0751
 7527SOL    HW223040   6.312   5.243   6.237 -0.6640 -0.4241  0.8140
 7528SOL     OW23041   5.863   3.295   5.522 -0.0575 -0.0631 -0.3052
 7528SOL    HW123042   5.833   3.367   5.578 -3.3275 -0.2334 -1.5979
 7528SOL    HW223043   5.800   3.292   5.450 -0.6477 -4.6696  0.0463
 7529SOL     OW23044   1.768   4.920   4.254 -0.6987 -0.1183 -0.7917
 7529SOL    HW123045   1.709   4.922   4.179  0.2415  0.9225 -1.5334
 7529SOL    HW223046   1.827   4.847   4.236 -1.6232 -1.0706 -0.1175
 7530SOL     OW23047   5.580   6.136   5.797  0.0651  0.4580  0.1963
 7530SOL    HW123048   5.514   6.070   5.816  0.2229  0.6785  1.6321
 7530SOL    HW223049   5.547   6.216   5.838  0.4727  0.9685 -0.4374
 7531SOL     OW23050   0.215   4.948   4.778  0.1418 -0.2031  0.1458
 7531SOL    HW123051   0.142   4.925   4.836  0.7968 -1.8472  0.3903
 7531SOL    HW223052   0.251   5.028   4.816 -0.7242 -0.1035  0.7931
 7532SOL     OW23053   6.151   1.629   3.604 -0.1653  1.1157  0.1820
 7532SOL    HW123054   6.068   1.676   3.601 -0.7966  0.0914  1.0598
 7532SOL    HW223055   6.137   1.558   3.666  0.4209 -0.8865 -1.8357
 7533SOL     OW23056   5.894   5.287   3.783 -0.0741 -0.2909  0.5159
 7533SOL    HW123057   5.976   5.276   3.830  0.3850  1.7318  0.2867
 7533SOL    HW223058   5.837   5.217   3.815  1.2477 -0.8332  1.7431
 7534SOL     OW23059   0.960   3.485   3.343  0.4985 -0.7234  0.3555
 7534SOL    HW123060   1.045   3.525   3.365  0.2662 -0.4360  0.7464
 7534SOL    HW223061   0.926   3.456   3.428 -1.5115  2.5191  0.8127
 7535SOL     OW23062   3.011   3.807   3.041  0.4592  0.1421 -0.0401
 7535SOL    HW123063   2.920   3.832   3.057  0.8519  0.8661  1.1893
 7535SOL    HW223064   3.015   3.790   2.947 -0.8969  0.3018 -0.1438
 7536SOL     OW23065   5.999   4.108   6.189 -0.2004  0.0751 -0.0783
 7536SOL    HW123066   6.017   4.201   6.175 -0.4206  0.3478  1.3873
 7536SOL    HW223067   6.046   4.086   6.269 -1.1820 -0.7761  0.2838
 7537SOL     OW23068   3.082   3.469   1.318 -0.4083 -0.1699  0.5895
 7537SOL    HW123069   3.071   3.445   1.226  1.8809 -0.1660  0.2596
 7537SOL    HW223070   3.085   3.564   1.317 -1.6222 -0.1169  0.8571
 7538SOL     OW23071   5.229   0.812   4.744  0.4879 -0.3569 -0.4357
 7538SOL    HW123072   5.164   0.826   4.674 -0.5771  2.9765  1.0264
 7538SOL    HW223073   5.313   0.828   4.702 -0.2158  2.9824 -0.7974
 7539SOL     OW23074   0.503   4.709   6.335 -0.1884  1.2260  0.4127
 7539SOL    HW123075   0.455   4.680   6.413  0.2808  1.5719  0.8352
 7539SOL    HW223076   0.444   4.689   6.262 -0.8421  1.3579  0.8985
 7540SOL     OW23077   3.993   0.968   4.370  0.1323 -0.0751  0.6009
 7540SOL    HW123078   3.982   0.962   4.276  1.5814  1.8385  0.2521
 7540SOL    HW223079   4.088   0.964   4.383  0.0616  1.3902  1.7990
 7541SOL     OW23080   3.343   1.939   3.777 -0.7039  0.1732  0.1478
 7541SOL    HW123081   3.382   2.019   3.742 -0.6530 -0.8077 -2.2044
 7541SOL    HW223082   3.418   1.881   3.791 -0.9047 -0.0867  0.1370
 7542SOL     OW23083   0.109   0.701   5.383  0.5737 -0.2006 -0.4599
 7542SOL    HW123084   0.130   0.793   5.365 -0.0335 -0.4333 -2.6646
 7542SOL    HW223085   0.025   0.704   5.429 -0.4162  0.3295 -2.2075
 7543SOL     OW23086   4.393   2.492   4.016  0.0365  0.5947 -0.0485
 7543SOL    HW123087   4.301   2.512   4.032 -0.6628  0.7261 -3.4537
 7543SOL    HW223088   4.429   2.573   3.979  1.1556  0.1264 -0.0393
 7544SOL     OW23089   0.032   2.680   3.584  0.4033  0.0833  0.0545
 7544SOL    HW123090   0.092   2.719   3.648 -0.3765  0.5152  0.5475
 7544SOL    HW223091   0.087   2.659   3.509  0.6300  3.6904 -0.9444
 7545SOL     OW23092   5.934   0.432   1.226  0.4711 -0.6888 -0.0289
 7545SOL    HW123093   5.861   0.450   1.167  0.7800 -3.3892 -1.4324
 7545SOL    HW223094   5.899   0.449   1.314 -0.7517  1.1860 -0.8183
 7546SOL     OW23095   0.567   6.132   3.380  0.3806  0.3322  0.2424
 7546SOL    HW123096   0.570   6.225   3.355 -0.0864  1.3566  3.4870
 7546SOL    HW223097   0.486   6.124   3.430  1.3902 -1.3221  1.7264
 7547SOL     OW23098   2.414   4.339   2.961 -0.0256  0.7415  0.1967
 7547SOL    HW123099   2.339   4.291   2.926 -0.2256 -0.3917  2.0332
 7547SOL    HW223100   2.389   4.431   2.955 -0.5463  0.5348 -1.3978
 7548SOL     OW23101   0.355   3.010   6.292  0.4764 -0.5449  0.1340
 7548SOL    HW123102   0.384   2.952   6.222  0.0149  0.3451 -0.8252
 7548SOL    HW223103   0.270   3.043   6.263  1.0257  1.1398  0.3059
 7549SOL     OW23104   2.550   5.442   4.175 -0.0906  1.1036 -0.2134
 7549SOL    HW123105   2.507   5.438   4.261 -0.8217 -0.2088 -0.6130
 7549SOL    HW223106   2.479   5.459   4.113  0.3964  1.7934 -0.6014
 7550SOL     OW23107   1.669   2.396   3.470  0.3382 -0.0092 -0.5827
 7550SOL    HW123108   1.655   2.472   3.526 -2.5693 -0.1016 -1.0466
 7550SOL    HW223109   1.710   2.331   3.528 -0.0733  0.8170  0.6848
 7551SOL     OW23110   0.919   5.229   2.355  0.2330  0.0833  0.1957
 7551SOL    HW123111   0.876   5.314   2.362  0.2542  0.0233  1.0907
 7551SOL    HW223112   0.933   5.201   2.445  1.3455 -0.3052 -0.0775
 7552SOL     OW23113   6.168   3.596   1.573 -0.3911 -0.4801  0.1241
 7552SOL    HW123114   6.171   3.692   1.571 -1.4440 -0.4277  0.6746
 7552SOL    HW223115   6.231   3.569   1.505  0.5939  0.5747  0.5835
 7553SOL     OW23116   5.253   1.056   1.626 -0.6917 -0.2565 -0.0297
 7553SOL    HW123117   5.189   1.125   1.642  0.2302  0.5087  0.4656
 7553SOL    HW223118   5.337   1.095   1.651 -0.2825 -1.9570  1.4874
 7554SOL     OW23119   0.813   6.337   4.170 -0.2770 -0.3287  0.3376
 7554SOL    HW123120   0.771   6.288   4.241 -0.9762 -1.5728 -0.8840
 7554SOL    HW223121   0.895   6.290   4.154 -0.6929 -0.8040 -0.4705
 7555SOL     OW23122   3.129   5.709   1.996  0.0055  0.0268 -0.0860
 7555SOL    HW123123   3.087   5.668   2.072 -3.1525 -0.0439 -1.7023
 7555SOL    HW223124   3.098   5.799   1.998  0.0998  0.0908 -1.1452
 7556SOL     OW23125   3.376   2.829   0.257 -0.5019  0.0805  0.0352
 7556SOL    HW123126   3.437   2.892   0.295 -0.0207  0.6640 -1.6116
 7556SOL    HW223127   3.289   2.863   0.279 -0.2465 -0.0591  1.2986
 7557SOL     OW23128   6.311   5.626   0.559 -0.3786  0.3267 -0.4801
 7557SOL    HW123129   6.402   5.630   0.531 -0.4082  0.3369 -0.5747
 7557SOL    HW223130   6.294   5.713   0.595  0.0191 -0.0565  0.6850
 7558SOL     OW23131   4.919   5.489   2.532  0.2910 -0.3061  0.2797
 7558SOL    HW123132   4.939   5.581   2.517  0.7276 -0.6464 -1.5338
 7558SOL    HW223133   4.900   5.483   2.625 -0.1755  1.6863  0.3595
 7559SOL     OW23134   2.713   5.974   5.803  0.4365  0.0165 -0.4323
 7559SOL    HW123135   2.777   6.002   5.869 -0.1523  0.4916 -0.0480
 7559SOL    HW223136   2.692   6.054   5.755  0.7768 -0.3047 -1.1364
 7560SOL     OW23137   0.659   5.668   4.695 -0.2833 -0.3730 -0.2701
 7560SOL    HW123138   0.730   5.639   4.752  1.6432  0.5400 -2.0694
 7560SOL    HW223139   0.589   5.694   4.755  0.3723 -2.5150  1.5345
 7561SOL     OW23140   1.062   2.521   6.091  0.0773  0.5563 -0.1472
 7561SOL    HW123141   1.003   2.475   6.150 -0.0429  1.0225  0.0948
 7561SOL    HW223142   1.052   2.613   6.114  0.9906  0.6303 -0.0094
 7562SOL     OW23143   0.535   3.186   1.243  0.1974 -0.8606  0.0409
 7562SOL    HW123144   0.595   3.257   1.265  0.6512 -2.1788  3.9558
 7562SOL    HW223145   0.450   3.228   1.235  0.6574  0.2956  0.9171
 7563SOL     OW23146   5.893   4.702   5.433 -0.1423 -0.1384  0.0979
 7563SOL    HW123147   5.973   4.655   5.410  0.6781  1.0353  0.4702
 7563SOL    HW223148   5.849   4.717   5.349  0.9702  0.8441 -0.3279
 7564SOL     OW23149   5.654   2.790   0.209 -0.9497 -0.1407 -0.2556
 7564SOL    HW123150   5.647   2.735   0.131 -2.8704 -1.5145  0.8003
 7564SOL    HW223151   5.609   2.871   0.186  1.2957  0.8228 -1.5880
 7565SOL     OW23152   0.315   2.346   2.032  0.5784 -0.0719  0.2490
 7565SOL    HW123153   0.371   2.408   2.079 -0.0877  1.3184 -0.7337
 7565SOL    HW223154   0.369   2.267   2.022  2.2297  1.0832 -0.3044
 7566SOL     OW23155   2.598   2.786   6.220  0.1303  0.5884  0.2116
 7566SOL    HW123156   2.597   2.694   6.248 -2.8391  0.3175 -0.4090
 7566SOL    HW223157   2.559   2.834   6.293  2.2625  1.5451  0.8050
 7567SOL     OW23158   2.609   4.153   4.050  0.1224  0.1060 -0.3662
 7567SOL    HW123159   2.590   4.081   4.111 -1.1342  2.1467  1.8187
 7567SOL    HW223160   2.683   4.199   4.091 -0.2079  1.0415 -0.8064
 7568SOL     OW23161   5.198   5.342   2.393  0.2564  0.2692 -0.2788
 7568SOL    HW123162   5.197   5.423   2.343 -0.6044 -0.6959 -1.9143
 7568SOL    HW223163   5.106   5.323   2.410  0.4571 -0.2740  0.2236
 7569SOL     OW23164   1.703   6.066   4.707 -0.1896 -0.0317 -0.5313
 7569SOL    HW123165   1.732   6.150   4.742 -1.2555  1.1412 -2.3079
 7569SOL    HW223166   1.783   6.021   4.682  0.4175  0.2666  0.7967
 7570SOL     OW23167   3.280   2.850   3.329 -0.5106  0.8972  0.2165
 7570SOL    HW123168   3.272   2.946   3.328  0.7172  1.0136  0.0921
 7570SOL    HW223169   3.238   2.822   3.248  1.7547  1.5948 -1.2937
 7571SOL     OW23170   1.350   0.815   5.963 -0.3212 -0.3727  0.7867
 7571SOL    HW123171   1.304   0.826   5.880  0.9884 -0.9410 -0.0407
 7571SOL    HW223172   1.424   0.876   5.958  0.0515 -0.7661  1.3071
 7572SOL     OW23173   0.754   1.644   0.483  0.3157  0.2658  0.2643
 7572SOL    HW123174   0.770   1.722   0.535 -1.5188 -0.9537  2.8557
 7572SOL    HW223175   0.834   1.592   0.490  0.2099  0.2703  1.6717
 7573SOL     OW23176   1.680   4.271   6.366  0.0085  0.3323 -0.5380
 7573SOL    HW123177   1.739   4.326   6.315  1.0352  0.0754  0.3512
 7573SOL    HW223178   1.700   4.291   6.457  0.5369 -1.5909 -0.1753
 7574SOL     OW23179   2.675   3.973   3.768  0.7554  0.1871 -0.4468
 7574SOL    HW123180   2.626   3.949   3.847  0.3907  0.5648 -0.5548
 7574SOL    HW223181   2.746   3.909   3.764 -0.0373 -0.7065 -0.5920
 7575SOL     OW23182   6.308   0.738   6.371 -0.1455 -0.2762 -0.1033
 7575SOL    HW123183   6.215   0.717   6.382 -0.4211  1.2987  1.0893
 7575SOL    HW223184   6.331   0.783   6.452  1.5897 -0.3609 -0.5224
 7576SOL     OW23185   0.944   5.516   5.225  0.7058  0.4128 -0.1773
 7576SOL    HW123186   0.980   5.578   5.287 -1.4491  2.5984 -0.9392
 7576SOL    HW223187   0.920   5.569   5.149 -0.5802 -1.4511 -1.1597
 7577SOL     OW23188   1.518   0.217   2.282 -0.1726 -0.2113 -0.0124
 7577SOL    HW123189   1.437   0.193   2.237 -0.4378 -0.7153  0.7197
 7577SOL    HW223190   1.500   0.199   2.374  1.4547 -2.3219 -0.0392
 7578SOL     OW23191   1.459   3.450   3.033 -0.5285  0.0187  0.2307
 7578SOL    HW123192   1.474   3.544   3.047  0.4527 -0.1637  0.5414
 7578SOL    HW223193   1.508   3.430   2.953  1.3042 -0.6629  1.4324
 7579SOL     OW23194   2.389   0.052   3.955 -0.1073 -0.2176  0.0534
 7579SOL    HW123195   2.346   0.133   3.981  0.0832 -0.9699  3.0826
 7579SOL    HW223196   2.320  -0.015   3.958  0.6035 -0.9413  2.2779
 7580SOL     OW23197   3.028   5.137   6.374 -0.5715 -0.0780 -0.0107
 7580SOL    HW123198   2.945   5.092   6.357 -0.4709 -0.2985  0.0785
 7580SOL    HW223199   3.008   5.230   6.362 -0.6819 -0.1767 -0.5999
 7581SOL     OW23200   0.063   6.084   3.669 -0.2883  0.1957 -0.3411
 7581SOL    HW123201   0.051   6.006   3.723  0.5983  0.0432 -0.3617
 7581SOL    HW223202   0.111   6.145   3.724  1.2004 -0.2003 -1.1607
 7582SOL     OW23203   5.308   0.499   5.507 -0.7105 -0.0391 -0.2779
 7582SOL    HW123204   5.223   0.461   5.483  0.1120 -1.3596 -1.2800
 7582SOL    HW223205   5.371   0.447   5.457  0.7678  0.2588  1.2165
 7583SOL     OW23206   0.956   5.688   2.919  0.1632  0.5593  0.8774
 7583SOL    HW123207   0.941   5.604   2.964 -0.8955  0.6159  0.6619
 7583SOL    HW223208   0.907   5.751   2.971 -1.8408  0.4890 -0.7933
 7584SOL     OW23209   1.066   0.801   2.734 -0.4892  0.1895  0.2651
 7584SOL    HW123210   1.118   0.726   2.707 -0.6354 -0.0285  0.5931
 7584SOL    HW223211   0.976   0.769   2.739 -0.6902  0.6077 -0.4715
 7585SOL     OW23212   4.045   1.179   3.858 -0.1170  0.1573 -0.0354
 7585SOL    HW123213   4.004   1.227   3.930 -0.3126 -1.3906  0.9113
 7585SOL    HW223214   3.972   1.139   3.811  0.1905 -2.5937  1.6484
 7586SOL     OW23215   0.565   5.792   3.885  0.0027 -0.0325 -0.0758
 7586SOL    HW123216   0.609   5.718   3.842  0.9042  1.5410 -2.0756
 7586SOL    HW223217   0.602   5.795   3.973  3.7913  0.8956 -1.4837
 7587SOL     OW23218   1.083   1.463   0.029  0.1755  0.0141 -0.3611
 7587SOL    HW123219   0.996   1.484   0.061  0.8850 -0.0511  1.7887
 7587SOL    HW223220   1.082   1.489  -0.063 -1.4083  2.0951  0.1648
 7588SOL     OW23221   3.127   1.580   4.572 -0.3621 -0.1415  0.3842
 7588SOL    HW123222   3.111   1.544   4.659 -2.0906  1.8664  0.9827
 7588SOL    HW223223   3.216   1.613   4.576 -0.2209 -0.5811  1.1955
 7589SOL     OW23224   3.944   6.119   5.613 -0.1511 -0.5445 -0.0486
 7589SOL    HW123225   4.018   6.060   5.631 -1.0905 -2.5342 -2.1916
 7589SOL    HW223226   3.975   6.174   5.540  0.2783  0.8389  1.1352
 7590SOL     OW23227   2.141   5.066   5.876 -0.6846  0.2711 -0.0164
 7590SOL    HW123228   2.086   5.124   5.824  0.8174  0.0752 -1.9465
 7590SOL    HW223229   2.181   5.124   5.941  0.3328  1.3521 -1.5385
 7591SOL     OW23230   2.681   5.897   3.116 -0.3286 -0.4001  0.0525
 7591SOL    HW123231   2.740   5.968   3.140 -0.2414 -0.3832 -0.2133
 7591SOL    HW223232   2.733   5.817   3.127  0.7741 -0.2560 -3.0625
 7592SOL     OW23233   6.047   1.610   2.530 -0.1907 -0.3708  0.2777
 7592SOL    HW123234   6.039   1.572   2.443  0.5437 -2.0446  0.9031
 7592SOL    HW223235   6.134   1.585   2.560 -0.3065  0.4352  1.3936
 7593SOL     OW23236   1.793   4.485   0.870 -0.2886 -0.4398 -0.0081
 7593SOL    HW123237   1.774   4.561   0.815 -0.3348 -0.4693 -0.0331
 7593SOL    HW223238   1.887   4.491   0.888 -0.5809  0.5484  1.3850
 7594SOL     OW23239   4.953   1.495   6.071 -0.2667  0.1064 -0.0608
 7594SOL    HW123240   4.936   1.588   6.058  0.2581  0.1554 -0.4004
 7594SOL    HW223241   5.048   1.487   6.065 -0.2604 -0.3603  0.5530
 7595SOL     OW23242   1.334   0.825   4.700 -0.5860 -0.0420 -0.0179
 7595SOL    HW123243   1.260   0.855   4.648 -0.9752 -1.7083 -0.4787
 7595SOL    HW223244   1.306   0.741   4.736  0.2502  0.3582  1.6580
 7596SOL     OW23245   4.373   6.112   5.682 -0.2744 -0.3254 -0.1133
 7596SOL    HW123246   4.303   6.058   5.645  0.6539 -1.7811  0.2011
 7596SOL    HW223247   4.453   6.062   5.668  0.4369  0.2765  1.5209
 7597SOL     OW23248   6.296   1.218   2.293  0.7311  0.2978 -0.3882
 7597SOL    HW123249   6.337   1.303   2.275 -0.4787  1.5535  2.1912
 7597SOL    HW223250   6.342   1.157   2.235  2.2832  2.5273 -1.7036
 7598SOL     OW23251   3.216   1.387   3.565  0.3590 -0.2254 -0.1832
 7598SOL    HW123252   3.188   1.298   3.585 -0.0600 -0.1276 -0.3273
 7598SOL    HW223253   3.242   1.383   3.473  0.5923 -0.2594 -0.1168
 7599SOL     OW23254   3.959   2.456   0.213  0.2433  0.1389  0.2057
 7599SOL    HW123255   3.943   2.548   0.237 -1.4715 -0.7113  2.7460
 7599SOL    HW223256   4.000   2.418   0.290 -1.4505 -1.7845  0.2530
 7600SOL     OW23257   3.458   3.529   3.264  0.2829 -0.3559 -0.0376
 7600SOL    HW123258   3.379   3.485   3.294 -0.4263  0.5693 -0.5409
 7600SOL    HW223259   3.432   3.576   3.185  1.3665 -0.1502 -0.2903
 7601SOL     OW23260   0.094   4.036   6.358  0.7653  0.5081 -0.4554
 7601SOL    HW123261   0.118   4.129   6.360  2.3846  0.1297  1.4244
 7601SOL    HW223262   0.107   4.006   6.449  1.3505 -1.7975 -1.2308
 7602SOL     OW23263   0.535   1.395   6.327  0.0054 -0.5734  0.0737
 7602SOL    HW123264   0.607   1.439   6.283  0.8181 -2.3117 -0.4428
 7602SOL    HW223265   0.471   1.377   6.258 -0.6840  0.4345  0.4211
 7603SOL     OW23266   6.008   2.860   3.113  0.0741 -0.5078  0.7219
 7603SOL    HW123267   5.933   2.803   3.128  0.2656 -0.9062  0.1811
 7603SOL    HW223268   6.070   2.836   3.182  1.0332 -2.4668 -0.7297
 7604SOL     OW23269   2.346   3.639   4.217  0.2802 -0.3120 -0.4787
 7604SOL    HW123270   2.330   3.544   4.221 -1.8480 -0.0413 -0.9361
 7604SOL    HW223271   2.326   3.662   4.126 -1.4610  0.8546  0.1411
 7605SOL     OW23272   1.100   5.591   1.047 -0.5095 -0.0643  0.4455
 7605SOL    HW123273   1.189   5.615   1.072 -0.7376 -0.2720  1.4756
 7605SOL    HW223274   1.044   5.631   1.113 -1.1765 -0.0685 -0.0997
 7606SOL     OW23275   1.937   5.037   1.024  0.5524  0.0728  0.0223
 7606SOL    HW123276   1.930   5.126   1.058  1.6388  0.3877 -0.5564
 7606SOL    HW223277   1.920   5.045   0.930 -1.6919 -0.6910  0.2932
 7607SOL     OW23278   5.455   1.440   2.220 -0.6552 -0.0321 -0.1708
 7607SOL    HW123279   5.380   1.382   2.204 -2.1789  1.9431 -0.5429
 7607SOL    HW223280   5.419   1.528   2.216  1.4120  0.9679  1.2393
 7608SOL     OW23281   4.862   6.099   2.887  0.1133 -0.7598 -0.6239
 7608SOL    HW123282   4.795   6.152   2.931  2.3970  0.9455  1.0883
 7608SOL    HW223283   4.874   6.141   2.802  0.2469  0.0724 -0.2073
 7609SOL     OW23284   3.506   4.755   2.778  0.4448 -0.0781 -0.0340
 7609SOL    HW123285   3.531   4.667   2.807 -1.5667 -0.5901  0.2746
 7609SOL    HW223286   3.485   4.743   2.685 -2.6485 -0.6646  0.6185
 7610SOL     OW23287   2.560   3.305   3.518 -0.2663 -0.2404 -0.0905
 7610SOL    HW123288   2.474   3.294   3.478 -0.9307 -0.8243  1.4095
 7610SOL    HW223289   2.544   3.298   3.612  1.3767 -0.0049  0.2469
 7611SOL     OW23290   1.737   3.958   2.397 -0.0536  0.0870  0.1354
 7611SOL    HW123291   1.757   3.866   2.413 -0.3508 -0.2009 -1.0786
 7611SOL    HW223292   1.813   4.006   2.432 -0.8403 -0.4287  2.7745
 7612SOL     OW23293   1.527   2.774   4.001 -0.0475  0.2124 -0.5663
 7612SOL    HW123294   1.608   2.807   4.040 -0.0279  0.6765 -1.0011
 7612SOL    HW223295   1.554   2.696   3.952 -0.0455 -0.2790  0.1959
 7613SOL     OW23296   4.275   5.374   2.056 -0.3672  0.2118  0.2694
 7613SOL    HW123297   4.316   5.288   2.068 -0.5813 -0.2322 -1.9283
 7613SOL    HW223298   4.333   5.434   2.103  1.1136 -0.8240 -0.1702
 7614SOL     OW23299   2.464   5.585   5.139  0.1850 -0.1322 -0.2997
 7614SOL    HW123300   2.517   5.509   5.118 -1.6480 -1.9621  1.2861
 7614SOL    HW223301   2.444   5.624   5.054  1.2312 -1.3565 -1.1513
 7615SOL     OW23302   0.993   0.704   0.569 -0.0721  0.2165  0.1917
 7615SOL    HW123303   1.065   0.766   0.555 -0.7451  1.1590  0.7666
 7615SOL    HW223304   1.013   0.663   0.653 -0.8460  1.4631  1.0374
 7616SOL     OW23305   5.516   3.068   0.799 -0.4376  0.9371 -0.0347
 7616SOL    HW123306   5.572   2.995   0.773  0.3538  1.8034 -0.8426
 7616SOL    HW223307   5.447   3.028   0.852  0.1585 -0.3425 -0.1938
 7617SOL     OW23308   0.333   1.757   2.414  0.4953 -0.2311 -0.2290
 7617SOL    HW123309   0.322   1.750   2.319  0.0768 -2.5883 -0.0755
 7617SOL    HW223310   0.425   1.733   2.429  0.5434  0.0696 -0.0301
 7618SOL     OW23311   3.831   1.895   3.407  0.1605 -0.4835 -0.4667
 7618SOL    HW123312   3.865   1.978   3.442 -0.3786  1.4423 -4.0487
 7618SOL    HW223313   3.736   1.902   3.418  0.1151 -0.6248 -0.7631
 7619SOL     OW23314   4.812   0.886   1.932  0.3101 -0.2226 -0.3019
 7619SOL    HW123315   4.892   0.922   1.970 -1.5181  3.8467  0.2494
 7619SOL    HW223316   4.764   0.850   2.007  0.9615 -1.4285 -0.4340
 7620SOL     OW23317   5.371   3.504   3.010 -0.0058  0.1262 -0.1482
 7620SOL    HW123318   5.390   3.484   2.918  0.0362 -1.5796  0.2080
 7620SOL    HW223319   5.276   3.497   3.017 -0.0983  1.1191 -0.2319
 7621SOL     OW23320   3.871   1.877   5.820 -0.3913  0.0226 -0.0233
 7621SOL    HW123321   3.825   1.956   5.792 -1.0509 -0.7726 -1.2729
 7621SOL    HW223322   3.871   1.820   5.743  0.2750 -1.1081  0.7759
 7622SOL     OW23323   2.841   2.097   4.761  0.0927 -0.2528  0.7048
 7622SOL    HW123324   2.777   2.141   4.705 -0.1704 -0.3742  0.9074
 7622SOL    HW223325   2.799   2.093   4.847  0.3800 -0.3169  0.8422
 7623SOL     OW23326   3.187   4.012   3.067  0.3446 -0.5632  0.2535
 7623SOL    HW123327   3.132   3.934   3.057  0.2453 -0.2359 -2.8240
 7623SOL    HW223328   3.124   4.083   3.083  0.1764 -0.6974  0.2004
 7624SOL     OW23329   0.492   1.492   4.949 -0.5271  0.2529  0.3446
 7624SOL    HW123330   0.473   1.576   4.990 -1.3050  0.1070  0.2927
 7624SOL    HW223331   0.464   1.502   4.858 -1.0124 -0.1956  0.4397
 7625SOL     OW23332   3.620   0.241   1.751 -0.9408  0.1916 -0.2651
 7625SOL    HW123333   3.607   0.242   1.656 -0.4735  0.2665 -0.3302
 7625SOL    HW223334   3.710   0.212   1.762 -0.5168  1.5714  0.0964
 7626SOL     OW23335   3.964   6.333   5.461  0.4207  0.0874  0.2261
 7626SOL    HW123336   3.990   6.355   5.371 -0.8055  1.0525  0.0837
 7626SOL    HW223337   3.975   6.414   5.510 -0.2893 -0.0556  0.6273
 7627SOL     OW23338   1.084   3.146   3.181  0.0748  0.7972 -0.1494
 7627SOL    HW123339   1.146   3.092   3.131 -1.1104  1.1590 -2.1279
 7627SOL    HW223340   1.111   3.236   3.163 -0.6386  0.9419 -0.5294
 7628SOL     OW23341   1.302   2.386   3.563  0.2679 -0.1609  0.0157
 7628SOL    HW123342   1.226   2.421   3.515 -1.2318 -0.5222  2.0131
 7628SOL    HW223343   1.367   2.368   3.494  0.1413  3.8869 -1.4150
 7629SOL     OW23344   6.067   0.486   0.118  0.3386 -0.0381  0.0387
 7629SOL    HW123345   6.057   0.406   0.066 -1.8130 -0.3366  0.7936
 7629SOL    HW223346   6.083   0.455   0.207  0.5584  0.4094  0.1596
 7630SOL     OW23347   2.188   3.891   2.508 -0.0823 -0.6527 -0.4964
 7630SOL    HW123348   2.174   3.842   2.589  0.3142  3.7718  2.5753
 7630SOL    HW223349   2.279   3.873   2.485  0.7510  0.1923  1.8345
 7631SOL     OW23350   4.989   3.280   1.811  0.4270  0.1111  0.0121
 7631SOL    HW123351   4.905   3.294   1.767  1.2858  1.5486 -1.2676
 7631SOL    HW223352   5.009   3.365   1.851  0.6470 -0.6025  1.4865
 7632SOL     OW23353   5.951   1.136   3.628  0.1948  1.0182  0.1981
 7632SOL    HW123354   5.920   1.225   3.641 -0.6664  0.7216  0.2024
 7632SOL    HW223355   6.013   1.122   3.700  1.5573  2.1392 -0.6941
 7633SOL     OW23356   0.753   1.406   2.884 -0.3483 -0.0609 -0.1467
 7633SOL    HW123357   0.753   1.385   2.790  0.5354 -0.4817 -0.0691
 7633SOL    HW223358   0.843   1.434   2.901 -1.0509  2.3096  0.0959
 7634SOL     OW23359   3.190   6.015   4.087  0.1867  0.0289  0.1254
 7634SOL    HW123360   3.282   6.017   4.061  0.0672 -0.6414 -0.3979
 7634SOL    HW223361   3.176   5.924   4.116  0.4253  0.8112  3.0299
 7635SOL     OW23362   3.230   5.833   6.145  0.0242 -0.1511  0.7745
 7635SOL    HW123363   3.288   5.861   6.074  0.5740 -2.5410  0.1729
 7635SOL    HW223364   3.142   5.840   6.108  0.0235  1.7808  1.0598
 7636SOL     OW23365   3.171   2.201   3.414 -0.4741  0.1344  0.5482
 7636SOL    HW123366   3.198   2.119   3.374 -0.3890  0.2752  0.3126
 7636SOL    HW223367   3.236   2.265   3.384  0.5156 -0.0605  2.1712
 7637SOL     OW23368   3.256   6.192   5.853  0.0182 -0.1344 -0.3926
 7637SOL    HW123369   3.340   6.212   5.896 -0.0796  0.2137 -0.3608
 7637SOL    HW223370   3.235   6.103   5.882 -0.8076  0.6292  1.5474
 7638SOL     OW23371   2.889   3.245   0.238 -0.1606  0.2384  0.4090
 7638SOL    HW123372   2.929   3.201   0.313  1.3885  0.4978 -0.2338
 7638SOL    HW223373   2.850   3.324   0.274  0.8749  0.5380  0.9016
 7639SOL     OW23374   1.689   0.117   4.645  0.3311 -0.1273  0.2728
 7639SOL    HW123375   1.632   0.154   4.578 -0.6405  1.8294  2.0621
 7639SOL    HW223376   1.747   0.190   4.670  0.7730 -0.8412  1.4261
 7640SOL     OW23377   2.321   2.075   0.600 -0.1653  0.3304  0.6580
 7640SOL    HW123378   2.292   1.996   0.553  0.0620  0.8156 -0.3407
 7640SOL    HW223379   2.331   2.047   0.691 -0.9620 -0.5605  0.4863
 7641SOL     OW23380   0.528   2.897   3.391 -0.6600 -0.2012  0.2310
 7641SOL    HW123381   0.565   2.904   3.479 -2.5665 -1.4252  1.2011
 7641SOL    HW223382   0.493   2.984   3.373 -2.0024 -0.4324  1.5477
 7642SOL     OW23383   3.241   1.694   2.427 -0.9635 -0.0214 -0.1145
 7642SOL    HW123384   3.288   1.735   2.354 -0.8329 -0.0542 -0.0497
 7642SOL    HW223385   3.291   1.720   2.505 -0.1087 -1.3879 -0.1888
 7643SOL     OW23386   3.856   1.577   3.083 -0.1415  0.7635 -0.0019
 7643SOL    HW123387   3.789   1.519   3.117 -2.4164  2.6332 -1.0053
 7643SOL    HW223388   3.911   1.597   3.159 -0.4008 -1.1689  0.7488
 7644SOL     OW23389   3.338   2.243   1.113 -0.0125 -0.2118  0.2582
 7644SOL    HW123390   3.305   2.330   1.090  0.0867  0.5382  2.6595
 7644SOL    HW223391   3.392   2.257   1.190  0.4306 -2.3498  0.4119
 7645SOL     OW23392   5.339   2.943   0.957 -0.2082  0.0598 -0.1978
 7645SOL    HW123393   5.319   2.852   0.982  1.0745 -0.8403 -2.2419
 7645SOL    HW223394   5.257   2.976   0.920  0.0079 -1.2224 -1.9557
 7646SOL     OW23395   3.004   5.396   2.036 -0.3832  0.2700  0.0381
 7646SOL    HW123396   3.020   5.429   1.948  1.0170  0.1927  0.2416
 7646SOL    HW223397   3.091   5.375   2.070 -1.0602 -1.9794  0.5485
 7647SOL     OW23398   3.706   2.559   1.483 -0.4211 -0.2386  0.0055
 7647SOL    HW123399   3.673   2.486   1.431  0.1467 -0.5087  0.0233
 7647SOL    HW223400   3.685   2.536   1.574  0.6022 -0.8377  0.1045
 7648SOL     OW23401   4.321   4.125   4.916 -0.1978  0.1519 -0.6170
 7648SOL    HW123402   4.256   4.088   4.856 -0.1436  0.8694 -1.1379
 7648SOL    HW223403   4.385   4.055   4.928 -1.0416 -0.5534 -0.1246
 7649SOL     OW23404   1.976   0.275   5.603 -0.6091 -0.2064 -0.4823
 7649SOL    HW123405   1.983   0.198   5.546 -2.1147 -0.0564 -0.9350
 7649SOL    HW223406   1.921   0.336   5.553  0.1317  0.9621  0.0866
 7650SOL     OW23407   5.642   0.117   6.101  0.6597 -0.2993  0.1602
 7650SOL    HW123408   5.710   0.173   6.064  0.1439  0.3356  0.1554
 7650SOL    HW223409   5.561   0.148   6.061  0.1194  0.2262  1.5820
 7651SOL     OW23410   3.528   2.868   5.571  0.0154  0.2367 -0.2812
 7651SOL    HW123411   3.434   2.861   5.587  0.1447 -1.1824  0.0166
 7651SOL    HW223412   3.539   2.850   5.478 -0.0372  0.7062 -0.3776
 7652SOL     OW23413   0.679   4.205   2.072  0.0469  0.2352 -0.1089
 7652SOL    HW123414   0.585   4.223   2.073 -0.1130 -0.5905  0.2359
 7652SOL    HW223415   0.697   4.172   1.984  0.0158  0.3905 -0.1739
 7653SOL     OW23416   3.400   2.624   4.081  0.3960 -0.5197 -0.9570
 7653SOL    HW123417   3.310   2.638   4.111  0.3439  0.2303 -1.4518
 7653SOL    HW223418   3.413   2.529   4.090  0.4257 -0.3351  1.4939
 7654SOL     OW23419   6.086   3.712   2.376 -0.3002  0.8529 -0.2118
 7654SOL    HW123420   6.009   3.744   2.328  1.3415  3.0957 -1.5252
 7654SOL    HW223421   6.144   3.678   2.308  1.4995  2.8170  0.2577
 7655SOL     OW23422   4.463   0.542   3.682  0.0951 -0.8629  0.1682
 7655SOL    HW123423   4.550   0.516   3.651  1.8346  1.3300  2.7919
 7655SOL    HW223424   4.416   0.567   3.603  3.7289  2.9984 -1.1594
 7656SOL     OW23425   5.923   2.940   3.975 -0.1911  0.3056 -0.3261
 7656SOL    HW123426   5.905   2.880   3.903  0.1715 -0.9307  0.5793
 7656SOL    HW223427   6.018   2.933   3.988 -0.4237 -0.4902  1.1034
 7657SOL     OW23428   0.737   1.914   2.855 -0.3006 -0.3995 -0.3169
 7657SOL    HW123429   0.828   1.930   2.829 -0.1988  1.6934  1.0698
 7657SOL    HW223430   0.740   1.911   2.950 -1.4782 -2.0526 -0.3012
 7658SOL     OW23431   1.602   6.117   0.284 -0.1266  0.4591  0.5224
 7658SOL    HW123432   1.522   6.149   0.242 -0.2831  1.2651  1.4073
 7658SOL    HW223433   1.663   6.191   0.279  0.0127  0.4015  1.2871
 7659SOL     OW23434   4.852   0.906   5.540  0.2724  0.1446 -0.6177
 7659SOL    HW123435   4.890   0.820   5.560  1.4741  0.4592 -1.4680
 7659SOL    HW223436   4.870   0.919   5.447 -0.4070  1.0760 -0.6270
 7660SOL     OW23437   1.850   1.984   4.079 -0.1458 -0.2753  0.3900
 7660SOL    HW123438   1.866   1.928   4.002  0.3069  0.4969 -0.0921
 7660SOL    HW223439   1.845   1.923   4.152  1.4405 -0.8760  0.0339
 7661SOL     OW23440   2.577   1.759   1.612  0.1064 -0.2033  0.6713
 7661SOL    HW123441   2.504   1.697   1.605  0.0083 -0.1017  0.7895
 7661SOL    HW223442   2.537   1.845   1.596  0.4608 -0.2787 -0.8134
 7662SOL     OW23443   6.377   4.762   1.331 -0.0474  0.1607  0.6350
 7662SOL    HW123444   6.411   4.839   1.284 -2.0402  0.5348 -0.3060
 7662SOL    HW223445   6.453   4.726   1.375  2.1217 -0.4283 -3.1500
 7663SOL     OW23446   5.410   2.016   6.131 -0.5159  0.2887  0.1534
 7663SOL    HW123447   5.319   2.028   6.157 -0.6097  1.2136 -0.5476
 7663SOL    HW223448   5.455   2.095   6.161 -0.1470  0.2857 -0.3713
 7664SOL     OW23449   5.947   3.284   4.295 -0.5587  0.3275  0.3199
 7664SOL    HW123450   5.993   3.208   4.331  2.1107  1.5563 -0.2134
 7664SOL    HW223451   5.926   3.259   4.205 -2.7924 -0.9567  1.1416
 7665SOL     OW23452   2.646   5.423   3.201 -0.3586  0.4395  0.5113
 7665SOL    HW123453   2.726   5.377   3.226  0.5711  1.4887 -0.4203
 7665SOL    HW223454   2.631   5.485   3.271  0.4331  1.1694  0.0563
 7666SOL     OW23455   4.772   2.867   0.568  0.1539 -0.5052  0.0078
 7666SOL    HW123456   4.807   2.864   0.480 -1.3965  0.3054 -0.6855
 7666SOL    HW223457   4.844   2.838   0.624  1.4075 -0.3111 -1.4404
 7667SOL     OW23458   4.661   1.017   1.357 -0.3682  0.1283 -0.2709
 7667SOL    HW123459   4.591   1.079   1.337 -1.2185 -0.6715  0.1325
 7667SOL    HW223460   4.728   1.069   1.402 -1.2634  0.6618  0.4607
 7668SOL     OW23461   0.419   6.008   1.604 -0.0911  0.2156  0.2895
 7668SOL    HW123462   0.424   5.952   1.528  0.6521 -0.2092  0.6387
 7668SOL    HW223463   0.326   6.031   1.612 -0.3471 -0.6813 -0.0535
 7669SOL     OW23464   5.229   2.949   0.256  0.3883  0.4576 -0.1054
 7669SOL    HW123465   5.267   2.896   0.186  1.3407  1.4570 -0.3768
 7669SOL    HW223466   5.290   2.939   0.329 -0.3192 -0.1580  0.4024
 7670SOL     OW23467   5.382   5.539   1.362 -0.0092 -0.1337 -0.6059
 7670SOL    HW123468   5.365   5.450   1.392 -1.1374  1.0655  2.8452
 7670SOL    HW223469   5.466   5.563   1.403 -0.4354  0.8226 -0.2552
 7671SOL     OW23470   6.294   2.712   0.318  0.3066  0.3548 -0.1893
 7671SOL    HW123471   6.281   2.671   0.403  0.8943  1.6432  0.5418
 7671SOL    HW223472   6.272   2.804   0.332 -0.5260  0.4126 -1.6776
 7672SOL     OW23473   1.467   5.938   1.534 -0.3902 -0.4924 -0.0811
 7672SOL    HW123474   1.472   5.990   1.613 -0.2828 -1.2465  0.4187
 7672SOL    HW223475   1.550   5.892   1.529 -0.7736 -1.2093 -0.0846
 7673SOL     OW23476   1.737   1.237   2.551  0.1908  0.5967  0.1989
 7673SOL    HW123477   1.787   1.318   2.546 -1.2088  1.4230 -1.7619
 7673SOL    HW223478   1.766   1.186   2.475 -1.1009  0.6283 -0.3471
 7674SOL     OW23479   5.085   4.968   4.724  0.2753  0.4986 -0.1962
 7674SOL    HW123480   5.179   4.958   4.740 -0.1780 -2.0188  1.4381
 7674SOL    HW223481   5.045   4.970   4.811 -1.2169  1.5108 -0.8587
 7675SOL     OW23482   0.725   6.063   2.833  0.0539  0.1070 -0.7229
 7675SOL    HW123483   0.799   6.043   2.776  1.1194 -1.3727  1.0515
 7675SOL    HW223484   0.762   6.059   2.921 -1.5634  2.0957  0.1181
 7676SOL     OW23485   2.708   0.672   5.573  0.6576  0.0294  0.6855
 7676SOL    HW123486   2.724   0.594   5.519 -0.8769 -0.3393  0.7158
 7676SOL    HW223487   2.795   0.712   5.583  1.0141  0.1878 -2.1790
 7677SOL     OW23488   3.498   1.966   2.540  0.0871  0.5115 -0.5617
 7677SOL    HW123489   3.474   1.886   2.586  1.4042  1.0914  1.3054
 7677SOL    HW223490   3.567   2.005   2.595  2.3602  0.9052 -3.4318
 7678SOL     OW23491   5.182   2.938   3.897 -0.1766  0.4769 -0.6786
 7678SOL    HW123492   5.162   3.024   3.861 -3.0357 -0.5438 -1.8052
 7678SOL    HW223493   5.231   2.894   3.827  1.5366  1.1930  0.0050
 7679SOL     OW23494   4.728   2.726   0.861  0.0347  0.1291 -0.4946
 7679SOL    HW123495   4.779   2.791   0.908  0.7424 -0.5761 -0.2794
 7679SOL    HW223496   4.790   2.684   0.802 -0.5802  0.1613 -1.1862
 7680SOL     OW23497   0.075   0.335   6.172 -0.2663 -0.0415  0.1857
 7680SOL    HW123498   0.064   0.268   6.105  2.0237  0.7903 -1.1433
 7680SOL    HW223499  -0.009   0.381   6.173 -1.0408 -1.3592 -0.6415
 7681SOL     OW23500   5.948   5.353   5.947  0.5591  0.3981  0.4002
 7681SOL    HW123501   5.906   5.423   5.898  2.5613  2.1506  1.0410
 7681SOL    HW223502   5.886   5.333   6.018 -0.9371  0.0335 -0.9550
 7682SOL     OW23503   5.968   3.123   6.036 -0.1691  0.7629 -0.4344
 7682SOL    HW123504   5.909   3.120   5.961 -0.4957 -0.9061 -0.1480
 7682SOL    HW223505   5.913   3.152   6.109 -0.2261  0.8683 -0.5195
 7683SOL     OW23506   5.166   2.011   0.547 -0.0887 -1.1733  0.6571
 7683SOL    HW123507   5.234   2.079   0.550 -1.0173 -0.0961 -1.1312
 7683SOL    HW223508   5.206   1.939   0.498 -0.2329 -0.5034 -0.4735
 7684SOL     OW23509   4.403   2.962   2.366  0.2123  0.3911  0.5324
 7684SOL    HW123510   4.382   3.037   2.312  1.4713 -0.4410 -1.1968
 7684SOL    HW223511   4.457   2.906   2.310  0.8359 -0.9383  2.3610
 7685SOL     OW23512   0.710   2.706   3.034  0.5047 -0.1836 -0.2957
 7685SOL    HW123513   0.677   2.619   3.012 -1.0262 -0.1018  1.4121
 7685SOL    HW223514   0.701   2.757   2.953 -1.9941 -0.6750 -0.4058
 7686SOL     OW23515   3.849   3.223   6.358 -0.2978 -0.8365 -0.6412
 7686SOL    HW123516   3.822   3.152   6.300 -0.7784 -1.4937  0.3617
 7686SOL    HW223517   3.816   3.198   6.445  3.7017 -1.9025  0.8153
 7687SOL     OW23518   5.558   5.533   2.538  0.1500 -0.1374  0.2276
 7687SOL    HW123519   5.558   5.460   2.476  0.5940 -0.1537  0.2418
 7687SOL    HW223520   5.651   5.547   2.558  0.0399  0.1789  0.5210
 7688SOL     OW23521   1.927   5.174   3.815  0.2532  0.6899  0.4984
 7688SOL    HW123522   1.999   5.222   3.774 -0.2420 -0.4132 -1.8593
 7688SOL    HW223523   1.961   5.086   3.830 -0.2661  0.4465  0.3095
 7689SOL     OW23524   4.950   3.801   3.318 -0.6324  0.2666  0.4401
 7689SOL    HW123525   4.994   3.873   3.364  0.5724  0.5943 -1.1145
 7689SOL    HW223526   4.878   3.844   3.271  1.6283  1.0826 -2.6145
 7690SOL     OW23527   3.685   3.009   4.087  0.2720  0.2908  0.6449
 7690SOL    HW123528   3.721   3.097   4.080 -1.1857  0.7956 -1.8369
 7690SOL    HW223529   3.590   3.021   4.086  0.0239 -1.2855 -0.4829
 7691SOL     OW23530   2.327   2.471   2.971  0.3151 -0.0056  0.2685
 7691SOL    HW123531   2.331   2.535   3.041  0.9279 -1.1830  1.3531
 7691SOL    HW223532   2.382   2.508   2.901 -0.8005  1.4599  0.1231
 7692SOL     OW23533   6.360   1.244   3.357 -0.0991  0.3334 -0.4373
 7692SOL    HW123534   6.376   1.333   3.326 -0.6342  0.3848 -0.5793
 7692SOL    HW223535   6.266   1.241   3.375 -0.0013 -0.0537  0.0473
 7693SOL     OW23536   6.256   2.308   2.641 -0.4412 -0.0616  0.2374
 7693SOL    HW123537   6.301   2.316   2.725  0.6434 -0.1425 -0.3102
 7693SOL    HW223538   6.278   2.219   2.610  1.8803  0.9984 -1.5608
 7694SOL     OW23539   1.264   2.123   0.870 -0.2370  0.3419  0.0251
 7694SOL    HW123540   1.281   2.048   0.813 -0.6237  1.5548 -1.7728
 7694SOL    HW223541   1.204   2.090   0.937 -0.0706 -1.0536 -0.4976
 7695SOL     OW23542   0.772   2.830   6.041 -0.2296  0.5001 -0.1593
 7695SOL    HW123543   0.710   2.770   6.083 -1.0365  2.8317  2.2954
 7695SOL    HW223544   0.775   2.802   5.949 -2.0925 -1.9593  0.4429
 7696SOL     OW23545   0.787   6.171   0.088 -0.5633 -0.7680  0.0941
 7696SOL    HW123546   0.862   6.129   0.131  0.3048 -0.0823 -0.7085
 7696SOL    HW223547   0.745   6.222   0.157  1.0975  0.7049  0.0735
 7697SOL     OW23548   4.821   0.190   4.256 -0.4440 -0.0793  0.4985
 7697SOL    HW123549   4.807   0.282   4.280 -2.1206 -0.0920 -0.2849
 7697SOL    HW223550   4.805   0.141   4.337 -1.1411  0.2180  0.5465
 7698SOL     OW23551   1.841   2.254   2.912  0.0348  0.4471  0.2850
 7698SOL    HW123552   1.837   2.262   2.816  1.8392  0.4021  0.1557
 7698SOL    HW223553   1.794   2.330   2.945  1.1845  1.6248 -0.6921
 7699SOL     OW23554   5.200   3.120   2.914  0.1360 -0.2259 -0.7770
 7699SOL    HW123555   5.112   3.090   2.896 -0.9871  1.1476  1.8372
 7699SOL    HW223556   5.195   3.216   2.904  0.2529  0.2938  2.7366
 7700SOL     OW23557   2.946   4.999   0.906  0.0107 -0.2982  0.1412
 7700SOL    HW123558   2.892   4.996   0.984 -3.2024 -1.5120 -1.9082
 7700SOL    HW223559   2.886   5.030   0.837  2.9341  1.8132 -1.7066
 7701SOL     OW23560   4.942   5.951   3.838 -0.6270  0.0982  0.1407
 7701SOL    HW123561   4.904   6.039   3.844  0.7258  0.8287 -1.0719
 7701SOL    HW223562   5.012   5.960   3.772 -0.1834 -1.7958  0.2884
 7702SOL     OW23563   5.186   4.976   1.895  0.1923 -0.0470 -0.6033
 7702SOL    HW123564   5.224   4.891   1.916  0.7250  0.3809  0.2230
 7702SOL    HW223565   5.213   4.993   1.805 -1.5919 -1.6363 -1.5115
 7703SOL     OW23566   5.475   1.627   1.192 -0.6772 -0.1099  0.1769
 7703SOL    HW123567   5.465   1.532   1.193  1.2071 -0.3591  1.4833
 7703SOL    HW223568   5.476   1.653   1.284  2.0339  0.6845  0.0332
 7704SOL     OW23569   1.425   1.114   4.427 -0.2840 -0.0730 -0.0064
 7704SOL    HW123570   1.381   1.139   4.346  1.7282 -1.9376 -1.8456
 7704SOL    HW223571   1.395   1.024   4.443  1.1681 -0.6106 -0.1337
 7705SOL     OW23572   4.612   3.686   6.134  0.5102  0.0945 -0.3104
 7705SOL    HW123573   4.628   3.647   6.221  0.8043  0.1903 -0.3204
 7705SOL    HW223574   4.667   3.764   6.133  0.8360 -0.1379 -0.7476
 7706SOL     OW23575   5.199   4.030   4.195  0.6558 -0.5019  0.3572
 7706SOL    HW123576   5.143   4.083   4.139 -0.0104 -1.5826 -0.0405
 7706SOL    HW223577   5.228   4.090   4.264  0.8528  0.6519 -0.6983
 7707SOL     OW23578   3.858   4.377   3.289  0.0086  0.0041 -0.0392
 7707SOL    HW123579   3.878   4.471   3.280  0.6356 -0.0806  0.4093
 7707SOL    HW223580   3.765   4.374   3.309  0.0027  0.5399  0.0264
 7708SOL     OW23581   2.590   2.067   3.977  0.3305  0.1536 -0.3127
 7708SOL    HW123582   2.660   2.099   3.921 -0.3284  1.7956 -0.2736
 7708SOL    HW223583   2.544   2.002   3.924 -0.3450  1.7336 -1.7845
 7709SOL     OW23584   3.154   1.020   2.354  0.3552 -0.2345 -0.0660
 7709SOL    HW123585   3.078   1.078   2.350  1.0302  0.8192  1.4261
 7709SOL    HW223586   3.222   1.067   2.306  0.5668 -0.3185  0.1486
 7710SOL     OW23587   6.375   1.196   4.138 -0.1566 -0.0734 -0.2021
 7710SOL    HW123588   6.465   1.181   4.108 -0.8369 -3.4409 -1.0186
 7710SOL    HW223589   6.349   1.112   4.177 -2.2840  1.4539  1.9388
 7711SOL     OW23590   1.172   1.450   1.180 -0.1441 -0.1694  0.0641
 7711SOL    HW123591   1.170   1.371   1.233  0.6174 -0.3112 -0.1055
 7711SOL    HW223592   1.231   1.510   1.227 -0.8755  0.3794  0.2991
 7712SOL     OW23593   5.244   4.725   5.516 -0.4491 -0.0785  0.0652
 7712SOL    HW123594   5.241   4.698   5.608  0.9304  0.6369  0.3482
 7712SOL    HW223595   5.175   4.792   5.509  0.1893  0.7015  0.8898
 7713SOL     OW23596   5.703   4.434   5.301  0.0973  0.0383  0.2814
 7713SOL    HW123597   5.766   4.417   5.231  0.0028 -1.7745  0.5767
 7713SOL    HW223598   5.671   4.522   5.284  0.4493 -0.1638 -1.6556
 7714SOL     OW23599   5.491   4.145   0.143 -0.4305  0.1819 -0.0699
 7714SOL    HW123600   5.517   4.237   0.131 -1.0618  0.6254  1.6460
 7714SOL    HW223601   5.423   4.148   0.211 -1.1060 -1.4766 -0.6314
 7715SOL     OW23602   0.394   4.430   3.518 -0.4083  0.6607  0.4942
 7715SOL    HW123603   0.362   4.380   3.443 -1.3787  0.1802  1.1980
 7715SOL    HW223604   0.488   4.435   3.506 -0.3258 -1.0376  0.2144
 7716SOL     OW23605   0.467   5.899   5.983 -0.0332  0.1830 -0.1262
 7716SOL    HW123606   0.378   5.865   5.991 -0.4250  0.9350 -0.9595
 7716SOL    HW223607   0.454   5.990   5.955  0.9814  0.7592  1.2202
 7717SOL     OW23608   1.844   0.335   1.716 -0.5167 -0.8410 -0.1742
 7717SOL    HW123609   1.920   0.344   1.659 -0.5467 -0.9138 -0.2254
 7717SOL    HW223610   1.840   0.418   1.764 -0.0779 -1.0519  0.2366
 7718SOL     OW23611   5.728   4.826   3.877  0.1224 -0.1120  0.6833
 7718SOL    HW123612   5.776   4.755   3.835 -1.2273 -0.9734  0.5187
 7718SOL    HW223613   5.669   4.782   3.938 -0.5993  0.8785  0.7244
 7719SOL     OW23614   4.592   4.401   5.933  0.1115  1.2609  0.5847
 7719SOL    HW123615   4.618   4.353   6.011 -3.0009  2.0267  2.2742
 7719SOL    HW223616   4.612   4.492   5.953  0.8949  1.2952 -0.2853
 7720SOL     OW23617   0.394   0.624   1.099 -0.2278  0.1186 -0.4873
 7720SOL    HW123618   0.476   0.639   1.051 -0.1902  0.9943 -0.1747
 7720SOL    HW223619   0.325   0.650   1.037 -0.2036  0.7184 -0.2667
 7721SOL     OW23620   4.180   4.989   4.037 -0.1979  0.1902  0.4245
 7721SOL    HW123621   4.177   4.973   4.132  0.8506 -0.9871  0.2740
 7721SOL    HW223622   4.225   4.913   4.001  0.8090  1.3434 -0.8582
 7722SOL     OW23623   3.059   3.272   4.086  0.1056 -0.2750 -0.0067
 7722SOL    HW123624   3.078   3.284   4.179  1.8964 -0.2024 -0.3602
 7722SOL    HW223625   3.042   3.361   4.053 -0.2234 -0.2678  0.1788
 7723SOL     OW23626   4.762   4.398   3.327 -0.1856  0.3570  0.2677
 7723SOL    HW123627   4.785   4.487   3.354  0.7622 -0.7130  3.4509
 7723SOL    HW223628   4.689   4.374   3.384 -0.0808 -1.0842 -0.1559
 7724SOL     OW23629   3.803   2.892   4.335  0.3688 -0.8369 -0.8922
 7724SOL    HW123630   3.724   2.851   4.299 -1.0446  0.1648  0.9344
 7724SOL    HW223631   3.772   2.970   4.379  2.6898  0.8204 -1.9881
 7725SOL     OW23632   4.545   1.870   2.885 -0.0865 -0.3788 -0.0869
 7725SOL    HW123633   4.456   1.845   2.857 -0.1402 -0.4760  0.1684
 7725SOL    HW223634   4.559   1.822   2.966 -0.0584  0.1713  0.2372
 7726SOL     OW23635   1.666   4.654   3.085 -0.2123  0.3426  0.0294
 7726SOL    HW123636   1.752   4.692   3.101  0.0866  0.2015 -1.1160
 7726SOL    HW223637   1.641   4.613   3.168  1.8060 -1.5309 -0.2111
 7727SOL     OW23638   2.547   1.157   6.364 -0.0107  0.2773  0.2045
 7727SOL    HW123639   2.536   1.063   6.378 -0.2903 -0.1274 -2.2717
 7727SOL    HW223640   2.641   1.171   6.367  0.0382 -0.1102  0.4678
 7728SOL     OW23641   3.003   2.236   5.601 -0.3401 -0.2416 -0.3358
 7728SOL    HW123642   3.052   2.294   5.543 -0.9612  0.9539  0.3026
 7728SOL    HW223643   3.067   2.170   5.629  0.5688  0.5482 -0.5064
 7729SOL     OW23644   6.158   5.300   3.884 -0.2098 -0.1211 -0.1093
 7729SOL    HW123645   6.115   5.353   3.951 -1.1647 -1.0242  0.0185
 7729SOL    HW223646   6.251   5.318   3.896 -0.5126  2.1181 -0.5817
 7730SOL     OW23647   3.270   2.382   0.567 -0.1347  0.7469  0.2594
 7730SOL    HW123648   3.251   2.390   0.660 -0.2136  1.9206  0.1674
 7730SOL    HW223649   3.211   2.313   0.536  1.2033 -0.9863  1.4043
 7731SOL     OW23650   3.990   0.587   5.339  0.2747  0.1774 -0.1300
 7731SOL    HW123651   3.937   0.508   5.348  0.6451 -0.1084 -0.3889
 7731SOL    HW223652   4.012   0.590   5.246 -0.8212  1.3033 -0.3733
 7732SOL     OW23653   0.069   4.393   1.964 -0.3058  0.2955 -0.4976
 7732SOL    HW123654   0.140   4.451   1.990  0.1946 -0.0939 -0.9823
 7732SOL    HW223655   0.062   4.329   2.035  0.0336  0.1493 -0.5963
 7733SOL     OW23656   4.294   5.296   4.994  0.2789  0.3642 -0.3761
 7733SOL    HW123657   4.231   5.324   5.059  0.1430  0.5548 -0.5882
 7733SOL    HW223658   4.250   5.308   4.910  1.1689  2.1031 -0.6376
 7734SOL     OW23659   1.575   1.546   5.190 -0.4938  0.4737 -0.0578
 7734SOL    HW123660   1.523   1.534   5.110  1.1310  1.3588 -1.3104
 7734SOL    HW223661   1.602   1.457   5.214 -0.6809  0.2282 -0.7244
 7735SOL     OW23662   0.135   0.780   1.680 -0.1362  0.6396 -0.0090
 7735SOL    HW123663   0.122   0.858   1.627  1.2603  0.4310 -0.7049
 7735SOL    HW223664   0.169   0.714   1.619  0.7859  0.1558  0.9754
 7736SOL     OW23665   2.261   2.940   1.968  0.2733 -0.3435  1.0836
 7736SOL    HW123666   2.247   3.020   1.917  1.8576 -0.0903  0.9846
 7736SOL    HW223667   2.235   2.869   1.910 -1.1626  0.0752  1.1768
 7737SOL     OW23668   0.400   5.781   5.081 -0.6756  0.1208  0.6240
 7737SOL    HW123669   0.381   5.867   5.119 -0.5570 -0.1377  1.2862
 7737SOL    HW223670   0.491   5.764   5.106 -0.6994 -0.1956  0.4969
 7738SOL     OW23671   2.812   0.411   1.982 -0.2555  0.3838 -0.2744
 7738SOL    HW123672   2.905   0.401   2.002 -0.6703  1.0893  2.4302
 7738SOL    HW223673   2.796   0.351   1.909  2.1720 -0.1572 -0.4441
 7739SOL     OW23674   2.629   4.620   0.527 -0.1098 -0.1327 -0.0646
 7739SOL    HW123675   2.710   4.641   0.573  0.7436 -2.4754 -0.3903
 7739SOL    HW223676   2.560   4.628   0.594  0.6720 -0.2306  0.7644
 7740SOL     OW23677   4.530   0.432   4.520 -1.1208 -0.2680 -0.2947
 7740SOL    HW123678   4.510   0.347   4.481  0.3015 -1.3093  1.1075
 7740SOL    HW223679   4.574   0.411   4.602 -0.5809  1.8354  0.0112
 7741SOL     OW23680   1.615   3.487   2.559  0.5190 -0.6262 -0.6328
 7741SOL    HW123681   1.658   3.444   2.485 -0.1993 -2.4948 -0.0067
 7741SOL    HW223682   1.524   3.497   2.532  0.4684 -0.3898 -0.3826
 7742SOL     OW23683   3.167   3.367   4.806 -0.9337 -0.2037  0.2470
 7742SOL    HW123684   3.082   3.322   4.801 -0.9015 -0.1631 -2.3694
 7742SOL    HW223685   3.228   3.308   4.761 -0.1991  1.0000 -0.4099
 7743SOL     OW23686   0.147   2.000   1.320  0.5406 -0.5544 -0.1282
 7743SOL    HW123687   0.052   1.993   1.313  0.4436  1.7088 -2.3903
 7743SOL    HW223688   0.181   1.934   1.259  0.4661 -1.1134  0.4153
 7744SOL     OW23689   3.011   3.699   4.428  0.6000  0.1324  0.0749
 7744SOL    HW123690   2.964   3.617   4.408  0.7265 -0.1895  1.0583
 7744SOL    HW223691   3.084   3.699   4.367  1.5682 -1.3496  1.1558
 7745SOL     OW23692   3.668   5.742   2.373  0.0027 -0.7323 -0.2639
 7745SOL    HW123693   3.577   5.728   2.401 -0.2034 -1.7239 -1.3239
 7745SOL    HW223694   3.673   5.697   2.288  1.0272  0.7466 -1.0186
 7746SOL     OW23695   5.402   6.217   2.025  0.2715 -0.3699 -0.4587
 7746SOL    HW123696   5.463   6.184   1.959  0.3162 -0.8063 -0.2056
 7746SOL    HW223697   5.356   6.289   1.982 -2.0022 -2.6194 -2.1233
 7747SOL     OW23698   3.791   5.296   1.066  0.3817  0.6146  0.0187
 7747SOL    HW123699   3.794   5.268   1.158  1.1533 -0.2250 -0.2482
 7747SOL    HW223700   3.834   5.225   1.018  2.1113  2.1099 -0.7526
 7748SOL     OW23701   3.351   2.829   5.900  0.0585 -0.1778 -0.1123
 7748SOL    HW123702   3.295   2.791   5.967  0.9824 -0.9594  0.2416
 7748SOL    HW223703   3.340   2.924   5.910  0.6232 -0.2544  1.5589
 7749SOL     OW23704   0.620   0.541   6.352 -0.1203  0.0408 -0.3290
 7749SOL    HW123705   0.691   0.478   6.355  0.6999  0.9162 -0.6424
 7749SOL    HW223706   0.559   0.513   6.421  1.0741 -0.0994  0.6991
 7750SOL     OW23707   2.774   2.763   4.625 -0.1825  0.2741  0.1425
 7750SOL    HW123708   2.849   2.765   4.685 -1.4409 -0.1699  1.8086
 7750SOL    HW223709   2.708   2.818   4.667 -1.3675 -0.6146 -0.4945
 7751SOL     OW23710   0.716   6.346   1.310  0.2496 -0.5932  0.0203
 7751SOL    HW123711   0.717   6.401   1.231  0.7926  1.3532  1.3107
 7751SOL    HW223712   0.782   6.279   1.293  0.9836  0.3110 -0.8557
 7752SOL     OW23713   3.130   4.838   6.203  0.2709  0.4414  0.3142
 7752SOL    HW123714   3.071   4.803   6.135  1.0682  1.3063 -0.8563
 7752SOL    HW223715   3.084   4.821   6.285 -0.8064 -0.4777 -0.4407
 7753SOL     OW23716   4.278   2.320   3.198  0.1499 -0.5571  0.3198
 7753SOL    HW123717   4.369   2.310   3.225  0.2871 -1.7121 -0.4990
 7753SOL    HW223718   4.282   2.368   3.115  0.1117 -1.5245 -0.2615
 7754SOL     OW23719   3.028   1.489   1.050  0.5799 -0.1364 -0.2471
 7754SOL    HW123720   2.998   1.570   1.092  1.6321  0.2751 -0.2626
 7754SOL    HW223721   3.122   1.500   1.040  1.0162 -1.9683  1.1148
 7755SOL     OW23722   6.329   2.521   5.651 -0.0289 -0.2673 -0.0555
 7755SOL    HW123723   6.373   2.586   5.706  0.0084 -0.6719  0.3897
 7755SOL    HW223724   6.236   2.539   5.662 -0.0007  0.1307 -0.4433
 7756SOL     OW23725   1.611   4.932   1.877  0.1644  0.1676  0.1418
 7756SOL    HW123726   1.583   4.844   1.855  0.4120  0.1251 -0.0025
 7756SOL    HW223727   1.571   4.988   1.811  2.0996 -0.1091 -1.3552
 7757SOL     OW23728   1.902   2.720   2.283  0.1266 -0.1501  0.1010
 7757SOL    HW123729   1.847   2.649   2.316  0.4559 -0.6093 -0.3079
 7757SOL    HW223730   1.961   2.740   2.356 -0.9939  0.8035  0.7769
 7758SOL     OW23731   4.844   1.895   3.133 -0.2213 -0.1378  0.3743
 7758SOL    HW123732   4.938   1.908   3.145 -0.2141  1.3382 -0.9767
 7758SOL    HW223733   4.835   1.800   3.121  1.0679 -0.3215  0.6873
 7759SOL     OW23734   5.447   5.546   6.193 -0.0765 -0.0649  0.2027
 7759SOL    HW123735   5.391   5.583   6.125 -1.4830  0.2910  1.4880
 7759SOL    HW223736   5.502   5.619   6.222  1.2364 -0.4479 -1.1550
 7760SOL     OW23737   3.090   3.258   3.044 -0.6260  0.4241  0.1676
 7760SOL    HW123738   3.114   3.332   2.988  0.3767  0.7460  0.9795
 7760SOL    HW223739   3.037   3.298   3.113  0.9552  0.6530  1.3145
 7761SOL     OW23740   1.756   4.981   2.517  0.5566 -0.5394 -0.3592
 7761SOL    HW123741   1.810   5.008   2.443 -0.6367 -0.9057 -1.3956
 7761SOL    HW223742   1.678   5.037   2.511  0.5373 -0.4226  0.7515
 7762SOL     OW23743   2.457   5.877   3.512 -0.0125  0.3191 -0.0874
 7762SOL    HW123744   2.548   5.900   3.527  0.3618 -1.0305 -0.2351
 7762SOL    HW223745   2.433   5.923   3.432  1.4732 -1.7240 -1.7955
 7763SOL     OW23746   6.321   4.367   5.713 -0.0439 -0.0438  0.3648
 7763SOL    HW123747   6.303   4.307   5.785 -2.3805  0.7045  0.5129
 7763SOL    HW223748   6.291   4.321   5.635 -0.4009  0.3228  0.2810
 7764SOL     OW23749   1.166   0.545   2.964  0.6652  0.6571 -0.1767
 7764SOL    HW123750   1.222   0.541   2.886  0.5154  0.9919 -0.3038
 7764SOL    HW223751   1.173   0.635   2.994 -1.2215  1.2328 -1.2565
 7765SOL     OW23752   0.854   0.324   4.908 -0.1140 -0.4247  0.2215
 7765SOL    HW123753   0.858   0.419   4.892 -1.3457 -0.0965  1.5991
 7765SOL    HW223754   0.837   0.286   4.822 -1.5035  0.7891 -0.1034
 7766SOL     OW23755   2.534   3.516   5.700  0.1612  0.4330 -0.0261
 7766SOL    HW123756   2.612   3.539   5.649  0.3597  1.0862  0.5600
 7766SOL    HW223757   2.496   3.600   5.725 -0.6381  0.1218 -0.1562
 7767SOL     OW23758   0.677   1.819   4.331 -0.2953 -0.1926 -0.0149
 7767SOL    HW123759   0.727   1.863   4.264 -1.4469 -0.1773 -0.9001
 7767SOL    HW223760   0.599   1.873   4.343  0.2264  0.2407  1.9262
 7768SOL     OW23761   5.322   1.924   4.504 -0.2457 -0.4572 -0.2725
 7768SOL    HW123762   5.377   1.849   4.484 -0.7046 -0.5542 -1.2467
 7768SOL    HW223763   5.264   1.894   4.573  2.5340  0.4076  2.6963
 7769SOL     OW23764   3.791   2.150   6.090  0.1222  0.2603 -0.0377
 7769SOL    HW123765   3.760   2.240   6.087 -1.2859 -0.1812  0.3107
 7769SOL    HW223766   3.712   2.098   6.104  0.9983 -0.9770  0.5112
 7770SOL     OW23767   4.471   3.036   4.721  0.4078 -0.7211 -0.8407
 7770SOL    HW123768   4.566   3.035   4.735  0.3160  0.0202 -0.0848
 7770SOL    HW223769   4.448   2.945   4.703  0.8262 -1.4522  1.9383
 7771SOL     OW23770   0.151   5.626   1.057  0.4516 -0.1397  0.0417
 7771SOL    HW123771   0.143   5.721   1.046 -2.1086 -0.2459  0.3623
 7771SOL    HW223772   0.067   5.591   1.027  1.4034 -2.3399 -0.2433
 7772SOL     OW23773   0.615   4.528   0.979  0.5425 -0.5057 -0.1100
 7772SOL    HW123774   0.666   4.457   1.017  0.1432 -0.7836 -0.0934
 7772SOL    HW223775   0.591   4.583   1.054  0.5071 -0.5730 -0.0722
 7773SOL     OW23776   5.690   0.745   5.571 -0.7657  0.5136 -0.1852
 7773SOL    HW123777   5.609   0.763   5.619 -0.5742 -1.2710  0.9106
 7773SOL    HW223778   5.702   0.650   5.579  1.4639  0.7411 -0.2507
 7774SOL     OW23779   3.642   0.677   5.838  0.3184  0.1386  0.2090
 7774SOL    HW123780   3.592   0.700   5.759 -0.4425  0.1049  0.6712
 7774SOL    HW223781   3.578   0.681   5.908  1.1242  0.7959  0.9266
 7775SOL     OW23782   5.945   2.884   5.050  0.0477  0.3506  0.1219
 7775SOL    HW123783   5.905   2.831   5.119  0.2193  1.4084  1.0778
 7775SOL    HW223784   5.907   2.852   4.969 -0.7624 -0.4015  0.7869
 7776SOL     OW23785   5.292   1.492   6.317 -0.0723  0.0749 -0.4111
 7776SOL    HW123786   5.236   1.458   6.386 -0.3271 -0.4635 -0.8729
 7776SOL    HW223787   5.309   1.583   6.342  0.4479 -0.3225  0.7371
 7777SOL     OW23788   3.759   3.418   2.181  0.1669 -0.4182 -0.4389
 7777SOL    HW123789   3.824   3.485   2.201  0.1133 -0.9018  1.5143
 7777SOL    HW223790   3.809   3.348   2.139  0.7088 -0.3034  0.0017
 7778SOL     OW23791   3.747   2.619   1.154 -0.2640 -0.2598  0.1833
 7778SOL    HW123792   3.736   2.559   1.080 -1.0243 -1.4439  1.2052
 7778SOL    HW223793   3.818   2.579   1.206  0.4265  0.6853 -0.0052
 7779SOL     OW23794   5.005   2.239   5.550  0.2996 -0.1859 -0.1070
 7779SOL    HW123795   5.063   2.302   5.506  1.2923 -0.9213  0.1329
 7779SOL    HW223796   4.997   2.167   5.487 -1.4945  0.5053 -0.7281
 7780SOL     OW23797   0.578   1.937   0.513  0.3444  0.1719  0.8737
 7780SOL    HW123798   0.574   1.935   0.417  0.4490  1.2222  0.8290
 7780SOL    HW223799   0.672   1.930   0.533  0.5462  2.0974  0.7865
 7781SOL     OW23800   0.292   3.674   0.237 -0.0488  0.0833  0.1644
 7781SOL    HW123801   0.373   3.658   0.189 -0.1791 -0.2336  0.0498
 7781SOL    HW223802   0.319   3.720   0.316  0.3528 -0.8953  0.6113
 7782SOL     OW23803   1.735   3.929   3.045  0.0126  0.2186  0.6007
 7782SOL    HW123804   1.647   3.966   3.052 -0.2865 -0.4826  0.5461
 7782SOL    HW223805   1.742   3.901   2.953  0.8778  1.7073  0.1562
 7783SOL     OW23806   0.086   1.145   2.541  0.5648 -0.3830  0.4789
 7783SOL    HW123807   0.089   1.211   2.471  0.5583 -0.9486 -0.0680
 7783SOL    HW223808   0.010   1.170   2.594  0.1387 -0.3404 -0.1289
 7784SOL     OW23809   5.048   2.206   2.831 -0.1939  0.1392  0.4424
 7784SOL    HW123810   5.015   2.152   2.759  1.0974  1.9880 -1.6477
 7784SOL    HW223811   4.988   2.188   2.903 -1.0410 -2.4546 -0.7894
 7785SOL     OW23812   0.876   4.170   6.272  0.2747  0.0838 -0.0026
 7785SOL    HW123813   0.939   4.178   6.343 -0.8761  2.2526  0.8478
 7785SOL    HW223814   0.790   4.177   6.314 -0.4293  2.0752 -1.5993
 7786SOL     OW23815   0.159   4.124   5.608  0.5166  0.5623  0.2373
 7786SOL    HW123816   0.109   4.059   5.657  0.7490  0.6644  0.6119
 7786SOL    HW223817   0.117   4.126   5.522  0.5077 -0.0865  0.2181
 7787SOL     OW23818   5.570   1.743   0.524 -0.1580  0.0261 -0.0989
 7787SOL    HW123819   5.494   1.738   0.467  0.3733 -1.8840 -0.7208
 7787SOL    HW223820   5.536   1.777   0.607 -1.3871  0.5932 -0.8140
 7788SOL     OW23821   5.395   3.345   4.655  0.2323  0.6330 -0.9973
 7788SOL    HW123822   5.318   3.395   4.626  1.2892  2.4852 -0.7120
 7788SOL    HW223823   5.390   3.346   4.751 -0.1244 -0.4886 -0.9834
 7789SOL     OW23824   5.043   0.343   4.002 -0.4023 -0.2121 -0.8156
 7789SOL    HW123825   5.072   0.427   4.037 -0.1489 -0.8008  0.4945
 7789SOL    HW223826   5.104   0.280   4.041 -2.0405 -1.2513  0.1847
 7790SOL     OW23827   1.134   2.840   4.870 -0.2137  0.6443  0.5577
 7790SOL    HW123828   1.222   2.805   4.855 -0.6539 -0.5060  0.5821
 7790SOL    HW223829   1.144   2.935   4.857  0.4630  0.2802 -2.0507
 7791SOL     OW23830   5.410   1.040   5.116  0.4152 -0.7225  0.2083
 7791SOL    HW123831   5.394   0.964   5.172  2.9149 -0.5350  1.2926
 7791SOL    HW223832   5.505   1.052   5.119  0.0436  2.9780  0.8016
 7792SOL     OW23833   0.666   4.801   1.686  0.1583 -0.4440  0.3953
 7792SOL    HW123834   0.693   4.722   1.639 -0.0251 -0.0181 -0.4293
 7792SOL    HW223835   0.597   4.771   1.746  0.3887 -0.9814  0.3947
 7793SOL     OW23836   0.712   2.619   6.244  0.0034  0.4758  0.1559
 7793SOL    HW123837   0.760   2.642   6.323  0.3158 -0.9741  0.4093
 7793SOL    HW223838   0.621   2.608   6.274  0.0095  0.5473  0.1995
 7794SOL     OW23839   2.470   4.909   5.492  0.1230  0.4038  0.6422
 7794SOL    HW123840   2.479   4.878   5.582 -1.4914  0.2949  0.7977
 7794SOL    HW223841   2.544   4.968   5.479  0.5134  0.2261  1.9516
 7795SOL     OW23842   3.498   4.112   4.025 -0.4260  0.0230  0.5298
 7795SOL    HW123843   3.508   4.037   3.966 -1.4307  0.3427 -0.0709
 7795SOL    HW223844   3.538   4.083   4.107  0.1089 -0.7950  0.0038
 7796SOL     OW23845   0.246   0.021   3.634 -0.1970  0.2690  0.2601
 7796SOL    HW123846   0.272   0.028   3.726  0.4173  2.7120 -0.0201
 7796SOL    HW223847   0.328   0.035   3.585 -1.0831  3.1188 -0.6163
 7797SOL     OW23848   4.977   2.314   1.893  0.0234 -0.0207  0.6122
 7797SOL    HW123849   5.018   2.239   1.935 -0.3435 -0.4319  0.2543
 7797SOL    HW223850   5.048   2.360   1.849  0.0565 -1.0207 -0.4523
 7798SOL     OW23851   1.897   2.555   4.394  0.3571  0.1902  0.1745
 7798SOL    HW123852   1.805   2.571   4.416 -0.3065 -4.6406  2.0694
 7798SOL    HW223853   1.896   2.532   4.301 -0.1319  1.2327 -0.0864
 7799SOL     OW23854   2.036   0.934   5.548 -0.3900 -0.6965 -0.4092
 7799SOL    HW123855   2.047   0.996   5.476 -0.2663  0.3888  0.5010
 7799SOL    HW223856   1.963   0.970   5.599 -0.2547 -1.2524  0.1900
 7800SOL     OW23857   0.629   0.744   2.866  0.2865  0.1920 -0.2213
 7800SOL    HW123858   0.543   0.777   2.840  0.0068 -0.7793 -0.5678
 7800SOL    HW223859   0.650   0.793   2.946  0.2997  1.8391 -1.1823
 7801SOL     OW23860   4.715   3.305   4.342  0.2343  0.3912  0.4976
 7801SOL    HW123861   4.766   3.385   4.331  0.5216  0.0882 -0.4736
 7801SOL    HW223862   4.725   3.283   4.435 -0.8750  2.1305  1.0779
 7802SOL     OW23863   5.913   5.812   2.580 -0.2359 -0.5244 -0.1169
 7802SOL    HW123864   5.911   5.874   2.653  2.2332 -1.3916  0.7897
 7802SOL    HW223865   5.882   5.730   2.617 -1.2781 -0.4359 -0.7275
 7803SOL     OW23866   3.118   1.315   5.686 -0.0723 -0.3075  0.3061
 7803SOL    HW123867   3.185   1.371   5.647 -1.1442  1.1196  0.4552
 7803SOL    HW223868   3.040   1.371   5.692 -1.4753 -2.0920 -0.4186
 7804SOL     OW23869   6.077   4.507   3.176 -0.1644 -0.7507 -0.6224
 7804SOL    HW123870   6.065   4.425   3.129  2.8805 -2.0491  0.6060
 7804SOL    HW223871   6.100   4.571   3.108  0.9863 -1.8156 -1.2834
 7805SOL     OW23872   0.432   0.229   2.221  0.2775  0.2432  0.4573
 7805SOL    HW123873   0.420   0.318   2.255 -0.0520  0.5371 -0.4124
 7805SOL    HW223874   0.371   0.223   2.147  0.9592 -0.3988 -0.0644
 7806SOL     OW23875   6.317   0.636   1.793 -0.1154 -0.7615 -0.8923
 7806SOL    HW123876   6.390   0.687   1.757  0.7669 -0.0815  1.6743
 7806SOL    HW223877   6.352   0.596   1.872 -2.3101 -1.0365  0.0141
 7807SOL     OW23878   5.562   4.592   0.041 -0.2275  0.1822  0.5246
 7807SOL    HW123879   5.471   4.608   0.065 -1.9149 -2.4802 -3.1949
 7807SOL    HW223880   5.600   4.679   0.029 -3.3634  1.4633 -1.1885
 7808SOL     OW23881   2.193   1.559   6.046 -0.7434 -0.1235  0.3078
 7808SOL    HW123882   2.234   1.490   5.995 -1.0437 -0.6836  0.8195
 7808SOL    HW223883   2.122   1.592   5.989 -0.8396 -0.4863  0.2178
 7809SOL     OW23884   0.523   3.214   5.523 -0.1510 -0.3375 -0.2959
 7809SOL    HW123885   0.446   3.212   5.581  1.6955 -0.2805  2.3078
 7809SOL    HW223886   0.527   3.125   5.487 -0.1572 -1.0850  1.4200
 7810SOL     OW23887   0.450   4.599   5.186 -0.2007 -0.5502  0.0674
 7810SOL    HW123888   0.536   4.615   5.148  0.7372  0.4658  2.4214
 7810SOL    HW223889   0.423   4.514   5.151  0.9677 -0.1190 -2.0160
 7811SOL     OW23890   2.512   1.714   3.736  0.0930  0.2230  1.2071
 7811SOL    HW123891   2.533   1.704   3.829  2.3181  2.9182  1.1235
 7811SOL    HW223892   2.485   1.806   3.727  0.4105  0.1730 -0.8816
 7812SOL     OW23893   1.397   5.247   4.626  0.1803  0.3728 -0.1956
 7812SOL    HW123894   1.372   5.265   4.536 -0.7045  1.5532  0.2714
 7812SOL    HW223895   1.493   5.238   4.623  0.3079  1.7841 -1.0273
 7813SOL     OW23896   1.314   4.944   0.998 -0.0289 -0.1025 -0.2399
 7813SOL    HW123897   1.387   5.000   1.024 -0.0828 -0.0622 -0.1753
 7813SOL    HW223898   1.332   4.860   1.041 -0.5332  0.2008  0.5886
 7814SOL     OW23899   2.512   4.322   3.879 -0.1934 -0.1989  0.8643
 7814SOL    HW123900   2.530   4.236   3.916 -0.2080 -0.0037  1.3378
 7814SOL    HW223901   2.491   4.305   3.787 -0.7448 -0.7549  1.0834
 7815SOL     OW23902   4.868   3.350   3.878  0.0117  0.5265  0.9271
 7815SOL    HW123903   4.801   3.321   3.941 -0.0487 -0.9237  0.2241
 7815SOL    HW223904   4.855   3.294   3.802  0.3193  2.0290 -0.2597
 7816SOL     OW23905   2.159   4.139   2.630 -0.0865 -0.1645  0.2445
 7816SOL    HW123906   2.168   4.062   2.575 -1.0027  1.0573 -1.7164
 7816SOL    HW223907   2.197   4.210   2.578 -1.0713  1.0523  1.1436
 7817SOL     OW23908   3.598   1.593   0.606  0.4581 -0.3361 -0.6757
 7817SOL    HW123909   3.658   1.661   0.576  1.1878 -0.5886  0.1610
 7817SOL    HW223910   3.646   1.512   0.593  0.1301 -0.5737 -0.4061
 7818SOL     OW23911   1.144   0.212   5.653  0.3059  0.0489  0.0084
 7818SOL    HW123912   1.095   0.264   5.589  0.7396  0.6347  0.1444
 7818SOL    HW223913   1.206   0.162   5.600 -0.4290 -0.6891 -0.1631
 7819SOL     OW23914   1.247   4.705   5.666  0.5708 -0.0106  1.0389
 7819SOL    HW123915   1.331   4.660   5.681  0.9189  0.2246 -0.1194
 7819SOL    HW223916   1.270   4.785   5.620  0.0055  1.6850  3.4727
 7820SOL     OW23917   2.845   6.229   2.350 -0.2377 -0.6670 -0.0851
 7820SOL    HW123918   2.750   6.228   2.354 -0.2120 -0.2986  0.9948
 7820SOL    HW223919   2.868   6.322   2.351  0.0994 -0.6845 -2.1250
 7821SOL     OW23920   2.331   3.843   1.207  0.4641  0.0727  0.0274
 7821SOL    HW123921   2.294   3.912   1.261  0.9842  0.3144  0.0728
 7821SOL    HW223922   2.402   3.885   1.159  0.8226 -0.4432  0.1010
 7822SOL     OW23923   4.682   3.626   2.485  0.6643  0.2400 -0.0513
 7822SOL    HW123924   4.678   3.607   2.579 -1.0511  1.7218  0.2262
 7822SOL    HW223925   4.591   3.623   2.456  1.3208 -2.6467 -2.2541
 7823SOL     OW23926   4.891   5.361   1.878 -0.0432  0.5496  0.2245
 7823SOL    HW123927   4.985   5.365   1.862  0.2199 -0.1483  1.4597
 7823SOL    HW223928   4.856   5.438   1.833  1.1555  0.9895  0.0028
 7824SOL     OW23929   6.222   3.747   1.045  0.1025 -0.3302  0.3858
 7824SOL    HW123930   6.165   3.812   1.087  1.0767  0.7572  0.0852
 7824SOL    HW223931   6.196   3.747   0.953  0.5434  0.1288  0.2584
 7825SOL     OW23932   2.284   5.569   0.415 -0.5318 -0.3647  0.3509
 7825SOL    HW123933   2.331   5.526   0.343 -0.6600 -0.3225  0.2424
 7825SOL    HW223934   2.313   5.660   0.412  0.6999 -0.6916  1.3583
 7826SOL     OW23935   5.693   1.431   0.661  0.3911  0.3712 -0.4510
 7826SOL    HW123936   5.599   1.421   0.675  0.3948 -0.8474 -1.1611
 7826SOL    HW223937   5.705   1.524   0.640 -0.8954  0.2293 -1.9647
 7827SOL     OW23938   0.449   6.103   4.787  0.4247  0.3285  0.2927
 7827SOL    HW123939   0.423   6.075   4.699 -0.2013  0.3182  0.4717
 7827SOL    HW223940   0.483   6.191   4.776 -0.8632  0.8422  0.2040
 7828SOL     OW23941   0.445   6.123   2.775 -0.0866 -0.4477  0.3487
 7828SOL    HW123942   0.533   6.123   2.814  1.6179 -0.6853 -3.1210
 7828SOL    HW223943   0.426   6.216   2.759  0.0886 -0.4770 -0.0285
 7829SOL     OW23944   0.289   2.285   1.633  0.1765  0.2106 -0.2600
 7829SOL    HW123945   0.342   2.221   1.585  1.1225  1.0400 -0.3624
 7829SOL    HW223946   0.353   2.344   1.673 -0.6682  1.1147 -0.1978
 7830SOL     OW23947   5.917   1.059   0.586  0.7831 -0.3600 -0.0475
 7830SOL    HW123948   6.006   1.068   0.620  1.0472 -1.9232 -0.2506
 7830SOL    HW223949   5.889   0.973   0.615 -0.9478  0.3796  0.5897
 7831SOL     OW23950   0.123   3.429   4.484  0.5217 -0.1084  0.6849
 7831SOL    HW123951   0.110   3.506   4.429  1.9536 -1.5682 -1.8991
 7831SOL    HW223952   0.194   3.454   4.544  0.4375  0.8197  0.4127
 7832SOL     OW23953   0.184   3.035   0.232  0.1340 -0.0251 -0.0196
 7832SOL    HW123954   0.229   3.106   0.186 -0.9048  0.1498 -0.8109
 7832SOL    HW223955   0.225   2.955   0.199  2.6975  0.1663  2.3358
 7833SOL     OW23956   4.312   1.791   5.120 -0.1445  0.3253  0.0784
 7833SOL    HW123957   4.330   1.877   5.084 -0.1175  0.2371 -0.1182
 7833SOL    HW223958   4.277   1.808   5.208  2.9042  0.4482  1.3899
 7834SOL     OW23959   1.335   0.503   0.548  0.2750  0.3083 -0.3811
 7834SOL    HW123960   1.257   0.446   0.546 -1.7431  2.8930 -1.3541
 7834SOL    HW223961   1.339   0.535   0.638  1.8732 -1.7768  0.3843
 7835SOL     OW23962   1.896   0.067   5.169  0.3259  0.2371 -0.2809
 7835SOL    HW123963   1.919   0.020   5.089  0.1527  0.7387 -0.6307
 7835SOL    HW223964   1.806   0.040   5.187 -0.1493  1.2197 -1.0723
 7836SOL     OW23965   3.309   0.896   5.682 -0.6921  0.2100  0.0768
 7836SOL    HW123966   3.382   0.876   5.623 -2.1578 -1.7152 -1.1952
 7836SOL    HW223967   3.247   0.945   5.628 -0.6909  1.2255  0.9550
 7837SOL     OW23968   0.287   3.848   0.932 -0.4435 -0.6492  0.0184
 7837SOL    HW123969   0.349   3.900   0.983  0.0344 -0.6742 -0.5266
 7837SOL    HW223970   0.201   3.879   0.960 -0.1668  0.1794 -0.0395
 7838SOL     OW23971   1.771   4.504   6.197 -0.8484  0.3295 -0.4188
 7838SOL    HW123972   1.819   4.570   6.247 -0.3487  0.9250 -1.6503
 7838SOL    HW223973   1.679   4.518   6.220 -0.5913  0.1977  0.7692
 7839SOL     OW23974   2.370   3.957   2.932 -0.3215 -0.4076 -0.3596
 7839SOL    HW123975   2.307   4.027   2.919  1.2490  0.9989 -0.8190
 7839SOL    HW223976   2.453   3.993   2.899  0.5778 -2.4258 -0.4473
 7840SOL     OW23977   5.770   0.459   5.371 -0.5266 -0.0725 -0.0083
 7840SOL    HW123978   5.685   0.416   5.378  0.2190 -1.4531  0.8392
 7840SOL    HW223979   5.797   0.474   5.461  0.5348 -0.4675 -0.2529
 7841SOL     OW23980   4.663   0.934   0.021 -0.3740 -0.1643  0.3308
 7841SOL    HW123981   4.734   0.894   0.071  0.1211 -0.6088 -0.6900
 7841SOL    HW223982   4.590   0.872   0.030  0.1121 -0.8970 -0.5038
 7842SOL     OW23983   5.511   3.749   0.236 -0.4800  0.2589 -0.2764
 7842SOL    HW123984   5.567   3.693   0.183 -1.0108  0.9951 -1.6652
 7842SOL    HW223985   5.428   3.702   0.240 -1.3567  1.4437 -2.5550
 7843SOL     OW23986   1.130   3.596   2.188 -0.0804  0.6658 -0.3962
 7843SOL    HW123987   1.041   3.571   2.163 -0.1026 -0.8379  1.0433
 7843SOL    HW223988   1.180   3.593   2.106 -0.6732 -1.7169 -0.7498
 7844SOL     OW23989   4.336   3.503   2.889  0.6781  0.0451 -0.1547
 7844SOL    HW123990   4.390   3.466   2.959 -0.8422  0.7980  1.4903
 7844SOL    HW223991   4.379   3.586   2.867  1.2440 -0.2613 -0.2210
 7845SOL     OW23992   5.924   0.515   6.078 -0.7853 -0.6957 -0.5261
 7845SOL    HW123993   5.929   0.533   6.172 -0.5320  0.5120 -0.7535
 7845SOL    HW223994   5.840   0.552   6.051 -0.9413 -1.2000 -0.7543
 7846SOL     OW23995   2.237   4.447   3.682  0.2455  0.0225  0.4724
 7846SOL    HW123996   2.239   4.384   3.610 -0.2405  0.5848 -0.0435
 7846SOL    HW223997   2.166   4.507   3.660  2.6720  2.6928 -0.7148
 7847SOL     OW23998   2.055   1.085   5.334 -0.4254  0.1423  0.3062
 7847SOL    HW123999   2.000   1.145   5.285 -1.2779  0.0053  1.0769
 7847SOL    HW224000   2.108   1.041   5.267 -1.5318 -0.0153 -0.4847
 7848SOL     OW24001   6.234   4.425   2.907  0.1208  0.3803 -0.7237
 7848SOL    HW124002   6.280   4.457   2.830  0.7636  2.4501  0.4503
 7848SOL    HW224003   6.300   4.378   2.957 -0.0078  0.0601 -0.8494
 7849SOL     OW24004   4.059   1.592   4.667 -0.2660  0.1528 -0.3040
 7849SOL    HW124005   4.148   1.557   4.671  0.3415  1.6310 -0.0235
 7849SOL    HW224006   4.042   1.626   4.755 -1.4272 -0.8072 -0.1306
 7850SOL     OW24007   5.901   5.047   6.194 -0.1305 -0.1527  0.0890
 7850SOL    HW124008   5.832   5.019   6.134 -0.1733  0.4987 -0.1618
 7850SOL    HW224009   5.983   5.021   6.151 -0.2079 -1.1162  0.4818
 7851SOL     OW24010   3.541   5.152   6.099  0.6273 -0.0340  0.3212
 7851SOL    HW124011   3.552   5.163   6.004  2.0567 -2.0190  0.1912
 7851SOL    HW224012   3.467   5.093   6.108  0.8840 -0.3451  0.4048
 7852SOL     OW24013   3.725   2.285   0.528  0.4333  0.1617 -0.1527
 7852SOL    HW124014   3.752   2.202   0.566  0.6354  0.6834  0.9069
 7852SOL    HW224015   3.685   2.262   0.444  1.0865 -0.9285 -0.1808
 7853SOL     OW24016   4.169   2.053   3.211  0.5435 -0.1807 -0.3629
 7853SOL    HW124017   4.181   2.040   3.305 -1.0628  1.3583  0.1090
 7853SOL    HW224018   4.211   2.136   3.192  0.3380 -0.1906 -0.8814
 7854SOL     OW24019   5.629   2.823   2.794 -0.0433 -0.0189 -0.5627
 7854SOL    HW124020   5.659   2.853   2.881  2.4283  0.6179 -1.5395
 7854SOL    HW224021   5.538   2.851   2.790  0.0981  0.9443  1.4019
 7855SOL     OW24022   0.695   5.818   1.768  0.1781  0.0573 -0.3358
 7855SOL    HW124023   0.712   5.860   1.684  0.2971 -0.4612 -0.5772
 7855SOL    HW224024   0.599   5.812   1.772  0.0532  2.0233  0.5505
 7856SOL     OW24025   0.070   2.716   4.855 -0.3231 -0.0724 -0.1558
 7856SOL    HW124026   0.056   2.793   4.800  0.2666 -1.3217 -2.1536
 7856SOL    HW224027   0.003   2.654   4.828  0.0549 -0.7729  0.4621
 7857SOL     OW24028   4.444   0.438   6.084 -0.4219  0.0344  0.2000
 7857SOL    HW124029   4.387   0.403   6.015 -0.6088  1.9241 -0.6720
 7857SOL    HW224030   4.435   0.533   6.076  1.1809  0.3342  1.4908
 7858SOL     OW24031   0.719   5.356   1.678  0.5969 -0.5199  0.5009
 7858SOL    HW124032   0.684   5.267   1.686 -1.2725  0.0741 -0.6118
 7858SOL    HW224033   0.717   5.375   1.585  1.1477  0.6427  0.7088
 7859SOL     OW24034   5.783   3.271   2.583  0.1893  0.6896  0.3492
 7859SOL    HW124035   5.767   3.319   2.502  2.3829  0.9729  0.0135
 7859SOL    HW224036   5.753   3.182   2.565  0.8151  0.7012 -0.8604
 7860SOL     OW24037   4.431   4.264   6.332  0.1219 -0.1665  0.1905
 7860SOL    HW124038   4.504   4.243   6.273  0.3571  3.8113 -1.2820
 7860SOL    HW224039   4.356   4.277   6.273 -0.6848 -0.0407  1.2102
 7861SOL     OW24040   3.153   1.151   4.842  0.0882 -0.3970  0.1951
 7861SOL    HW124041   3.224   1.169   4.904  0.5819  2.7473 -1.0892
 7861SOL    HW224042   3.192   1.165   4.756 -1.9714  1.1313 -0.5672
 7862SOL     OW24043   1.080   3.984   3.383  0.1003 -0.1772 -0.0248
 7862SOL    HW124044   1.168   3.980   3.346  0.1037  2.1898 -0.4476
 7862SOL    HW224045   1.038   3.902   3.357  1.4010 -0.3082 -1.8934
 7863SOL     OW24046   0.984   1.776   4.536  0.4574 -0.2736  0.1820
 7863SOL    HW124047   0.892   1.801   4.541 -0.0585 -1.5149 -1.8316
 7863SOL    HW224048   1.014   1.812   4.452  2.3443  1.5894  1.5486
 7864SOL     OW24049   1.361   3.211   0.312 -0.4835 -0.2691 -0.3394
 7864SOL    HW124050   1.366   3.166   0.397 -0.1446 -0.8023 -0.6375
 7864SOL    HW224051   1.378   3.302   0.333 -2.3607 -0.0437  0.4500
 7865SOL     OW24052   3.799   5.259   1.542  0.0949  0.1892  0.1235
 7865SOL    HW124053   3.784   5.232   1.452  0.5771 -2.0144  0.6626
 7865SOL    HW224054   3.823   5.352   1.535 -0.1768  0.1524 -1.9556
 7866SOL     OW24055   2.400   0.219   4.527 -0.4162 -0.4662 -0.0488
 7866SOL    HW124056   2.370   0.198   4.438 -0.7638  1.9487 -0.5875
 7866SOL    HW224057   2.475   0.161   4.541 -1.6477 -2.4100 -1.0430
 7867SOL     OW24058   3.536   3.644   6.203 -0.3125  0.1057  0.3945
 7867SOL    HW124059   3.584   3.561   6.198 -0.8549 -0.1214 -3.2116
 7867SOL    HW224060   3.468   3.628   6.269  1.7810 -0.9781  2.4714
 7868SOL     OW24061   2.209   1.150   3.743  0.0697  0.3169  0.3700
 7868SOL    HW124062   2.257   1.197   3.675  0.2802 -1.4522 -0.7876
 7868SOL    HW224063   2.277   1.099   3.788 -0.4184 -0.6169  0.0746
 7869SOL     OW24064   2.328   3.692   2.110  0.1189  0.5102  0.7682
 7869SOL    HW124065   2.347   3.743   2.032 -0.3690  1.3553  1.1872
 7869SOL    HW224066   2.412   3.684   2.155  0.6248 -0.8673 -0.3250
 7870SOL     OW24067   0.239   2.270   4.514  0.2792 -0.1094  0.3927
 7870SOL    HW124068   0.261   2.258   4.606 -0.5709 -3.6807  0.2574
 7870SOL    HW224069   0.181   2.197   4.492 -1.7448  2.0749 -2.3562
 7871SOL     OW24070   3.076   3.330   5.389 -0.0568  0.1483 -0.8103
 7871SOL    HW124071   3.138   3.334   5.316 -0.2790  1.1898 -0.9557
 7871SOL    HW224072   3.004   3.275   5.356  1.2722 -2.0628 -0.2313
 7872SOL     OW24073   2.862   1.381   0.374 -0.0501 -0.0606  0.0442
 7872SOL    HW124074   2.908   1.453   0.419  0.3112 -0.0790 -0.2851
 7872SOL    HW224075   2.803   1.346   0.440  0.5149 -0.1286  0.5292
 7873SOL     OW24076   1.016   4.699   5.533  0.2008 -0.0345  0.4096
 7873SOL    HW124077   1.011   4.612   5.494  0.8764  0.5777 -1.1172
 7873SOL    HW224078   1.102   4.703   5.575  0.1816 -0.0853  0.4539
 7874SOL     OW24079   6.004   6.109   2.327 -0.5235 -0.4928 -0.4851
 7874SOL    HW124080   6.070   6.040   2.322 -0.7965 -0.7287 -0.8800
 7874SOL    HW224081   5.998   6.143   2.237  0.2749  0.6719 -0.1231
 7875SOL     OW24082   2.532   6.341   4.629 -0.4564 -0.2293 -0.6260
 7875SOL    HW124083   2.439   6.317   4.634 -0.5507  0.1258 -0.6393
 7875SOL    HW224084   2.550   6.381   4.714 -0.1952 -0.7161 -0.4499
 7876SOL     OW24085   2.957   0.117   2.304 -0.5139 -0.6396  0.3768
 7876SOL    HW124086   3.011   0.146   2.377  0.0498  2.2528 -1.0515
 7876SOL    HW224087   2.899   0.191   2.286 -1.5013 -1.7544 -1.3109
 7877SOL     OW24088   2.194   5.904   0.215 -0.3753 -0.2003 -0.2291
 7877SOL    HW124089   2.258   5.858   0.269  3.2740  4.0545 -0.3060
 7877SOL    HW224090   2.140   5.951   0.278  0.0064  0.1888 -0.1860
 7878SOL     OW24091   2.418   2.118   1.506  0.0203 -0.1107 -0.2383
 7878SOL    HW124092   2.487   2.085   1.449  0.1215 -0.9327  0.3565
 7878SOL    HW224093   2.377   2.040   1.542 -0.6619  0.3877  0.0873
 7879SOL     OW24094   5.068   2.434   0.728 -0.0223 -0.2700  0.2281
 7879SOL    HW124095   5.161   2.453   0.719  0.3095 -1.2046  1.3964
 7879SOL    HW224096   5.063   2.369   0.798 -1.6377  0.4733  0.8688
 7880SOL     OW24097   1.427   0.681   5.128 -0.3511  0.0296  0.1704
 7880SOL    HW124098   1.487   0.618   5.088 -0.4294  0.3980 -0.5354
 7880SOL    HW224099   1.454   0.765   5.093 -0.1908  0.4103  1.1786
 7881SOL     OW24100   1.113   5.800   4.607 -0.4143 -0.6769  0.0005
 7881SOL    HW124101   1.090   5.852   4.685  1.1446 -0.2032  0.1805
 7881SOL    HW224102   1.101   5.860   4.534 -0.6302 -0.7184  0.0010
 7882SOL     OW24103   5.308   5.026   2.264 -0.0838 -0.3089 -0.0179
 7882SOL    HW124104   5.266   5.103   2.226  0.1159 -0.5813 -0.8123
 7882SOL    HW224105   5.235   4.973   2.297 -0.3259 -0.4366 -0.7398
 7883SOL     OW24106   1.170   0.444   5.317 -0.2898 -0.0855  0.3286
 7883SOL    HW124107   1.125   0.394   5.250  0.3715 -0.8545  0.4370
 7883SOL    HW224108   1.132   0.414   5.400  0.8199 -1.1837  0.4583
 7884SOL     OW24109   1.574   0.275   3.118  0.0772 -0.1300 -0.2683
 7884SOL    HW124110   1.497   0.321   3.084 -0.8563 -0.6788  1.0264
 7884SOL    HW224111   1.581   0.196   3.065  0.1610  0.2386 -0.8189
 7885SOL     OW24112   1.781   4.806   5.532  0.3813  0.3499 -0.0498
 7885SOL    HW124113   1.789   4.836   5.442  0.9850 -0.9637 -0.4680
 7885SOL    HW224114   1.868   4.770   5.552  0.2379  0.5858  1.0430
 7886SOL     OW24115   5.593   4.983   1.946 -0.3709 -0.3043  0.0888
 7886SOL    HW124116   5.644   4.943   1.875 -0.5211  0.1724 -0.2968
 7886SOL    HW224117   5.561   4.910   1.998  0.0235 -0.6441 -0.1457
 7887SOL     OW24118   5.804   3.272   2.850 -0.9017 -0.0695  0.2412
 7887SOL    HW124119   5.785   3.366   2.850  1.1558  0.4018  1.1625
 7887SOL    HW224120   5.809   3.249   2.757  1.7466  1.5085 -0.1254
 7888SOL     OW24121   3.212   2.677   5.079  0.4683 -0.3342 -0.3984
 7888SOL    HW124122   3.172   2.590   5.068 -0.7082  0.3305 -1.7953
 7888SOL    HW224123   3.293   2.673   5.028  0.0076 -0.3836 -1.1470
 7889SOL     OW24124   2.985   0.003   3.420 -0.5024  0.2528  0.0591
 7889SOL    HW124125   2.901  -0.036   3.396 -1.3278  1.4369  0.9204
 7889SOL    HW224126   3.031   0.014   3.337 -0.3826 -2.1119 -0.2730
 7890SOL     OW24127   0.879   1.949   3.891  0.1106 -0.2563  1.1477
 7890SOL    HW124128   0.954   1.913   3.844 -0.5501  2.0428 -2.0335
 7890SOL    HW224129   0.807   1.890   3.871  0.0672  0.1431  0.0526
 7891SOL     OW24130   4.538   2.682   5.564  0.3626 -0.1050 -0.1429
 7891SOL    HW124131   4.540   2.758   5.505 -1.7288  0.3854  0.3298
 7891SOL    HW224132   4.537   2.606   5.505 -0.8305  0.3591 -0.7684
 7892SOL     OW24133   2.510   4.371   4.190  0.3188 -1.0581  0.6633
 7892SOL    HW124134   2.596   4.413   4.188  0.0955 -0.6068 -0.2148
 7892SOL    HW224135   2.484   4.367   4.098 -0.6984 -0.9862  0.9426
 7893SOL     OW24136   2.155   0.671   0.263 -0.0176  0.1884 -0.5467
 7893SOL    HW124137   2.116   0.715   0.188 -0.6569 -1.4099 -1.1868
 7893SOL    HW224138   2.085   0.617   0.300  0.6935 -0.2044  0.2903
 7894SOL     OW24139   0.813   5.052   1.087  0.8252 -0.4988  0.0674
 7894SOL    HW124140   0.821   5.148   1.092  1.6111 -0.5615  0.2183
 7894SOL    HW224141   0.859   5.021   1.165 -0.2621 -0.9792  0.5408
 7895SOL     OW24142   1.697   4.802   3.864  0.6025  0.0633 -0.6177
 7895SOL    HW124143   1.607   4.774   3.880  0.9113 -0.3140  0.5563
 7895SOL    HW224144   1.705   4.884   3.913  0.8050  0.2723 -0.9981
 7896SOL     OW24145   6.303   1.514   2.603  0.2854  0.1279 -0.2907
 7896SOL    HW124146   6.362   1.497   2.530  0.3756  1.3102 -0.5136
 7896SOL    HW224147   6.361   1.532   2.677  0.1975 -0.2429 -0.1308
 7897SOL     OW24148   0.934   1.421   0.401  0.1901  0.0876 -0.0030
 7897SOL    HW124149   0.977   1.420   0.487  1.1164  2.1013 -0.3727
 7897SOL    HW224150   1.007   1.424   0.339 -0.4377  1.9705 -0.7083
 7898SOL     OW24151   2.845   3.496   4.023  0.2330 -0.0430 -0.7425
 7898SOL    HW124152   2.767   3.441   4.033  0.2047 -0.0437 -0.9660
 7898SOL    HW224153   2.817   3.582   4.054  0.6516 -0.4527  0.8666
 7899SOL     OW24154   0.133   1.150   1.579  0.2872  0.0935  0.5550
 7899SOL    HW124155   0.070   1.097   1.530  1.2209 -0.4149 -0.1268
 7899SOL    HW224156   0.081   1.189   1.649 -1.0386  0.6393 -0.6704
 7900SOL     OW24157   1.913   4.141   2.556  0.0176 -0.7823  0.3183
 7900SOL    HW124158   1.900   4.220   2.504 -0.9894 -0.9661  0.2659
 7900SOL    HW224159   1.999   4.152   2.595 -0.3140  0.5770  0.7260
 7901SOL     OW24160   3.781   0.415   2.229  0.2426  0.8162  0.0447
 7901SOL    HW124161   3.704   0.453   2.186  0.5498  0.6308 -0.7016
 7901SOL    HW224162   3.838   0.390   2.156  0.9294  0.7878  0.5847
 7902SOL     OW24163   3.577   4.302   3.071 -0.6922 -0.1353  0.5113
 7902SOL    HW124164   3.647   4.238   3.086 -0.6500  0.0317  1.0749
 7902SOL    HW224165   3.510   4.280   3.137  0.2535  1.7108  2.2035
 7903SOL     OW24166   6.045   1.758   0.238 -1.5698 -0.2574 -0.1411
 7903SOL    HW124167   6.136   1.730   0.241 -1.4296  0.1755  2.6068
 7903SOL    HW224168   6.047   1.846   0.202 -0.5611  0.5914  1.8309
 7904SOL     OW24169   5.334   0.097   5.379  0.3804  0.2176  0.1310
 7904SOL    HW124170   5.256   0.072   5.428  0.1395 -0.5083 -0.6071
 7904SOL    HW224171   5.394   0.132   5.446  0.3348 -1.3906  1.0653
 7905SOL     OW24172   3.149   2.101   3.080 -0.4449 -0.7896  0.3219
 7905SOL    HW124173   3.106   2.120   3.164 -0.6485  2.9921 -0.4551
 7905SOL    HW224174   3.076   2.092   3.018 -0.2951  0.7271 -0.1231
 7906SOL     OW24175   0.689   5.213   0.267 -0.6437 -0.3831 -0.0790
 7906SOL    HW124176   0.703   5.270   0.192 -1.4301 -0.4700 -0.2948
 7906SOL    HW224177   0.724   5.128   0.240  0.2739 -0.0960  0.1431
 7907SOL     OW24178   2.823   4.332   3.437 -0.1182  0.6065  0.5950
 7907SOL    HW124179   2.840   4.426   3.434  0.8395  0.4528  0.7958
 7907SOL    HW224180   2.728   4.325   3.443 -0.2431  1.5493 -0.0108
 7908SOL     OW24181   4.395   4.858   4.403  0.3602 -0.2922  0.0716
 7908SOL    HW124182   4.429   4.788   4.458  0.4495 -0.4346 -0.1628
 7908SOL    HW224183   4.304   4.869   4.431  0.6205  0.1500  0.7648
 7909SOL     OW24184   0.850   3.502   2.331  0.4598  0.5047  0.3993
 7909SOL    HW124185   0.784   3.472   2.269  0.1534  0.3886  0.7787
 7909SOL    HW224186   0.880   3.585   2.296 -1.4469  1.6446  1.3469
 7910SOL     OW24187   0.979   4.469   5.399 -0.0949 -0.6033 -0.0452
 7910SOL    HW124188   0.891   4.497   5.373  0.0450 -1.1382 -1.1935
 7910SOL    HW224189   0.971   4.374   5.407  0.2478 -0.5941  0.3968
 7911SOL     OW24190   3.094   4.803   2.524  0.4090  0.1558  0.4526
 7911SOL    HW124191   3.094   4.893   2.557  0.6201  0.6028 -0.7066
 7911SOL    HW224192   3.106   4.749   2.602 -0.1802  1.1028  1.2250
 7912SOL     OW24193   2.559   2.672   3.532  0.2232 -0.0838 -0.1153
 7912SOL    HW124194   2.519   2.586   3.522  0.5687 -0.5180  1.8897
 7912SOL    HW224195   2.569   2.704   3.442 -0.4443 -1.8715 -0.8714
 7913SOL     OW24196   1.677   0.830   3.167  0.2457 -0.2310  0.1277
 7913SOL    HW124197   1.754   0.880   3.139  0.1324  0.0929  0.3977
 7913SOL    HW224198   1.713   0.747   3.199  0.4699 -0.1474  0.0960
 7914SOL     OW24199   4.474   1.178   3.686  0.7249  0.1335  0.3113
 7914SOL    HW124200   4.563   1.168   3.652  0.4405 -2.0140  0.0711
 7914SOL    HW224201   4.423   1.110   3.642 -0.8056  0.5923  1.2816
 7915SOL     OW24202   1.776   0.762   2.087 -0.3282 -0.5837 -0.1844
 7915SOL    HW124203   1.841   0.809   2.035 -1.2635  0.9238 -0.0448
 7915SOL    HW224204   1.757   0.820   2.161 -0.9361 -1.5343  0.4285
 7916SOL     OW24205   1.699   0.423   5.739 -0.3938 -0.1232 -0.1733
 7916SOL    HW124206   1.703   0.380   5.654 -1.0419  0.0600 -0.2997
 7916SOL    HW224207   1.777   0.479   5.742  0.1800 -0.9044 -0.2177
 7917SOL     OW24208   5.533   0.476   2.706 -0.5588 -0.2536  0.4652
 7917SOL    HW124209   5.617   0.455   2.748 -0.5579  1.9434  1.6885
 7917SOL    HW224210   5.481   0.517   2.775 -2.0572 -0.1396 -0.6931
 7918SOL     OW24211   3.298   2.534   1.101  0.0792 -0.0500  0.0161
 7918SOL    HW124212   3.349   2.569   1.174 -0.8229  2.0657 -0.3045
 7918SOL    HW224213   3.353   2.546   1.024 -0.8075  2.2677 -0.3359
 7919SOL     OW24214   4.446   2.572   0.471  0.0827  0.2983 -0.1372
 7919SOL    HW124215   4.478   2.658   0.498  0.8472 -0.3444  1.0658
 7919SOL    HW224216   4.371   2.555   0.528 -1.8006  1.2776 -2.1526
 7920SOL     OW24217   1.433   4.342   1.000 -0.4569  0.0477  0.2921
 7920SOL    HW124218   1.505   4.397   1.031  0.0646 -0.1259 -0.5660
 7920SOL    HW224219   1.395   4.392   0.927 -0.7405 -0.2018  0.2669
 7921SOL     OW24220   4.112   3.274   0.760  0.3900  0.4494  0.1099
 7921SOL    HW124221   4.122   3.197   0.704  0.1558  0.9764 -0.6808
 7921SOL    HW224222   4.201   3.307   0.772  0.3272  1.2228 -1.2693
 7922SOL     OW24223   2.591   3.323   2.780 -0.4275  0.1825  0.4025
 7922SOL    HW124224   2.631   3.406   2.753 -2.9121  1.5974  0.7367
 7922SOL    HW224225   2.619   3.260   2.714  0.9943  1.4408 -0.2589
 7923SOL     OW24226   4.983   2.456   1.532  0.0908 -0.2547 -0.2250
 7923SOL    HW124227   4.900   2.413   1.509 -0.1421 -0.1019  0.3255
 7923SOL    HW224228   5.028   2.394   1.589 -0.4084  0.3673  0.8738
 7924SOL     OW24229   5.578   0.479   5.677 -0.2274 -0.3655  0.1455
 7924SOL    HW124230   5.510   0.546   5.678 -0.1031 -0.2191  1.4367
 7924SOL    HW224231   5.549   0.415   5.743  0.8869 -0.2889  0.7318
 7925SOL     OW24232   4.715   2.921   2.790 -0.0111  0.1703 -0.0546
 7925SOL    HW124233   4.724   2.965   2.706  1.5098  0.9593  0.4681
 7925SOL    HW224234   4.685   2.833   2.768  0.0549  0.4589 -1.3931
 7926SOL     OW24235   3.884   5.712   4.498 -0.0511 -0.3833  0.3529
 7926SOL    HW124236   3.908   5.793   4.453 -0.2245 -1.0879 -1.0426
 7926SOL    HW224237   3.812   5.676   4.447  0.8115 -2.0320  0.2327
 7927SOL     OW24238   1.384   5.432   0.506  0.6090 -0.2122 -0.1752
 7927SOL    HW124239   1.397   5.526   0.521  0.9042 -0.0590 -1.3407
 7927SOL    HW224240   1.414   5.417   0.417 -1.3988 -1.0257 -0.7837
 7928SOL     OW24241   3.323   1.095   2.592 -0.3434  0.0601  0.3931
 7928SOL    HW124242   3.354   1.010   2.623 -2.1855 -0.4597  0.9103
 7928SOL    HW224243   3.261   1.073   2.522 -0.4700  1.0158  0.1970
 7929SOL     OW24244   3.251   5.133   4.564  0.5057 -0.4321 -0.3502
 7929SOL    HW124245   3.216   5.216   4.595  0.8519 -0.0321 -1.0253
 7929SOL    HW224246   3.292   5.153   4.480 -0.0054 -1.4118 -0.8565
 7930SOL     OW24247   0.941   2.085   0.300 -0.0282 -0.1758 -0.3558
 7930SOL    HW124248   0.948   2.023   0.227 -1.7295  0.3141 -0.9809
 7930SOL    HW224249   1.032   2.104   0.323  0.5684 -0.4553 -2.2571
 7931SOL     OW24250   3.796   3.264   4.067 -0.1795  0.0956 -0.6497
 7931SOL    HW124251   3.837   3.312   4.139  1.2712 -0.8372 -0.8199
 7931SOL    HW224252   3.776   3.332   4.002  1.9682  0.4994 -0.9549
 7932SOL     OW24253   4.111   3.666   1.855 -0.2626  0.2947  0.0572
 7932SOL    HW124254   4.025   3.694   1.822  0.8157  2.3535 -1.2043
 7932SOL    HW224255   4.105   3.570   1.858 -2.3938  0.3552 -0.5782
 7933SOL     OW24256   3.619   5.633   3.342  0.8873 -0.4070 -0.2950
 7933SOL    HW124257   3.692   5.576   3.367  3.4790  2.3795 -0.8951
 7933SOL    HW224258   3.612   5.623   3.247 -0.7488 -1.8932 -0.0760
 7934SOL     OW24259   3.725   1.364   3.194 -0.0473 -0.1395  0.4364
 7934SOL    HW124260   3.674   1.289   3.163 -1.3680  0.0211  2.0401
 7934SOL    HW224261   3.798   1.325   3.242  0.8234 -0.3724 -1.0331
 7935SOL     OW24262   1.222   0.418   4.874 -0.4276  0.4993  0.0142
 7935SOL    HW124263   1.190   0.479   4.940 -0.3531  0.6206 -0.0610
 7935SOL    HW224264   1.177   0.444   4.793 -0.3796  0.4685 -0.0227
 7936SOL     OW24265   2.514   0.274   4.230  0.0658 -0.0178 -0.3822
 7936SOL    HW124266   2.562   0.221   4.293 -0.8374 -0.3022  0.0911
 7936SOL    HW224267   2.549   0.362   4.240  0.5385 -0.2339 -0.1071
 7937SOL     OW24268   1.323   6.167   1.370  0.4032 -0.3647  1.0180
 7937SOL    HW124269   1.332   6.093   1.310  2.5294  1.6618 -1.4408
 7937SOL    HW224270   1.266   6.228   1.323  1.4405  0.9359  1.4041
 7938SOL     OW24271   4.153   2.054   2.741 -0.1122  0.4018 -0.0308
 7938SOL    HW124272   4.212   2.117   2.701 -0.2114  0.1187 -0.6380
 7938SOL    HW224273   4.114   2.100   2.815  0.3468  0.8139 -0.0450
 7939SOL     OW24274   3.370   2.251   5.413  0.8559 -0.1733  0.2421
 7939SOL    HW124275   3.294   2.308   5.427  2.4690  2.1092  0.3075
 7939SOL    HW224276   3.344   2.193   5.342 -1.3239 -0.2696  1.0315
 7940SOL     OW24277   4.640   2.447   1.210 -0.1616  0.2530  0.1463
 7940SOL    HW124278   4.576   2.376   1.211 -1.9896  1.7975 -0.3735
 7940SOL    HW224279   4.595   2.520   1.254  0.7321  1.8155 -1.4105
 7941SOL     OW24280   1.932   3.657   5.945 -0.5067  0.7093  0.4488
 7941SOL    HW124281   1.963   3.623   5.861  0.8212  2.1452  0.2982
 7941SOL    HW224282   1.850   3.701   5.923 -0.6802  0.2081  0.0833
 7942SOL     OW24283   1.828   0.506   2.977 -0.2297 -0.4623  0.4364
 7942SOL    HW124284   1.806   0.514   3.070 -1.3707 -2.4185  0.3926
 7942SOL    HW224285   1.921   0.485   2.976  0.4928  2.3892  0.9408
 7943SOL     OW24286   3.559   3.453   4.458  0.1733  0.7688 -0.1873
 7943SOL    HW124287   3.533   3.431   4.547 -1.4063  0.4451 -0.6920
 7943SOL    HW224288   3.499   3.523   4.432 -1.5040 -1.2221 -2.0277
 7944SOL     OW24289   0.036   4.656   2.835 -0.5603 -0.2219  0.1606
 7944SOL    HW124290   0.120   4.661   2.789  0.7810 -0.0788  2.4283
 7944SOL    HW224291  -0.030   4.653   2.766  1.4016 -2.9863 -1.8075
 7945SOL     OW24292   0.600   3.767   0.421 -0.3085 -0.5505  0.5119
 7945SOL    HW124293   0.656   3.700   0.381 -1.8610 -1.3978 -0.3422
 7945SOL    HW224294   0.658   3.841   0.437  1.0490 -1.3944 -0.3327
 7946SOL     OW24295   4.636   2.391   4.076 -0.4488  0.4801  0.0174
 7946SOL    HW124296   4.665   2.410   3.987 -1.4366 -0.5404 -0.5481
 7946SOL    HW224297   4.548   2.429   4.081  0.2995  2.1611  1.1894
 7947SOL     OW24298   1.980   3.111   0.866  0.0433  0.2740  0.0396
 7947SOL    HW124299   1.939   3.187   0.828  2.3903  0.0478 -3.3961
 7947SOL    HW224300   1.912   3.043   0.866 -0.9745  1.2742 -0.5925
 7948SOL     OW24301   0.210   3.880   2.252  0.1415  0.4616  0.6018
 7948SOL    HW124302   0.189   3.821   2.179 -1.3001  1.7112 -0.0438
 7948SOL    HW224303   0.185   3.832   2.330 -0.7307  0.0919  0.1032
 7949SOL     OW24304   0.665   1.073   0.964 -0.3011  0.1043  0.2494
 7949SOL    HW124305   0.748   1.027   0.979 -0.0368 -0.6524 -2.8843
 7949SOL    HW224306   0.610   1.009   0.920 -1.4173  1.5729 -0.5767
 7950SOL     OW24307   5.217   5.046   0.557 -0.0526  0.1657  0.2380
 7950SOL    HW124308   5.241   4.959   0.588  0.4667  0.7952  1.6896
 7950SOL    HW224309   5.153   5.078   0.621 -0.0721  0.9298 -0.1463
 7951SOL     OW24310   5.985   5.747   4.793 -0.3710  0.5759  0.3212
 7951SOL    HW124311   5.900   5.782   4.817  0.1321  1.6067  0.6765
 7951SOL    HW224312   5.970   5.653   4.780 -1.8128  0.9372 -0.8958
 7952SOL     OW24313   4.109   4.453   4.451 -0.6394  0.1531 -0.3898
 7952SOL    HW124314   4.147   4.374   4.489 -1.0776  0.2269  0.2112
 7952SOL    HW224315   4.094   4.511   4.526  1.3504  1.5479 -0.9855
 7953SOL     OW24316   3.139   0.264   4.037  0.0872 -0.1897 -0.1579
 7953SOL    HW124317   3.077   0.295   4.102 -1.1502  0.9106 -1.7880
 7953SOL    HW224318   3.122   0.170   4.030 -1.0448  0.0031 -0.1840
 7954SOL     OW24319   5.591   1.038   0.930 -0.1566  0.1905  0.0868
 7954SOL    HW124320   5.647   1.087   0.990  0.9353 -0.4243 -0.4169
 7954SOL    HW224321   5.573   0.956   0.975  0.9807 -0.4330 -0.5685
 7955SOL     OW24322   5.653   4.334   4.635  0.1770 -0.0723 -0.0726
 7955SOL    HW124323   5.665   4.242   4.610  0.6375  0.0419 -0.2744
 7955SOL    HW224324   5.708   4.346   4.712 -1.2419 -0.4239  1.0455
 7956SOL     OW24325   1.253   0.884   5.728  0.2382  0.5730  0.0038
 7956SOL    HW124326   1.230   0.966   5.683  0.6850  1.1295  0.7753
 7956SOL    HW224327   1.252   0.818   5.659 -0.3814  1.1778 -0.5861
 7957SOL     OW24328   2.508   2.650   1.032 -0.0272 -0.1668  0.3498
 7957SOL    HW124329   2.420   2.612   1.031 -0.9348  1.8019  0.0604
 7957SOL    HW224330   2.499   2.730   1.084  1.5189  0.2644  0.0128
 7958SOL     OW24331   4.269   5.314   4.200  0.1030 -0.1438 -0.3374
 7958SOL    HW124332   4.264   5.408   4.182  0.5874 -0.0948 -0.2255
 7958SOL    HW224333   4.178   5.288   4.213 -0.0970  0.1703 -1.0582
 7959SOL     OW24334   1.695   5.637   0.517  0.4950  0.1386  0.1325
 7959SOL    HW124335   1.771   5.625   0.459  0.4785 -1.1209  0.3487
 7959SOL    HW224336   1.711   5.578   0.590 -1.5985 -1.6871 -0.7587
 7960SOL     OW24337   2.927   0.790   1.722  0.0262  0.5005  0.6885
 7960SOL    HW124338   2.846   0.753   1.685  1.2318 -0.5429 -1.0394
 7960SOL    HW224339   2.908   0.884   1.731 -0.8088  0.5828 -1.4055
 7961SOL     OW24340   4.899   1.875   1.173 -0.1944 -0.8909 -0.0549
 7961SOL    HW124341   4.863   1.807   1.230  2.2529 -0.3405  2.3556
 7961SOL    HW224342   4.981   1.901   1.215  1.2380  0.3934 -3.2928
 7962SOL     OW24343   2.046   3.766   4.337  0.0270  0.1566  0.3614
 7962SOL    HW124344   2.053   3.680   4.378 -1.5597  0.1014  0.5799
 7962SOL    HW224345   2.133   3.782   4.300  0.3005 -1.6216  0.1267
 7963SOL     OW24346   0.741   5.086   2.136  0.0316  0.3787 -0.3346
 7963SOL    HW124347   0.790   5.126   2.208 -0.5896  0.2880  0.1569
 7963SOL    HW224348   0.745   5.150   2.065  1.5447  0.0177 -0.6134
 7964SOL     OW24349   4.639   1.972   3.839 -0.1710  0.3285 -0.0271
 7964SOL    HW124350   4.672   1.995   3.752  0.9496  0.4440  0.4064
 7964SOL    HW224351   4.579   1.900   3.824  0.7537 -0.3035 -0.8071
 7965SOL     OW24352   2.465   1.959   4.226  0.4008 -0.2283 -0.3930
 7965SOL    HW124353   2.530   1.949   4.296 -0.9422  1.6983  1.2464
 7965SOL    HW224354   2.501   2.028   4.170 -0.9918  2.4221  1.7005
 7966SOL     OW24355   0.767   3.348   3.939 -0.0847  0.0043  0.4737
 7966SOL    HW124356   0.723   3.306   3.865 -0.8431  0.8077  0.4498
 7966SOL    HW224357   0.850   3.379   3.904 -0.4787  0.4622 -0.0841
 7967SOL     OW24358   0.579   3.505   3.411  0.1161  0.5775  0.7946
 7967SOL    HW124359   0.616   3.562   3.478 -0.0923 -0.6231  1.9679
 7967SOL    HW224360   0.539   3.433   3.460 -0.6548  0.0267 -0.5958
 7968SOL     OW24361   1.482   0.256   0.672 -0.1441 -0.1949  0.9640
 7968SOL    HW124362   1.399   0.227   0.710 -0.8072 -1.1831 -1.0488
 7968SOL    HW224363   1.461   0.340   0.630  0.1099 -0.0104  1.2022
 7969SOL     OW24364   4.052   3.783   5.494 -0.0851  0.1918  0.4021
 7969SOL    HW124365   4.046   3.772   5.589 -2.7617 -1.4344  0.1541
 7969SOL    HW224366   4.125   3.727   5.468 -1.5379 -2.2674  1.2249
 7970SOL     OW24367   2.155   0.631   5.918  0.7744  0.1379 -0.0137
 7970SOL    HW124368   2.135   0.653   6.009  1.1622  0.0671  0.0896
 7970SOL    HW224369   2.168   0.715   5.875  0.8132  0.1620  0.0453
 7971SOL     OW24370   2.428   5.012   4.187  0.6514 -0.5975  0.1474
 7971SOL    HW124371   2.388   4.941   4.137 -0.0307  0.6217 -1.1348
 7971SOL    HW224372   2.354   5.061   4.222  0.9454  1.2839 -1.6668
 7972SOL     OW24373   1.897   0.605   5.800  0.1415  0.1898 -0.3939
 7972SOL    HW124374   1.942   0.577   5.720  1.7783  1.6455 -0.0410
 7972SOL    HW224375   1.967   0.637   5.857 -1.2062  1.1532  0.7867
 7973SOL     OW24376   1.726   1.112   1.794 -0.0718  0.0665 -0.0793
 7973SOL    HW124377   1.667   1.093   1.867 -0.2091 -0.4040 -0.3083
 7973SOL    HW224378   1.720   1.035   1.738 -0.2955  0.6049 -0.8091
 7974SOL     OW24379   3.304   0.163   5.596  0.4919 -0.0527  0.4778
 7974SOL    HW124380   3.246   0.089   5.613  0.1772  0.3753  1.3185
 7974SOL    HW224381   3.346   0.142   5.512  0.7364 -1.3859  0.9092
 7975SOL     OW24382   4.621   4.987   5.967  0.1639  0.1863  0.3580
 7975SOL    HW124383   4.627   5.075   5.931  1.1539 -0.3753 -0.9466
 7975SOL    HW224384   4.710   4.967   5.996 -0.1536 -0.2176  1.0753
 7976SOL     OW24385   0.168   2.607   2.154  0.4627  0.7759 -0.4215
 7976SOL    HW124386   0.110   2.532   2.165  1.7196 -0.1357  0.1917
 7976SOL    HW224387   0.122   2.679   2.197  0.1613 -0.1241  0.8190
 7977SOL     OW24388   2.845   4.669   0.783  0.0919 -0.3957 -0.0371
 7977SOL    HW124389   2.935   4.693   0.807  0.5216 -2.5904  0.8464
 7977SOL    HW224390   2.813   4.743   0.733  1.3042  1.8473  2.2481
 7978SOL     OW24391   3.583   0.355   0.037 -0.0623 -0.0200 -0.0153
 7978SOL    HW124392   3.664   0.308   0.019 -0.4774 -0.5240 -0.5990
 7978SOL    HW224393   3.601   0.445   0.012  0.5858  0.0377  0.6525
 7979SOL     OW24394   4.760   2.835   1.255 -0.3715 -0.0931  0.0066
 7979SOL    HW124395   4.741   2.766   1.318 -2.1014  1.5520  1.4261
 7979SOL    HW224396   4.855   2.834   1.246 -0.3651 -3.1055 -0.6517
 7980SOL     OW24397   1.817   1.372   0.449 -0.0595  0.3809  0.0775
 7980SOL    HW124398   1.771   1.443   0.495  0.5576  1.6385 -1.1785
 7980SOL    HW224399   1.869   1.329   0.517 -0.7560  0.8750  0.9351
 7981SOL     OW24400   6.207   3.547   5.837 -0.1766  0.2034 -0.1897
 7981SOL    HW124401   6.180   3.558   5.745  1.4216  0.1924 -0.6960
 7981SOL    HW224402   6.172   3.462   5.862 -0.2066 -0.0226 -0.9646
 7982SOL     OW24403   5.744   4.459   3.058 -0.2531  0.1723 -0.0595
 7982SOL    HW124404   5.813   4.393   3.062 -1.4377 -1.1597 -0.4249
 7982SOL    HW224405   5.663   4.409   3.075 -1.2129  1.5012 -0.5563
 7983SOL     OW24406   1.590   3.230   5.090  0.3302 -0.1583 -0.0701
 7983SOL    HW124407   1.663   3.216   5.031  0.1746 -0.8947 -0.1027
 7983SOL    HW224408   1.527   3.162   5.067  0.3416 -0.5763  1.0491
 7984SOL     OW24409   1.600   5.968   5.953  0.5710 -0.4503 -0.6084
 7984SOL    HW124410   1.539   5.935   5.887 -0.1751 -0.5833  0.1219
 7984SOL    HW224411   1.548   5.971   6.034  0.7165  2.0581 -0.5286
 7985SOL     OW24412   2.099   2.463   2.727  0.3091 -0.1234 -0.3738
 7985SOL    HW124413   2.183   2.460   2.681  0.3233 -0.4717 -0.3260
 7985SOL    HW224414   2.110   2.402   2.801 -0.0894 -0.4042 -0.5425
 7986SOL     OW24415   2.837   4.909   3.313  0.3819  0.1254  0.1543
 7986SOL    HW124416   2.759   4.944   3.357  0.5783 -1.9293  2.3726
 7986SOL    HW224417   2.802   4.846   3.249  0.1557  2.0268 -1.6976
 7987SOL     OW24418   0.929   5.821   3.897  0.7002 -0.5178 -0.8870
 7987SOL    HW124419   0.929   5.870   3.979  1.0938  0.2275 -1.3217
 7987SOL    HW224420   0.978   5.741   3.917  0.2281 -0.6561 -0.2275
 7988SOL     OW24421   3.720   0.240   2.717  0.5134 -0.7617  0.3103
 7988SOL    HW124422   3.741   0.321   2.763 -0.6994 -0.6532  0.7054
 7988SOL    HW224423   3.754   0.252   2.629 -0.1128  0.3779  0.2154
 7989SOL     OW24424   3.200   5.713   0.332  0.1933 -0.1506  0.1082
 7989SOL    HW124425   3.163   5.741   0.248  0.3104  0.0473  0.1232
 7989SOL    HW224426   3.224   5.621   0.318  0.7358  0.0453 -0.2473
 7990SOL     OW24427   2.514   0.219   0.468 -0.1989  0.0427 -0.4932
 7990SOL    HW124428   2.456   0.266   0.529 -0.5233  0.8732 -1.4044
 7990SOL    HW224429   2.599   0.262   0.479 -0.7050  1.5571 -1.9936
 7991SOL     OW24430   4.775   2.150   4.959  0.0415 -0.1139  0.0893
 7991SOL    HW124431   4.737   2.161   5.046  1.1327  0.0507  0.5663
 7991SOL    HW224432   4.813   2.236   4.938  1.8606 -0.7672  0.5041
 7992SOL     OW24433   0.396   3.515   2.598  0.2783 -0.0075  0.0884
 7992SOL    HW124434   0.385   3.543   2.508  0.5193 -2.4415 -0.7727
 7992SOL    HW224435   0.490   3.522   2.615  0.1367  1.2002  0.4477
 7993SOL     OW24436   1.388   3.565   4.143  0.2936  0.7846 -0.2902
 7993SOL    HW124437   1.293   3.551   4.134  0.2135  1.8240 -1.1990
 7993SOL    HW224438   1.399   3.660   4.134  1.4163  0.6775 -0.1212
 7994SOL     OW24439   1.844   6.127   4.176 -0.0447 -0.3289 -0.8136
 7994SOL    HW124440   1.899   6.101   4.249  0.0761 -1.1520 -1.1891
 7994SOL    HW224441   1.838   6.222   4.183 -0.8743 -0.4705  0.8545
 7995SOL     OW24442   1.861   4.074   0.991  0.5395  0.1507  0.4452
 7995SOL    HW124443   1.954   4.092   0.979  0.9523 -0.6547  2.1415
 7995SOL    HW224444   1.856   4.021   1.071 -1.3608  0.0080  0.2967
 7996SOL     OW24445   1.591   2.545   4.864 -0.1172  0.2788  0.0872
 7996SOL    HW124446   1.668   2.516   4.815 -1.6882 -0.2889 -2.2166
 7996SOL    HW224447   1.545   2.464   4.887 -1.5245  0.6455 -1.2442
 7997SOL     OW24448   4.519   2.824   3.706 -0.3689 -0.3004  0.4351
 7997SOL    HW124449   4.449   2.793   3.648  1.3752 -0.3831 -1.7805
 7997SOL    HW224450   4.536   2.750   3.765  0.0555 -1.5865 -1.2085
 7998SOL     OW24451   6.253   2.258   4.577  0.2794  0.3396  0.1797
 7998SOL    HW124452   6.296   2.243   4.493  1.3001  0.8742  0.5903
 7998SOL    HW224453   6.162   2.232   4.562  0.1938  1.3891 -1.3922
 7999SOL     OW24454   3.504   4.498   1.178 -0.9748 -0.0448  0.0071
 7999SOL    HW124455   3.426   4.444   1.170 -2.0666  1.5361 -0.7010
 7999SOL    HW224456   3.515   4.539   1.092 -1.3962  2.3327  0.9880
 8000SOL     OW24457   6.094   3.926   1.833 -0.0598  0.5362  0.3517
 8000SOL    HW124458   6.183   3.890   1.833 -0.6352 -0.9530 -0.3457
 8000SOL    HW224459   6.058   3.899   1.917 -0.0579  0.6283  0.3822
 8001SOL     OW24460   4.169   0.625   2.556  0.2488 -0.4139  0.4277
 8001SOL    HW124461   4.092   0.570   2.570 -0.9647  1.2871  0.7789
 8001SOL    HW224462   4.226   0.572   2.500 -2.0219 -1.0465 -1.4835
 8002SOL     OW24463   1.812   4.284   2.224  0.7090  0.1300 -0.1353
 8002SOL    HW124464   1.847   4.341   2.155 -0.6756  0.9174 -0.2141
 8002SOL    HW224465   1.798   4.343   2.298  0.3493 -0.3460  0.1787
 8003SOL     OW24466   6.027   1.563   2.931 -0.9047  0.8444  0.2127
 8003SOL    HW124467   5.951   1.529   2.978 -2.2072  4.7270  1.3651
 8003SOL    HW224468   6.019   1.527   2.842 -2.6788 -0.7635  0.9650
 8004SOL     OW24469   5.924   4.243   3.077 -0.0222 -0.9680  0.1483
 8004SOL    HW124470   5.845   4.204   3.114 -0.7232 -1.1491 -1.4874
 8004SOL    HW224471   5.959   4.177   3.017  2.2036 -1.4749  1.8488
 8005SOL     OW24472   2.019   5.671   1.480  0.2306  0.3407 -0.7859
 8005SOL    HW124473   2.024   5.582   1.515  0.5936  0.5921 -0.1822
 8005SOL    HW224474   2.023   5.660   1.385 -0.5288 -0.3386 -0.7496
 8006SOL     OW24475   2.544   3.980   1.433  0.3103 -0.7218 -0.1648
 8006SOL    HW124476   2.450   3.993   1.446  0.5122 -0.3372  1.1125
 8006SOL    HW224477   2.565   4.033   1.356 -0.4051 -0.2457 -0.0491
 8007SOL     OW24478   1.967   1.310   5.851 -0.1849 -0.1389 -0.0075
 8007SOL    HW124479   1.979   1.400   5.822  0.4780  0.2465  1.3652
 8007SOL    HW224480   1.984   1.257   5.774 -1.4477  0.9171 -1.0702
 8008SOL     OW24481   1.257   1.881   0.574  0.1963  0.3881 -0.0016
 8008SOL    HW124482   1.211   1.825   0.511  0.5950 -0.5146  0.4850
 8008SOL    HW224483   1.187   1.919   0.627 -0.0851  0.4049 -0.3772
 8009SOL     OW24484   3.754   1.021   0.994 -0.4752 -0.5546  0.1757
 8009SOL    HW124485   3.679   1.050   1.045 -1.1718 -0.4976 -0.8496
 8009SOL    HW224486   3.817   0.989   1.059 -1.0177  0.2155  1.1083
 8010SOL     OW24487   1.133   4.809   4.879 -0.1438  0.0865 -0.3318
 8010SOL    HW124488   1.207   4.853   4.839  0.6933 -1.0282 -0.0433
 8010SOL    HW224489   1.171   4.738   4.932 -1.3808 -0.3399  0.0480
 8011SOL     OW24490   2.009   6.363   3.631 -0.3440 -0.0061  0.1602
 8011SOL    HW124491   2.071   6.335   3.563 -1.0244 -0.3168 -0.3426
 8011SOL    HW224492   2.051   6.440   3.671  0.6595 -0.5909  0.2701
 8012SOL     OW24493   3.593   3.812   0.890 -0.1577  0.0022 -0.1853
 8012SOL    HW124494   3.539   3.849   0.960  0.1385 -0.4551  0.2924
 8012SOL    HW224495   3.642   3.887   0.856 -0.4781  0.2701 -0.0643
 8013SOL     OW24496   4.450   1.615   0.059 -0.4598  0.3572 -0.2989
 8013SOL    HW124497   4.452   1.543   0.122 -3.6947  0.5826  0.1998
 8013SOL    HW224498   4.475   1.575  -0.024  0.5768 -0.6716  0.4616
 8014SOL     OW24499   2.078   3.698   2.244 -0.5938  0.0820 -0.1793
 8014SOL    HW124500   2.094   3.719   2.335 -0.8251 -0.3473 -0.0351
 8014SOL    HW224501   2.161   3.718   2.199 -0.4268  0.1292  0.1508
 8015SOL     OW24502   5.713   5.841   0.788 -0.2476  0.1511 -0.0259
 8015SOL    HW124503   5.684   5.755   0.819  1.2024 -0.2487  0.2826
 8015SOL    HW224504   5.742   5.886   0.868 -0.2825  0.6500 -0.2928
 8016SOL     OW24505   2.063   4.078   3.670 -0.0135  0.3404  0.2149
 8016SOL    HW124506   2.098   3.989   3.669 -0.6236  0.0775  1.0951
 8016SOL    HW224507   2.105   4.120   3.744 -0.3070  0.5378  0.2726
 8017SOL     OW24508   4.996   4.927   3.596  0.2491 -0.4256  0.4701
 8017SOL    HW124509   5.086   4.901   3.579  0.1313 -0.0201 -0.8637
 8017SOL    HW224510   4.986   4.918   3.691  2.0747  0.7279  0.8238
 8018SOL     OW24511   2.748   0.970   1.419  0.4513 -0.4026 -0.2673
 8018SOL    HW124512   2.675   0.917   1.453  0.9542 -0.9314 -0.0004
 8018SOL    HW224513   2.775   1.023   1.494  1.0599 -1.0147 -0.0392
 8019SOL     OW24514   2.914   0.336   5.169  0.3537  0.5124 -0.2437
 8019SOL    HW124515   2.923   0.333   5.264 -0.9501 -0.0853 -0.1103
 8019SOL    HW224516   2.966   0.412   5.142  1.4358  0.1858  0.8445
 8020SOL     OW24517   2.270   5.274   0.932  0.3835  0.1437 -0.0423
 8020SOL    HW124518   2.209   5.230   0.873 -0.0665 -0.6798  1.0119
 8020SOL    HW224519   2.348   5.219   0.932  0.5299  0.3494 -0.1633
 8021SOL     OW24520   1.640   3.027   5.892  0.0330 -0.3767  0.2798
 8021SOL    HW124521   1.597   2.987   5.816 -2.5740  0.9848  0.9289
 8021SOL    HW224522   1.636   2.960   5.960 -1.4596 -0.1986  0.4131
 8022SOL     OW24523   3.815   0.704   3.394 -0.3679 -0.1462 -0.2558
 8022SOL    HW124524   3.750   0.774   3.394 -0.3683 -0.0350  2.3438
 8022SOL    HW224525   3.895   0.745   3.359 -0.4251  1.1242  1.0141
 8023SOL     OW24526   5.436   3.497   5.244  0.2280  0.3911  0.2175
 8023SOL    HW124527   5.379   3.420   5.234 -1.3553  1.6313 -0.6897
 8023SOL    HW224528   5.393   3.550   5.311  0.9772  0.7879  0.3964
 8024SOL     OW24529   2.775   3.463   0.361 -0.6445 -0.3563  0.7276
 8024SOL    HW124530   2.808   3.462   0.451 -0.0537 -1.2480  0.5086
 8024SOL    HW224531   2.814   3.540   0.322  0.4947 -0.9144  0.7325
 8025SOL     OW24532   0.134   4.303   3.919  0.7891  0.9450 -0.0101
 8025SOL    HW124533   0.071   4.361   3.877  2.0972  0.0441 -3.6054
 8025SOL    HW224534   0.197   4.281   3.850  2.6701 -1.5109  2.2406
 8026SOL     OW24535   2.403   0.701   3.338  0.1738  0.2097 -0.0180
 8026SOL    HW124536   2.492   0.738   3.335  0.1576  0.2194 -0.3990
 8026SOL    HW224537   2.348   0.774   3.366  0.1205  0.5176 -0.9200
 8027SOL     OW24538   2.493   0.180   1.303 -0.3389  0.3536 -0.2734
 8027SOL    HW124539   2.482   0.266   1.263 -1.7062 -0.2346 -1.2435
 8027SOL    HW224540   2.526   0.125   1.232 -0.6441 -0.1944  0.0001
 8028SOL     OW24541   6.076   2.044   5.139  0.7184  0.0982 -0.2615
 8028SOL    HW124542   6.114   2.024   5.225  1.9480 -0.3260 -0.8864
 8028SOL    HW224543   6.007   2.108   5.158 -0.7734 -1.8383  1.3424
 8029SOL     OW24544   6.236   5.222   2.014  0.6494 -0.3337 -0.2106
 8029SOL    HW124545   6.257   5.130   2.002 -0.0080 -0.4291 -0.6312
 8029SOL    HW224546   6.263   5.264   1.933  0.0477 -0.3137 -0.4018
 8030SOL     OW24547   0.655   3.224   3.709 -0.2149  0.2893 -0.3090
 8030SOL    HW124548   0.588   3.168   3.750  0.8068 -1.5825 -1.0673
 8030SOL    HW224549   0.642   3.211   3.615  0.1285  1.2493 -0.4916
 8031SOL     OW24550   0.713   5.362   0.053  0.7740  0.6055 -0.0280
 8031SOL    HW124551   0.640   5.418   0.028  0.3758 -1.1154 -3.3157
 8031SOL    HW224552   0.791   5.404   0.016  0.9042  0.5241  0.1482
 8032SOL     OW24553   2.782   0.881   2.542  0.3375  0.4276  0.0981
 8032SOL    HW124554   2.730   0.878   2.462 -0.4546  1.4488  0.5555
 8032SOL    HW224555   2.731   0.832   2.606  1.3952 -1.1653 -0.2292
 8033SOL     OW24556   2.229   4.421   1.109 -0.4627 -0.2152  0.1296
 8033SOL    HW124557   2.275   4.500   1.081 -0.9673 -0.5665 -1.8362
 8033SOL    HW224558   2.178   4.448   1.186  0.0105  1.1463 -0.0220
 8034SOL     OW24559   4.597   5.347   3.384  0.5635 -0.2324  0.1314
 8034SOL    HW124560   4.632   5.420   3.435  0.1073  0.3594 -0.3894
 8034SOL    HW224561   4.527   5.311   3.439 -0.5268  0.9618 -0.4240
 8035SOL     OW24562   0.806   1.536   0.076 -0.1179  0.5007 -0.6285
 8035SOL    HW124563   0.783   1.465   0.135  1.6721  1.4980  1.3790
 8035SOL    HW224564   0.787   1.616   0.125 -0.7617  1.4502 -2.3063
 8036SOL     OW24565   4.266   1.853   1.670  0.0954 -0.2577 -0.4147
 8036SOL    HW124566   4.256   1.872   1.577 -1.2989 -2.2645 -0.7151
 8036SOL    HW224567   4.331   1.783   1.674  0.8347  0.4329  0.2304
 8037SOL     OW24568   0.954   0.924   3.256 -0.0380  0.2025  0.3042
 8037SOL    HW124569   1.035   0.970   3.234  0.6405 -0.7010  0.8597
 8037SOL    HW224570   0.887   0.967   3.203  1.0254  0.0592 -1.2186
 8038SOL     OW24571   6.006   6.196   5.745  0.2586  0.5478 -0.1899
 8038SOL    HW124572   5.953   6.163   5.818  0.4611 -1.7702 -1.0212
 8038SOL    HW224573   6.041   6.279   5.777 -3.9198  2.3509  0.3640
 8039SOL     OW24574   4.905   4.494   5.862  0.1043  0.0007  0.3609
 8039SOL    HW124575   4.822   4.526   5.895 -0.8529 -1.3791 -0.5579
 8039SOL    HW224576   4.921   4.413   5.910  0.6766  0.0045  0.1931
 8040SOL     OW24577   3.060   3.331   3.504 -0.1639 -0.1543  0.1594
 8040SOL    HW124578   3.018   3.267   3.562 -0.5843 -0.0793 -0.0602
 8040SOL    HW224579   3.059   3.413   3.553  0.2782 -0.2844  0.3974
 8041SOL     OW24580   0.194   5.241   3.727 -0.1267  0.4520  0.1345
 8041SOL    HW124581   0.262   5.245   3.795 -2.8939  2.4390  3.0499
 8041SOL    HW224582   0.189   5.330   3.693 -2.2660  0.7968  1.1812
 8042SOL     OW24583   3.088   1.914   3.918  0.6145 -0.2052  0.0789
 8042SOL    HW124584   3.091   1.969   3.997  0.5388 -1.9559  1.3634
 8042SOL    HW224585   3.168   1.938   3.870 -0.9357  3.2942 -1.1190
 8043SOL     OW24586   4.663   0.062   4.423  0.1554 -0.2104  0.2004
 8043SOL    HW124587   4.620  -0.023   4.426  1.0529 -0.6517  1.0634
 8043SOL    HW224588   4.597   0.121   4.386 -0.8143 -1.0842  0.5010
 8044SOL     OW24589   2.335   1.488   1.258  0.0243  0.2474  0.4840
 8044SOL    HW124590   2.383   1.481   1.176  1.1468 -1.2438  1.2206
 8044SOL    HW224591   2.262   1.547   1.239  0.3546  0.0601 -1.5107
 8045SOL     OW24592   6.084   2.740   3.583 -0.2096 -0.0257 -0.2063
 8045SOL    HW124593   6.113   2.697   3.663 -0.4699  1.0529  0.4873
 8045SOL    HW224594   6.094   2.833   3.601 -1.7844  0.2940 -0.8433
 8046SOL     OW24595   0.576   1.698   3.874  0.6419  0.5424 -0.2088
 8046SOL    HW124596   0.595   1.726   3.964  0.1680  0.8367 -0.1932
 8046SOL    HW224597   0.481   1.705   3.867  0.3329 -2.2171  0.1698
 8047SOL     OW24598   1.118   0.323   5.896 -0.2332 -0.2741  0.1502
 8047SOL    HW124599   1.139   0.270   5.820 -0.3273  0.4092 -0.3620
 8047SOL    HW224600   1.143   0.412   5.871 -1.6346  0.2076  0.3492
 8048SOL     OW24601   5.540   6.014   0.653  0.0698 -0.3459 -0.1657
 8048SOL    HW124602   5.459   6.029   0.702  1.0132  0.6478  1.1869
 8048SOL    HW224603   5.592   5.956   0.709  1.3473  1.1507  0.3097
 8049SOL     OW24604   4.478   3.067   2.925 -0.3876  0.6713  0.0438
 8049SOL    HW124605   4.538   3.141   2.939  0.3851  0.9520 -3.7839
 8049SOL    HW224606   4.532   3.000   2.884 -2.0183 -0.3457 -0.4937
 8050SOL     OW24607   2.972   1.498   5.964 -0.3765 -0.5943 -0.9563
 8050SOL    HW124608   2.968   1.473   5.872 -2.3113  1.2751 -1.4540
 8050SOL    HW224609   2.883   1.487   5.996 -0.0541  0.2187  0.2726
 8051SOL     OW24610   5.832   0.810   5.112 -0.1950  0.2130 -0.0657
 8051SOL    HW124611   5.838   0.854   5.027 -1.5331 -0.0429 -0.3261
 8051SOL    HW224612   5.921   0.813   5.147  0.4233  0.1719 -1.5471
 8052SOL     OW24613   4.597   1.871   2.183 -0.5398 -0.1470 -0.1639
 8052SOL    HW124614   4.554   1.899   2.264 -1.2198  0.5847 -0.7631
 8052SOL    HW224615   4.649   1.947   2.155 -0.3583 -0.3731 -0.4537
 8053SOL     OW24616   1.239   4.638   2.886  0.4178 -0.1002  0.3047
 8053SOL    HW124617   1.217   4.548   2.910  0.7755 -0.6139 -1.1950
 8053SOL    HW224618   1.172   4.662   2.821  0.3604  0.6970  0.6562
 8054SOL     OW24619   0.277   2.361   3.376  0.6979 -0.5501 -0.2087
 8054SOL    HW124620   0.280   2.457   3.378 -0.3283 -0.5106  0.0277
 8054SOL    HW224621   0.184   2.340   3.367  0.9722 -1.5202 -0.9470
 8055SOL     OW24622   0.599   2.216   2.181  0.1810  0.2278  0.1145
 8055SOL    HW124623   0.681   2.255   2.151  1.6314 -1.6881  1.3582
 8055SOL    HW224624   0.603   2.125   2.152 -0.8559 -0.2473  1.3563
 8056SOL     OW24625   1.017   3.459   1.068 -0.4457 -0.2587  0.1065
 8056SOL    HW124626   1.057   3.486   1.151 -1.1555 -1.0698  0.7206
 8056SOL    HW224627   0.944   3.403   1.093  1.3361 -3.4013 -1.0581
 8057SOL     OW24628   0.156   3.710   1.778 -0.0914 -0.0437 -0.4097
 8057SOL    HW124629   0.189   3.627   1.812  0.7172  0.4996  0.1884
 8057SOL    HW224630   0.125   3.690   1.690 -0.1201 -1.0221 -0.1832
 8058SOL     OW24631   4.882   0.312   1.686  0.0061  0.0761 -0.1665
 8058SOL    HW124632   4.945   0.374   1.723  0.3219  1.1424 -2.2835
 8058SOL    HW224633   4.887   0.328   1.591 -1.8199 -1.3957 -0.5600
 8059SOL     OW24634   3.235   4.675   4.273 -0.0477  1.1391 -0.1414
 8059SOL    HW124635   3.271   4.666   4.184 -0.8406 -0.5027 -0.3272
 8059SOL    HW224636   3.312   4.686   4.329  1.0456 -3.2805 -0.4052
 8060SOL     OW24637   2.806   0.231   0.182 -0.2698 -0.0905 -0.0656
 8060SOL    HW124638   2.742   0.301   0.172 -0.1859  0.5597  2.9747
 8060SOL    HW224639   2.758   0.160   0.224  0.3659 -0.6731 -0.2932
 8061SOL     OW24640   5.809   4.995   0.962  0.4123 -0.0967  1.3847
 8061SOL    HW124641   5.867   4.948   0.901 -0.0299 -0.0940  0.9614
 8061SOL    HW224642   5.756   4.927   1.001  1.2983 -0.2076  2.4406
 8062SOL     OW24643   4.784   2.966   1.941  0.2819  0.1395  0.4713
 8062SOL    HW124644   4.833   2.956   2.023 -1.7038  1.5794  1.9333
 8062SOL    HW224645   4.818   3.046   1.902  0.5610 -0.0313  0.3567
 8063SOL     OW24646   0.203   4.354   2.647  0.1425 -0.1939 -1.1872
 8063SOL    HW124647   0.120   4.316   2.675  0.4715  1.4377  2.5578
 8063SOL    HW224648   0.269   4.292   2.678  0.4452 -0.0042 -1.4465
 8064SOL     OW24649   1.404   3.651   5.273 -0.0527  0.4578  0.2208
 8064SOL    HW124650   1.350   3.598   5.332 -0.7272 -0.6782 -1.3138
 8064SOL    HW224651   1.394   3.608   5.187  2.3311  0.9368 -0.3773
 8065SOL     OW24652   5.035   5.421   5.000 -0.3501  0.4706 -0.1515
 8065SOL    HW124653   5.088   5.366   4.942 -1.1002  0.4306 -0.8242
 8065SOL    HW224654   5.087   5.429   5.079  0.4743  0.0911 -0.6353
 8066SOL     OW24655   2.878   0.929   4.893 -0.0052 -0.1569  0.1138
 8066SOL    HW124656   2.968   0.942   4.923  0.1000 -1.2275  0.2947
 8066SOL    HW224657   2.824   0.953   4.968  0.1611 -0.1960  0.2468
 8067SOL     OW24658   6.091   1.248   5.252 -0.5175 -0.6346  0.7965
 8067SOL    HW124659   6.113   1.312   5.319 -1.0764  0.9702 -0.4939
 8067SOL    HW224660   5.996   1.239   5.257 -0.6393 -0.0377 -0.1420
 8068SOL     OW24661   0.543   5.332   2.650  0.1719 -0.2635  0.0478
 8068SOL    HW124662   0.595   5.252   2.660 -0.8325 -0.8107  1.1005
 8068SOL    HW224663   0.603   5.402   2.675  0.2965 -0.9302  1.7574
 8069SOL     OW24664   5.616   3.426   6.185 -0.0070 -0.3729  0.1459
 8069SOL    HW124665   5.699   3.470   6.204  1.2571 -2.8996  0.9056
 8069SOL    HW224666   5.616   3.414   6.090  1.2292 -1.6229  0.2793
 8070SOL     OW24667   5.870   4.376   3.895  0.2206 -0.0466 -0.6521
 8070SOL    HW124668   5.776   4.392   3.904  0.1839 -0.5473 -0.0159
 8070SOL    HW224669   5.901   4.446   3.839 -0.4511  0.4085 -0.4714
 8071SOL     OW24670   6.198   0.722   0.636  0.1096 -0.2822  0.3018
 8071SOL    HW124671   6.206   0.648   0.696  0.9868 -0.2627  0.2196
 8071SOL    HW224672   6.261   0.786   0.669 -0.7643  0.5134  0.4799
 8072SOL     OW24673   6.143   5.319   1.360 -0.4296  0.4890  0.2355
 8072SOL    HW124674   6.076   5.365   1.310  0.2032  1.2776  0.0896
 8072SOL    HW224675   6.214   5.382   1.369  0.4869 -0.4673 -0.0130
 8073SOL     OW24676   0.659   4.639   0.333  0.3677 -0.7055 -0.1091
 8073SOL    HW124677   0.581   4.585   0.324  0.4128 -0.7780 -0.0668
 8073SOL    HW224678   0.643   4.714   0.276 -0.7759  0.5117  1.7300
 8074SOL     OW24679   4.286   0.227   5.100  0.1618 -0.1260 -0.0564
 8074SOL    HW124680   4.198   0.260   5.116 -0.2743 -1.4088  0.3018
 8074SOL    HW224681   4.282   0.186   5.014  0.6787  0.6807 -0.4716
 8075SOL     OW24682   2.202   0.437   1.896 -0.3192 -0.5789 -0.3699
 8075SOL    HW124683   2.284   0.432   1.946 -0.2442  2.6270  0.0439
 8075SOL    HW224684   2.137   0.393   1.952  0.5578 -0.6549  0.6210
 8076SOL     OW24685   3.160   0.505   2.560  0.2928  0.3484 -0.2615
 8076SOL    HW124686   3.127   0.595   2.567  0.0750  0.2089  0.6142
 8076SOL    HW224687   3.206   0.490   2.643  1.0977 -0.0507 -0.7576
 8077SOL     OW24688   6.326   0.919   4.173 -0.2609 -0.0041 -0.5872
 8077SOL    HW124689   6.231   0.912   4.172 -0.2532 -0.5601  0.6014
 8077SOL    HW224690   6.357   0.829   4.182  0.4151  0.0895 -1.8005
 8078SOL     OW24691   0.239   2.892   0.796  0.4815 -0.3909  0.4042
 8078SOL    HW124692   0.294   2.965   0.823  1.4961 -1.3256  0.9657
 8078SOL    HW224693   0.274   2.816   0.843  1.9724 -2.0435 -2.9887
 8079SOL     OW24694   2.247   1.145   4.240 -0.2160  0.3038 -0.3862
 8079SOL    HW124695   2.256   1.059   4.280  0.3064 -0.2429 -1.6327
 8079SOL    HW224696   2.337   1.178   4.233 -0.3881  0.8242 -0.1908
 8080SOL     OW24697   0.454   2.583   0.539 -0.1072 -0.8221 -0.7713
 8080SOL    HW124698   0.520   2.638   0.581 -0.3989 -1.6290  0.8012
 8080SOL    HW224699   0.395   2.645   0.495 -0.5154  0.1514  1.0653
 8081SOL     OW24700   4.289   5.043   0.536  0.6105 -0.2219 -0.5029
 8081SOL    HW124701   4.345   5.070   0.463  1.2399 -0.7720 -0.2295
 8081SOL    HW224702   4.250   4.961   0.507 -2.2149  1.4024 -1.8213
 8082SOL     OW24703   3.318   0.185   1.111 -0.3525  0.2863  0.1210
 8082SOL    HW124704   3.319   0.092   1.092  0.9076  0.1835  0.5762
 8082SOL    HW224705   3.347   0.226   1.029 -1.1651  0.3097 -0.1633
 8083SOL     OW24706   3.978   1.311   2.531  0.1705 -0.3685 -0.2992
 8083SOL    HW124707   3.922   1.342   2.603 -1.2358 -0.9606 -1.1058
 8083SOL    HW224708   3.920   1.260   2.475  1.1280  0.4048 -2.0900
 8084SOL     OW24709   3.933   4.981   1.434 -0.0641 -0.5212 -0.2451
 8084SOL    HW124710   3.965   4.891   1.432  1.2938 -0.0503 -0.8526
 8084SOL    HW224711   3.866   4.981   1.502 -0.5226 -2.1239 -0.6563
 8085SOL     OW24712   5.803   2.647   0.615 -0.1921  0.3156 -0.5246
 8085SOL    HW124713   5.838   2.582   0.554  1.0387  0.5940 -0.1426
 8085SOL    HW224714   5.861   2.723   0.606 -0.7694  0.8395  0.0482
 8086SOL     OW24715   5.733   5.214   0.004 -0.1801  0.1340  0.6342
 8086SOL    HW124716   5.795   5.157  -0.040 -0.4667 -0.0050  0.4042
 8086SOL    HW224717   5.730   5.183   0.094 -1.3685 -1.1226  0.2014
 8087SOL     OW24718   0.960   1.623   0.801 -0.5049  0.3841 -0.1577
 8087SOL    HW124719   0.897   1.551   0.802  0.9715 -0.9822  0.3616
 8087SOL    HW224720   0.968   1.650   0.892 -0.9188  1.1157 -0.3267
 8088SOL     OW24721   3.193   3.374   0.167  0.2191  0.4355 -0.3982
 8088SOL    HW124722   3.132   3.343   0.100  0.4777 -0.3409 -0.2862
 8088SOL    HW224723   3.224   3.294   0.210 -0.0722  0.9243  0.7622
 8089SOL     OW24724   4.499   2.376   0.761 -0.5670 -0.4800  0.1681
 8089SOL    HW124725   4.463   2.325   0.834 -0.6674 -0.7924 -0.0950
 8089SOL    HW224726   4.433   2.443   0.743 -0.0040  0.3655  1.1448
 8090SOL     OW24727   4.718   4.624   6.018  0.8081 -0.2728  0.2521
 8090SOL    HW124728   4.723   4.635   6.113  0.9940  0.2040  0.1926
 8090SOL    HW224729   4.758   4.704   5.983 -0.8158  0.3794 -0.2307
 8091SOL     OW24730   2.841   5.673   2.222 -0.2064 -0.2264  0.1764
 8091SOL    HW124731   2.819   5.765   2.212 -2.3885 -0.4813  1.9260
 8091SOL    HW224732   2.831   5.636   2.135  3.1920  1.5541 -1.1595
 8092SOL     OW24733   3.235   4.442   5.221  0.5606  0.3112  0.0147
 8092SOL    HW124734   3.194   4.496   5.154 -2.2686 -2.3776 -0.6606
 8092SOL    HW224735   3.316   4.411   5.180  1.0501  2.0657 -0.4354
 8093SOL     OW24736   3.075   3.624   3.305  0.1829  0.6583  0.0913
 8093SOL    HW124737   3.022   3.636   3.383 -1.0185  1.4368 -0.8052
 8093SOL    HW224738   3.066   3.706   3.256  4.3059  1.9497  1.0530
 8094SOL     OW24739   1.052   6.221   4.086 -0.1005  0.0229 -0.0987
 8094SOL    HW124740   1.091   6.302   4.118 -0.9915  0.6646 -0.6119
 8094SOL    HW224741   1.113   6.152   4.115  0.9933  0.9181 -0.1956
 8095SOL     OW24742   6.230   0.122   4.357 -0.4482  0.0860  0.2165
 8095SOL    HW124743   6.281   0.187   4.309 -0.8732 -1.6710 -2.9087
 8095SOL    HW224744   6.140   0.156   4.355 -0.1927  0.8981  1.4966
 8096SOL     OW24745   0.908   5.038   0.830 -0.3465  0.2497  0.0793
 8096SOL    HW124746   1.000   5.011   0.821 -0.4319  0.4328 -1.7490
 8096SOL    HW224747   0.886   5.018   0.921  1.4213 -0.0469  0.4812
 8097SOL     OW24748   5.863   4.749   1.868 -0.3392 -0.0772 -0.2283
 8097SOL    HW124749   5.849   4.654   1.869 -1.8046  0.1047  0.6658
 8097SOL    HW224750   5.843   4.775   1.778 -0.4467 -0.5656 -0.3475
 8098SOL     OW24751   6.105   6.007   0.860  0.3182  0.1416  0.3638
 8098SOL    HW124752   6.183   6.051   0.892  0.5025 -0.4179  0.6902
 8098SOL    HW224753   6.048   6.001   0.937  0.1875  0.0436  0.2587
 8099SOL     OW24754   4.761   0.645   2.226 -0.0023  0.2473  0.0959
 8099SOL    HW124755   4.686   0.697   2.195  0.0453  0.1969 -0.1035
 8099SOL    HW224756   4.729   0.555   2.227  0.4634  0.0373 -1.3038
 8100SOL     OW24757   6.171   4.456   3.848  0.1495  0.4162 -0.1061
 8100SOL    HW124758   6.258   4.497   3.851  0.1631  0.3792  0.0133
 8100SOL    HW224759   6.180   4.387   3.782  0.4346 -0.0922  0.4583
 8101SOL     OW24760   2.742   0.478   5.838 -0.0375 -0.1925  0.3519
 8101SOL    HW124761   2.801   0.551   5.855  0.5622 -0.6100  0.0942
 8101SOL    HW224762   2.670   0.490   5.900 -0.3410  1.0416 -0.2116
 8102SOL     OW24763   1.804   5.123   0.179 -0.6825 -0.3611  0.1021
 8102SOL    HW124764   1.827   5.216   0.174 -0.9027 -0.2310  1.2742
 8102SOL    HW224765   1.709   5.122   0.188 -0.6356 -0.6757  0.5877
 8103SOL     OW24766   1.697   4.707   0.250  0.6184  0.4349 -0.1187
 8103SOL    HW124767   1.752   4.712   0.172 -0.7066 -0.2514 -1.1479
 8103SOL    HW224768   1.687   4.613   0.266  0.7996  0.5705  0.8247
 8104SOL     OW24769   4.280   1.007   4.452 -0.4351  0.2415 -0.1300
 8104SOL    HW124770   4.291   1.098   4.424 -1.1771 -0.0789 -1.5664
 8104SOL    HW224771   4.260   1.012   4.545 -2.6660  1.7256 -0.6176
 8105SOL     OW24772   2.104   1.810   0.756 -0.4813 -0.4466 -0.3404
 8105SOL    HW124773   2.131   1.865   0.830  2.2173 -2.1961  0.1012
 8105SOL    HW224774   2.070   1.872   0.692  2.3055  1.7814  0.1628
 8106SOL     OW24775   0.605   0.153   5.843 -0.0327 -0.2781 -0.3321
 8106SOL    HW124776   0.545   0.108   5.784  0.7364 -1.1993 -0.4259
 8106SOL    HW224777   0.687   0.104   5.837  0.2845  0.0610  0.9434
 8107SOL     OW24778   2.325   1.746   5.643  0.3034  0.1045  0.0030
 8107SOL    HW124779   2.368   1.707   5.718 -0.5715 -0.2153  0.3503
 8107SOL    HW224780   2.396   1.767   5.582  0.9822  0.0812  0.7825
 8108SOL     OW24781   6.115   3.722   5.392 -0.0752  0.0767  0.0581
 8108SOL    HW124782   6.161   3.702   5.311 -2.6103 -0.0229 -1.4525
 8108SOL    HW224783   6.151   3.807   5.420 -0.2361  0.9006 -2.0652
 8109SOL     OW24784   3.044   5.923   1.755  0.3468  0.5732  0.0396
 8109SOL    HW124785   3.017   5.924   1.847  1.0020 -0.2854  0.2546
 8109SOL    HW224786   3.119   5.865   1.753  1.1609  1.6237 -0.8268
 8110SOL     OW24787   2.159   1.950   0.158 -0.3958  0.0195 -0.4896
 8110SOL    HW124788   2.222   1.891   0.201  0.7594 -1.0631 -3.4236
 8110SOL    HW224789   2.210   2.029   0.138 -0.4810 -0.0983 -1.1857
 8111SOL     OW24790   0.276   1.507   3.737  0.0272 -0.1415  0.0783
 8111SOL    HW124791   0.293   1.533   3.647 -0.4123  0.5053  0.1758
 8111SOL    HW224792   0.190   1.464   3.734 -0.6027  1.0597  0.3920
 8112SOL     OW24793   4.075   5.656   0.628 -0.3020 -0.6258 -0.1436
 8112SOL    HW124794   4.014   5.680   0.558 -0.7634 -2.0664 -0.2673
 8112SOL    HW224795   4.134   5.592   0.588  2.0764  1.5392 -0.3565
 8113SOL     OW24796   3.611   2.108   1.028 -0.3815  0.5494  0.2753
 8113SOL    HW124797   3.525   2.148   1.042 -0.8016 -0.0161 -0.6116
 8113SOL    HW224798   3.620   2.043   1.098 -0.5413  0.8123  0.5426
 8114SOL     OW24799   3.857   4.537   0.575  0.5907 -0.2194  0.1084
 8114SOL    HW124800   3.778   4.505   0.532 -1.4192  4.2335 -0.0594
 8114SOL    HW224801   3.929   4.509   0.518 -0.8778 -3.2415 -0.4548
 8115SOL     OW24802   0.120   3.172   4.562 -0.1008  0.3756  0.3577
 8115SOL    HW124803   0.215   3.158   4.562 -0.4041 -2.1192 -0.0210
 8115SOL    HW224804   0.110   3.264   4.538  2.2439  1.2421  2.2883
 8116SOL     OW24805   4.931   0.385   2.006  0.7359  0.6453  0.6827
 8116SOL    HW124806   4.910   0.417   2.093 -2.2561  2.2563 -0.4562
 8116SOL    HW224807   4.868   0.315   1.990 -0.2442  1.7799 -0.8489
 8117SOL     OW24808   2.759   3.587   3.285 -0.5930 -0.0698 -0.2673
 8117SOL    HW124809   2.806   3.669   3.301 -0.3092 -0.6051  2.1355
 8117SOL    HW224810   2.669   3.606   3.314 -1.3298  0.2373 -2.5746
 8118SOL     OW24811   3.599   2.756   3.553  0.2742  0.6403  0.3675
 8118SOL    HW124812   3.524   2.810   3.525  0.9649  0.6751 -1.5538
 8118SOL    HW224813   3.559   2.676   3.585 -0.6259  0.1753 -1.7153
 8119SOL     OW24814   0.886   3.194   3.364 -0.3520 -0.1730  0.1345
 8119SOL    HW124815   0.963   3.183   3.309  0.3473  2.4809  0.4212
 8119SOL    HW224816   0.921   3.219   3.450 -1.4939  0.9785  0.2987
 8120SOL     OW24817   3.890   5.658   0.439 -0.0087  0.5033  0.2431
 8120SOL    HW124818   3.927   5.589   0.384  1.4109  1.7853 -0.4966
 8120SOL    HW224819   3.921   5.739   0.400  0.6942  1.5059  2.6879
 8121SOL     OW24820   6.281   6.223   0.893  0.0616  0.6703 -0.2267
 8121SOL    HW124821   6.222   6.241   0.820  0.4133  0.1434 -0.6482
 8121SOL    HW224822   6.345   6.295   0.891 -0.8320  1.5089  0.5291
 8122SOL     OW24823   2.403   0.162   0.185 -0.0368  0.0539  0.4552
 8122SOL    HW124824   2.464   0.192   0.118 -0.2307 -0.5146  0.0074
 8122SOL    HW224825   2.446   0.180   0.268  0.6295 -0.1070  0.1493
 8123SOL     OW24826   3.941   2.216   5.164 -0.0265 -0.0839  0.0296
 8123SOL    HW124827   3.908   2.241   5.250 -1.2070 -0.7192 -0.2192
 8123SOL    HW224828   4.009   2.281   5.145  0.0285  0.2597  1.2890
 8124SOL     OW24829   4.579   4.655   4.522  0.0470 -0.1923  0.1252
 8124SOL    HW124830   4.636   4.683   4.450 -0.0866 -0.2200  0.0079
 8124SOL    HW224831   4.614   4.569   4.548 -0.0636 -0.3006 -0.0806
 8125SOL     OW24832   5.343   2.408   0.777  0.3156  0.0993 -0.2193
 8125SOL    HW124833   5.316   2.377   0.864 -1.3503  0.0536 -0.7351
 8125SOL    HW224834   5.438   2.421   0.786 -0.1842  2.9573  2.4874
 8126SOL     OW24835   2.833   4.699   4.881  0.2864  0.0084  0.4211
 8126SOL    HW124836   2.869   4.628   4.936  0.1639 -0.5686 -0.2296
 8126SOL    HW224837   2.745   4.670   4.859  0.5396 -0.0557 -0.5672
 8127SOL     OW24838   3.648   4.835   4.101 -0.0030  0.0665  0.1827
 8127SOL    HW124839   3.572   4.878   4.141 -0.2653 -0.5328  0.3364
 8127SOL    HW224840   3.622   4.820   4.010 -0.5450 -1.2245  0.5317
 8128SOL     OW24841   0.367   3.523   4.607  0.3727 -0.1488  0.5656
 8128SOL    HW124842   0.434   3.538   4.673  0.5299  1.3461  0.1219
 8128SOL    HW224843   0.347   3.611   4.573  0.2858 -0.8459 -1.3424
 8129SOL     OW24844   1.415   6.193   3.967 -0.2686  0.0742 -0.3258
 8129SOL    HW124845   1.386   6.125   4.027 -1.0322  1.2905  0.7141
 8129SOL    HW224846   1.455   6.260   4.022  0.7991  0.3448 -1.3612
 8130SOL     OW24847   5.941   5.178   2.303  0.4000  1.4073 -0.1812
 8130SOL    HW124848   5.997   5.127   2.245  1.1391  4.0975 -2.0037
 8130SOL    HW224849   5.852   5.153   2.279  0.6721 -1.4480  1.3714
 8131SOL     OW24850   2.015   3.978   1.895 -0.0272 -0.5706 -0.0276
 8131SOL    HW124851   2.059   3.975   1.980 -0.9948 -1.3770  0.4638
 8131SOL    HW224852   1.998   3.886   1.874 -0.9300 -0.3077 -0.4891
 8132SOL     OW24853   2.574   6.199   2.369  0.0827 -0.1323  0.1468
 8132SOL    HW124854   2.530   6.144   2.433  1.4011 -1.7802 -0.2864
 8132SOL    HW224855   2.504   6.228   2.310 -0.8146 -0.4084  1.0438
 8133SOL     OW24856   5.143   1.956   1.275 -0.6032 -0.2364  0.1101
 8133SOL    HW124857   5.222   2.008   1.261 -1.6389  1.0941 -1.0448
 8133SOL    HW224858   5.075   2.020   1.297 -1.6021 -1.2458  0.0527
 8134SOL     OW24859   3.886   5.878   3.665 -0.3944  0.4875  0.2120
 8134SOL    HW124860   3.897   5.913   3.576 -2.5086 -1.0067 -0.6854
 8134SOL    HW224861   3.796   5.900   3.688 -0.2917 -0.3529  1.4531
 8135SOL     OW24862   1.867   2.898   0.257 -0.3357 -0.1113  0.1665
 8135SOL    HW124863   1.901   2.954   0.187 -1.0885 -1.2066 -1.1151
 8135SOL    HW224864   1.789   2.943   0.288 -0.8564 -0.3562 -0.7595
 8136SOL     OW24865   1.464   1.039   1.585  0.2610  0.1661  0.0313
 8136SOL    HW124866   1.487   0.976   1.516  2.4672  0.5144  0.3885
 8136SOL    HW224867   1.456   1.122   1.540 -0.0842  0.0885 -0.0550
 8137SOL     OW24868   2.116   1.987   0.986  0.5261 -0.4784 -0.3144
 8137SOL    HW124869   2.026   2.020   0.993 -0.3688 -2.5090 -1.3609
 8137SOL    HW224870   2.168   2.046   1.041 -1.6785 -0.1596  1.5802
 8138SOL     OW24871   6.286   0.510   2.688  1.0690  0.2530  0.5145
 8138SOL    HW124872   6.298   0.415   2.685  1.3123  0.2810  0.6345
 8138SOL    HW224873   6.214   0.526   2.627 -1.5563 -0.4136  3.1712
 8139SOL     OW24874   1.532   2.790   6.062  0.3143  0.5648 -0.4877
 8139SOL    HW124875   1.591   2.725   6.024  0.5768  0.5602 -0.0722
 8139SOL    HW224876   1.578   2.823   6.139  0.1753  1.2356 -0.6882
 8140SOL     OW24877   5.223   4.461   2.089 -0.3607 -0.6256  0.3163
 8140SOL    HW124878   5.139   4.476   2.131 -1.1309 -2.3657 -0.5196
 8140SOL    HW224879   5.202   4.446   1.997  1.0412  0.5653 -0.2374
 8141SOL     OW24880   5.925   0.868   4.852  0.3179  0.4775  0.1620
 8141SOL    HW124881   5.928   0.963   4.849  0.7513  0.4534 -0.2205
 8141SOL    HW224882   5.989   0.839   4.787  0.4805 -0.0744  0.5560
 8142SOL     OW24883   4.322   4.721   0.133 -0.1517  0.0976  0.3456
 8142SOL    HW124884   4.302   4.797   0.078 -1.7067 -0.1858  0.4547
 8142SOL    HW224885   4.253   4.722   0.200  1.5342  0.2859  2.1722
 8143SOL     OW24886   6.047   4.517   5.901 -0.3098  0.2728  0.3864
 8143SOL    HW124887   6.011   4.470   5.826 -0.4378  0.1393  0.5283
 8143SOL    HW224888   6.102   4.585   5.864 -1.4388  1.0754  0.1417
 8144SOL     OW24889   3.988   0.214   5.199 -0.4161 -0.6164 -0.2611
 8144SOL    HW124890   3.964   0.255   5.282  1.8205  0.7630 -0.2141
 8144SOL    HW224891   4.039   0.137   5.224  0.5972  0.0204 -0.3357
 8145SOL     OW24892   3.254   0.771   1.975 -0.1683 -0.4534 -0.3844
 8145SOL    HW124893   3.215   0.816   2.050  1.4608 -2.7260  1.9803
 8145SOL    HW224894   3.191   0.704   1.951 -0.1656 -0.4974 -0.2670
 8146SOL     OW24895   1.057   3.538   5.236  0.0005  0.1991  0.4227
 8146SOL    HW124896   0.967   3.528   5.206 -0.1035  0.2608  0.7095
 8146SOL    HW224897   1.109   3.481   5.179  0.0050  1.3938 -0.8263
 8147SOL     OW24898   2.225   6.214   3.993  0.3200 -0.3749  0.0084
 8147SOL    HW124899   2.198   6.213   4.085  0.0250  1.2600 -0.0403
 8147SOL    HW224900   2.272   6.131   3.982 -1.4695 -1.6265  1.0538
 8148SOL     OW24901   4.031   4.151   4.979  0.2110 -0.0430  0.0515
 8148SOL    HW124902   4.059   4.204   4.904  1.4429 -0.7567 -0.0330
 8148SOL    HW224903   3.959   4.200   5.018  0.0171  0.6999 -1.1741
 8149SOL     OW24904   5.323   3.798   2.759  0.1224 -0.2297  0.2377
 8149SOL    HW124905   5.230   3.776   2.755  0.0365  0.3534 -2.0566
 8149SOL    HW224906   5.367   3.714   2.772 -0.7000 -0.4507  1.9343
 8150SOL     OW24907   6.128   3.338   2.352 -0.1686  0.1979 -0.2550
 8150SOL    HW124908   6.197   3.323   2.417  0.0373 -1.4054 -0.8005
 8150SOL    HW224909   6.159   3.415   2.303  2.0138 -1.3220 -1.4303
 8151SOL     OW24910   3.669   4.325   2.540 -0.5681  0.2435  0.3795
 8151SOL    HW124911   3.738   4.387   2.518 -0.1898 -0.5587 -0.7984
 8151SOL    HW224912   3.704   4.277   2.616 -0.5985  1.0281  0.9006
 8152SOL     OW24913   1.888   5.305   1.530  0.7301 -0.6437 -0.2539
 8152SOL    HW124914   1.964   5.349   1.569 -0.6190  0.9065  0.7532
 8152SOL    HW224915   1.874   5.228   1.586 -0.2202  0.7067  1.4518
 8153SOL     OW24916   4.922   6.350   2.504  0.2883  0.2118 -0.0428
 8153SOL    HW124917   4.875   6.422   2.463  0.2402 -0.1431 -0.6262
 8153SOL    HW224918   5.001   6.339   2.450  0.8779  0.5869  0.7316
 8154SOL     OW24919   5.327   4.336   4.060 -0.7720  0.3447  0.2922
 8154SOL    HW124920   5.362   4.348   4.148 -0.2782 -1.3392  0.3456
 8154SOL    HW224921   5.232   4.340   4.071 -0.7199  2.4267  0.5155
 8155SOL     OW24922   3.405   5.592   4.602 -0.0404  0.5049  0.5352
 8155SOL    HW124923   3.450   5.661   4.650 -0.9566  0.0907  2.0212
 8155SOL    HW224924   3.363   5.637   4.529 -1.4798  1.7300  2.0534
 8156SOL     OW24925   1.223   6.329   3.184  0.4391  0.0576 -0.0955
 8156SOL    HW124926   1.228   6.353   3.092 -0.6481 -0.2308 -0.2462
 8156SOL    HW224927   1.273   6.396   3.229  0.1835  0.7456 -0.8090
 8157SOL     OW24928   5.126   0.160   5.950  0.8939 -0.0531  0.2884
 8157SOL    HW124929   5.053   0.114   5.991  0.8358 -0.2355 -0.0164
 8157SOL    HW224930   5.107   0.157   5.856  1.6976 -0.8314  0.1332
 8158SOL     OW24931   0.810   2.138   2.609 -0.3994 -0.0453 -0.3378
 8158SOL    HW124932   0.863   2.167   2.683  0.8839  0.4283 -1.3967
 8158SOL    HW224933   0.721   2.135   2.643  0.0126  1.1659  0.9565
 8159SOL     OW24934   4.830   6.137   2.293 -0.1450 -0.7008  0.1718
 8159SOL    HW124935   4.770   6.201   2.331  0.1459 -0.4931  0.2823
 8159SOL    HW224936   4.845   6.167   2.203  1.8539  0.7374  0.9203
 8160SOL     OW24937   3.183   3.110   0.736 -0.5726  0.4473  0.0851
 8160SOL    HW124938   3.276   3.091   0.739 -0.4704  1.0429  0.8598
 8160SOL    HW224939   3.142   3.042   0.789 -0.5276  0.4914  0.1760
 8161SOL     OW24940   3.875   3.116   1.458  0.0443  0.3212 -0.1681
 8161SOL    HW124941   3.890   3.070   1.541 -1.0391 -1.1530 -0.7425
 8161SOL    HW224942   3.825   3.054   1.405  0.7231  1.2131 -1.9439
 8162SOL     OW24943   2.898   3.485   2.311 -0.0535 -0.2149 -0.4333
 8162SOL    HW124944   2.877   3.403   2.356  0.0075  1.0747  2.1282
 8162SOL    HW224945   2.951   3.458   2.236 -0.2306 -2.5176  0.1730
 8163SOL     OW24946   1.093   3.790   5.343 -0.1604  0.5773  0.1956
 8163SOL    HW124947   1.076   3.707   5.297  1.4479  0.3371 -0.0327
 8163SOL    HW224948   1.012   3.839   5.334 -1.2716 -1.0896  0.6062
 8164SOL     OW24949   1.829   6.076   6.095  0.3087  0.5517 -0.1186
 8164SOL    HW124950   1.786   6.131   6.160 -0.7781  0.8288 -1.0275
 8164SOL    HW224951   1.757   6.027   6.054  0.8286  1.0465 -1.7060
 8165SOL     OW24952   1.067   1.910   0.744 -0.5237  0.0259  0.3221
 8165SOL    HW124953   1.063   1.953   0.829  3.2142  0.9383  0.2066
 8165SOL    HW224954   1.064   1.816   0.764  1.2416  0.2010  1.6202
 8166SOL     OW24955   5.486   5.573   5.444  0.5760  0.1288  0.4356
 8166SOL    HW124956   5.507   5.489   5.484 -1.1886 -0.5426  0.0508
 8166SOL    HW224957   5.514   5.638   5.508  1.6167 -0.7551  0.9028
 8167SOL     OW24958   0.013   6.254   2.789 -0.1333 -0.9007 -0.1270
 8167SOL    HW124959  -0.034   6.259   2.872 -1.4543 -0.4413 -0.8776
 8167SOL    HW224960  -0.029   6.183   2.740 -1.4827  0.8146 -1.6184
 8168SOL     OW24961   5.182   2.982   4.861  0.5480 -0.2518 -0.4351
 8168SOL    HW124962   5.154   3.050   4.799  1.3734 -0.2921 -0.8657
 8168SOL    HW224963   5.235   2.922   4.808  1.1178 -0.3895  0.2723
 8169SOL     OW24964   3.411   2.432   2.817  0.3305  0.0670  0.5020
 8169SOL    HW124965   3.498   2.440   2.855 -0.7961 -0.7810  3.5217
 8169SOL    HW224966   3.351   2.459   2.886 -1.8637 -0.1468 -1.1916
 8170SOL     OW24967   0.952   6.026   2.588  0.1958 -0.0899  0.7728
 8170SOL    HW124968   0.962   5.986   2.502 -0.7176 -1.1616  1.1362
 8170SOL    HW224969   1.023   6.090   2.593  1.4817 -1.3877  0.0001
 8171SOL     OW24970   1.011   3.210   5.192 -0.4653 -0.0718  0.0671
 8171SOL    HW124971   0.944   3.202   5.260 -0.2830 -1.6845  0.1055
 8171SOL    HW224972   0.999   3.132   5.138  1.7382 -0.7238  0.4146
 8172SOL     OW24973   1.474   3.794   5.584 -0.3948 -0.4476  0.3090
 8172SOL    HW124974   1.538   3.751   5.640  0.8469 -0.7041 -1.2281
 8172SOL    HW224975   1.390   3.759   5.612  0.2673 -1.1796  1.4353
 8173SOL     OW24976   4.767   6.140   3.939 -0.7790  0.2006  0.0241
 8173SOL    HW124977   4.675   6.116   3.945 -0.2275 -1.8865  0.8208
 8173SOL    HW224978   4.789   6.172   4.027 -0.5437 -0.0324  0.0505
 8174SOL     OW24979   5.338   5.665   5.972  0.6647  0.6767  0.2680
 8174SOL    HW124980   5.389   5.740   5.941 -0.6770  1.9873  1.1199
 8174SOL    HW224981   5.250   5.680   5.937  0.2797 -0.2933  0.7844
 8175SOL     OW24982   5.378   0.315   1.811  0.0309 -0.3652 -0.0088
 8175SOL    HW124983   5.287   0.345   1.805  0.5527  1.3049 -0.2926
 8175SOL    HW224984   5.389   0.257   1.736 -1.0879 -1.4702  0.6520
 8176SOL     OW24985   1.111   1.578   0.583 -0.2685  0.1128  0.8965
 8176SOL    HW124986   1.052   1.577   0.658  1.2435  0.6683  2.1544
 8176SOL    HW224987   1.199   1.577   0.621  0.5708  1.2934 -0.8326
 8177SOL     OW24988   5.407   1.388   4.268  0.6352 -0.7446  0.3616
 8177SOL    HW124989   5.427   1.408   4.177 -0.8922 -2.5132 -0.4108
 8177SOL    HW224990   5.337   1.449   4.292  2.2984  1.0418  1.0522
 8178SOL     OW24991   3.820   2.160   1.871 -0.1423 -0.0718 -0.0185
 8178SOL    HW124992   3.913   2.182   1.865 -0.2738  1.1866  1.6656
 8178SOL    HW224993   3.816   2.092   1.938 -0.0941 -3.2397 -2.9485
 8179SOL     OW24994   5.869   3.260   2.283  0.1252 -0.3946  0.3393
 8179SOL    HW124995   5.881   3.329   2.218  1.9556  0.9742  2.0108
 8179SOL    HW224996   5.956   3.246   2.319 -0.6553 -1.8400  1.7817
 8180SOL     OW24997   2.384   2.666   4.720  0.0855  0.2854  0.1303
 8180SOL    HW124998   2.340   2.651   4.636  0.1246 -1.7362  0.4414
 8180SOL    HW224999   2.443   2.592   4.730  2.0193  1.8302  0.7647
 8181SOL     OW25000   1.504   5.462   2.786 -1.0235 -0.7304  0.2009
 8181SOL    HW125001   1.519   5.367   2.790  0.1803 -0.6019 -0.6477
 8181SOL    HW225002   1.447   5.473   2.711 -0.6023 -0.7394 -0.1275
 8182SOL     OW25003   3.263   1.152   3.029 -0.0616 -0.0083 -0.5784
 8182SOL    HW125004   3.313   1.118   3.103 -0.9036 -0.0847 -0.0307
 8182SOL    HW225005   3.278   1.247   3.032  1.6076 -0.1974 -1.6035
 8183SOL     OW25006   2.102   0.041   1.678  0.0043 -0.6864 -0.4974
 8183SOL    HW125007   2.071  -0.049   1.678  1.2237 -1.1364  0.6650
 8183SOL    HW225008   2.108   0.065   1.585 -1.6844 -1.2913 -0.7861
 8184SOL     OW25009   2.036   2.497   5.317  0.5189  0.3069 -0.2910
 8184SOL    HW125010   1.974   2.510   5.246 -1.2190  1.7037  1.3701
 8184SOL    HW225011   2.120   2.480   5.273  0.0732  3.4450 -2.7228
 8185SOL     OW25012   0.578   4.240   4.033 -0.5517  0.1462 -0.3094
 8185SOL    HW125013   0.562   4.319   3.981  0.9981  0.6191 -0.1171
 8185SOL    HW225014   0.646   4.193   3.984 -0.4861 -0.3801  0.2855
 8186SOL     OW25015   2.575   1.946   5.679  0.9601 -0.0071 -0.1539
 8186SOL    HW125016   2.669   1.927   5.681  0.7093 -1.2981  0.2126
 8186SOL    HW225017   2.564   2.014   5.745  1.5828 -0.1482  0.1079
 8187SOL     OW25018   2.905   2.497   0.614 -0.1811 -0.2657 -0.3852
 8187SOL    HW125019   2.934   2.517   0.703  0.1355  1.5749 -0.8570
 8187SOL    HW225020   2.839   2.429   0.625 -1.3728  1.0994  1.4194
 8188SOL     OW25021   1.343   3.884   3.831 -0.4477  1.0121 -0.2524
 8188SOL    HW125022   1.436   3.865   3.834 -0.6111  0.3369  1.2328
 8188SOL    HW225023   1.337   3.979   3.845  0.1469  1.7795 -3.9077
 8189SOL     OW25024   4.357   3.008   3.185 -0.2716 -0.4192  0.1479
 8189SOL    HW125025   4.362   3.093   3.229 -1.6836 -1.0182  1.5550
 8189SOL    HW225026   4.405   3.021   3.103  0.5414  1.3865  0.8500
 8190SOL     OW25027   3.711   2.489   5.000 -0.1077 -0.6850  0.5392
 8190SOL    HW125028   3.717   2.447   4.914  0.4852 -0.2362  0.3495
 8190SOL    HW225029   3.802   2.499   5.029 -0.0973  1.6183 -0.0266
 8191SOL     OW25030   0.388   2.745   5.066  0.1851  0.1905  0.0161
 8191SOL    HW125031   0.341   2.765   5.147  1.9014 -1.0175  1.3964
 8191SOL    HW225032   0.348   2.665   5.033 -0.6098  0.7613 -0.4320
 8192SOL     OW25033   0.146   4.886   0.285  0.2137 -0.1879  0.8644
 8192SOL    HW125034   0.113   4.796   0.292  0.2542 -0.4704 -1.5070
 8192SOL    HW225035   0.143   4.905   0.191  4.0587  0.7912  0.7496
 8193SOL     OW25036   2.149   2.740   3.717  0.2501 -0.2336  0.1944
 8193SOL    HW125037   2.235   2.782   3.714  2.6067 -4.6549 -1.3704
 8193SOL    HW225038   2.161   2.665   3.775 -3.3477  0.2194  1.7899
 8194SOL     OW25039   6.261   2.206   5.006 -0.1175 -0.3581 -0.2408
 8194SOL    HW125040   6.319   2.154   4.951 -0.1817 -0.2343 -0.4273
 8194SOL    HW225041   6.209   2.142   5.055  1.0620 -0.4914  0.8970
 8195SOL     OW25042   0.625   2.487   4.344  0.0829  0.0260 -0.0191
 8195SOL    HW125043   0.627   2.527   4.431  1.1783 -1.7784  0.8600
 8195SOL    HW225044   0.686   2.539   4.291 -0.7552  1.2654  0.2190
 8196SOL     OW25045   4.592   2.132   2.928  0.6643  0.3056  0.0429
 8196SOL    HW125046   4.618   2.121   3.019  2.0046  0.7142 -0.2773
 8196SOL    HW225047   4.597   2.045   2.890  1.4985  0.3579  0.0153
 8197SOL     OW25048   6.338   0.731   5.699 -0.0210  0.4265  0.4487
 8197SOL    HW125049   6.299   0.713   5.613 -0.0658 -0.6141  0.6717
 8197SOL    HW225050   6.325   0.650   5.748 -0.3734  1.1595  1.5907
 8198SOL     OW25051   1.182   5.130   4.958 -0.1021  0.5815  0.1354
 8198SOL    HW125052   1.116   5.150   5.024 -1.3512 -0.2848 -0.8114
 8198SOL    HW225053   1.158   5.043   4.926  1.8619 -0.0252  0.1778
 8199SOL     OW25054   3.582   2.506   4.533  0.0772  0.3333 -0.9403
 8199SOL    HW125055   3.571   2.597   4.561 -0.1260 -0.0901  0.4607
 8199SOL    HW225056   3.621   2.512   4.446  0.6039  1.7602 -0.6356
 8200SOL     OW25057   5.152   1.083   3.282 -0.0005  0.2693 -0.4710
 8200SOL    HW125058   5.186   1.120   3.363  1.6053  0.3216 -1.1429
 8200SOL    HW225059   5.123   1.159   3.232  0.0483  0.3282 -0.4101
 8201SOL     OW25060   5.279   5.247   5.534  0.0417 -0.0149  0.1783
 8201SOL    HW125061   5.275   5.187   5.608 -1.0526  2.9523  2.7746
 8201SOL    HW225062   5.371   5.273   5.529  0.3106 -1.0022 -0.2358
 8202SOL     OW25063   0.966   5.671   0.004 -0.4542  0.4119 -0.3666
 8202SOL    HW125064   0.975   5.649   0.097 -0.0261  1.7164 -0.0791
 8202SOL    HW225065   0.897   5.613  -0.027 -1.2300  0.5610  0.9830
 8203SOL     OW25066   3.116   6.016   1.505  0.4323 -0.0624 -0.0562
 8203SOL    HW125067   3.124   5.972   1.590 -0.4600 -0.5382 -0.2113
 8203SOL    HW225068   3.158   5.956   1.443  0.3541 -0.0983 -0.0742
 8204SOL     OW25069   4.157   4.411   2.617 -0.2398 -0.3057 -0.1772
 8204SOL    HW125070   4.207   4.386   2.695 -1.9402 -0.8701  0.7787
 8204SOL    HW225071   4.132   4.327   2.577 -1.1011 -0.0408 -0.1986
 8205SOL     OW25072   5.346   2.511   5.893  0.1080 -0.0125 -0.1570
 8205SOL    HW125073   5.267   2.481   5.849  0.9310 -0.7239 -1.2148
 8205SOL    HW225074   5.389   2.568   5.829  2.0820 -2.2383 -0.9696
 8206SOL     OW25075   5.730   0.845   4.370 -0.3792  0.2986 -0.3006
 8206SOL    HW125076   5.810   0.793   4.361 -0.5577  0.1041 -0.8321
 8206SOL    HW225077   5.751   0.912   4.434 -0.7181 -1.5502  1.8843
 8207SOL     OW25078   2.202   0.326   6.132  0.2450 -0.1077 -0.3434
 8207SOL    HW125079   2.269   0.391   6.152  0.8013 -0.4649 -0.9872
 8207SOL    HW225080   2.178   0.344   6.041 -0.4095 -0.0967 -0.1734
 8208SOL     OW25081   1.654   5.945   0.055  0.0004 -0.4958  0.0525
 8208SOL    HW125082   1.643   5.865   0.107  0.0443 -0.2258  0.4848
 8208SOL    HW225083   1.616   6.014   0.110 -0.1020 -0.2293 -0.3481
 8209SOL     OW25084   1.115   3.098   4.031 -0.2354 -0.2693 -0.0620
 8209SOL    HW125085   1.131   3.008   4.002 -0.0610 -0.5391  0.8575
 8209SOL    HW225086   1.202   3.137   4.036 -0.4020  0.4752 -2.0422
 8210SOL     OW25087   0.911   4.155   4.280  0.3708  0.2354 -0.1943
 8210SOL    HW125088   0.923   4.074   4.329  1.8951  0.9934  0.7986
 8210SOL    HW225089   0.819   4.177   4.292  0.1750 -0.8221  0.3694
 8211SOL     OW25090   0.409   3.688   6.047  0.4065 -0.6927  0.5162
 8211SOL    HW125091   0.397   3.738   6.128 -0.5893 -1.3013  0.7688
 8211SOL    HW225092   0.442   3.751   5.984 -0.5517  0.2225  0.9033
 8212SOL     OW25093   1.751   2.813   0.531  0.9125 -0.0497 -0.3293
 8212SOL    HW125094   1.692   2.771   0.593 -2.8286  1.6403 -2.4099
 8212SOL    HW225095   1.771   2.745   0.467 -0.4391 -0.1875 -0.6344
 8213SOL     OW25096   5.259   1.011   4.106 -0.2509  0.1606  0.0549
 8213SOL    HW125097   5.249   1.048   4.193 -1.5246 -0.4151  0.1724
 8213SOL    HW225098   5.171   0.984   4.080  0.3729 -1.3071 -0.6725
 8214SOL     OW25099   3.981   5.208   2.014 -0.1181  0.2268 -0.2828
 8214SOL    HW125100   3.903   5.160   2.042  0.8211 -0.4841  1.2568
 8214SOL    HW225101   4.055   5.153   2.041  0.9661  1.8571  0.2776
 8215SOL     OW25102   5.609   0.826   2.826  0.2712  0.4973 -0.0600
 8215SOL    HW125103   5.613   0.915   2.792  0.5486 -0.1815 -1.9127
 8215SOL    HW225104   5.689   0.816   2.877  0.5472  1.1079 -0.3640
 8216SOL     OW25105   2.989   1.201   0.220 -0.3151  0.2633 -0.0969
 8216SOL    HW125106   3.083   1.193   0.235 -0.7663 -1.7213  2.1259
 8216SOL    HW225107   2.960   1.264   0.286 -0.5738  0.9318 -0.8288
 8217SOL     OW25108   1.814   4.880   0.428  0.4106 -0.0548  0.1009
 8217SOL    HW125109   1.755   4.813   0.395 -0.5966 -0.1706  1.9501
 8217SOL    HW225110   1.880   4.891   0.360  0.1746 -2.3658 -0.5727
 8218SOL     OW25111   5.374   0.781   3.750 -0.4112  0.4897  0.5461
 8218SOL    HW125112   5.386   0.876   3.739 -0.8309  0.6694  1.5434
 8218SOL    HW225113   5.378   0.747   3.661 -1.3713  1.5835  0.0482
 8219SOL     OW25114   3.837   0.028   5.943 -0.2460  0.0364  0.1131
 8219SOL    HW125115   3.788  -0.010   5.870  1.3503 -2.3783  0.1824
 8219SOL    HW225116   3.783   0.010   6.020 -0.1927 -0.8381 -0.0414
 8220SOL     OW25117   5.368   1.695   1.476 -0.0645  0.3615  0.7498
 8220SOL    HW125118   5.381   1.767   1.538  0.6044  0.8132  0.0942
 8220SOL    HW225119   5.273   1.682   1.475 -0.0844  0.2256  1.9868
 8221SOL     OW25120   4.830   1.116   1.796  0.3612  0.2602  0.0238
 8221SOL    HW125121   4.849   1.188   1.857  0.2836  0.3684 -0.0800
 8221SOL    HW225122   4.814   1.041   1.853  1.3093  0.1107  0.1197
 8222SOL     OW25123   1.488   1.557   4.895 -0.8859  0.2731 -0.4304
 8222SOL    HW125124   1.528   1.641   4.919  1.0389 -0.8779  0.6523
 8222SOL    HW225125   1.448   1.573   4.810 -0.5481  2.2706 -0.2634
 8223SOL     OW25126   0.271   5.566   2.506  0.9449 -0.2002  0.1018
 8223SOL    HW125127   0.237   5.601   2.423  0.3292 -0.6316  0.1657
 8223SOL    HW225128   0.307   5.642   2.550  1.4874  0.0006 -0.6619
 8224SOL     OW25129   4.995   2.682   0.385  0.7535  0.2741 -0.1090
 8224SOL    HW125130   4.944   2.649   0.310  1.0802  0.3478 -0.3649
 8224SOL    HW225131   5.059   2.742   0.346  0.9202  0.3184  0.2312
 8225SOL     OW25132   4.008   5.399   0.283 -0.4322  0.3841 -0.0592
 8225SOL    HW125133   4.055   5.443   0.211 -1.6554  0.4677 -0.8527
 8225SOL    HW225134   3.942   5.346   0.239 -1.4788  0.7496  1.0209
 8226SOL     OW25135   0.869   4.770   3.955  0.2988  0.0501 -0.2315
 8226SOL    HW125136   0.935   4.701   3.949 -0.5078 -0.7110 -0.7329
 8226SOL    HW225137   0.850   4.776   4.048  0.8177  0.0263 -0.1208
 8227SOL     OW25138   0.463   0.618   0.435 -0.3771  0.5977  0.4153
 8227SOL    HW125139   0.415   0.557   0.378  0.8560  0.6187 -0.6742
 8227SOL    HW225140   0.505   0.679   0.374 -0.2277  1.5277  1.4306
 8228SOL     OW25141   3.536   3.921   1.743  0.4092 -0.4441  0.1388
 8228SOL    HW125142   3.565   3.936   1.833 -1.8377 -0.3117  0.8842
 8228SOL    HW225143   3.490   3.837   1.746 -0.8111  0.1795 -0.5931
 8229SOL     OW25144   5.968   1.010   5.458 -0.2839 -0.8380  0.1284
 8229SOL    HW125145   5.894   0.975   5.409  0.8243 -0.3338 -1.9965
 8229SOL    HW225146   5.928   1.060   5.529 -2.0419  0.2687 -1.5581
 8230SOL     OW25147   3.745   1.922   4.207 -0.2011 -0.2686 -0.2233
 8230SOL    HW125148   3.721   1.898   4.296  0.9569 -0.9661 -0.0805
 8230SOL    HW225149   3.663   1.949   4.166 -0.5238  1.7132  1.5282
 8231SOL     OW25150   4.194   6.182   5.907  0.4837  0.1972 -0.1865
 8231SOL    HW125151   4.168   6.259   5.857  2.6902  0.4738 -1.0457
 8231SOL    HW225152   4.271   6.148   5.861 -0.5507 -2.7158  0.0098
 8232SOL     OW25153   6.150   1.376   1.071  0.2821 -0.1924 -0.4840
 8232SOL    HW125154   6.076   1.355   1.128  0.8383 -0.9118 -0.0086
 8232SOL    HW225155   6.221   1.320   1.101  0.8406  0.0148 -1.3511
 8233SOL     OW25156   5.667   6.209   2.977 -0.3270 -0.3576 -0.1647
 8233SOL    HW125157   5.601   6.278   2.981 -0.7396 -0.8006  1.0852
 8233SOL    HW225158   5.658   6.172   2.889  0.1091  1.3550 -0.9570
 8234SOL     OW25159   1.719   5.760   2.263  0.0109 -0.5007 -0.2363
 8234SOL    HW125160   1.690   5.792   2.348  1.0726 -0.4815  0.1331
 8234SOL    HW225161   1.736   5.666   2.277  2.5720 -0.0506  0.2911
 8235SOL     OW25162   1.280   4.203   5.278 -0.1323  0.0572 -0.3232
 8235SOL    HW125163   1.272   4.114   5.312 -2.0315  0.0699 -0.6246
 8235SOL    HW225164   1.353   4.241   5.327  0.6515 -1.6162 -0.1242
 8236SOL     OW25165   3.996   4.028   5.388 -0.0371 -0.1212 -0.5029
 8236SOL    HW125166   3.961   4.045   5.475 -2.7358 -1.5840 -1.1637
 8236SOL    HW225167   4.030   3.939   5.393  0.2395 -0.0330 -0.8086
 8237SOL     OW25168   1.302   0.783   5.382 -0.7630 -0.1180  0.1727
 8237SOL    HW125169   1.276   0.871   5.355 -0.7638  0.8116  2.9568
 8237SOL    HW225170   1.340   0.744   5.303 -0.1455  2.6207 -0.9768
 8238SOL     OW25171   4.299   5.623   2.761 -0.2741 -0.2121  0.9927
 8238SOL    HW125172   4.238   5.686   2.721 -0.9882 -0.5667  1.4925
 8238SOL    HW225173   4.328   5.666   2.841  1.4908  0.6791 -0.0849
 8239SOL     OW25174   5.467   3.654   5.966 -0.1421 -0.7355 -0.0097
 8239SOL    HW125175   5.517   3.574   5.950  0.4531 -0.2391 -0.6906
 8239SOL    HW225176   5.520   3.724   5.927 -1.7215 -0.2882 -1.4703
 8240SOL     OW25177   4.859   6.364   2.800 -0.6550  0.0534  0.3331
 8240SOL    HW125178   4.857   6.343   2.707 -0.9914 -2.3315  0.8046
 8240SOL    HW225179   4.766   6.366   2.826 -0.5732  0.9245  0.5997
 8241SOL     OW25180   2.829   1.241   6.379 -0.0599  0.1037  0.3696
 8241SOL    HW125181   2.878   1.218   6.459 -0.9800  0.4655  1.0584
 8241SOL    HW225182   2.897   1.258   6.314  0.7299  0.1964  1.1902
 8242SOL     OW25183   2.200   4.171   2.882  0.1720 -0.0159  0.3654
 8242SOL    HW125184   2.127   4.123   2.923  0.5046 -1.4881 -0.6675
 8242SOL    HW225185   2.186   4.161   2.788  0.3262  1.8892  0.1004
 8243SOL     OW25186   0.423   1.918   0.755 -0.2881  0.3895  0.1763
 8243SOL    HW125187   0.461   1.895   0.670 -1.5112 -0.1305 -0.2448
 8243SOL    HW225188   0.413   2.013   0.751  0.0720  0.4216 -0.0736
 8244SOL     OW25189   5.960   4.241   0.623  0.5941 -0.8373 -0.1207
 8244SOL    HW125190   5.967   4.179   0.696 -0.0496 -0.2018  0.4950
 8244SOL    HW225191   5.877   4.286   0.638  0.7800 -0.2280 -0.8802
 8245SOL     OW25192   3.789   3.364   5.742  0.1709 -0.0453 -0.5561
 8245SOL    HW125193   3.865   3.422   5.740  0.0484  0.1124 -0.7271
 8245SOL    HW225194   3.806   3.298   5.674  0.2592 -0.1448 -0.4372
 8246SOL     OW25195   3.916   3.926   4.818 -0.1639 -0.1679  0.6073
 8246SOL    HW125196   3.978   3.893   4.753 -1.8097 -1.0482 -0.5904
 8246SOL    HW225197   3.963   3.997   4.863  1.7993 -1.0364  0.0105
 8247SOL     OW25198   3.429   5.346   4.937 -0.0860  0.3036 -0.1080
 8247SOL    HW125199   3.512   5.315   4.901 -0.3866 -1.3563  0.5345
 8247SOL    HW225200   3.450   5.374   5.026 -0.1704  0.0506 -0.0063
 8248SOL     OW25201   2.455   3.025   3.207  0.2564 -0.1376  0.1834
 8248SOL    HW125202   2.417   3.096   3.155  2.3231  0.4681 -0.6209
 8248SOL    HW225203   2.381   2.987   3.254 -1.5625 -0.0957 -2.4638
 8249SOL     OW25204   0.823   0.600   3.787  0.2232 -0.0466 -0.7847
 8249SOL    HW125205   0.828   0.549   3.706  0.1897 -1.0101 -0.2015
 8249SOL    HW225206   0.736   0.639   3.787 -0.0515 -0.6544 -0.8672
 8250SOL     OW25207   3.470   2.275   1.757 -0.4792 -0.0376 -0.3992
 8250SOL    HW125208   3.454   2.215   1.830 -0.5402 -0.1143 -0.4763
 8250SOL    HW225209   3.485   2.360   1.799  0.8313 -0.3342 -0.2120
 8251SOL     OW25210   2.381   3.384   4.478  0.4298 -0.1406  0.2193
 8251SOL    HW125211   2.351   3.324   4.546  0.7931 -0.6313 -0.0447
 8251SOL    HW225212   2.431   3.451   4.524  0.5152 -0.3684  0.4552
 8252SOL     OW25213   0.266   1.491   0.670  0.3078 -0.1315  0.2117
 8252SOL    HW125214   0.245   1.401   0.696 -0.1103 -0.1701 -0.2539
 8252SOL    HW225215   0.355   1.486   0.635  0.0790 -0.4686 -0.3290
 8253SOL     OW25216   4.037   1.172   5.757  0.7458 -0.0207  0.0024
 8253SOL    HW125217   4.068   1.147   5.845  1.7461 -0.2025 -0.3830
 8253SOL    HW225218   3.949   1.136   5.751  0.3870  0.6010  1.1975
 8254SOL     OW25219   6.123   0.285   1.355  0.0680  0.0571 -0.2634
 8254SOL    HW125220   6.044   0.315   1.309 -1.7555 -2.5757  0.9304
 8254SOL    HW225221   6.153   0.210   1.305  0.2308 -0.5892  0.7799
 8255SOL     OW25222   4.946   5.914   0.634  0.0590 -0.2740  0.8332
 8255SOL    HW125223   4.865   5.868   0.658 -0.4024  1.0594  2.0218
 8255SOL    HW225224   4.962   5.972   0.708  0.8428  1.1527 -0.4124
 8256SOL     OW25225   3.213   2.665   2.726 -0.0334  0.1660  0.5551
 8256SOL    HW125226   3.119   2.680   2.734 -0.4027 -1.7832  0.3862
 8256SOL    HW225227   3.220   2.578   2.687  1.8471  0.4567  0.1631
 8257SOL     OW25228   1.131   4.584   1.287 -0.5168 -0.3301 -0.2650
 8257SOL    HW125229   1.164   4.666   1.325 -1.1740 -0.4455  0.5844
 8257SOL    HW225230   1.201   4.521   1.302  0.4116  0.2714 -1.7866
 8258SOL     OW25231   1.344   0.352   2.059 -0.4965  0.4085  0.0503
 8258SOL    HW125232   1.337   0.433   2.110  0.1436 -0.2282  1.2207
 8258SOL    HW225233   1.415   0.369   1.997  0.1760  0.5003  0.8186
 8259SOL     OW25234   2.191   5.442   0.013  0.5163  0.0259 -0.8128
 8259SOL    HW125235   2.135   5.367  -0.005  0.1275  0.4889 -1.5387
 8259SOL    HW225236   2.131   5.514   0.033  0.8236  0.6009 -1.8883
 8260SOL     OW25237   5.456   4.598   5.411  0.0348  0.4452 -0.3249
 8260SOL    HW125238   5.369   4.635   5.426 -0.3008 -0.7258  0.8131
 8260SOL    HW225239   5.440   4.518   5.361  0.4268  0.0781  0.1263
 8261SOL     OW25240   4.787   3.140   2.632  0.1475  0.3850 -0.2707
 8261SOL    HW125241   4.789   3.170   2.541  3.1995  0.8964 -0.1461
 8261SOL    HW225242   4.766   3.219   2.683  2.0439  0.9934 -0.3557
 8262SOL     OW25243   1.384   4.458   3.677 -0.2530  0.1060  0.0760
 8262SOL    HW125244   1.325   4.516   3.628 -0.0170  0.7215  0.5032
 8262SOL    HW225245   1.403   4.386   3.617 -0.1181  0.7512 -0.6717
 8263SOL     OW25246   4.447   4.956   3.918 -0.1641 -0.4350 -0.1198
 8263SOL    HW125247   4.398   4.880   3.885 -0.5954  0.2778 -1.1716
 8263SOL    HW225248   4.517   4.918   3.971 -1.9375 -1.4971  1.6258
 8264SOL     OW25249   0.950   3.768   4.274  0.5293 -0.0204 -0.1071
 8264SOL    HW125250   0.880   3.833   4.270 -1.9763 -2.5382 -0.3607
 8264SOL    HW225251   0.970   3.762   4.367 -1.2871 -0.8447  0.2827
 8265SOL     OW25252   1.931   4.703   5.122 -0.2063 -0.4892  0.3281
 8265SOL    HW125253   1.875   4.631   5.152 -1.0189 -0.7443 -1.5991
 8265SOL    HW225254   1.920   4.703   5.027  2.1034  0.3005  0.0047
 8266SOL     OW25255   6.220   6.370   3.005 -0.0629  0.4037  0.2215
 8266SOL    HW125256   6.173   6.423   3.069  0.3929  0.0214  0.8770
 8266SOL    HW225257   6.151   6.331   2.951 -0.5909 -0.9441  1.7884
 8267SOL     OW25258   5.071   6.267   5.216  0.5019  0.7974 -0.3037
 8267SOL    HW125259   5.083   6.173   5.207 -0.2469  0.6220  0.3419
 8267SOL    HW225260   4.983   6.284   5.183 -0.1369  0.9487  1.3335
 8268SOL     OW25261   2.145   4.237   1.406  0.5141 -0.3905  0.2736
 8268SOL    HW125262   2.235   4.228   1.374  0.4654  1.9477 -0.7591
 8268SOL    HW225263   2.114   4.319   1.367 -1.7077 -0.5786  1.4743
 8269SOL     OW25264   3.114   4.500   1.890  0.0847 -0.6821  0.5685
 8269SOL    HW125265   3.201   4.461   1.876  0.7919  0.8126  0.6043
 8269SOL    HW225266   3.119   4.536   1.979 -0.6570 -0.7507  0.6434
 8270SOL     OW25267   5.828   0.138   4.966  0.2616 -0.1853  0.2540
 8270SOL    HW125268   5.849   0.048   4.990  1.9311  0.1536  0.1815
 8270SOL    HW225269   5.910   0.186   4.978 -0.4340  1.1987 -0.3085
 8271SOL     OW25270   0.938   4.089   0.884 -0.2180  0.0408  0.0884
 8271SOL    HW125271   0.915   4.003   0.918  2.1475 -0.6443  0.1145
 8271SOL    HW225272   1.027   4.105   0.916 -0.6213  2.5576  0.1761
 8272SOL     OW25273   0.446   1.233   5.529  0.1441  0.3928 -0.2850
 8272SOL    HW125274   0.458   1.195   5.616 -0.9369 -1.8665 -1.0457
 8272SOL    HW225275   0.532   1.224   5.487 -0.3966 -2.8594 -0.9728
 8273SOL     OW25276   5.492   2.576   1.108 -0.4703 -0.6721  0.0655
 8273SOL    HW125277   5.526   2.520   1.177 -1.2748  0.0875  1.1151
 8273SOL    HW225278   5.509   2.528   1.027 -0.0101 -1.8380  0.8324
 8274SOL     OW25279   3.137   2.593   3.980 -0.6521  0.0430  0.5440
 8274SOL    HW125280   3.157   2.611   3.888 -0.5277 -0.3146  0.5008
 8274SOL    HW225281   3.157   2.501   3.991 -0.2614  0.1848  1.0403
 8275SOL     OW25282   3.299   1.519   0.992  0.4207 -0.3327 -0.1582
 8275SOL    HW125283   3.359   1.445   0.995  0.3826 -0.3661 -0.2188
 8275SOL    HW225284   3.325   1.569   0.915 -0.7804 -1.3301 -1.2599
 8276SOL     OW25285   2.117   0.349   5.861  0.2447 -0.4736  0.1098
 8276SOL    HW125286   2.127   0.443   5.846 -3.8795  0.9964  3.9874
 8276SOL    HW225287   2.040   0.324   5.810 -0.2569 -1.0207  1.0919
 8277SOL     OW25288   0.213   0.813   2.109  0.2942 -0.1357 -0.1921
 8277SOL    HW125289   0.275   0.867   2.158 -0.8920  0.8604  0.2775
 8277SOL    HW225290   0.204   0.858   2.025 -0.1317 -0.0149 -0.0829
 8278SOL     OW25291   1.702   3.600   5.061 -0.0380 -0.0927  0.0217
 8278SOL    HW125292   1.776   3.547   5.032  0.1955  0.1551  0.1656
 8278SOL    HW225293   1.740   3.666   5.119 -0.3745  0.0123  0.1294
 8279SOL     OW25294   0.720   0.004   0.239  0.2744  0.3417 -0.2519
 8279SOL    HW125295   0.783   0.076   0.251 -0.0552  0.4587  0.8901
 8279SOL    HW225296   0.643   0.032   0.288 -0.1984 -0.3819 -0.5749
 8280SOL     OW25297   3.572   1.856   1.774  0.0529 -0.5719 -0.2237
 8280SOL    HW125298   3.488   1.851   1.819 -0.7030  0.3124 -1.4506
 8280SOL    HW225299   3.552   1.831   1.684  0.3760  2.6989 -1.3555
 8281SOL     OW25300   4.687   1.222   3.135 -0.7605  0.8453  0.6993
 8281SOL    HW125301   4.615   1.284   3.150  0.9081  3.0220  0.2853
 8281SOL    HW225302   4.747   1.237   3.207 -0.2438 -0.2493  0.5197
 8282SOL     OW25303   5.129   4.645   3.115 -0.2929 -0.2574  0.4629
 8282SOL    HW125304   5.189   4.717   3.094  0.1500 -0.1594  1.9450
 8282SOL    HW225305   5.054   4.660   3.059  0.2971  0.6872 -0.1054
 8283SOL     OW25306   5.002   4.918   4.988  0.0857 -0.1156  0.5791
 8283SOL    HW125307   4.971   5.009   4.985  3.6138  1.3442  2.6904
 8283SOL    HW225308   5.027   4.905   5.079  3.7296 -1.6398 -0.4841
 8284SOL     OW25309   4.600   3.751   4.005 -0.2988 -0.3264  0.0960
 8284SOL    HW125310   4.616   3.688   3.935 -2.5166  0.2932 -1.0667
 8284SOL    HW225311   4.554   3.700   4.072 -0.3382 -0.3802  0.0289
 8285SOL     OW25312   5.133   3.069   4.187  0.2125 -0.3579  0.4507
 8285SOL    HW125313   5.151   3.005   4.257  0.5530 -1.9691 -1.0486
 8285SOL    HW225314   5.210   3.065   4.131 -0.4357  0.2427 -0.4953
 8286SOL     OW25315   5.764   2.697   1.006  0.3277  0.0860 -0.7944
 8286SOL    HW125316   5.680   2.725   0.970 -0.2361 -2.1862 -1.3758
 8286SOL    HW225317   5.793   2.626   0.949  0.8997 -1.5713  1.4047
 8287SOL     OW25318   6.157   3.739   0.760  0.1618 -0.1666  0.0633
 8287SOL    HW125319   6.178   3.645   0.759  0.7110 -0.0896  1.9108
 8287SOL    HW225320   6.242   3.782   0.753 -0.0518  0.2126 -0.2439
 8288SOL     OW25321   2.984   1.021   0.502 -0.2952  0.0384 -0.0856
 8288SOL    HW125322   3.022   0.968   0.572 -1.4401  1.0292  1.3511
 8288SOL    HW225323   3.050   1.089   0.486  0.6792 -1.0941 -1.1586
 8289SOL     OW25324   5.458   4.460   0.457 -0.0279  0.0424  0.0374
 8289SOL    HW125325   5.418   4.374   0.474 -0.3299  0.4866  1.7276
 8289SOL    HW225326   5.385   4.522   0.460  0.5329  0.6663  1.5073
 8290SOL     OW25327   1.013   6.279   2.903 -0.0374 -0.0438 -0.0692
 8290SOL    HW125328   1.072   6.205   2.885  0.0611 -0.4854  1.8515
 8290SOL    HW225329   0.945   6.271   2.836  1.3357 -0.3294 -1.4873
 8291SOL     OW25330   5.803   1.370   3.762 -0.0058 -0.0701  0.3603
 8291SOL    HW125331   5.797   1.370   3.666 -0.8429 -0.3922  0.3995
 8291SOL    HW225332   5.728   1.421   3.790 -0.9051 -1.5957  0.8802
 8292SOL     OW25333   0.621   2.344   6.078 -0.3262  0.3738  0.0314
 8292SOL    HW125334   0.656   2.339   6.167 -1.2264 -0.0160  0.3785
 8292SOL    HW225335   0.698   2.337   6.021  0.2975  0.9833  0.7763
 8293SOL     OW25336   6.118   1.147   0.166  0.0889 -0.0576 -0.3296
 8293SOL    HW125337   6.076   1.090   0.231  0.3739  0.1982  0.0813
 8293SOL    HW225338   6.123   1.093   0.087 -0.2176 -0.3880 -0.1283
 8294SOL     OW25339   1.894   4.414   3.310  0.2640  0.0384 -0.3562
 8294SOL    HW125340   1.896   4.396   3.404 -0.4258 -0.0261 -0.3437
 8294SOL    HW225341   1.870   4.331   3.270  2.6212 -0.4961 -0.7873
 8295SOL     OW25342   1.507   6.371   0.022 -0.6640 -0.5334  0.1470
 8295SOL    HW125343   1.532   6.431  -0.048  1.9476 -1.9918 -0.3002
 8295SOL    HW225344   1.523   6.420   0.103  1.5519 -0.5669 -0.2024
 8296SOL     OW25345   4.910   5.428   5.435 -0.1641  0.0503  0.5112
 8296SOL    HW125346   4.860   5.443   5.515  3.2223  1.9168  2.4879
 8296SOL    HW225347   4.952   5.343   5.449  0.9358  0.6662  1.0835
 8297SOL     OW25348   1.478   3.068   2.412  0.3973 -0.2483 -0.4446
 8297SOL    HW125349   1.478   3.091   2.504  1.3869  1.8450 -0.9282
 8297SOL    HW225350   1.538   2.993   2.406 -0.1474 -0.8008  0.6598
 8298SOL     OW25351   4.330   4.357   5.307  0.8796 -0.1357  0.0621
 8298SOL    HW125352   4.303   4.281   5.359  1.7365  0.2901  1.1602
 8298SOL    HW225353   4.278   4.430   5.343  0.3646 -0.1033 -0.7107
 8299SOL     OW25354   0.517   0.589   4.556  0.2818 -0.3405 -0.2100
 8299SOL    HW125355   0.446   0.615   4.614  1.6049 -1.9999  2.3588
 8299SOL    HW225356   0.596   0.623   4.598  1.1844  0.3777 -2.3199
 8300SOL     OW25357   1.375   1.454   0.987 -0.3500  0.7163 -0.0912
 8300SOL    HW125358   1.291   1.446   1.032  0.0618  0.1768  0.6023
 8300SOL    HW225359   1.438   1.469   1.057  0.3832 -0.6833 -0.4153
 8301SOL     OW25360   1.109   0.892   3.673 -0.1625 -0.3713 -0.7857
 8301SOL    HW125361   1.071   0.938   3.748  1.1571 -1.2175  0.4397
 8301SOL    HW225362   1.125   0.803   3.705  1.5540 -0.4196 -1.6644
 8302SOL     OW25363   4.441   6.242   4.708  0.0709 -1.0050  0.9237
 8302SOL    HW125364   4.501   6.237   4.783 -0.1323 -0.0944  1.1587
 8302SOL    HW225365   4.401   6.155   4.705  3.2518 -2.5867 -0.8572
 8303SOL     OW25366   0.418   5.571   1.581  0.0481 -0.1129 -0.2907
 8303SOL    HW125367   0.464   5.648   1.547  1.3596 -0.8361 -0.2311
 8303SOL    HW225368   0.452   5.559   1.670 -0.9843 -0.1163  0.1253
 8304SOL     OW25369   1.071   5.956   4.810 -0.0857  0.2064  0.1473
 8304SOL    HW125370   1.157   5.952   4.853  1.0347  1.2191 -1.8738
 8304SOL    HW225371   1.045   6.048   4.817 -0.8117 -0.0032  0.3270
 8305SOL     OW25372   1.227   2.478   2.226  0.4425 -0.0372  0.0297
 8305SOL    HW125373   1.273   2.400   2.256  0.0584 -1.7109 -3.3108
 8305SOL    HW225374   1.272   2.505   2.147 -1.0210  1.5824 -0.3301
 8306SOL     OW25375   1.851   0.869   4.619 -0.2846  0.4854  0.1489
 8306SOL    HW125376   1.839   0.873   4.524 -0.2993 -1.8666 -0.0251
 8306SOL    HW225377   1.922   0.930   4.637 -1.0160  1.7919 -1.2116
 8307SOL     OW25378   3.242   5.456   2.552 -0.7040  0.8083  0.3159
 8307SOL    HW125379   3.188   5.515   2.501 -0.7692  0.2379 -0.2905
 8307SOL    HW225380   3.182   5.417   2.616 -0.9697  0.3598 -0.1959
 8308SOL     OW25381   0.094   2.480   4.160 -0.1187 -0.5196 -0.0012
 8308SOL    HW125382   0.084   2.495   4.066  1.6084 -0.1735 -0.1557
 8308SOL    HW225383   0.188   2.472   4.174 -0.3729 -1.0736  1.6365
 8309SOL     OW25384   0.968   2.848   3.428  0.4478 -0.3329  0.1370
 8309SOL    HW125385   0.980   2.796   3.507  1.8904 -0.0996  0.0949
 8309SOL    HW225386   0.892   2.904   3.447 -0.1517 -1.3157  0.7674
 8310SOL     OW25387   4.239   2.484   0.735  0.2613 -0.7938 -0.5299
 8310SOL    HW125388   4.200   2.397   0.750 -1.3563  0.0190  0.2221
 8310SOL    HW225389   4.186   2.543   0.788 -0.4108  1.0667 -3.1072
 8311SOL     OW25390   1.012   5.342   1.109 -0.7331  0.3316  0.0549
 8311SOL    HW125391   1.071   5.298   1.048  0.5270  1.1222  0.6667
 8311SOL    HW225392   1.024   5.435   1.092 -1.0723  0.5356  0.8565
 8312SOL     OW25393   1.582   3.626   0.856  0.3572 -0.1793 -0.4388
 8312SOL    HW125394   1.507   3.677   0.887  0.7716  1.1098 -1.4633
 8312SOL    HW225395   1.600   3.564   0.927 -2.5873 -1.5891 -0.7404
 8313SOL     OW25396   6.114   4.868   1.198  0.4506 -0.3217 -0.0560
 8313SOL    HW125397   6.030   4.912   1.209  1.3913  1.8528 -0.9548
 8313SOL    HW225398   6.161   4.920   1.133  3.4655  0.0686  2.1972
 8314SOL     OW25399   1.567   2.571   2.580 -0.3726  0.1456  0.4539
 8314SOL    HW125400   1.491   2.625   2.603 -0.6240  1.2707 -2.5309
 8314SOL    HW225401   1.530   2.486   2.556 -0.5383  0.2577  0.3119
 8315SOL     OW25402   2.623   4.110   0.357 -0.0976  0.5819 -0.3752
 8315SOL    HW125403   2.674   4.094   0.277 -0.2348 -0.5604 -0.2522
 8315SOL    HW225404   2.593   4.023   0.384 -1.8823  1.1852 -0.2844
 8316SOL     OW25405   6.088   1.580   4.226  0.2578  0.0993  0.5984
 8316SOL    HW125406   6.068   1.577   4.320 -1.5967  1.2020  0.2856
 8316SOL    HW225407   6.007   1.612   4.185  0.0989 -2.7821 -1.6673
 8317SOL     OW25408   6.359   2.368   3.226  0.0822 -0.5785 -0.0540
 8317SOL    HW125409   6.331   2.421   3.300  1.3669  1.2110 -0.7658
 8317SOL    HW225410   6.369   2.431   3.154 -0.0472 -2.0796 -1.4580
 8318SOL     OW25411   0.898   5.373   0.767  0.5707 -0.5453 -0.1108
 8318SOL    HW125412   0.835   5.303   0.786 -0.5731  0.0094 -1.6654
 8318SOL    HW225413   0.967   5.329   0.716 -0.3225 -0.5302 -1.3978
 8319SOL     OW25414   0.963   0.943   4.796  0.8524  0.1104 -0.4975
 8319SOL    HW125415   1.032   0.991   4.843 -0.5134  2.0114 -0.3109
 8319SOL    HW225416   0.983   0.959   4.704  2.5394 -2.1847 -0.6136
 8320SOL     OW25417   4.937   0.682   2.434  0.1986  0.4749  0.0473
 8320SOL    HW125418   4.892   0.714   2.512 -0.3553 -0.9116  0.3171
 8320SOL    HW225419   4.870   0.680   2.366 -0.0480 -1.0987  0.3119
 8321SOL     OW25420   3.804   5.827   3.397  0.0709 -0.0011 -0.4186
 8321SOL    HW125421   3.723   5.776   3.405  0.0793  0.0735  0.1688
 8321SOL    HW225422   3.777   5.909   3.356 -0.1516  0.0354 -0.1949
 8322SOL     OW25423   3.756   4.308   5.563 -0.1227  0.0919  0.5100
 8322SOL    HW125424   3.828   4.248   5.582  0.0340  1.0068  3.2167
 8322SOL    HW225425   3.677   4.261   5.589 -0.2573  0.0985  0.1267
 8323SOL     OW25426   2.814   5.498   1.307  0.0758 -0.7968 -0.0919
 8323SOL    HW125427   2.733   5.475   1.353  0.6285 -0.3853  1.1111
 8323SOL    HW225428   2.810   5.593   1.297 -0.2977 -0.9339 -1.4220
 8324SOL     OW25429   6.020   5.841   0.641  0.0962  0.1773  0.1551
 8324SOL    HW125430   5.925   5.852   0.640  0.1312  0.8860  1.7349
 8324SOL    HW225431   6.052   5.913   0.696  1.6307  0.4694 -1.0514
 8325SOL     OW25432   4.375   3.425   4.044 -0.5321 -0.0601 -0.5734
 8325SOL    HW125433   4.349   3.508   4.082 -0.2567 -0.2769  0.1029
 8325SOL    HW225434   4.312   3.361   4.079  0.4743 -0.4753  0.5685
 8326SOL     OW25435   0.253   6.106   3.876  0.2055 -0.0294  0.3064
 8326SOL    HW125436   0.278   6.028   3.826  0.6532  0.1017  0.3151
 8326SOL    HW225437   0.318   6.110   3.946 -0.2751 -0.0766  0.7622
 8327SOL     OW25438   4.272   3.064   3.577  0.1527  0.0311 -0.5729
 8327SOL    HW125439   4.239   3.086   3.664 -0.2952  0.7695 -0.9154
 8327SOL    HW225440   4.291   2.970   3.581 -1.8570 -0.4099 -0.3021
 8328SOL     OW25441   1.058   4.460   1.710  0.2812  0.2280 -0.0380
 8328SOL    HW125442   0.996   4.398   1.748  1.3231 -0.3161  0.8560
 8328SOL    HW225443   1.020   4.546   1.725 -0.8314 -0.1486 -0.6176
 8329SOL     OW25444   0.986   1.653   1.453 -0.4543 -0.2538 -0.5305
 8329SOL    HW125445   0.893   1.656   1.476 -0.5124 -1.1972 -0.6023
 8329SOL    HW225446   1.031   1.644   1.536 -0.5117 -1.1486 -0.5936
 8330SOL     OW25447   3.271   4.092   0.551 -0.1752  0.1211 -0.6062
 8330SOL    HW125448   3.219   4.038   0.492 -1.6675  0.6606  0.1708
 8330SOL    HW225449   3.281   4.039   0.630  1.7416 -0.5631 -1.2523
 8331SOL     OW25450   2.453   6.260   3.273 -0.1059  0.5118  0.7936
 8331SOL    HW125451   2.429   6.167   3.274 -0.1243  0.5193  1.3884
 8331SOL    HW225452   2.523   6.266   3.208  0.9537 -0.1881  1.8304
 8332SOL     OW25453   3.712   6.234   5.742 -0.0670 -0.2768 -0.0418
 8332SOL    HW125454   3.644   6.166   5.743 -1.0160  0.4439 -3.4740
 8332SOL    HW225455   3.792   6.187   5.719 -0.2071 -0.5731  0.0626
 8333SOL     OW25456   4.955   0.659   5.575 -0.0283  0.2243 -0.2315
 8333SOL    HW125457   4.964   0.565   5.560  0.3394  0.1119  0.6351
 8333SOL    HW225458   5.016   0.678   5.646  1.0118  1.3936 -1.3884
 8334SOL     OW25459   5.775   1.063   1.861  0.2367  0.0107  0.0761
 8334SOL    HW125460   5.725   0.997   1.908  0.8627  0.4477  1.3936
 8334SOL    HW225461   5.749   1.146   1.901 -0.2751  0.5584 -1.3174
 8335SOL     OW25462   2.514   3.617   1.306  0.4029 -0.1148  1.2080
 8335SOL    HW125463   2.483   3.568   1.382 -1.7400  0.6148  0.8570
 8335SOL    HW225464   2.452   3.689   1.297  1.7081  0.8916 -0.1287
 8336SOL     OW25465   5.277   1.861   0.331 -0.1248 -0.4781  0.6295
 8336SOL    HW125466   5.201   1.867   0.273  0.2458  1.2953  0.2950
 8336SOL    HW225467   5.282   1.768   0.353 -1.9244 -0.7544  0.0421
 8337SOL     OW25468   5.336   0.020   6.061 -0.2227 -0.1080 -0.1470
 8337SOL    HW125469   5.252   0.038   6.019 -0.8665 -0.0434  1.1212
 8337SOL    HW225470   5.360  -0.068   6.031  0.0339  0.4634 -1.7199
 8338SOL     OW25471   3.400   0.020   6.153 -0.1199 -0.2978  0.6059
 8338SOL    HW125472   3.355  -0.009   6.232  0.0274 -0.4969  0.6165
 8338SOL    HW225473   3.413  -0.060   6.102  0.4564 -0.2795  0.7182
 8339SOL     OW25474   1.145   1.227   3.790  0.3010 -0.0185  0.4354
 8339SOL    HW125475   1.120   1.295   3.728  1.3324  0.4306  0.4988
 8339SOL    HW225476   1.141   1.270   3.876 -0.6608 -0.5067  0.6522
 8340SOL     OW25477   4.092   0.619   1.574  0.2019 -0.0463 -0.0039
 8340SOL    HW125478   4.117   0.685   1.510  1.4895 -2.6046 -2.3690
 8340SOL    HW225479   4.166   0.614   1.634  0.7760 -0.3391 -0.7186
 8341SOL     OW25480   3.184   6.343   2.815 -0.2964  0.1341  0.6413
 8341SOL    HW125481   3.233   6.407   2.867 -1.9309  0.5167  1.8011
 8341SOL    HW225482   3.105   6.326   2.866 -0.9875 -1.0968 -0.7498
 8342SOL     OW25483   2.057   2.073   2.847  0.4645  0.1218 -0.2726
 8342SOL    HW125484   2.136   2.128   2.847  0.6513 -0.1464 -0.3767
 8342SOL    HW225485   1.995   2.121   2.902 -0.2991  1.7646 -2.4361
 8343SOL     OW25486   4.307   0.563   2.146 -0.0653 -0.1929 -0.1420
 8343SOL    HW125487   4.270   0.556   2.058 -0.1242  0.8790 -0.2071
 8343SOL    HW225488   4.257   0.500   2.198 -0.0620 -0.7990 -0.8528
 8344SOL     OW25489   1.080   2.637   0.731 -0.2511  0.2685 -0.1513
 8344SOL    HW125490   1.046   2.626   0.819 -0.8872 -0.9073 -0.5207
 8344SOL    HW225491   1.134   2.560   0.716  2.8144  2.1490  0.4655
 8345SOL     OW25492   0.645   0.850   5.191  0.0570  0.7023  0.3692
 8345SOL    HW125493   0.577   0.783   5.197  0.4799 -0.0649 -2.0434
 8345SOL    HW225494   0.705   0.831   5.263 -1.1751  0.0852  1.2515
 8346SOL     OW25495   6.306   0.470   1.423  0.3185 -0.0578  0.1449
 8346SOL    HW125496   6.244   0.404   1.391 -0.2234  0.8337 -0.6899
 8346SOL    HW225497   6.384   0.419   1.447 -0.4426 -1.1072  0.4668
 8347SOL     OW25498   2.498   0.909   4.920 -0.2097  0.2902 -0.2338
 8347SOL    HW125499   2.434   0.977   4.899 -1.9619 -0.7118  1.5397
 8347SOL    HW225500   2.468   0.832   4.871 -0.8655 -0.4017  1.2172
 8348SOL     OW25501   5.114   0.610   5.199 -0.0754 -0.2213 -0.1628
 8348SOL    HW125502   5.133   0.525   5.158 -0.7310 -0.8884  0.8781
 8348SOL    HW225503   5.063   0.588   5.277  0.6356  1.0555  0.6931
 8349SOL     OW25504   1.609   4.541   3.339 -0.3843 -0.1745 -0.4680
 8349SOL    HW125505   1.628   4.597   3.414  0.9884  0.4422 -1.2454
 8349SOL    HW225506   1.651   4.458   3.360 -0.0064 -0.0043 -0.5296
 8350SOL     OW25507   4.952   4.333   1.566  0.5335 -0.1373  0.0037
 8350SOL    HW125508   4.942   4.243   1.598  0.5891  0.4253  1.6719
 8350SOL    HW225509   4.890   4.384   1.618  0.4241  0.7873 -1.0080
 8351SOL     OW25510   3.377   5.944   3.595  0.0426 -0.4064  0.4589
 8351SOL    HW125511   3.423   5.886   3.656  0.6178 -0.9379 -0.4613
 8351SOL    HW225512   3.338   5.885   3.531 -2.5615 -0.0253  1.5883
 8352SOL     OW25513   5.325   0.958   6.238 -0.1765  0.0120 -0.0711
 8352SOL    HW125514   5.333   1.040   6.286  0.8393 -0.9033  1.3900
 8352SOL    HW225515   5.233   0.954   6.213  0.0254  2.2956 -1.5207
 8353SOL     OW25516   2.603   0.326   2.533  0.0847  0.3735 -0.2418
 8353SOL    HW125517   2.597   0.272   2.454  1.8805  0.5333 -0.5243
 8353SOL    HW225518   2.512   0.342   2.558 -0.4940 -1.2949 -1.1626
 8354SOL     OW25519   2.219   3.043   0.687 -0.1922  0.5586  0.3885
 8354SOL    HW125520   2.174   3.064   0.605  0.8640  2.6025  0.2738
 8354SOL    HW225521   2.156   3.065   0.755 -0.8260 -0.4993  0.1593
 8355SOL     OW25522   5.667   3.015   3.406 -0.3877  0.2693 -0.5350
 8355SOL    HW125523   5.675   2.931   3.453  1.6184  0.3619 -0.5966
 8355SOL    HW225524   5.656   2.991   3.315  1.7346 -0.0316 -0.7829
 8356SOL     OW25525   6.040   6.011   1.171 -0.3662  0.2955 -0.2521
 8356SOL    HW125526   6.027   6.004   1.265  0.2030 -0.9300 -0.2442
 8356SOL    HW225527   6.116   6.069   1.161 -0.2884  0.2468  0.0506
 8357SOL     OW25528   4.094   1.850   0.851  0.2180  0.2922 -0.0274
 8357SOL    HW125529   4.019   1.794   0.869  0.0253  0.7630  0.6951
 8357SOL    HW225530   4.078   1.884   0.762 -0.4785  0.4648  0.1573
 8358SOL     OW25531   5.284   3.463   3.400  0.0305 -0.3879 -0.1924
 8358SOL    HW125532   5.210   3.411   3.433  0.1563 -1.0821 -0.9833
 8358SOL    HW225533   5.334   3.403   3.345  0.7052  0.3167 -0.3733
 8359SOL     OW25534   5.927   5.952   2.829  0.1794 -0.6855  0.2140
 8359SOL    HW125535   5.894   5.949   2.919 -0.0942 -0.1778  0.1388
 8359SOL    HW225536   5.949   6.044   2.815 -2.3231 -0.2242 -1.1260
 8360SOL     OW25537   2.675   5.716   2.860 -0.3552 -0.1047  0.2704
 8360SOL    HW125538   2.676   5.810   2.843 -0.8440 -0.0023  0.8004
 8360SOL    HW225539   2.760   5.699   2.900 -0.0478  0.0109 -0.3123
 8361SOL     OW25540   4.791   4.345   5.324 -0.5954 -0.3273  0.0778
 8361SOL    HW125541   4.760   4.258   5.301 -1.6542 -0.4897  1.9473
 8361SOL    HW225542   4.821   4.337   5.415 -0.4904  1.1951  0.1988
 8362SOL     OW25543   4.089   0.795   0.966  0.3649  0.4322 -0.0516
 8362SOL    HW125544   4.167   0.849   0.959  0.8509 -0.1339  0.7837
 8362SOL    HW225545   4.113   0.726   1.028  0.1612 -1.4171 -1.9071
 8363SOL     OW25546   5.341   3.532   0.883 -0.1284  0.5335 -0.5311
 8363SOL    HW125547   5.294   3.479   0.819 -0.7411  1.4753 -0.8967
 8363SOL    HW225548   5.433   3.522   0.859 -0.1844 -0.7513 -0.2628
 8364SOL     OW25549   2.684   1.522   4.969  0.4143  0.2394  0.1948
 8364SOL    HW125550   2.763   1.537   5.021 -0.2662 -0.3268  1.4311
 8364SOL    HW225551   2.706   1.555   4.882  2.0359  0.0233  0.4906
 8365SOL     OW25552   0.417   6.274   2.270 -0.0356 -0.4254  0.2487
 8365SOL    HW125553   0.345   6.284   2.207  0.8974 -2.5251 -1.2716
 8365SOL    HW225554   0.483   6.337   2.240  0.0184 -0.7379 -0.3085
 8366SOL     OW25555   1.921   5.355   5.356  0.1120 -0.2850 -0.3916
 8366SOL    HW125556   1.906   5.377   5.264 -0.0993  1.6162  0.0587
 8366SOL    HW225557   2.014   5.368   5.370  0.0471 -0.0188 -0.2001
 8367SOL     OW25558   0.528   5.231   1.890 -0.3308  0.4629 -0.1026
 8367SOL    HW125559   0.572   5.207   1.809  1.1403  0.9348  0.5179
 8367SOL    HW225560   0.523   5.149   1.940  0.6908  0.5703  0.1948
 8368SOL     OW25561   2.454   3.404   5.134  0.7873 -0.2264 -0.0520
 8368SOL    HW125562   2.411   3.488   5.148  0.5504 -0.7119  2.5996
 8368SOL    HW225563   2.524   3.401   5.200  2.2765 -1.1977 -1.5766
 8369SOL     OW25564   2.214   6.370   0.520  0.1074 -0.7864 -0.4660
 8369SOL    HW125565   2.267   6.308   0.469 -1.1689 -2.4971  0.1831
 8369SOL    HW225566   2.256   6.372   0.606 -0.5619 -1.7576 -0.1030
 8370SOL     OW25567   3.206   4.819   5.392  0.1974  0.7626 -0.6621
 8370SOL    HW125568   3.179   4.781   5.309  0.6743  1.2509 -1.0427
 8370SOL    HW225569   3.130   4.809   5.449  0.6425 -1.7932 -0.3777
 8371SOL     OW25570   4.186   3.360   3.076  0.0147 -0.1971 -0.0625
 8371SOL    HW125571   4.188   3.272   3.037  0.4166  0.2665 -1.1458
 8371SOL    HW225572   4.197   3.419   3.001 -5.5966  1.1127 -0.2849
 8372SOL     OW25573   4.061   2.278   2.316 -1.1534 -0.1165 -0.5615
 8372SOL    HW125574   4.045   2.246   2.227 -0.7172  1.5556 -1.2870
 8372SOL    HW225575   4.156   2.272   2.326 -1.1752 -0.0441 -0.3101
 8373SOL     OW25576   2.497   5.365   5.909  0.0705 -0.0694  0.0146
 8373SOL    HW125577   2.439   5.435   5.941  0.2962 -0.2488  0.8426
 8373SOL    HW225578   2.559   5.351   5.981  2.0260  1.0587 -1.3554
 8374SOL     OW25579   3.976   4.306   1.389 -0.1268  0.6052  0.4340
 8374SOL    HW125580   3.992   4.398   1.408 -0.0323  0.5636  0.5593
 8374SOL    HW225581   3.889   4.305   1.350 -0.6214  0.6219  1.5032
 8375SOL     OW25582   2.548   0.706   4.530  0.8300  0.3336 -0.8883
 8375SOL    HW125583   2.551   0.612   4.550  0.3831 -0.2691 -3.3907
 8375SOL    HW225584   2.469   0.736   4.575 -0.2633 -0.9823 -1.8376
 8376SOL     OW25585   1.954   4.648   1.842  0.0089 -0.7048  0.4209
 8376SOL    HW125586   2.028   4.604   1.802  0.7532  0.1769  0.7933
 8376SOL    HW225587   1.953   4.617   1.933  1.1296  0.7193  0.9587
 8377SOL     OW25588   3.358   2.913   2.806 -0.0020 -0.0876  0.8400
 8377SOL    HW125589   3.348   2.868   2.722  0.3052 -0.8071  1.1755
 8377SOL    HW225590   3.296   2.869   2.864 -0.2573  0.4479  0.9785
 8378SOL     OW25591   5.226   0.001   1.879 -0.0104 -0.2791  0.2370
 8378SOL    HW125592   5.182  -0.060   1.820 -0.8611  0.9221 -0.4162
 8378SOL    HW225593   5.270   0.064   1.821  1.1077 -0.4356  0.8894
 8379SOL     OW25594   1.324   0.120   5.499 -0.5329  0.6369 -0.2666
 8379SOL    HW125595   1.304   0.100   5.407  0.2464  1.2535 -0.5810
 8379SOL    HW225596   1.372   0.043   5.530 -3.1723 -0.8497  0.4852
 8380SOL     OW25597   5.764   4.760   4.424 -0.5784 -0.0141  0.1162
 8380SOL    HW125598   5.831   4.704   4.463  1.0499  0.7349 -1.4713
 8380SOL    HW225599   5.813   4.827   4.377 -2.4404  0.3616 -1.4180
 8381SOL     OW25600   3.821   3.024   0.188 -0.3047  0.3076 -0.3349
 8381SOL    HW125601   3.894   3.082   0.211 -0.8797  0.7413  0.4481
 8381SOL    HW225602   3.863   2.950   0.144  0.4460  1.2592 -1.2767
 8382SOL     OW25603   2.209   6.325   1.895  0.2675  0.2608 -0.6499
 8382SOL    HW125604   2.162   6.390   1.948  1.8843  1.8479 -1.0782
 8382SOL    HW225605   2.192   6.352   1.804 -1.3521 -1.6287 -0.9771
 8383SOL     OW25606   6.325   1.041   5.765  0.6672  0.5732  0.4495
 8383SOL    HW125607   6.312   1.053   5.671 -0.6144  1.2728  0.6885
 8383SOL    HW225608   6.236   1.030   5.800  1.1561 -0.0950  1.5287
 8384SOL     OW25609   0.072   3.947   1.031  0.1802 -0.0763 -0.3408
 8384SOL    HW125610  -0.016   3.920   1.059  0.3693 -0.4405 -0.0852
 8384SOL    HW225611   0.077   4.040   1.054 -0.2022 -0.0108 -0.5227
 8385SOL     OW25612   2.062   1.962   3.126  0.3386  0.2773  0.2681
 8385SOL    HW125613   1.979   1.920   3.107 -0.6604  2.1220  0.3297
 8385SOL    HW225614   2.114   1.949   3.046 -0.9397  1.2197 -0.7607
 8386SOL     OW25615   6.262   0.947   4.925 -0.1510 -0.4559  0.4292
 8386SOL    HW125616   6.255   1.016   4.992 -1.0571  0.2554 -0.3763
 8386SOL    HW225617   6.343   0.967   4.879 -1.3565  1.2681 -1.0585
 8387SOL     OW25618   4.000   1.279   1.003  0.0458  0.9434 -0.0854
 8387SOL    HW125619   3.922   1.317   1.045  1.2163  2.5941  0.7063
 8387SOL    HW225620   4.023   1.205   1.059 -1.6000 -0.3244 -0.9926
 8388SOL     OW25621   5.366   0.803   1.453 -1.1601  0.6825  0.1589
 8388SOL    HW125622   5.325   0.870   1.509  0.2647  1.6139  0.1363
 8388SOL    HW225623   5.458   0.830   1.446 -0.4597 -1.4375  0.3702
 8389SOL     OW25624   2.859   5.847   1.341  0.1404 -0.4344 -0.0586
 8389SOL    HW125625   2.954   5.836   1.339  0.1894 -1.9735  3.4797
 8389SOL    HW225626   2.840   5.879   1.429 -2.6306  0.3328 -0.8233
 8390SOL     OW25627   5.863   3.791   0.276 -0.2010  0.5949 -0.6909
 8390SOL    HW125628   5.831   3.715   0.227 -0.1966  0.7697 -0.9619
 8390SOL    HW225629   5.791   3.854   0.273  0.6459  1.5412 -2.4669
 8391SOL     OW25630   3.355   3.119   2.295 -0.7906 -0.7153 -0.0479
 8391SOL    HW125631   3.402   3.036   2.292  1.1403  0.2960  0.5049
 8391SOL    HW225632   3.367   3.150   2.385 -0.4614  0.6908 -0.5487
 8392SOL     OW25633   3.849   3.381   1.143  0.1663  0.0131 -0.2571
 8392SOL    HW125634   3.909   3.412   1.211  0.5372 -1.2866  0.0480
 8392SOL    HW225635   3.885   3.417   1.061  1.8030 -1.2781 -0.1649
 8393SOL     OW25636   3.572   6.146   3.538 -0.1207  0.0453 -0.0732
 8393SOL    HW125637   3.520   6.066   3.542  1.2896 -0.9299 -0.4503
 8393SOL    HW225638   3.592   6.157   3.445  1.3595 -0.2948  0.1881
 8394SOL     OW25639   3.606   3.331   1.355 -0.2340 -0.0103 -0.1195
 8394SOL    HW125640   3.575   3.371   1.436 -1.0840  0.6705 -0.7576
 8394SOL    HW225641   3.699   3.352   1.350 -0.5368  1.3870 -0.1425
 8395SOL     OW25642   2.593   5.942   4.354  0.6629 -0.4077 -0.3617
 8395SOL    HW125643   2.680   5.903   4.365  1.1688  0.7236 -0.1886
 8395SOL    HW225644   2.586   6.006   4.425 -0.0919 -0.1107 -0.6940
 8396SOL     OW25645   3.742   5.293   3.081  0.4885  0.5014 -0.2828
 8396SOL    HW125646   3.744   5.305   2.987 -0.0785 -1.7029 -0.6482
 8396SOL    HW225647   3.739   5.198   3.093 -0.6408  0.7385  1.9147
 8397SOL     OW25648   5.776   2.143   4.777 -0.3892  0.1568 -0.3562
 8397SOL    HW125649   5.730   2.061   4.796  3.1631 -1.9979 -0.2706
 8397SOL    HW225650   5.812   2.171   4.861  0.4953  0.4007 -0.8007
 8398SOL     OW25651   0.737   5.094   4.435 -0.4296 -0.1467  0.5654
 8398SOL    HW125652   0.778   5.167   4.388 -0.9840  0.8352  1.5440
 8398SOL    HW225653   0.770   5.016   4.392  3.1212  0.5097  1.7696
 8399SOL     OW25654   2.144   2.705   5.780  0.2884 -0.5795  0.5007
 8399SOL    HW125655   2.082   2.650   5.827  0.0405  1.0119  2.1608
 8399SOL    HW225656   2.159   2.660   5.697  0.0501 -3.0660  1.7255
 8400SOL     OW25657   3.797   3.220   2.922  0.2514  0.7432 -0.0456
 8400SOL    HW125658   3.713   3.265   2.931 -0.7918 -0.9246 -0.9225
 8400SOL    HW225659   3.862   3.291   2.920 -1.1385  2.0925  0.3384
 8401SOL     OW25660   1.573   1.902   2.604 -0.7704 -0.3107  0.1573
 8401SOL    HW125661   1.617   1.855   2.675 -1.5495 -1.1931  0.0714
 8401SOL    HW225662   1.534   1.978   2.646 -1.3159 -0.8818  0.6992
 8402SOL     OW25663   6.051   1.639   1.995 -0.0717  0.1107 -0.4402
 8402SOL    HW125664   6.080   1.730   1.989  0.8316 -0.2364 -1.8028
 8402SOL    HW225665   5.967   1.643   2.041  0.6546  1.4673  0.8332
 8403SOL     OW25666   1.393   0.987   2.292  0.2495  0.2355  0.4634
 8403SOL    HW125667   1.417   1.079   2.305 -0.8355  0.3614  1.8086
 8403SOL    HW225668   1.462   0.938   2.337 -0.2070  0.4822  1.4704
 8404SOL     OW25669   3.903   5.590   4.787  0.2975 -0.3599 -0.7686
 8404SOL    HW125670   3.960   5.632   4.852 -0.3274  0.0360 -0.4651
 8404SOL    HW225671   3.869   5.663   4.735 -0.6899 -0.4860 -0.3281
 8405SOL     OW25672   3.554   0.739   3.634 -0.7123 -0.2185  0.6377
 8405SOL    HW125673   3.587   0.662   3.587  0.7132  0.0166  1.2209
 8405SOL    HW225674   3.623   0.762   3.695 -1.2934  1.2875  0.7736
 8406SOL     OW25675   0.338   0.656   3.742  0.0993 -0.5353  0.5553
 8406SOL    HW125676   0.258   0.682   3.696  0.3497  0.4472  0.6579
 8406SOL    HW225677   0.374   0.585   3.689  0.9619  1.2752 -1.3933
 8407SOL     OW25678   4.610   6.354   5.564 -0.0953  0.1882 -0.2078
 8407SOL    HW125679   4.539   6.302   5.601  0.3939 -0.8475 -0.7042
 8407SOL    HW225680   4.606   6.437   5.613 -2.0343  0.4080 -0.6490
 8408SOL     OW25681   2.473   3.925   4.144  0.0261 -0.1754 -0.4699
 8408SOL    HW125682   2.534   3.861   4.181 -1.1389 -2.3502 -2.0546
 8408SOL    HW225683   2.407   3.872   4.098 -3.1929  1.9917  1.2562
 8409SOL     OW25684   5.984   2.688   0.023 -0.5786 -0.6954  0.1177
 8409SOL    HW125685   5.991   2.780   0.049  1.5651 -0.7773 -0.0057
 8409SOL    HW225686   5.958   2.643   0.104 -0.8455 -0.0781  0.3838
 8410SOL     OW25687   0.175   1.196   5.833 -0.3681  0.2742 -0.3944
 8410SOL    HW125688   0.085   1.173   5.808 -0.4238  0.2567 -0.1786
 8410SOL    HW225689   0.206   1.252   5.762 -1.1150  1.6454  0.3352
 8411SOL     OW25690   3.460   2.571   0.900  0.6490 -0.5827 -0.5163
 8411SOL    HW125691   3.537   2.627   0.898 -0.0780  0.5548  0.9062
 8411SOL    HW225692   3.490   2.487   0.866  2.4732 -0.1233 -0.1361
 8412SOL     OW25693   4.522   4.308   0.348 -0.6256  0.3010 -0.6878
 8412SOL    HW125694   4.535   4.369   0.421  0.5943  0.1856 -0.7938
 8412SOL    HW225695   4.543   4.359   0.270  0.5088 -0.2723 -0.7707
 8413SOL     OW25696   1.704   4.837   1.061  0.3245 -0.1720  0.0352
 8413SOL    HW125697   1.651   4.916   1.055  0.6837  0.0135 -0.8822
 8413SOL    HW225698   1.794   4.870   1.069  0.5284 -0.4810 -0.9178
 8414SOL     OW25699   4.756   0.888   0.846  0.2355 -0.2615 -0.5625
 8414SOL    HW125700   4.823   0.923   0.905  1.2364 -0.0651 -1.7635
 8414SOL    HW225701   4.793   0.806   0.814 -1.0880 -1.2916  0.4356
 8415SOL     OW25702   3.254   3.347   5.195 -0.1146 -0.2096 -0.5678
 8415SOL    HW125703   3.214   3.355   5.109 -0.6229  1.5878 -0.1918
 8415SOL    HW225704   3.309   3.425   5.205  1.8585 -1.5485 -0.1956
 8416SOL     OW25705   0.129   1.232   0.662  1.1801  0.0392 -0.8747
 8416SOL    HW125706   0.040   1.231   0.697  1.0629 -0.7671 -1.1610
 8416SOL    HW225707   0.119   1.254   0.569  1.2975  0.1727 -0.8558
 8417SOL     OW25708   2.910   3.294   2.560 -0.5915 -0.6452 -0.4630
 8417SOL    HW125709   2.974   3.252   2.503 -0.7904 -0.3718 -0.8963
 8417SOL    HW225710   2.961   3.326   2.634 -0.5045 -2.0257  0.1001
 8418SOL     OW25711   2.637   5.866   6.238  0.4668  0.0219  0.2356
 8418SOL    HW125712   2.629   5.960   6.222 -0.9071  0.1898  1.6489
 8418SOL    HW225713   2.636   5.827   6.150 -1.2977  1.1890 -0.3244
 8419SOL     OW25714   3.184   1.743   3.086  0.0701  0.4440  0.7721
 8419SOL    HW125715   3.095   1.778   3.085 -0.2645 -0.2802 -1.4088
 8419SOL    HW225716   3.225   1.779   3.007  1.9117  1.1260  1.9520
 8420SOL     OW25717   6.134   4.012   5.416 -0.1850 -0.1812  0.3460
 8420SOL    HW125718   6.098   4.040   5.500  1.5770  1.1303  0.7300
 8420SOL    HW225719   6.069   4.038   5.352 -1.7310 -1.5299  1.2896
 8421SOL     OW25720   5.555   5.271   5.516 -0.5568  0.0748  0.2526
 8421SOL    HW125721   5.607   5.238   5.590 -0.3770 -1.5383 -0.5483
 8421SOL    HW225722   5.616   5.271   5.442 -0.9530  0.8948 -0.0826
 8422SOL     OW25723   4.193   3.971   4.728 -0.4161  0.3786 -0.6138
 8422SOL    HW125724   4.214   4.016   4.646 -1.2652  1.9293 -0.0249
 8422SOL    HW225725   4.264   3.908   4.740  1.2741  2.0981 -1.0860
 8423SOL     OW25726   1.419   2.480   5.870 -0.0264 -0.4349  0.4991
 8423SOL    HW125727   1.430   2.400   5.922  0.0332  0.9500  2.7277
 8423SOL    HW225728   1.508   2.515   5.862 -0.2891  0.4876  1.3972
 8424SOL     OW25729   3.654   0.108   1.045 -0.2539  0.1895  0.0381
 8424SOL    HW125730   3.607   0.139   0.967  0.7409 -0.3929 -0.8363
 8424SOL    HW225731   3.614   0.155   1.118 -1.5825  0.3502 -0.7600
 8425SOL     OW25732   5.612   4.981   0.417 -0.3214  0.3470 -0.0904
 8425SOL    HW125733   5.667   5.050   0.381 -0.7559  1.9180  2.0993
 8425SOL    HW225734   5.636   4.976   0.509 -1.6327 -1.1406  0.2198
 8426SOL     OW25735   4.938   0.023   6.101 -0.2738 -0.5370 -0.1401
 8426SOL    HW125736   4.891   0.068   6.172  0.3046  0.5122 -0.4002
 8426SOL    HW225737   4.926  -0.070   6.120 -2.3636 -0.3134 -0.1404
 8427SOL     OW25738   5.398   1.673   4.375  0.3724  0.4969  0.6531
 8427SOL    HW125739   5.424   1.694   4.285  1.1885  0.6807  0.9226
 8427SOL    HW225740   5.304   1.659   4.370  0.3164  1.0817 -0.1277
 8428SOL     OW25741   5.780   5.151   0.322  0.3323 -0.2709 -0.2485
 8428SOL    HW125742   5.774   5.217   0.391  0.4444 -1.1245  0.6001
 8428SOL    HW225743   5.866   5.164   0.284 -0.1354  0.8859 -0.9455
 8429SOL     OW25744   4.719   1.650   4.092 -0.3646 -0.2491 -0.2996
 8429SOL    HW125745   4.696   1.557   4.084 -0.6751 -0.0647 -1.8183
 8429SOL    HW225746   4.752   1.674   4.005  1.8509  0.5066  0.7017
 8430NA      NA25747   0.582   5.839   1.131 -0.2638  0.1763 -0.2451
 8431NA      NA25748   2.197   6.280   6.308  0.1716 -0.0081 -0.3848
 8432NA      NA25749   1.662   3.462   5.755  0.2141  0.0917 -0.0444
 8433NA      NA25750   0.028   2.033   0.484  0.3089  0.1098 -0.3711
 8434NA      NA25751   5.222   3.301   4.167 -0.3736 -0.1314  0.2083
 8435NA      NA25752   4.957   2.064   0.576  0.0990  0.0417 -0.0399
 8436NA      NA25753   6.039   5.617   0.603 -0.2718 -0.1232 -0.1651
 8437NA      NA25754   1.684   4.644   2.857  0.7463 -0.5958 -0.3069
 8438NA      NA25755   3.995   5.801   1.785  0.2246 -0.6009 -0.7566
 8439NA      NA25756   3.558   5.775   0.629 -0.2808 -0.1145  0.0089
 8440NA      NA25757   4.541   0.639   3.905 -0.6106 -0.3033  0.2883
 8441NA      NA25758   6.187   4.690   1.260 -0.0403 -0.0319  0.1142
 8442NA      NA25759   0.246   0.505   6.136  0.2134 -0.0483 -0.1652
 8443NA      NA25760   4.449   5.144   1.241 -0.1663 -0.4524 -0.2963
 8444NA      NA25761   1.819   3.585   0.040 -0.3760  0.2777 -0.0202
 8445NA      NA25762   6.214   1.612   0.636 -0.3882 -0.4727 -0.1850
 8446NA      NA25763   3.114   2.979   1.347  0.0421 -0.3144 -0.3598
 8447NA      NA25764   4.792   1.360   0.056  0.0265 -0.1960 -0.4833
 8448NA      NA25765   4.928   0.357   0.237  0.0839 -0.0069 -0.1444
 8449NA      NA25766   2.396   3.252   0.192  0.3828  0.0045  0.5790
 8450NA      NA25767   0.549   2.451   3.869  0.3318 -0.0555  0.4676
 8451NA      NA25768   2.404   1.764   2.138 -0.0577 -0.1137 -0.2429
 8452NA      NA25769   6.031   3.889   0.366  0.1370 -0.2769 -0.2663
 8453NA      NA25770   1.964   1.067   0.147  0.3265  0.0999 -0.1978
 8454CL      CL25771   0.818   5.888   1.065 -0.0183  0.0484  0.0296
 8455CL      CL25772   5.035   1.345   0.092  0.1283  0.3708 -0.0060
 8456CL      CL25773   0.494   3.968   2.827 -0.5262  0.3940  0.4490
 8457CL      CL25774   2.475   1.731   1.034  0.1693 -0.0798 -0.3861
 8458CL      CL25775   0.476   5.436   0.643  0.4440  0.2997 -0.1571
 8459CL      CL25776   4.485   2.857   5.284 -0.1528  0.1147 -0.1316
 8460CL      CL25777   2.287   3.737   3.935  0.0301  0.3794  0.2436
 8461CL      CL25778   1.681   3.698   5.784  0.4432  0.0076  0.3184
 8462CL      CL25779   0.540   5.818   1.376  0.0549  0.0416  0.2107
 8463CL      CL25780   1.926   3.366   6.381  0.0188 -0.3352 -0.1335
 8464CL      CL25781   3.329   3.827   2.192  0.3756  0.0617 -0.1908
 8465CL      CL25782   5.021   0.307   0.442 -0.1531  0.4387  0.4038
 8466CL      CL25783   3.303   5.227   5.361  0.1828 -0.1483  0.5119
 8467CL      CL25784   4.542   0.317   3.318 -0.0552 -0.2080  0.0283
 8468CL      CL25785   1.534   3.872   4.188 -0.1336 -0.1162  0.1343
 8469CL      CL25786   5.746   4.634   0.877  0.3872  0.2840 -0.0941
 8470CL      CL25787   4.362   5.467   5.910  0.3415 -0.2830  0.0662
 8471CL      CL25788   0.864   3.586   0.315  0.2039  0.0277  0.0721
 8472CL      CL25789   3.980   4.602   2.187 -0.2297  0.0976  0.2047
 8473CL      CL25790   4.886   0.776   4.275 -0.0414 -0.0076 -0.2499
 8474CL      CL25791   2.451   0.850   1.451 -0.1205 -0.1760  0.3066
 8475CL      CL25792   1.495   0.083   5.041 -0.1695 -0.0665  0.0280
 8476CL      CL25793   2.420   1.831   2.587 -0.0824  0.0169  0.0703
 8477CL      CL25794   3.910   0.140   1.780 -0.2507 -0.1020 -0.2423
 8478CL      CL25795   5.673   0.507   1.023 -0.2532 -0.2137  0.2401
 8479CL      CL25796   2.752   2.156   2.692 -0.0813  0.1999  0.1178
 8480CL      CL25797   5.193   1.752   5.967 -0.2279 -0.3136 -0.0823
 8481CL      CL25798   4.708   4.083   4.495 -0.1928  0.0787 -0.0413
 8482CL      CL25799   5.586   0.379   3.184  0.2196  0.1143 -0.0277
 8483CL      CL25800   1.177   3.545   1.329  0.4247  0.0726  0.2705
 8484CL      CL25801   2.338   3.227   4.740 -0.0539 -0.3069  0.1058
 8485CL      CL25802   6.302   4.934   1.959 -0.0076 -0.8032 -0.0552
 8486CL      CL25803   3.143   1.084   4.474 -0.7571 -0.4929 -0.1367
 8487CL      CL25804   0.103   4.907   6.375  0.6782 -0.1424 -0.0909
 8488CL      CL25805   5.470   6.005   5.333 -0.2198 -0.5490  0.3434
 8489CL      CL25806   4.691   4.218   6.167 -0.1571  0.2426  0.2539
 8490CL      CL25807   6.349   3.395   2.585 -0.1269 -0.0045 -0.2914
 8491CL      CL25808   0.868   4.840   4.270  0.2791  0.1203 -0.3008
 8492CL      CL25809   5.114   3.441   4.546  0.0210  0.1206 -0.3312
 8493CL      CL25810   6.246   2.984   4.007  0.1200 -0.4848  0.0263
 8494CL      CL25811   1.906   4.735   0.001  0.1193  0.0995  0.3887
 8495CL      CL25812   4.973   5.773   5.069  0.3401  0.4563 -0.0579
 8496CL      CL25813   5.615   2.925   3.091  0.4099 -0.4632  0.0876
 8497CL      CL25814   5.944   3.812   2.078 -0.5647  0.2437  0.1535
 8498CL      CL25815   0.318   3.846   4.577  0.0676 -0.0425  0.0522
 8499CL      CL25816   6.028   0.328   4.236  0.5292  0.2107 -0.1900
 8500CL      CL25817   5.381   4.960   4.894  0.2661  0.3070  0.0924
 8501CL      CL25818   1.205   4.997   3.862 -0.2239 -0.3800 -0.2081
 8502CL      CL25819   4.401   6.153   5.137 -0.2376 -0.3290  0.3651
 8503CL      CL25820   2.611   5.231   0.250  0.0148  0.0892 -0.0042
 8504CL      CL25821   6.024   4.746   4.562 -0.0473 -0.2574  0.1248
 8505CL      CL25822   4.596   6.163   2.022  0.0833 -0.2054 -0.2381
 8506CL      CL25823   5.629   2.325   1.246 -0.0883  0.2442  0.0957
 8507CL      CL25824   0.189   2.929   3.661 -0.2716  0.1321 -0.0194
   6.38212   6.38212   6.38212
