;
;   File g1dp_pamam.itp  was generated
;   By user: sairam (1000)
;   On host: sairam
;   At date: Thu. August  4 12:37:21 2023
;
;   This is a standalone topology file
;
;   Created by:
;   ParmEd:       amb2gro_top_gro.py, VERSION 3.4.1
;   Executable:   amb2gro_top_gro.py
;   Library dir:  /usr/local/gromacs/share/gromacs/top
;   Command line:
;     ./amb2gro_top_gro.py -p g1dp_pamam.prmtop -c g1dp_pamam.inpcrd -t g1dp_pamam.itp -g g1dp_pamam.gro -b g1dp_pamam.pdb
;

;[ defaults ]
;; nbfunc        comb-rule       gen-pairs       fudgeLJ fudgeQQ
;1               2               yes             0.5          0.83333333  
;
;[ atomtypes ]
;; name    at.num    mass    charge ptype  sigma      epsilon
;n4             7  14.010000  0.00000000  A     0.32499985        0.71128
;c3             6  12.010000  0.00000000  A     0.33996695      0.4577296
;c              6  12.010000  0.00000000  A     0.33996695       0.359824
;o              8  16.000000  0.00000000  A     0.29599219        0.87864
;hx             1   1.008000  0.00000000  A     0.19599772      0.0656888
;hc             1   1.008000  0.00000000  A     0.26495328      0.0656888
;hn             1   1.008000  0.00000000  A     0.10690785      0.0656888
;n              7  14.010000  0.00000000  A     0.32499985        0.71128
;h1             1   1.008000  0.00000000  A      0.2471353      0.0656888


[ moleculetype ]
; Name            nrexcl
g1dp_pamam          3

[ atoms ]
;   nr       type  resnr residue  atom   cgnr    charge       mass  typeB    chargeB      massB
; residue    1 aaa rtp aaa q 2.0
    1         n4      1    aaa     N1      1 -0.01815100  14.010000   ; qtot -0.018151
    2         c3      1    aaa     C1      2 0.01243000  12.010000   ; qtot -0.005721
    3         c3      1    aaa     C2      3 0.01243000  12.010000   ; qtot 0.006709
    4         n4      1    aaa     N2      4 -0.01815100  14.010000   ; qtot -0.011442
    5         c3      1    aaa     C3      5 -0.01431700  12.010000   ; qtot -0.025759
    6         c3      1    aaa     C4      6 -0.01431700  12.010000   ; qtot -0.040076
    7         c3      1    aaa     C5      7 -0.01431700  12.010000   ; qtot -0.054393
    8         c3      1    aaa     C6      8 -0.01431700  12.010000   ; qtot -0.068710
    9         c3      1    aaa     C7      9 -0.26758200  12.010000   ; qtot -0.336292
   10          c      1    aaa     C8     10 0.71337400  12.010000   ; qtot 0.377082
   11         c3      1    aaa     C9     11 -0.26758200  12.010000   ; qtot 0.109500
   12          c      1    aaa    C10     12 0.71337400  12.010000   ; qtot 0.822874
   13         c3      1    aaa    C11     13 -0.26758200  12.010000   ; qtot 0.555292
   14          c      1    aaa    C12     14 0.71337400  12.010000   ; qtot 1.268666
   15         c3      1    aaa    C13     15 -0.26758200  12.010000   ; qtot 1.001084
   16          c      1    aaa    C14     16 0.71337400  12.010000   ; qtot 1.714458
   17          o      1    aaa     O1     17 -0.55531800  16.000000   ; qtot 1.159140
   18          o      1    aaa     O2     18 -0.55531800  16.000000   ; qtot 0.603822
   19          o      1    aaa     O3     19 -0.55531800  16.000000   ; qtot 0.048504
   20          o      1    aaa     O4     20 -0.55531800  16.000000   ; qtot -0.506814
   21         hx      1    aaa     H1     21 0.08276100   1.008000   ; qtot -0.424053
   22         hx      1    aaa     H2     22 0.08276100   1.008000   ; qtot -0.341292
   23         hx      1    aaa     H3     23 0.08276100   1.008000   ; qtot -0.258531
   24         hx      1    aaa     H4     24 0.08276100   1.008000   ; qtot -0.175770
   25         hx      1    aaa     H5     25 0.10467000   1.008000   ; qtot -0.071100
   26         hx      1    aaa     H6     26 0.10467000   1.008000   ; qtot 0.033570
   27         hx      1    aaa     H7     27 0.10467000   1.008000   ; qtot 0.138240
   28         hx      1    aaa     H8     28 0.10467000   1.008000   ; qtot 0.242910
   29         hx      1    aaa     H9     29 0.10467000   1.008000   ; qtot 0.347580
   30         hx      1    aaa    H10     30 0.10467000   1.008000   ; qtot 0.452250
   31         hx      1    aaa    H11     31 0.10467000   1.008000   ; qtot 0.556920
   32         hx      1    aaa    H12     32 0.10467000   1.008000   ; qtot 0.661590
   33         hc      1    aaa    H13     33 0.11830200   1.008000   ; qtot 0.779892
   34         hc      1    aaa    H14     34 0.11830200   1.008000   ; qtot 0.898194
   35         hc      1    aaa    H15     35 0.11830200   1.008000   ; qtot 1.016496
   36         hc      1    aaa    H16     36 0.11830200   1.008000   ; qtot 1.134798
   37         hc      1    aaa    H17     37 0.11830200   1.008000   ; qtot 1.253100
   38         hc      1    aaa    H18     38 0.11830200   1.008000   ; qtot 1.371402
   39         hc      1    aaa    H19     39 0.11830200   1.008000   ; qtot 1.489704
   40         hc      1    aaa    H20     40 0.11830200   1.008000   ; qtot 1.608006
   41         hn      1    aaa    H37     41 0.19599700   1.008000   ; qtot 1.804003
   42         hn      1    aaa    H38     42 0.19599700   1.008000   ; qtot 2.000000
; residue    2 bbb rtp bbb q 1.0
   43         n4      2    bbb     N1     43 -0.02747900  14.010000   ; qtot 1.972521
   44         c3      2    bbb     C1     44 -0.05097600  12.010000   ; qtot 1.921545
   45         c3      2    bbb     C2     45 -0.05097600  12.010000   ; qtot 1.870569
   46         c3      2    bbb     C3     46 -0.18457900  12.010000   ; qtot 1.685990
   47          c      2    bbb     C4     47 0.67254400  12.010000   ; qtot 2.358534
   48         c3      2    bbb     C5     48 -0.18457900  12.010000   ; qtot 2.173955
   49          c      2    bbb     C6     49 0.67254400  12.010000   ; qtot 2.846499
   50         c3      2    bbb     C7     50 -0.02083000  12.010000   ; qtot 2.825669
   51         c3      2    bbb     C8     51 -0.03328100  12.010000   ; qtot 2.792388
   52          n      2    bbb     N2     52 -0.33303000  14.010000   ; qtot 2.459358
   53          o      2    bbb     O1     53 -0.52917200  16.000000   ; qtot 1.930186
   54          o      2    bbb     O2     54 -0.52917200  16.000000   ; qtot 1.401014
   55         hx      2    bbb     H1     55 0.11563300   1.008000   ; qtot 1.516647
   56         hx      2    bbb     H2     56 0.11563300   1.008000   ; qtot 1.632280
   57         hx      2    bbb     H3     57 0.11563300   1.008000   ; qtot 1.747913
   58         hx      2    bbb     H4     58 0.11563300   1.008000   ; qtot 1.863546
   59         hc      2    bbb     H5     59 0.08347900   1.008000   ; qtot 1.947025
   60         hc      2    bbb     H6     60 0.08347900   1.008000   ; qtot 2.030504
   61         hc      2    bbb     H7     61 0.08347900   1.008000   ; qtot 2.113983
   62         hc      2    bbb     H8     62 0.08347900   1.008000   ; qtot 2.197462
   63         hx      2    bbb     H9     63 0.07988000   1.008000   ; qtot 2.277342
   64         hx      2    bbb    H10     64 0.07988000   1.008000   ; qtot 2.357222
   65         h1      2    bbb    H11     65 0.10618100   1.008000   ; qtot 2.463403
   66         h1      2    bbb    H12     66 0.10618100   1.008000   ; qtot 2.569584
   67         hn      2    bbb    H13     67 0.25916100   1.008000   ; qtot 2.828745
   68         hn      2    bbb    H25     68 0.17125500   1.008000   ; qtot 3.000000
; residue    3 bbb rtp bbb q 1.0
   69         n4      3    bbb     N1     69 -0.02747900  14.010000   ; qtot 2.972521
   70         c3      3    bbb     C1     70 -0.05097600  12.010000   ; qtot 2.921545
   71         c3      3    bbb     C2     71 -0.05097600  12.010000   ; qtot 2.870569
   72         c3      3    bbb     C3     72 -0.18457900  12.010000   ; qtot 2.685990
   73          c      3    bbb     C4     73 0.67254400  12.010000   ; qtot 3.358534
   74         c3      3    bbb     C5     74 -0.18457900  12.010000   ; qtot 3.173955
   75          c      3    bbb     C6     75 0.67254400  12.010000   ; qtot 3.846499
   76         c3      3    bbb     C7     76 -0.02083000  12.010000   ; qtot 3.825669
   77         c3      3    bbb     C8     77 -0.03328100  12.010000   ; qtot 3.792388
   78          n      3    bbb     N2     78 -0.33303000  14.010000   ; qtot 3.459358
   79          o      3    bbb     O1     79 -0.52917200  16.000000   ; qtot 2.930186
   80          o      3    bbb     O2     80 -0.52917200  16.000000   ; qtot 2.401014
   81         hx      3    bbb     H1     81 0.11563300   1.008000   ; qtot 2.516647
   82         hx      3    bbb     H2     82 0.11563300   1.008000   ; qtot 2.632280
   83         hx      3    bbb     H3     83 0.11563300   1.008000   ; qtot 2.747913
   84         hx      3    bbb     H4     84 0.11563300   1.008000   ; qtot 2.863546
   85         hc      3    bbb     H5     85 0.08347900   1.008000   ; qtot 2.947025
   86         hc      3    bbb     H6     86 0.08347900   1.008000   ; qtot 3.030504
   87         hc      3    bbb     H7     87 0.08347900   1.008000   ; qtot 3.113983
   88         hc      3    bbb     H8     88 0.08347900   1.008000   ; qtot 3.197462
   89         hx      3    bbb     H9     89 0.07988000   1.008000   ; qtot 3.277342
   90         hx      3    bbb    H10     90 0.07988000   1.008000   ; qtot 3.357222
   91         h1      3    bbb    H11     91 0.10618100   1.008000   ; qtot 3.463403
   92         h1      3    bbb    H12     92 0.10618100   1.008000   ; qtot 3.569584
   93         hn      3    bbb    H13     93 0.25916100   1.008000   ; qtot 3.828745
   94         hn      3    bbb    H25     94 0.17125500   1.008000   ; qtot 4.000000
; residue    4 bbb rtp bbb q 1.0
   95         n4      4    bbb     N1     95 -0.02747900  14.010000   ; qtot 3.972521
   96         c3      4    bbb     C1     96 -0.05097600  12.010000   ; qtot 3.921545
   97         c3      4    bbb     C2     97 -0.05097600  12.010000   ; qtot 3.870569
   98         c3      4    bbb     C3     98 -0.18457900  12.010000   ; qtot 3.685990
   99          c      4    bbb     C4     99 0.67254400  12.010000   ; qtot 4.358534
  100         c3      4    bbb     C5    100 -0.18457900  12.010000   ; qtot 4.173955
  101          c      4    bbb     C6    101 0.67254400  12.010000   ; qtot 4.846499
  102         c3      4    bbb     C7    102 -0.02083000  12.010000   ; qtot 4.825669
  103         c3      4    bbb     C8    103 -0.03328100  12.010000   ; qtot 4.792388
  104          n      4    bbb     N2    104 -0.33303000  14.010000   ; qtot 4.459358
  105          o      4    bbb     O1    105 -0.52917200  16.000000   ; qtot 3.930186
  106          o      4    bbb     O2    106 -0.52917200  16.000000   ; qtot 3.401014
  107         hx      4    bbb     H1    107 0.11563300   1.008000   ; qtot 3.516647
  108         hx      4    bbb     H2    108 0.11563300   1.008000   ; qtot 3.632280
  109         hx      4    bbb     H3    109 0.11563300   1.008000   ; qtot 3.747913
  110         hx      4    bbb     H4    110 0.11563300   1.008000   ; qtot 3.863546
  111         hc      4    bbb     H5    111 0.08347900   1.008000   ; qtot 3.947025
  112         hc      4    bbb     H6    112 0.08347900   1.008000   ; qtot 4.030504
  113         hc      4    bbb     H7    113 0.08347900   1.008000   ; qtot 4.113983
  114         hc      4    bbb     H8    114 0.08347900   1.008000   ; qtot 4.197462
  115         hx      4    bbb     H9    115 0.07988000   1.008000   ; qtot 4.277342
  116         hx      4    bbb    H10    116 0.07988000   1.008000   ; qtot 4.357222
  117         h1      4    bbb    H11    117 0.10618100   1.008000   ; qtot 4.463403
  118         h1      4    bbb    H12    118 0.10618100   1.008000   ; qtot 4.569584
  119         hn      4    bbb    H13    119 0.25916100   1.008000   ; qtot 4.828745
  120         hn      4    bbb    H25    120 0.17125500   1.008000   ; qtot 5.000000
; residue    5 bbb rtp bbb q 1.0
  121         n4      5    bbb     N1    121 -0.02747900  14.010000   ; qtot 4.972521
  122         c3      5    bbb     C1    122 -0.05097600  12.010000   ; qtot 4.921545
  123         c3      5    bbb     C2    123 -0.05097600  12.010000   ; qtot 4.870569
  124         c3      5    bbb     C3    124 -0.18457900  12.010000   ; qtot 4.685990
  125          c      5    bbb     C4    125 0.67254400  12.010000   ; qtot 5.358534
  126         c3      5    bbb     C5    126 -0.18457900  12.010000   ; qtot 5.173955
  127          c      5    bbb     C6    127 0.67254400  12.010000   ; qtot 5.846499
  128         c3      5    bbb     C7    128 -0.02083000  12.010000   ; qtot 5.825669
  129         c3      5    bbb     C8    129 -0.03328100  12.010000   ; qtot 5.792388
  130          n      5    bbb     N2    130 -0.33303000  14.010000   ; qtot 5.459358
  131          o      5    bbb     O1    131 -0.52917200  16.000000   ; qtot 4.930186
  132          o      5    bbb     O2    132 -0.52917200  16.000000   ; qtot 4.401014
  133         hx      5    bbb     H1    133 0.11563300   1.008000   ; qtot 4.516647
  134         hx      5    bbb     H2    134 0.11563300   1.008000   ; qtot 4.632280
  135         hx      5    bbb     H3    135 0.11563300   1.008000   ; qtot 4.747913
  136         hx      5    bbb     H4    136 0.11563300   1.008000   ; qtot 4.863546
  137         hc      5    bbb     H5    137 0.08347900   1.008000   ; qtot 4.947025
  138         hc      5    bbb     H6    138 0.08347900   1.008000   ; qtot 5.030504
  139         hc      5    bbb     H7    139 0.08347900   1.008000   ; qtot 5.113983
  140         hc      5    bbb     H8    140 0.08347900   1.008000   ; qtot 5.197462
  141         hx      5    bbb     H9    141 0.07988000   1.008000   ; qtot 5.277342
  142         hx      5    bbb    H10    142 0.07988000   1.008000   ; qtot 5.357222
  143         h1      5    bbb    H11    143 0.10618100   1.008000   ; qtot 5.463403
  144         h1      5    bbb    H12    144 0.10618100   1.008000   ; qtot 5.569584
  145         hn      5    bbb    H13    145 0.25916100   1.008000   ; qtot 5.828745
  146         hn      5    bbb    H25    146 0.17125500   1.008000   ; qtot 6.000000
; residue    6 ccc rtp ccc q 1.0
  147          n      6    ccc     N1    147 -0.26410000  14.010000   ; qtot 5.735900
  148         hn      6    ccc     H4    148 0.27630000   1.008000   ; qtot 6.012200
  149         c3      6    ccc     C3    149 -0.17900000  12.010000   ; qtot 5.833200
  150         c3      6    ccc     C4    150 0.08000000  12.010000   ; qtot 5.913200
  151         h1      6    ccc     H5    151 0.13870000   1.008000   ; qtot 6.051900
  152         h1      6    ccc     H6    152 0.13870000   1.008000   ; qtot 6.190600
  153         hx      6    ccc     H7    153 0.07790000   1.008000   ; qtot 6.268500
  154         hx      6    ccc     H8    154 0.07790000   1.008000   ; qtot 6.346400
  155         n4      6    ccc     N2    155 -0.16780000  14.010000   ; qtot 6.178600
  156         hn      6    ccc     H9    156 0.27380000   1.008000   ; qtot 6.452400
  157         hn      6    ccc    H10    157 0.27380000   1.008000   ; qtot 6.726200
  158         hn      6    ccc    H11    158 0.27380000   1.008000   ; qtot 7.000000
; residue    7 ccc rtp ccc q 1.0
  159          n      7    ccc     N1    159 -0.26410000  14.010000   ; qtot 6.735900
  160         hn      7    ccc     H4    160 0.27630000   1.008000   ; qtot 7.012200
  161         c3      7    ccc     C3    161 -0.17900000  12.010000   ; qtot 6.833200
  162         c3      7    ccc     C4    162 0.08000000  12.010000   ; qtot 6.913200
  163         h1      7    ccc     H5    163 0.13870000   1.008000   ; qtot 7.051900
  164         h1      7    ccc     H6    164 0.13870000   1.008000   ; qtot 7.190600
  165         hx      7    ccc     H7    165 0.07790000   1.008000   ; qtot 7.268500
  166         hx      7    ccc     H8    166 0.07790000   1.008000   ; qtot 7.346400
  167         n4      7    ccc     N2    167 -0.16780000  14.010000   ; qtot 7.178600
  168         hn      7    ccc     H9    168 0.27380000   1.008000   ; qtot 7.452400
  169         hn      7    ccc    H10    169 0.27380000   1.008000   ; qtot 7.726200
  170         hn      7    ccc    H11    170 0.27380000   1.008000   ; qtot 8.000000
; residue    8 ccc rtp ccc q 1.0
  171          n      8    ccc     N1    171 -0.26410000  14.010000   ; qtot 7.735900
  172         hn      8    ccc     H4    172 0.27630000   1.008000   ; qtot 8.012200
  173         c3      8    ccc     C3    173 -0.17900000  12.010000   ; qtot 7.833200
  174         c3      8    ccc     C4    174 0.08000000  12.010000   ; qtot 7.913200
  175         h1      8    ccc     H5    175 0.13870000   1.008000   ; qtot 8.051900
  176         h1      8    ccc     H6    176 0.13870000   1.008000   ; qtot 8.190600
  177         hx      8    ccc     H7    177 0.07790000   1.008000   ; qtot 8.268500
  178         hx      8    ccc     H8    178 0.07790000   1.008000   ; qtot 8.346400
  179         n4      8    ccc     N2    179 -0.16780000  14.010000   ; qtot 8.178600
  180         hn      8    ccc     H9    180 0.27380000   1.008000   ; qtot 8.452400
  181         hn      8    ccc    H10    181 0.27380000   1.008000   ; qtot 8.726200
  182         hn      8    ccc    H11    182 0.27380000   1.008000   ; qtot 9.000000
; residue    9 ccc rtp ccc q 1.0
  183          n      9    ccc     N1    183 -0.26410000  14.010000   ; qtot 8.735900
  184         hn      9    ccc     H4    184 0.27630000   1.008000   ; qtot 9.012200
  185         c3      9    ccc     C3    185 -0.17900000  12.010000   ; qtot 8.833200
  186         c3      9    ccc     C4    186 0.08000000  12.010000   ; qtot 8.913200
  187         h1      9    ccc     H5    187 0.13870000   1.008000   ; qtot 9.051900
  188         h1      9    ccc     H6    188 0.13870000   1.008000   ; qtot 9.190600
  189         hx      9    ccc     H7    189 0.07790000   1.008000   ; qtot 9.268500
  190         hx      9    ccc     H8    190 0.07790000   1.008000   ; qtot 9.346400
  191         n4      9    ccc     N2    191 -0.16780000  14.010000   ; qtot 9.178600
  192         hn      9    ccc     H9    192 0.27380000   1.008000   ; qtot 9.452400
  193         hn      9    ccc    H10    193 0.27380000   1.008000   ; qtot 9.726200
  194         hn      9    ccc    H11    194 0.27380000   1.008000   ; qtot 10.000000
; residue   10 ccc rtp ccc q 1.0
  195          n     10    ccc     N1    195 -0.26410000  14.010000   ; qtot 9.735900
  196         hn     10    ccc     H4    196 0.27630000   1.008000   ; qtot 10.012200
  197         c3     10    ccc     C3    197 -0.17900000  12.010000   ; qtot 9.833200
  198         c3     10    ccc     C4    198 0.08000000  12.010000   ; qtot 9.913200
  199         h1     10    ccc     H5    199 0.13870000   1.008000   ; qtot 10.051900
  200         h1     10    ccc     H6    200 0.13870000   1.008000   ; qtot 10.190600
  201         hx     10    ccc     H7    201 0.07790000   1.008000   ; qtot 10.268500
  202         hx     10    ccc     H8    202 0.07790000   1.008000   ; qtot 10.346400
  203         n4     10    ccc     N2    203 -0.16780000  14.010000   ; qtot 10.178600
  204         hn     10    ccc     H9    204 0.27380000   1.008000   ; qtot 10.452400
  205         hn     10    ccc    H10    205 0.27380000   1.008000   ; qtot 10.726200
  206         hn     10    ccc    H11    206 0.27380000   1.008000   ; qtot 11.000000
; residue   11 ccc rtp ccc q 1.0
  207          n     11    ccc     N1    207 -0.26410000  14.010000   ; qtot 10.735900
  208         hn     11    ccc     H4    208 0.27630000   1.008000   ; qtot 11.012200
  209         c3     11    ccc     C3    209 -0.17900000  12.010000   ; qtot 10.833200
  210         c3     11    ccc     C4    210 0.08000000  12.010000   ; qtot 10.913200
  211         h1     11    ccc     H5    211 0.13870000   1.008000   ; qtot 11.051900
  212         h1     11    ccc     H6    212 0.13870000   1.008000   ; qtot 11.190600
  213         hx     11    ccc     H7    213 0.07790000   1.008000   ; qtot 11.268500
  214         hx     11    ccc     H8    214 0.07790000   1.008000   ; qtot 11.346400
  215         n4     11    ccc     N2    215 -0.16780000  14.010000   ; qtot 11.178600
  216         hn     11    ccc     H9    216 0.27380000   1.008000   ; qtot 11.452400
  217         hn     11    ccc    H10    217 0.27380000   1.008000   ; qtot 11.726200
  218         hn     11    ccc    H11    218 0.27380000   1.008000   ; qtot 12.000000
; residue   12 ccc rtp ccc q 1.0
  219          n     12    ccc     N1    219 -0.26410000  14.010000   ; qtot 11.735900
  220         hn     12    ccc     H4    220 0.27630000   1.008000   ; qtot 12.012200
  221         c3     12    ccc     C3    221 -0.17900000  12.010000   ; qtot 11.833200
  222         c3     12    ccc     C4    222 0.08000000  12.010000   ; qtot 11.913200
  223         h1     12    ccc     H5    223 0.13870000   1.008000   ; qtot 12.051900
  224         h1     12    ccc     H6    224 0.13870000   1.008000   ; qtot 12.190600
  225         hx     12    ccc     H7    225 0.07790000   1.008000   ; qtot 12.268500
  226         hx     12    ccc     H8    226 0.07790000   1.008000   ; qtot 12.346400
  227         n4     12    ccc     N2    227 -0.16780000  14.010000   ; qtot 12.178600
  228         hn     12    ccc     H9    228 0.27380000   1.008000   ; qtot 12.452400
  229         hn     12    ccc    H10    229 0.27380000   1.008000   ; qtot 12.726200
  230         hn     12    ccc    H11    230 0.27380000   1.008000   ; qtot 13.000000
; residue   13 ccc rtp ccc q 1.0
  231          n     13    ccc     N1    231 -0.26410000  14.010000   ; qtot 12.735900
  232         hn     13    ccc     H4    232 0.27630000   1.008000   ; qtot 13.012200
  233         c3     13    ccc     C3    233 -0.17900000  12.010000   ; qtot 12.833200
  234         c3     13    ccc     C4    234 0.08000000  12.010000   ; qtot 12.913200
  235         h1     13    ccc     H5    235 0.13870000   1.008000   ; qtot 13.051900
  236         h1     13    ccc     H6    236 0.13870000   1.008000   ; qtot 13.190600
  237         hx     13    ccc     H7    237 0.07790000   1.008000   ; qtot 13.268500
  238         hx     13    ccc     H8    238 0.07790000   1.008000   ; qtot 13.346400
  239         n4     13    ccc     N2    239 -0.16780000  14.010000   ; qtot 13.178600
  240         hn     13    ccc     H9    240 0.27380000   1.008000   ; qtot 13.452400
  241         hn     13    ccc    H10    241 0.27380000   1.008000   ; qtot 13.726200
  242         hn     13    ccc    H11    242 0.27380000   1.008000   ; qtot 14.000000

[ bonds ]
;    ai     aj funct         c0         c1         c2         c3
      1      2     1   0.15110 237065.440000
      1      7     1   0.15110 237065.440000
      1      8     1   0.15110 237065.440000
      2      3     1   0.15375 251793.120000
      3      4     1   0.15110 237065.440000
      4      5     1   0.15110 237065.440000
      4      6     1   0.15110 237065.440000
      5     11     1   0.15375 251793.120000
      6      9     1   0.15375 251793.120000
      7     13     1   0.15375 251793.120000
      8     15     1   0.15375 251793.120000
      9     10     1   0.15241 261918.400000
     10     18     1   0.12183 533627.360000
     10     52     1   0.13789 357815.680000
     11     12     1   0.15241 261918.400000
     12     17     1   0.12183 533627.360000
     12     78     1   0.13789 357815.680000
     13     14     1   0.15241 261918.400000
     14     20     1   0.12183 533627.360000
     14    104     1   0.13789 357815.680000
     15     16     1   0.15241 261918.400000
     16     19     1   0.12183 533627.360000
     16    130     1   0.13789 357815.680000
     43     44     1   0.15110 237065.440000
     43     45     1   0.15110 237065.440000
     43     50     1   0.15110 237065.440000
     44     46     1   0.15375 251793.120000
     45     48     1   0.15375 251793.120000
     46     47     1   0.15241 261918.400000
     47    147     1   0.13789 357815.680000
     47     53     1   0.12183 533627.360000
     48     49     1   0.15241 261918.400000
     49     54     1   0.12183 533627.360000
     49    159     1   0.13789 357815.680000
     50     51     1   0.15375 251793.120000
     51     52     1   0.14619 275056.160000
     69     70     1   0.15110 237065.440000
     69     71     1   0.15110 237065.440000
     69     76     1   0.15110 237065.440000
     70     72     1   0.15375 251793.120000
     71     74     1   0.15375 251793.120000
     72     73     1   0.15241 261918.400000
     73    171     1   0.13789 357815.680000
     73     79     1   0.12183 533627.360000
     74     75     1   0.15241 261918.400000
     75     80     1   0.12183 533627.360000
     75    183     1   0.13789 357815.680000
     76     77     1   0.15375 251793.120000
     77     78     1   0.14619 275056.160000
     95     96     1   0.15110 237065.440000
     95     97     1   0.15110 237065.440000
     95    102     1   0.15110 237065.440000
     96     98     1   0.15375 251793.120000
     97    100     1   0.15375 251793.120000
     98     99     1   0.15241 261918.400000
     99    195     1   0.13789 357815.680000
     99    105     1   0.12183 533627.360000
    100    101     1   0.15241 261918.400000
    101    106     1   0.12183 533627.360000
    101    207     1   0.13789 357815.680000
    102    103     1   0.15375 251793.120000
    103    104     1   0.14619 275056.160000
    121    122     1   0.15110 237065.440000
    121    123     1   0.15110 237065.440000
    121    128     1   0.15110 237065.440000
    122    124     1   0.15375 251793.120000
    123    126     1   0.15375 251793.120000
    124    125     1   0.15241 261918.400000
    125    219     1   0.13789 357815.680000
    125    131     1   0.12183 533627.360000
    126    127     1   0.15241 261918.400000
    127    231     1   0.13789 357815.680000
    127    132     1   0.12183 533627.360000
    128    129     1   0.15375 251793.120000
    129    130     1   0.14619 275056.160000
    147    149     1   0.14619 275056.160000
    149    150     1   0.15375 251793.120000
    150    155     1   0.15110 237065.440000
    159    161     1   0.14619 275056.160000
    161    162     1   0.15375 251793.120000
    162    167     1   0.15110 237065.440000
    171    173     1   0.14619 275056.160000
    173    174     1   0.15375 251793.120000
    174    179     1   0.15110 237065.440000
    183    185     1   0.14619 275056.160000
    185    186     1   0.15375 251793.120000
    186    191     1   0.15110 237065.440000
    195    197     1   0.14619 275056.160000
    197    198     1   0.15375 251793.120000
    198    203     1   0.15110 237065.440000
    207    209     1   0.14619 275056.160000
    209    210     1   0.15375 251793.120000
    210    215     1   0.15110 237065.440000
    219    221     1   0.14619 275056.160000
    221    222     1   0.15375 251793.120000
    222    227     1   0.15110 237065.440000
    231    233     1   0.14619 275056.160000
    233    234     1   0.15375 251793.120000
    234    239     1   0.15110 237065.440000
      1     41     1   0.10304 312293.760000
      2     21     1   0.10910 283424.160000
      2     22     1   0.10910 283424.160000
      3     23     1   0.10910 283424.160000
      3     24     1   0.10910 283424.160000
      4     42     1   0.10304 312293.760000
      5     25     1   0.10910 283424.160000
      5     26     1   0.10910 283424.160000
      6     27     1   0.10910 283424.160000
      6     28     1   0.10910 283424.160000
      7     29     1   0.10910 283424.160000
      7     30     1   0.10910 283424.160000
      8     31     1   0.10910 283424.160000
      8     32     1   0.10910 283424.160000
      9     33     1   0.10969 276646.080000
      9     34     1   0.10969 276646.080000
     11     35     1   0.10969 276646.080000
     11     36     1   0.10969 276646.080000
     13     37     1   0.10969 276646.080000
     13     38     1   0.10969 276646.080000
     15     39     1   0.10969 276646.080000
     15     40     1   0.10969 276646.080000
     43     68     1   0.10304 312293.760000
     44     55     1   0.10910 283424.160000
     44     56     1   0.10910 283424.160000
     45     57     1   0.10910 283424.160000
     45     58     1   0.10910 283424.160000
     46     59     1   0.10969 276646.080000
     46     60     1   0.10969 276646.080000
     48     61     1   0.10969 276646.080000
     48     62     1   0.10969 276646.080000
     50     63     1   0.10910 283424.160000
     50     64     1   0.10910 283424.160000
     51     65     1   0.10969 276646.080000
     51     66     1   0.10969 276646.080000
     52     67     1   0.10129 337397.760000
     69     94     1   0.10304 312293.760000
     70     81     1   0.10910 283424.160000
     70     82     1   0.10910 283424.160000
     71     83     1   0.10910 283424.160000
     71     84     1   0.10910 283424.160000
     72     85     1   0.10969 276646.080000
     72     86     1   0.10969 276646.080000
     74     87     1   0.10969 276646.080000
     74     88     1   0.10969 276646.080000
     76     89     1   0.10910 283424.160000
     76     90     1   0.10910 283424.160000
     77     91     1   0.10969 276646.080000
     77     92     1   0.10969 276646.080000
     78     93     1   0.10129 337397.760000
     95    120     1   0.10304 312293.760000
     96    107     1   0.10910 283424.160000
     96    108     1   0.10910 283424.160000
     97    109     1   0.10910 283424.160000
     97    110     1   0.10910 283424.160000
     98    111     1   0.10969 276646.080000
     98    112     1   0.10969 276646.080000
    100    113     1   0.10969 276646.080000
    100    114     1   0.10969 276646.080000
    102    115     1   0.10910 283424.160000
    102    116     1   0.10910 283424.160000
    103    117     1   0.10969 276646.080000
    103    118     1   0.10969 276646.080000
    104    119     1   0.10129 337397.760000
    121    146     1   0.10304 312293.760000
    122    133     1   0.10910 283424.160000
    122    134     1   0.10910 283424.160000
    123    135     1   0.10910 283424.160000
    123    136     1   0.10910 283424.160000
    124    137     1   0.10969 276646.080000
    124    138     1   0.10969 276646.080000
    126    139     1   0.10969 276646.080000
    126    140     1   0.10969 276646.080000
    128    141     1   0.10910 283424.160000
    128    142     1   0.10910 283424.160000
    129    143     1   0.10969 276646.080000
    129    144     1   0.10969 276646.080000
    130    145     1   0.10129 337397.760000
    147    148     1   0.10129 337397.760000
    149    151     1   0.10969 276646.080000
    149    152     1   0.10969 276646.080000
    150    153     1   0.10910 283424.160000
    150    154     1   0.10910 283424.160000
    155    156     1   0.10304 312293.760000
    155    157     1   0.10304 312293.760000
    155    158     1   0.10304 312293.760000
    159    160     1   0.10129 337397.760000
    161    163     1   0.10969 276646.080000
    161    164     1   0.10969 276646.080000
    162    165     1   0.10910 283424.160000
    162    166     1   0.10910 283424.160000
    167    168     1   0.10304 312293.760000
    167    169     1   0.10304 312293.760000
    167    170     1   0.10304 312293.760000
    171    172     1   0.10129 337397.760000
    173    175     1   0.10969 276646.080000
    173    176     1   0.10969 276646.080000
    174    177     1   0.10910 283424.160000
    174    178     1   0.10910 283424.160000
    179    180     1   0.10304 312293.760000
    179    181     1   0.10304 312293.760000
    179    182     1   0.10304 312293.760000
    183    184     1   0.10129 337397.760000
    185    187     1   0.10969 276646.080000
    185    188     1   0.10969 276646.080000
    186    189     1   0.10910 283424.160000
    186    190     1   0.10910 283424.160000
    191    192     1   0.10304 312293.760000
    191    193     1   0.10304 312293.760000
    191    194     1   0.10304 312293.760000
    195    196     1   0.10129 337397.760000
    197    199     1   0.10969 276646.080000
    197    200     1   0.10969 276646.080000
    198    201     1   0.10910 283424.160000
    198    202     1   0.10910 283424.160000
    203    204     1   0.10304 312293.760000
    203    205     1   0.10304 312293.760000
    203    206     1   0.10304 312293.760000
    207    208     1   0.10129 337397.760000
    209    211     1   0.10969 276646.080000
    209    212     1   0.10969 276646.080000
    210    213     1   0.10910 283424.160000
    210    214     1   0.10910 283424.160000
    215    216     1   0.10304 312293.760000
    215    217     1   0.10304 312293.760000
    215    218     1   0.10304 312293.760000
    219    220     1   0.10129 337397.760000
    221    223     1   0.10969 276646.080000
    221    224     1   0.10969 276646.080000
    222    225     1   0.10910 283424.160000
    222    226     1   0.10910 283424.160000
    227    228     1   0.10304 312293.760000
    227    229     1   0.10304 312293.760000
    227    230     1   0.10304 312293.760000
    231    232     1   0.10129 337397.760000
    233    235     1   0.10969 276646.080000
    233    236     1   0.10969 276646.080000
    234    237     1   0.10910 283424.160000
    234    238     1   0.10910 283424.160000
    239    240     1   0.10304 312293.760000
    239    241     1   0.10304 312293.760000
    239    242     1   0.10304 312293.760000

[ pairs ]
;    ai     aj funct         c0         c1         c2         c3
      1      4     1
      1     14     1
      1     16     1
      2     13     1
      2     15     1
      2      5     1
      2      6     1
      7      3     1
      8      3     1
      3     11     1
      3      9     1
      4     12     1
      4     10     1
      5      9     1
      5     17     1
      5     78     1
      6     11     1
      6     18     1
      6     52     1
      7     15     1
      7     20     1
      7    104     1
      8     13     1
      8     19     1
      8    130     1
      9     51     1
     10     50     1
     11     77     1
     12     76     1
     13    103     1
     14    102     1
     15    129     1
     16    128     1
     17     77     1
     18     51     1
     19    129     1
     20    103     1
     43     47     1
     43     49     1
     43     52     1
     44     48     1
     44     51     1
     44    147     1
     44     53     1
     45     46     1
     45     51     1
     45     54     1
     45    159     1
     46     50     1
     46    149     1
     47    150     1
     48     50     1
     48    161     1
     49    162     1
     53    149     1
     54    161     1
     69     73     1
     69     75     1
     69     78     1
     70     74     1
     70     77     1
     70    171     1
     70     79     1
     71     72     1
     71     77     1
     71     80     1
     71    183     1
     72     76     1
     72    173     1
     73    174     1
     74     76     1
     74    185     1
     75    186     1
     79    173     1
     80    185     1
     95     99     1
     95    101     1
     95    104     1
     96    100     1
     96    103     1
     96    195     1
     96    105     1
     97     98     1
     97    103     1
     97    106     1
     97    207     1
     98    102     1
     98    197     1
     99    198     1
    100    102     1
    100    209     1
    101    210     1
    105    197     1
    106    209     1
    121    125     1
    121    127     1
    121    130     1
    122    126     1
    122    129     1
    122    219     1
    122    131     1
    123    124     1
    123    129     1
    123    231     1
    123    132     1
    124    128     1
    124    221     1
    125    222     1
    126    128     1
    126    233     1
    127    234     1
    131    221     1
    132    233     1
    147    155     1
    159    167     1
    171    179     1
    183    191     1
    195    203     1
    207    215     1
    219    227     1
    231    239     1
      1     23     1
      1     24     1
      1     37     1
      1     38     1
      1     39     1
      1     40     1
      2     29     1
      2     30     1
      2     31     1
      2     32     1
      2     42     1
     41      3     1
      3     25     1
      3     26     1
      3     27     1
      3     28     1
      4     21     1
      4     22     1
      4     35     1
      4     36     1
      4     33     1
      4     34     1
      5     23     1
      5     24     1
      5     27     1
      5     28     1
      6     23     1
      6     24     1
      6     25     1
      6     26     1
      7     21     1
      7     22     1
      7     31     1
      7     32     1
      8     21     1
      8     22     1
      8     29     1
      8     30     1
      9     42     1
      9     67     1
     10     27     1
     10     28     1
     10     65     1
     10     66     1
     11     42     1
     11     93     1
     12     25     1
     12     26     1
     12     91     1
     12     92     1
     41     13     1
     13    119     1
     14     29     1
     14     30     1
     14    117     1
     14    118     1
     41     15     1
     15    145     1
     16     31     1
     16     32     1
     16    143     1
     16    144     1
     17     35     1
     17     36     1
     17     93     1
     18     33     1
     18     34     1
     18     67     1
     19     39     1
     19     40     1
     19    145     1
     20     37     1
     20     38     1
     20    119     1
     41     21     1
     21     23     1
     21     24     1
     41     22     1
     22     23     1
     22     24     1
     23     42     1
     24     42     1
     25     42     1
     25     35     1
     25     36     1
     26     42     1
     26     35     1
     26     36     1
     27     42     1
     27     33     1
     27     34     1
     28     42     1
     28     33     1
     28     34     1
     41     29     1
     29     37     1
     29     38     1
     41     30     1
     30     37     1
     30     38     1
     41     31     1
     31     39     1
     31     40     1
     41     32     1
     32     39     1
     32     40     1
     33     52     1
     34     52     1
     35     78     1
     36     78     1
     37    104     1
     38    104     1
     39    130     1
     40    130     1
     43     59     1
     43     60     1
     43     61     1
     43     62     1
     43     65     1
     43     66     1
     44     57     1
     44     58     1
     44     63     1
     44     64     1
     45     55     1
     45     56     1
     45     63     1
     45     64     1
     46     68     1
     46    148     1
     47     55     1
     47     56     1
     47    151     1
     47    152     1
     48     68     1
     48    160     1
     49     57     1
     49     58     1
     49    163     1
     49    164     1
     50     55     1
     50     56     1
     50     57     1
     50     58     1
     50     67     1
     51     68     1
     52     63     1
     52     64     1
     53     59     1
     53     60     1
     53    148     1
     54     61     1
     54     62     1
     54    160     1
     55     68     1
     55     59     1
     55     60     1
     56     68     1
     56     59     1
     56     60     1
     57     68     1
     57     61     1
     57     62     1
     58     68     1
     58     61     1
     58     62     1
     59    147     1
     60    147     1
     61    159     1
     62    159     1
     63     68     1
     63     65     1
     63     66     1
     64     68     1
     64     65     1
     64     66     1
     65     67     1
     66     67     1
     69     85     1
     69     86     1
     69     87     1
     69     88     1
     69     91     1
     69     92     1
     70     83     1
     70     84     1
     70     89     1
     70     90     1
     71     81     1
     71     82     1
     71     89     1
     71     90     1
     72     94     1
     72    172     1
     73     81     1
     73     82     1
     73    175     1
     73    176     1
     74     94     1
     74    184     1
     75     83     1
     75     84     1
     75    187     1
     75    188     1
     76     81     1
     76     82     1
     76     83     1
     76     84     1
     76     93     1
     77     94     1
     78     89     1
     78     90     1
     79     85     1
     79     86     1
     79    172     1
     80     87     1
     80     88     1
     80    184     1
     81     94     1
     81     85     1
     81     86     1
     82     94     1
     82     85     1
     82     86     1
     83     94     1
     83     87     1
     83     88     1
     84     94     1
     84     87     1
     84     88     1
     85    171     1
     86    171     1
     87    183     1
     88    183     1
     89     94     1
     89     91     1
     89     92     1
     90     94     1
     90     91     1
     90     92     1
     91     93     1
     92     93     1
     95    111     1
     95    112     1
     95    113     1
     95    114     1
     95    117     1
     95    118     1
     96    109     1
     96    110     1
     96    115     1
     96    116     1
     97    107     1
     97    108     1
     97    115     1
     97    116     1
     98    120     1
     98    196     1
     99    107     1
     99    108     1
     99    199     1
     99    200     1
    100    120     1
    100    208     1
    101    109     1
    101    110     1
    101    211     1
    101    212     1
    102    107     1
    102    108     1
    102    109     1
    102    110     1
    102    119     1
    103    120     1
    104    115     1
    104    116     1
    105    111     1
    105    112     1
    105    196     1
    106    113     1
    106    114     1
    106    208     1
    107    120     1
    107    111     1
    107    112     1
    108    120     1
    108    111     1
    108    112     1
    109    120     1
    109    113     1
    109    114     1
    110    120     1
    110    113     1
    110    114     1
    111    195     1
    112    195     1
    113    207     1
    114    207     1
    115    120     1
    115    117     1
    115    118     1
    116    120     1
    116    117     1
    116    118     1
    117    119     1
    118    119     1
    121    137     1
    121    138     1
    121    139     1
    121    140     1
    121    143     1
    121    144     1
    122    135     1
    122    136     1
    122    141     1
    122    142     1
    123    133     1
    123    134     1
    123    141     1
    123    142     1
    124    146     1
    124    220     1
    125    133     1
    125    134     1
    125    223     1
    125    224     1
    126    146     1
    126    232     1
    127    135     1
    127    136     1
    127    235     1
    127    236     1
    128    133     1
    128    134     1
    128    135     1
    128    136     1
    128    145     1
    129    146     1
    130    141     1
    130    142     1
    131    137     1
    131    138     1
    131    220     1
    132    139     1
    132    140     1
    132    232     1
    133    146     1
    133    137     1
    133    138     1
    134    146     1
    134    137     1
    134    138     1
    135    146     1
    135    139     1
    135    140     1
    136    146     1
    136    139     1
    136    140     1
    137    219     1
    138    219     1
    139    231     1
    140    231     1
    141    146     1
    141    143     1
    141    144     1
    142    146     1
    142    143     1
    142    144     1
    143    145     1
    144    145     1
    147    153     1
    147    154     1
    148    150     1
    148    151     1
    148    152     1
    149    156     1
    149    157     1
    149    158     1
    151    155     1
    151    153     1
    151    154     1
    152    155     1
    152    153     1
    152    154     1
    153    156     1
    153    157     1
    153    158     1
    154    156     1
    154    157     1
    154    158     1
    159    165     1
    159    166     1
    160    162     1
    160    163     1
    160    164     1
    161    168     1
    161    169     1
    161    170     1
    163    167     1
    163    165     1
    163    166     1
    164    167     1
    164    165     1
    164    166     1
    165    168     1
    165    169     1
    165    170     1
    166    168     1
    166    169     1
    166    170     1
    171    177     1
    171    178     1
    172    174     1
    172    175     1
    172    176     1
    173    180     1
    173    181     1
    173    182     1
    175    179     1
    175    177     1
    175    178     1
    176    179     1
    176    177     1
    176    178     1
    177    180     1
    177    181     1
    177    182     1
    178    180     1
    178    181     1
    178    182     1
    183    189     1
    183    190     1
    184    186     1
    184    187     1
    184    188     1
    185    192     1
    185    193     1
    185    194     1
    187    191     1
    187    189     1
    187    190     1
    188    191     1
    188    189     1
    188    190     1
    189    192     1
    189    193     1
    189    194     1
    190    192     1
    190    193     1
    190    194     1
    195    201     1
    195    202     1
    196    198     1
    196    199     1
    196    200     1
    197    204     1
    197    205     1
    197    206     1
    199    203     1
    199    201     1
    199    202     1
    200    203     1
    200    201     1
    200    202     1
    201    204     1
    201    205     1
    201    206     1
    202    204     1
    202    205     1
    202    206     1
    207    213     1
    207    214     1
    208    210     1
    208    211     1
    208    212     1
    209    216     1
    209    217     1
    209    218     1
    211    215     1
    211    213     1
    211    214     1
    212    215     1
    212    213     1
    212    214     1
    213    216     1
    213    217     1
    213    218     1
    214    216     1
    214    217     1
    214    218     1
    219    225     1
    219    226     1
    220    222     1
    220    223     1
    220    224     1
    221    228     1
    221    229     1
    221    230     1
    223    227     1
    223    225     1
    223    226     1
    224    227     1
    224    225     1
    224    226     1
    225    228     1
    225    229     1
    225    230     1
    226    228     1
    226    229     1
    226    230     1
    231    237     1
    231    238     1
    232    234     1
    232    235     1
    232    236     1
    233    240     1
    233    241     1
    233    242     1
    235    239     1
    235    237     1
    235    238     1
    236    239     1
    236    237     1
    236    238     1
    237    240     1
    237    241     1
    237    242     1
    238    240     1
    238    241     1
    238    242     1

[ angles ]
;    ai     aj     ak funct         c0         c1         c2         c3
      1      2      3     1   114.2100488 537.225600
      1      7     13     1   114.2100488 537.225600
      1      8     15     1   114.2100488 537.225600
      2      1      7     1   109.6600471 523.836800
      2      1      8     1   109.6600471 523.836800
      2      3      4     1   114.2100488 537.225600
      3      4      5     1   109.6600471 523.836800
      3      4      6     1   109.6600471 523.836800
      4      5     11     1   114.2100488 537.225600
      4      6      9     1   114.2100488 537.225600
      5      4      6     1   109.6600471 523.836800
      5     11     12     1   111.0400475 529.694400
      6      9     10     1   111.0400475 529.694400
      7      1      8     1   109.6600471 523.836800
      7     13     14     1   111.0400475 529.694400
      8     15     16     1   111.0400475 529.694400
      9     10     18     1   123.2000528 564.003200
      9     10     52     1   115.1800491 558.982400
     10     52     51     1   120.6900519 530.531200
     11     12     17     1   123.2000528 564.003200
     11     12     78     1   115.1800491 558.982400
     12     78     77     1   120.6900519 530.531200
     13     14     20     1   123.2000528 564.003200
     13     14    104     1   115.1800491 558.982400
     14    104    103     1   120.6900519 530.531200
     15     16     19     1   123.2000528 564.003200
     15     16    130     1   115.1800491 558.982400
     16    130    129     1   120.6900519 530.531200
     17     12     78     1   123.0500530 620.905600
     18     10     52     1   123.0500530 620.905600
     19     16    130     1   123.0500530 620.905600
     20     14    104     1   123.0500530 620.905600
     43     44     46     1   114.2100488 537.225600
     43     45     48     1   114.2100488 537.225600
     43     50     51     1   114.2100488 537.225600
     44     43     45     1   109.6600471 523.836800
     44     43     50     1   109.6600471 523.836800
     44     46     47     1   111.0400475 529.694400
     45     43     50     1   109.6600471 523.836800
     45     48     49     1   111.0400475 529.694400
     46     47    147     1   115.1800491 558.982400
     46     47     53     1   123.2000528 564.003200
     47    147    149     1   120.6900519 530.531200
     48     49     54     1   123.2000528 564.003200
     48     49    159     1   115.1800491 558.982400
     49    159    161     1   120.6900519 530.531200
     50     51     52     1   111.6100477 551.451200
     53     47    147     1   123.0500530 620.905600
     54     49    159     1   123.0500530 620.905600
     69     70     72     1   114.2100488 537.225600
     69     71     74     1   114.2100488 537.225600
     69     76     77     1   114.2100488 537.225600
     70     69     71     1   109.6600471 523.836800
     70     69     76     1   109.6600471 523.836800
     70     72     73     1   111.0400475 529.694400
     71     69     76     1   109.6600471 523.836800
     71     74     75     1   111.0400475 529.694400
     72     73    171     1   115.1800491 558.982400
     72     73     79     1   123.2000528 564.003200
     73    171    173     1   120.6900519 530.531200
     74     75     80     1   123.2000528 564.003200
     74     75    183     1   115.1800491 558.982400
     75    183    185     1   120.6900519 530.531200
     76     77     78     1   111.6100477 551.451200
     79     73    171     1   123.0500530 620.905600
     80     75    183     1   123.0500530 620.905600
     95     96     98     1   114.2100488 537.225600
     95     97    100     1   114.2100488 537.225600
     95    102    103     1   114.2100488 537.225600
     96     95     97     1   109.6600471 523.836800
     96     95    102     1   109.6600471 523.836800
     96     98     99     1   111.0400475 529.694400
     97     95    102     1   109.6600471 523.836800
     97    100    101     1   111.0400475 529.694400
     98     99    195     1   115.1800491 558.982400
     98     99    105     1   123.2000528 564.003200
     99    195    197     1   120.6900519 530.531200
    100    101    106     1   123.2000528 564.003200
    100    101    207     1   115.1800491 558.982400
    101    207    209     1   120.6900519 530.531200
    102    103    104     1   111.6100477 551.451200
    105     99    195     1   123.0500530 620.905600
    106    101    207     1   123.0500530 620.905600
    121    122    124     1   114.2100488 537.225600
    121    123    126     1   114.2100488 537.225600
    121    128    129     1   114.2100488 537.225600
    122    121    123     1   109.6600471 523.836800
    122    121    128     1   109.6600471 523.836800
    122    124    125     1   111.0400475 529.694400
    123    121    128     1   109.6600471 523.836800
    123    126    127     1   111.0400475 529.694400
    124    125    219     1   115.1800491 558.982400
    124    125    131     1   123.2000528 564.003200
    125    219    221     1   120.6900519 530.531200
    126    127    231     1   115.1800491 558.982400
    126    127    132     1   123.2000528 564.003200
    127    231    233     1   120.6900519 530.531200
    128    129    130     1   111.6100477 551.451200
    131    125    219     1   123.0500530 620.905600
    132    127    231     1   123.0500530 620.905600
    147    149    150     1   111.6100477 551.451200
    149    150    155     1   114.2100488 537.225600
    159    161    162     1   111.6100477 551.451200
    161    162    167     1   114.2100488 537.225600
    171    173    174     1   111.6100477 551.451200
    173    174    179     1   114.2100488 537.225600
    183    185    186     1   111.6100477 551.451200
    185    186    191     1   114.2100488 537.225600
    195    197    198     1   111.6100477 551.451200
    197    198    203     1   114.2100488 537.225600
    207    209    210     1   111.6100477 551.451200
    209    210    215     1   114.2100488 537.225600
    219    221    222     1   111.6100477 551.451200
    221    222    227     1   114.2100488 537.225600
    231    233    234     1   111.6100477 551.451200
    233    234    239     1   114.2100488 537.225600
      1      2     21     1   108.0100461 406.684800
      1      2     22     1   108.0100461 406.684800
      1      7     29     1   108.0100461 406.684800
      1      7     30     1   108.0100461 406.684800
      1      8     31     1   108.0100461 406.684800
      1      8     32     1   108.0100461 406.684800
      2      1     41     1   110.1100470 384.091200
      2      3     23     1   110.5600475 386.601600
      2      3     24     1   110.5600475 386.601600
      3      2     21     1   110.5600475 386.601600
      3      2     22     1   110.5600475 386.601600
      3      4     42     1   110.1100470 384.091200
      4      3     23     1   108.0100461 406.684800
      4      3     24     1   108.0100461 406.684800
      4      5     25     1   108.0100461 406.684800
      4      5     26     1   108.0100461 406.684800
      4      6     27     1   108.0100461 406.684800
      4      6     28     1   108.0100461 406.684800
      5      4     42     1   110.1100470 384.091200
      5     11     35     1   109.8000471 387.438400
      5     11     36     1   109.8000471 387.438400
      6      4     42     1   110.1100470 384.091200
      6      9     33     1   109.8000471 387.438400
      6      9     34     1   109.8000471 387.438400
      7      1     41     1   110.1100470 384.091200
      7     13     37     1   109.8000471 387.438400
      7     13     38     1   109.8000471 387.438400
      8      1     41     1   110.1100470 384.091200
      8     15     39     1   109.8000471 387.438400
      8     15     40     1   109.8000471 387.438400
      9      6     27     1   110.5600475 386.601600
      9      6     28     1   110.5600475 386.601600
     10      9     33     1   108.7700466 392.459200
     10      9     34     1   108.7700466 392.459200
     10     52     67     1   117.5500507 404.174400
     11      5     25     1   110.5600475 386.601600
     11      5     26     1   110.5600475 386.601600
     12     11     35     1   108.7700466 392.459200
     12     11     36     1   108.7700466 392.459200
     12     78     93     1   117.5500507 404.174400
     13      7     29     1   110.5600475 386.601600
     13      7     30     1   110.5600475 386.601600
     14     13     37     1   108.7700466 392.459200
     14     13     38     1   108.7700466 392.459200
     14    104    119     1   117.5500507 404.174400
     15      8     31     1   110.5600475 386.601600
     15      8     32     1   110.5600475 386.601600
     16     15     39     1   108.7700466 392.459200
     16     15     40     1   108.7700466 392.459200
     16    130    145     1   117.5500507 404.174400
     21      2     22     1   109.7500473 328.025600
     23      3     24     1   109.7500473 328.025600
     25      5     26     1   109.7500473 328.025600
     27      6     28     1   109.7500473 328.025600
     29      7     30     1   109.7500473 328.025600
     31      8     32     1   109.7500473 328.025600
     33      9     34     1   107.5800459 329.699200
     35     11     36     1   107.5800459 329.699200
     37     13     38     1   107.5800459 329.699200
     39     15     40     1   107.5800459 329.699200
     43     44     55     1   108.0100461 406.684800
     43     44     56     1   108.0100461 406.684800
     43     45     57     1   108.0100461 406.684800
     43     45     58     1   108.0100461 406.684800
     43     50     63     1   108.0100461 406.684800
     43     50     64     1   108.0100461 406.684800
     44     43     68     1   110.1100470 384.091200
     44     46     59     1   109.8000471 387.438400
     44     46     60     1   109.8000471 387.438400
     45     43     68     1   110.1100470 384.091200
     45     48     61     1   109.8000471 387.438400
     45     48     62     1   109.8000471 387.438400
     46     44     55     1   110.5600475 386.601600
     46     44     56     1   110.5600475 386.601600
     47     46     59     1   108.7700466 392.459200
     47     46     60     1   108.7700466 392.459200
     47    147    148     1   117.5500507 404.174400
     48     45     57     1   110.5600475 386.601600
     48     45     58     1   110.5600475 386.601600
     49     48     61     1   108.7700466 392.459200
     49     48     62     1   108.7700466 392.459200
     49    159    160     1   117.5500507 404.174400
     50     43     68     1   110.1100470 384.091200
     50     51     65     1   109.5600471 388.275200
     50     51     66     1   109.5600471 388.275200
     51     50     63     1   110.5600475 386.601600
     51     50     64     1   110.5600475 386.601600
     51     52     67     1   117.6800502 383.254400
     52     51     65     1   108.8800464 416.726400
     52     51     66     1   108.8800464 416.726400
     55     44     56     1   109.7500473 328.025600
     57     45     58     1   109.7500473 328.025600
     59     46     60     1   107.5800459 329.699200
     61     48     62     1   107.5800459 329.699200
     63     50     64     1   109.7500473 328.025600
     65     51     66     1   108.4600466 328.025600
     69     70     81     1   108.0100461 406.684800
     69     70     82     1   108.0100461 406.684800
     69     71     83     1   108.0100461 406.684800
     69     71     84     1   108.0100461 406.684800
     69     76     89     1   108.0100461 406.684800
     69     76     90     1   108.0100461 406.684800
     70     69     94     1   110.1100470 384.091200
     70     72     85     1   109.8000471 387.438400
     70     72     86     1   109.8000471 387.438400
     71     69     94     1   110.1100470 384.091200
     71     74     87     1   109.8000471 387.438400
     71     74     88     1   109.8000471 387.438400
     72     70     81     1   110.5600475 386.601600
     72     70     82     1   110.5600475 386.601600
     73     72     85     1   108.7700466 392.459200
     73     72     86     1   108.7700466 392.459200
     73    171    172     1   117.5500507 404.174400
     74     71     83     1   110.5600475 386.601600
     74     71     84     1   110.5600475 386.601600
     75     74     87     1   108.7700466 392.459200
     75     74     88     1   108.7700466 392.459200
     75    183    184     1   117.5500507 404.174400
     76     69     94     1   110.1100470 384.091200
     76     77     91     1   109.5600471 388.275200
     76     77     92     1   109.5600471 388.275200
     77     76     89     1   110.5600475 386.601600
     77     76     90     1   110.5600475 386.601600
     77     78     93     1   117.6800502 383.254400
     78     77     91     1   108.8800464 416.726400
     78     77     92     1   108.8800464 416.726400
     81     70     82     1   109.7500473 328.025600
     83     71     84     1   109.7500473 328.025600
     85     72     86     1   107.5800459 329.699200
     87     74     88     1   107.5800459 329.699200
     89     76     90     1   109.7500473 328.025600
     91     77     92     1   108.4600466 328.025600
     95     96    107     1   108.0100461 406.684800
     95     96    108     1   108.0100461 406.684800
     95     97    109     1   108.0100461 406.684800
     95     97    110     1   108.0100461 406.684800
     95    102    115     1   108.0100461 406.684800
     95    102    116     1   108.0100461 406.684800
     96     95    120     1   110.1100470 384.091200
     96     98    111     1   109.8000471 387.438400
     96     98    112     1   109.8000471 387.438400
     97     95    120     1   110.1100470 384.091200
     97    100    113     1   109.8000471 387.438400
     97    100    114     1   109.8000471 387.438400
     98     96    107     1   110.5600475 386.601600
     98     96    108     1   110.5600475 386.601600
     99     98    111     1   108.7700466 392.459200
     99     98    112     1   108.7700466 392.459200
     99    195    196     1   117.5500507 404.174400
    100     97    109     1   110.5600475 386.601600
    100     97    110     1   110.5600475 386.601600
    101    100    113     1   108.7700466 392.459200
    101    100    114     1   108.7700466 392.459200
    101    207    208     1   117.5500507 404.174400
    102     95    120     1   110.1100470 384.091200
    102    103    117     1   109.5600471 388.275200
    102    103    118     1   109.5600471 388.275200
    103    102    115     1   110.5600475 386.601600
    103    102    116     1   110.5600475 386.601600
    103    104    119     1   117.6800502 383.254400
    104    103    117     1   108.8800464 416.726400
    104    103    118     1   108.8800464 416.726400
    107     96    108     1   109.7500473 328.025600
    109     97    110     1   109.7500473 328.025600
    111     98    112     1   107.5800459 329.699200
    113    100    114     1   107.5800459 329.699200
    115    102    116     1   109.7500473 328.025600
    117    103    118     1   108.4600466 328.025600
    121    122    133     1   108.0100461 406.684800
    121    122    134     1   108.0100461 406.684800
    121    123    135     1   108.0100461 406.684800
    121    123    136     1   108.0100461 406.684800
    121    128    141     1   108.0100461 406.684800
    121    128    142     1   108.0100461 406.684800
    122    121    146     1   110.1100470 384.091200
    122    124    137     1   109.8000471 387.438400
    122    124    138     1   109.8000471 387.438400
    123    121    146     1   110.1100470 384.091200
    123    126    139     1   109.8000471 387.438400
    123    126    140     1   109.8000471 387.438400
    124    122    133     1   110.5600475 386.601600
    124    122    134     1   110.5600475 386.601600
    125    124    137     1   108.7700466 392.459200
    125    124    138     1   108.7700466 392.459200
    125    219    220     1   117.5500507 404.174400
    126    123    135     1   110.5600475 386.601600
    126    123    136     1   110.5600475 386.601600
    127    126    139     1   108.7700466 392.459200
    127    126    140     1   108.7700466 392.459200
    127    231    232     1   117.5500507 404.174400
    128    121    146     1   110.1100470 384.091200
    128    129    143     1   109.5600471 388.275200
    128    129    144     1   109.5600471 388.275200
    129    128    141     1   110.5600475 386.601600
    129    128    142     1   110.5600475 386.601600
    129    130    145     1   117.6800502 383.254400
    130    129    143     1   108.8800464 416.726400
    130    129    144     1   108.8800464 416.726400
    133    122    134     1   109.7500473 328.025600
    135    123    136     1   109.7500473 328.025600
    137    124    138     1   107.5800459 329.699200
    139    126    140     1   107.5800459 329.699200
    141    128    142     1   109.7500473 328.025600
    143    129    144     1   108.4600466 328.025600
    147    149    151     1   108.8800464 416.726400
    147    149    152     1   108.8800464 416.726400
    148    147    149     1   117.6800502 383.254400
    149    150    153     1   110.5600475 386.601600
    149    150    154     1   110.5600475 386.601600
    150    149    151     1   109.5600471 388.275200
    150    149    152     1   109.5600471 388.275200
    150    155    156     1   110.1100470 384.091200
    150    155    157     1   110.1100470 384.091200
    150    155    158     1   110.1100470 384.091200
    151    149    152     1   108.4600466 328.025600
    153    150    155     1   108.0100461 406.684800
    153    150    154     1   109.7500473 328.025600
    154    150    155     1   108.0100461 406.684800
    156    155    157     1   108.3000464 339.740800
    156    155    158     1   108.3000464 339.740800
    157    155    158     1   108.3000464 339.740800
    159    161    163     1   108.8800464 416.726400
    159    161    164     1   108.8800464 416.726400
    160    159    161     1   117.6800502 383.254400
    161    162    165     1   110.5600475 386.601600
    161    162    166     1   110.5600475 386.601600
    162    167    168     1   110.1100470 384.091200
    162    167    169     1   110.1100470 384.091200
    162    167    170     1   110.1100470 384.091200
    162    161    163     1   109.5600471 388.275200
    162    161    164     1   109.5600471 388.275200
    163    161    164     1   108.4600466 328.025600
    165    162    167     1   108.0100461 406.684800
    165    162    166     1   109.7500473 328.025600
    166    162    167     1   108.0100461 406.684800
    168    167    169     1   108.3000464 339.740800
    168    167    170     1   108.3000464 339.740800
    169    167    170     1   108.3000464 339.740800
    171    173    175     1   108.8800464 416.726400
    171    173    176     1   108.8800464 416.726400
    172    171    173     1   117.6800502 383.254400
    173    174    177     1   110.5600475 386.601600
    173    174    178     1   110.5600475 386.601600
    174    173    175     1   109.5600471 388.275200
    174    173    176     1   109.5600471 388.275200
    174    179    180     1   110.1100470 384.091200
    174    179    181     1   110.1100470 384.091200
    174    179    182     1   110.1100470 384.091200
    175    173    176     1   108.4600466 328.025600
    177    174    179     1   108.0100461 406.684800
    177    174    178     1   109.7500473 328.025600
    178    174    179     1   108.0100461 406.684800
    180    179    181     1   108.3000464 339.740800
    180    179    182     1   108.3000464 339.740800
    181    179    182     1   108.3000464 339.740800
    183    185    187     1   108.8800464 416.726400
    183    185    188     1   108.8800464 416.726400
    184    183    185     1   117.6800502 383.254400
    185    186    189     1   110.5600475 386.601600
    185    186    190     1   110.5600475 386.601600
    186    191    192     1   110.1100470 384.091200
    186    191    193     1   110.1100470 384.091200
    186    191    194     1   110.1100470 384.091200
    186    185    187     1   109.5600471 388.275200
    186    185    188     1   109.5600471 388.275200
    187    185    188     1   108.4600466 328.025600
    189    186    191     1   108.0100461 406.684800
    189    186    190     1   109.7500473 328.025600
    190    186    191     1   108.0100461 406.684800
    192    191    193     1   108.3000464 339.740800
    192    191    194     1   108.3000464 339.740800
    193    191    194     1   108.3000464 339.740800
    195    197    199     1   108.8800464 416.726400
    195    197    200     1   108.8800464 416.726400
    196    195    197     1   117.6800502 383.254400
    197    198    201     1   110.5600475 386.601600
    197    198    202     1   110.5600475 386.601600
    198    197    199     1   109.5600471 388.275200
    198    197    200     1   109.5600471 388.275200
    198    203    204     1   110.1100470 384.091200
    198    203    205     1   110.1100470 384.091200
    198    203    206     1   110.1100470 384.091200
    199    197    200     1   108.4600466 328.025600
    201    198    203     1   108.0100461 406.684800
    201    198    202     1   109.7500473 328.025600
    202    198    203     1   108.0100461 406.684800
    204    203    205     1   108.3000464 339.740800
    204    203    206     1   108.3000464 339.740800
    205    203    206     1   108.3000464 339.740800
    207    209    211     1   108.8800464 416.726400
    207    209    212     1   108.8800464 416.726400
    208    207    209     1   117.6800502 383.254400
    209    210    213     1   110.5600475 386.601600
    209    210    214     1   110.5600475 386.601600
    210    215    216     1   110.1100470 384.091200
    210    215    217     1   110.1100470 384.091200
    210    215    218     1   110.1100470 384.091200
    210    209    211     1   109.5600471 388.275200
    210    209    212     1   109.5600471 388.275200
    211    209    212     1   108.4600466 328.025600
    213    210    215     1   108.0100461 406.684800
    213    210    214     1   109.7500473 328.025600
    214    210    215     1   108.0100461 406.684800
    216    215    217     1   108.3000464 339.740800
    216    215    218     1   108.3000464 339.740800
    217    215    218     1   108.3000464 339.740800
    219    221    223     1   108.8800464 416.726400
    219    221    224     1   108.8800464 416.726400
    220    219    221     1   117.6800502 383.254400
    221    222    225     1   110.5600475 386.601600
    221    222    226     1   110.5600475 386.601600
    222    221    223     1   109.5600471 388.275200
    222    221    224     1   109.5600471 388.275200
    222    227    228     1   110.1100470 384.091200
    222    227    229     1   110.1100470 384.091200
    222    227    230     1   110.1100470 384.091200
    223    221    224     1   108.4600466 328.025600
    225    222    227     1   108.0100461 406.684800
    225    222    226     1   109.7500473 328.025600
    226    222    227     1   108.0100461 406.684800
    228    227    229     1   108.3000464 339.740800
    228    227    230     1   108.3000464 339.740800
    229    227    230     1   108.3000464 339.740800
    231    233    235     1   108.8800464 416.726400
    231    233    236     1   108.8800464 416.726400
    232    231    233     1   117.6800502 383.254400
    233    234    237     1   110.5600475 386.601600
    233    234    238     1   110.5600475 386.601600
    234    239    240     1   110.1100470 384.091200
    234    239    241     1   110.1100470 384.091200
    234    239    242     1   110.1100470 384.091200
    234    233    235     1   109.5600471 388.275200
    234    233    236     1   109.5600471 388.275200
    235    233    236     1   108.4600466 328.025600
    237    234    239     1   108.0100461 406.684800
    237    234    238     1   109.7500473 328.025600
    238    234    239     1   108.0100461 406.684800
    240    239    241     1   108.3000464 339.740800
    240    239    242     1   108.3000464 339.740800
    241    239    242     1   108.3000464 339.740800

[ dihedrals ]
;    ai     aj     ak     al funct         c0         c1         c2         c3         c4         c5
      1      2      3      4     1  0.0000000  0.6508444  3
      1      7     13     14     1  0.0000000  0.6508444  3
      1      8     15     16     1  0.0000000  0.6508444  3
      2      1      7     13     1  0.0000000  0.6508444  3
      2      1      8     15     1  0.0000000  0.6508444  3
      2      3      4      5     1  0.0000000  0.6508444  3
      2      3      4      6     1  0.0000000  0.6508444  3
      7      1      2      3     1  0.0000000  0.6508444  3
      8      1      2      3     1  0.0000000  0.6508444  3
      3      4      5     11     1  0.0000000  0.6508444  3
      3      4      6      9     1  0.0000000  0.6508444  3
      4      5     11     12     1  0.0000000  0.6508444  3
      4      6      9     10     1  0.0000000  0.6508444  3
      5      4      6      9     1  0.0000000  0.6508444  3
      5     11     12     17     1  180.0000771  0.0000000  2
      5     11     12     78     1  0.0000000  0.2928800  2
      5     11     12     78     1  0.0000000  0.4184000  4
      6      4      5     11     1  0.0000000  0.6508444  3
      6      9     10     18     1  180.0000771  0.0000000  2
      6      9     10     52     1  0.0000000  0.2928800  2
      6      9     10     52     1  0.0000000  0.4184000  4
      7      1      8     15     1  0.0000000  0.6508444  3
      7     13     14     20     1  180.0000771  0.0000000  2
      7     13     14    104     1  0.0000000  0.2928800  2
      7     13     14    104     1  0.0000000  0.4184000  4
      8      1      7     13     1  0.0000000  0.6508444  3
      8     15     16     19     1  180.0000771  0.0000000  2
      8     15     16    130     1  0.0000000  0.2928800  2
      8     15     16    130     1  0.0000000  0.4184000  4
      9     10     52     51     1  180.0000771  6.2760000  1
      9     10     52     51     1  0.0000000  0.0000000  2
     10     52     51     50     1  0.0000000  2.2175200  1
     10     52     51     50     1  0.0000000  0.0000000  2
     10     52     51     50     1  180.0000771  0.6276000  3
     10     52     51     50     1  180.0000771  2.0920000  4
     11     12     78     77     1  180.0000771  6.2760000  1
     11     12     78     77     1  0.0000000  0.0000000  2
     12     78     77     76     1  0.0000000  2.2175200  1
     12     78     77     76     1  0.0000000  0.0000000  2
     12     78     77     76     1  180.0000771  0.6276000  3
     12     78     77     76     1  180.0000771  2.0920000  4
     13     14    104    103     1  180.0000771  6.2760000  1
     13     14    104    103     1  0.0000000  0.0000000  2
     14    104    103    102     1  0.0000000  2.2175200  1
     14    104    103    102     1  0.0000000  0.0000000  2
     14    104    103    102     1  180.0000771  0.6276000  3
     14    104    103    102     1  180.0000771  2.0920000  4
     15     16    130    129     1  180.0000771  6.2760000  1
     15     16    130    129     1  0.0000000  0.0000000  2
     16    130    129    128     1  0.0000000  2.2175200  1
     16    130    129    128     1  0.0000000  0.0000000  2
     16    130    129    128     1  180.0000771  0.6276000  3
     16    130    129    128     1  180.0000771  2.0920000  4
     17     12     78     77     1  180.0000771  10.4600000  2
     18     10     52     51     1  180.0000771  10.4600000  2
     19     16    130    129     1  180.0000771  10.4600000  2
     20     14    104    103     1  180.0000771  10.4600000  2
     43     44     46     47     1  0.0000000  0.6508444  3
     43     45     48     49     1  0.0000000  0.6508444  3
     43     50     51     52     1  0.0000000  0.6508444  3
     44     43     45     48     1  0.0000000  0.6508444  3
     44     43     50     51     1  0.0000000  0.6508444  3
     44     46     47    147     1  0.0000000  0.2928800  2
     44     46     47    147     1  0.0000000  0.4184000  4
     44     46     47     53     1  180.0000771  0.0000000  2
     45     43     44     46     1  0.0000000  0.6508444  3
     45     43     50     51     1  0.0000000  0.6508444  3
     45     48     49     54     1  180.0000771  0.0000000  2
     45     48     49    159     1  0.0000000  0.2928800  2
     45     48     49    159     1  0.0000000  0.4184000  4
     46     44     43     50     1  0.0000000  0.6508444  3
     46     47    147    149     1  180.0000771  6.2760000  1
     46     47    147    149     1  0.0000000  0.0000000  2
     47    147    149    150     1  0.0000000  2.2175200  1
     47    147    149    150     1  0.0000000  0.0000000  2
     47    147    149    150     1  180.0000771  0.6276000  3
     47    147    149    150     1  180.0000771  2.0920000  4
     48     45     43     50     1  0.0000000  0.6508444  3
     48     49    159    161     1  180.0000771  6.2760000  1
     48     49    159    161     1  0.0000000  0.0000000  2
     49    159    161    162     1  0.0000000  2.2175200  1
     49    159    161    162     1  0.0000000  0.0000000  2
     49    159    161    162     1  180.0000771  0.6276000  3
     49    159    161    162     1  180.0000771  2.0920000  4
     53     47    147    149     1  180.0000771  10.4600000  2
     54     49    159    161     1  180.0000771  10.4600000  2
     69     70     72     73     1  0.0000000  0.6508444  3
     69     71     74     75     1  0.0000000  0.6508444  3
     69     76     77     78     1  0.0000000  0.6508444  3
     70     69     71     74     1  0.0000000  0.6508444  3
     70     69     76     77     1  0.0000000  0.6508444  3
     70     72     73    171     1  0.0000000  0.2928800  2
     70     72     73    171     1  0.0000000  0.4184000  4
     70     72     73     79     1  180.0000771  0.0000000  2
     71     69     70     72     1  0.0000000  0.6508444  3
     71     69     76     77     1  0.0000000  0.6508444  3
     71     74     75     80     1  180.0000771  0.0000000  2
     71     74     75    183     1  0.0000000  0.2928800  2
     71     74     75    183     1  0.0000000  0.4184000  4
     72     70     69     76     1  0.0000000  0.6508444  3
     72     73    171    173     1  180.0000771  6.2760000  1
     72     73    171    173     1  0.0000000  0.0000000  2
     73    171    173    174     1  0.0000000  2.2175200  1
     73    171    173    174     1  0.0000000  0.0000000  2
     73    171    173    174     1  180.0000771  0.6276000  3
     73    171    173    174     1  180.0000771  2.0920000  4
     74     71     69     76     1  0.0000000  0.6508444  3
     74     75    183    185     1  180.0000771  6.2760000  1
     74     75    183    185     1  0.0000000  0.0000000  2
     75    183    185    186     1  0.0000000  2.2175200  1
     75    183    185    186     1  0.0000000  0.0000000  2
     75    183    185    186     1  180.0000771  0.6276000  3
     75    183    185    186     1  180.0000771  2.0920000  4
     79     73    171    173     1  180.0000771  10.4600000  2
     80     75    183    185     1  180.0000771  10.4600000  2
     95     96     98     99     1  0.0000000  0.6508444  3
     95     97    100    101     1  0.0000000  0.6508444  3
     95    102    103    104     1  0.0000000  0.6508444  3
     96     95     97    100     1  0.0000000  0.6508444  3
     96     95    102    103     1  0.0000000  0.6508444  3
     96     98     99    195     1  0.0000000  0.2928800  2
     96     98     99    195     1  0.0000000  0.4184000  4
     96     98     99    105     1  180.0000771  0.0000000  2
     97     95     96     98     1  0.0000000  0.6508444  3
     97     95    102    103     1  0.0000000  0.6508444  3
     97    100    101    106     1  180.0000771  0.0000000  2
     97    100    101    207     1  0.0000000  0.2928800  2
     97    100    101    207     1  0.0000000  0.4184000  4
     98     96     95    102     1  0.0000000  0.6508444  3
     98     99    195    197     1  180.0000771  6.2760000  1
     98     99    195    197     1  0.0000000  0.0000000  2
     99    195    197    198     1  0.0000000  2.2175200  1
     99    195    197    198     1  0.0000000  0.0000000  2
     99    195    197    198     1  180.0000771  0.6276000  3
     99    195    197    198     1  180.0000771  2.0920000  4
    100     97     95    102     1  0.0000000  0.6508444  3
    100    101    207    209     1  180.0000771  6.2760000  1
    100    101    207    209     1  0.0000000  0.0000000  2
    101    207    209    210     1  0.0000000  2.2175200  1
    101    207    209    210     1  0.0000000  0.0000000  2
    101    207    209    210     1  180.0000771  0.6276000  3
    101    207    209    210     1  180.0000771  2.0920000  4
    105     99    195    197     1  180.0000771  10.4600000  2
    106    101    207    209     1  180.0000771  10.4600000  2
    121    122    124    125     1  0.0000000  0.6508444  3
    121    123    126    127     1  0.0000000  0.6508444  3
    121    128    129    130     1  0.0000000  0.6508444  3
    122    121    123    126     1  0.0000000  0.6508444  3
    122    121    128    129     1  0.0000000  0.6508444  3
    122    124    125    219     1  0.0000000  0.2928800  2
    122    124    125    219     1  0.0000000  0.4184000  4
    122    124    125    131     1  180.0000771  0.0000000  2
    123    121    122    124     1  0.0000000  0.6508444  3
    123    121    128    129     1  0.0000000  0.6508444  3
    123    126    127    231     1  0.0000000  0.2928800  2
    123    126    127    231     1  0.0000000  0.4184000  4
    123    126    127    132     1  180.0000771  0.0000000  2
    124    122    121    128     1  0.0000000  0.6508444  3
    124    125    219    221     1  180.0000771  6.2760000  1
    124    125    219    221     1  0.0000000  0.0000000  2
    125    219    221    222     1  0.0000000  2.2175200  1
    125    219    221    222     1  0.0000000  0.0000000  2
    125    219    221    222     1  180.0000771  0.6276000  3
    125    219    221    222     1  180.0000771  2.0920000  4
    126    123    121    128     1  0.0000000  0.6508444  3
    126    127    231    233     1  180.0000771  6.2760000  1
    126    127    231    233     1  0.0000000  0.0000000  2
    127    231    233    234     1  0.0000000  2.2175200  1
    127    231    233    234     1  0.0000000  0.0000000  2
    127    231    233    234     1  180.0000771  0.6276000  3
    127    231    233    234     1  180.0000771  2.0920000  4
    131    125    219    221     1  180.0000771  10.4600000  2
    132    127    231    233     1  180.0000771  10.4600000  2
    147    149    150    155     1  0.0000000  0.6508444  3
    159    161    162    167     1  0.0000000  0.6508444  3
    171    173    174    179     1  0.0000000  0.6508444  3
    183    185    186    191     1  0.0000000  0.6508444  3
    195    197    198    203     1  0.0000000  0.6508444  3
    207    209    210    215     1  0.0000000  0.6508444  3
    219    221    222    227     1  0.0000000  0.6508444  3
    231    233    234    239     1  0.0000000  0.6508444  3
      9     52     10     18     4  180.0000771  43.9320000  2
     11     78     12     17     4  180.0000771  43.9320000  2
     13    104     14     20     4  180.0000771  43.9320000  2
     15    130     16     19     4  180.0000771  43.9320000  2
     46    147     47     53     4  180.0000771  43.9320000  2
     48    159     49     54     4  180.0000771  43.9320000  2
     72    171     73     79     4  180.0000771  43.9320000  2
     74    183     75     80     4  180.0000771  43.9320000  2
     98    195     99    105     4  180.0000771  43.9320000  2
    100    207    101    106     4  180.0000771  43.9320000  2
    124    219    125    131     4  180.0000771  43.9320000  2
    126    231    127    132     4  180.0000771  43.9320000  2
      1      2      3     23     1  0.0000000  0.6508444  3
      1      2      3     24     1  0.0000000  0.6508444  3
      1      7     13     37     1  0.0000000  0.6508444  3
      1      7     13     38     1  0.0000000  0.6508444  3
      1      8     15     39     1  0.0000000  0.6508444  3
      1      8     15     40     1  0.0000000  0.6508444  3
      2      1      7     29     1  0.0000000  0.6508444  3
      2      1      7     30     1  0.0000000  0.6508444  3
      2      1      8     31     1  0.0000000  0.6508444  3
      2      1      8     32     1  0.0000000  0.6508444  3
      2      3      4     42     1  0.0000000  0.6508444  3
     41      1      2      3     1  0.0000000  0.6508444  3
      3      4      5     25     1  0.0000000  0.6508444  3
      3      4      5     26     1  0.0000000  0.6508444  3
      3      4      6     27     1  0.0000000  0.6508444  3
      3      4      6     28     1  0.0000000  0.6508444  3
      4      3      2     21     1  0.0000000  0.6508444  3
      4      3      2     22     1  0.0000000  0.6508444  3
      4      5     11     35     1  0.0000000  0.6508444  3
      4      5     11     36     1  0.0000000  0.6508444  3
      4      6      9     33     1  0.0000000  0.6508444  3
      4      6      9     34     1  0.0000000  0.6508444  3
      5      4      3     23     1  0.0000000  0.6508444  3
      5      4      3     24     1  0.0000000  0.6508444  3
      5      4      6     27     1  0.0000000  0.6508444  3
      5      4      6     28     1  0.0000000  0.6508444  3
      6      4      3     23     1  0.0000000  0.6508444  3
      6      4      3     24     1  0.0000000  0.6508444  3
      6      4      5     25     1  0.0000000  0.6508444  3
      6      4      5     26     1  0.0000000  0.6508444  3
      7      1      2     21     1  0.0000000  0.6508444  3
      7      1      2     22     1  0.0000000  0.6508444  3
      7      1      8     31     1  0.0000000  0.6508444  3
      7      1      8     32     1  0.0000000  0.6508444  3
      8      1      2     21     1  0.0000000  0.6508444  3
      8      1      2     22     1  0.0000000  0.6508444  3
      8      1      7     29     1  0.0000000  0.6508444  3
      8      1      7     30     1  0.0000000  0.6508444  3
      9      6      4     42     1  0.0000000  0.6508444  3
      9     10     52     67     1  180.0000771  10.4600000  2
     10      9      6     27     1  0.0000000  0.6508444  3
     10      9      6     28     1  0.0000000  0.6508444  3
     10     52     51     65     1  0.0000000  0.0000000  2
     10     52     51     66     1  0.0000000  0.0000000  2
     11      5      4     42     1  0.0000000  0.6508444  3
     11     12     78     93     1  180.0000771  10.4600000  2
     12     11      5     25     1  0.0000000  0.6508444  3
     12     11      5     26     1  0.0000000  0.6508444  3
     12     78     77     91     1  0.0000000  0.0000000  2
     12     78     77     92     1  0.0000000  0.0000000  2
     41      1      7     13     1  0.0000000  0.6508444  3
     13     14    104    119     1  180.0000771  10.4600000  2
     14     13      7     29     1  0.0000000  0.6508444  3
     14     13      7     30     1  0.0000000  0.6508444  3
     14    104    103    117     1  0.0000000  0.0000000  2
     14    104    103    118     1  0.0000000  0.0000000  2
     41      1      8     15     1  0.0000000  0.6508444  3
     15     16    130    145     1  180.0000771  10.4600000  2
     16     15      8     31     1  0.0000000  0.6508444  3
     16     15      8     32     1  0.0000000  0.6508444  3
     16    130    129    143     1  0.0000000  0.0000000  2
     16    130    129    144     1  0.0000000  0.0000000  2
     17     12     11     35     1  0.0000000  3.3472000  1
     17     12     11     35     1  0.0000000  0.0000000  2
     17     12     11     35     1  180.0000771  0.3347200  3
     17     12     11     36     1  0.0000000  3.3472000  1
     17     12     11     36     1  0.0000000  0.0000000  2
     17     12     11     36     1  180.0000771  0.3347200  3
     17     12     78     93     1  0.0000000  8.3680000  1
     17     12     78     93     1  180.0000771  10.4600000  2
     18     10      9     33     1  0.0000000  3.3472000  1
     18     10      9     33     1  0.0000000  0.0000000  2
     18     10      9     33     1  180.0000771  0.3347200  3
     18     10      9     34     1  0.0000000  3.3472000  1
     18     10      9     34     1  0.0000000  0.0000000  2
     18     10      9     34     1  180.0000771  0.3347200  3
     18     10     52     67     1  0.0000000  8.3680000  1
     18     10     52     67     1  180.0000771  10.4600000  2
     19     16     15     39     1  0.0000000  3.3472000  1
     19     16     15     39     1  0.0000000  0.0000000  2
     19     16     15     39     1  180.0000771  0.3347200  3
     19     16     15     40     1  0.0000000  3.3472000  1
     19     16     15     40     1  0.0000000  0.0000000  2
     19     16     15     40     1  180.0000771  0.3347200  3
     19     16    130    145     1  0.0000000  8.3680000  1
     19     16    130    145     1  180.0000771  10.4600000  2
     20     14     13     37     1  0.0000000  3.3472000  1
     20     14     13     37     1  0.0000000  0.0000000  2
     20     14     13     37     1  180.0000771  0.3347200  3
     20     14     13     38     1  0.0000000  3.3472000  1
     20     14     13     38     1  0.0000000  0.0000000  2
     20     14     13     38     1  180.0000771  0.3347200  3
     20     14    104    119     1  0.0000000  8.3680000  1
     20     14    104    119     1  180.0000771  10.4600000  2
     41      1      2     21     1  0.0000000  0.6508444  3
     21      2      3     23     1  0.0000000  0.6508444  3
     21      2      3     24     1  0.0000000  0.6508444  3
     41      1      2     22     1  0.0000000  0.6508444  3
     22      2      3     23     1  0.0000000  0.6508444  3
     22      2      3     24     1  0.0000000  0.6508444  3
     23      3      4     42     1  0.0000000  0.6508444  3
     24      3      4     42     1  0.0000000  0.6508444  3
     25      5      4     42     1  0.0000000  0.6508444  3
     25      5     11     35     1  0.0000000  0.6508444  3
     25      5     11     36     1  0.0000000  0.6508444  3
     26      5      4     42     1  0.0000000  0.6508444  3
     26      5     11     35     1  0.0000000  0.6508444  3
     26      5     11     36     1  0.0000000  0.6508444  3
     27      6      4     42     1  0.0000000  0.6508444  3
     27      6      9     33     1  0.0000000  0.6508444  3
     27      6      9     34     1  0.0000000  0.6508444  3
     28      6      4     42     1  0.0000000  0.6508444  3
     28      6      9     33     1  0.0000000  0.6508444  3
     28      6      9     34     1  0.0000000  0.6508444  3
     41      1      7     29     1  0.0000000  0.6508444  3
     29      7     13     37     1  0.0000000  0.6508444  3
     29      7     13     38     1  0.0000000  0.6508444  3
     41      1      7     30     1  0.0000000  0.6508444  3
     30      7     13     37     1  0.0000000  0.6508444  3
     30      7     13     38     1  0.0000000  0.6508444  3
     41      1      8     31     1  0.0000000  0.6508444  3
     31      8     15     39     1  0.0000000  0.6508444  3
     31      8     15     40     1  0.0000000  0.6508444  3
     41      1      8     32     1  0.0000000  0.6508444  3
     32      8     15     39     1  0.0000000  0.6508444  3
     32      8     15     40     1  0.0000000  0.6508444  3
     33      9     10     52     1  180.0000771  0.0000000  2
     34      9     10     52     1  180.0000771  0.0000000  2
     35     11     12     78     1  180.0000771  0.0000000  2
     36     11     12     78     1  180.0000771  0.0000000  2
     37     13     14    104     1  180.0000771  0.0000000  2
     38     13     14    104     1  180.0000771  0.0000000  2
     39     15     16    130     1  180.0000771  0.0000000  2
     40     15     16    130     1  180.0000771  0.0000000  2
     43     44     46     59     1  0.0000000  0.6508444  3
     43     44     46     60     1  0.0000000  0.6508444  3
     43     45     48     61     1  0.0000000  0.6508444  3
     43     45     48     62     1  0.0000000  0.6508444  3
     43     50     51     65     1  0.0000000  0.6508444  3
     43     50     51     66     1  0.0000000  0.6508444  3
     44     43     45     57     1  0.0000000  0.6508444  3
     44     43     45     58     1  0.0000000  0.6508444  3
     44     43     50     63     1  0.0000000  0.6508444  3
     44     43     50     64     1  0.0000000  0.6508444  3
     45     43     44     55     1  0.0000000  0.6508444  3
     45     43     44     56     1  0.0000000  0.6508444  3
     45     43     50     63     1  0.0000000  0.6508444  3
     45     43     50     64     1  0.0000000  0.6508444  3
     46     44     43     68     1  0.0000000  0.6508444  3
     46     47    147    148     1  180.0000771  10.4600000  2
     47     46     44     55     1  0.0000000  0.6508444  3
     47     46     44     56     1  0.0000000  0.6508444  3
     47    147    149    151     1  0.0000000  0.0000000  2
     47    147    149    152     1  0.0000000  0.0000000  2
     48     45     43     68     1  0.0000000  0.6508444  3
     48     49    159    160     1  180.0000771  10.4600000  2
     49     48     45     57     1  0.0000000  0.6508444  3
     49     48     45     58     1  0.0000000  0.6508444  3
     49    159    161    163     1  0.0000000  0.0000000  2
     49    159    161    164     1  0.0000000  0.0000000  2
     50     43     44     55     1  0.0000000  0.6508444  3
     50     43     44     56     1  0.0000000  0.6508444  3
     50     43     45     57     1  0.0000000  0.6508444  3
     50     43     45     58     1  0.0000000  0.6508444  3
     50     51     52     67     1  0.0000000  0.0000000  2
     51     50     43     68     1  0.0000000  0.6508444  3
     52     51     50     63     1  0.0000000  0.6508444  3
     52     51     50     64     1  0.0000000  0.6508444  3
     53     47     46     59     1  0.0000000  3.3472000  1
     53     47     46     59     1  0.0000000  0.0000000  2
     53     47     46     59     1  180.0000771  0.3347200  3
     53     47     46     60     1  0.0000000  3.3472000  1
     53     47     46     60     1  0.0000000  0.0000000  2
     53     47     46     60     1  180.0000771  0.3347200  3
     53     47    147    148     1  0.0000000  8.3680000  1
     53     47    147    148     1  180.0000771  10.4600000  2
     54     49     48     61     1  0.0000000  3.3472000  1
     54     49     48     61     1  0.0000000  0.0000000  2
     54     49     48     61     1  180.0000771  0.3347200  3
     54     49     48     62     1  0.0000000  3.3472000  1
     54     49     48     62     1  0.0000000  0.0000000  2
     54     49     48     62     1  180.0000771  0.3347200  3
     54     49    159    160     1  0.0000000  8.3680000  1
     54     49    159    160     1  180.0000771  10.4600000  2
     55     44     43     68     1  0.0000000  0.6508444  3
     55     44     46     59     1  0.0000000  0.6508444  3
     55     44     46     60     1  0.0000000  0.6508444  3
     56     44     43     68     1  0.0000000  0.6508444  3
     56     44     46     59     1  0.0000000  0.6508444  3
     56     44     46     60     1  0.0000000  0.6508444  3
     57     45     43     68     1  0.0000000  0.6508444  3
     57     45     48     61     1  0.0000000  0.6508444  3
     57     45     48     62     1  0.0000000  0.6508444  3
     58     45     43     68     1  0.0000000  0.6508444  3
     58     45     48     61     1  0.0000000  0.6508444  3
     58     45     48     62     1  0.0000000  0.6508444  3
     59     46     47    147     1  180.0000771  0.0000000  2
     60     46     47    147     1  180.0000771  0.0000000  2
     61     48     49    159     1  180.0000771  0.0000000  2
     62     48     49    159     1  180.0000771  0.0000000  2
     63     50     43     68     1  0.0000000  0.6508444  3
     63     50     51     65     1  0.0000000  0.6508444  3
     63     50     51     66     1  0.0000000  0.6508444  3
     64     50     43     68     1  0.0000000  0.6508444  3
     64     50     51     65     1  0.0000000  0.6508444  3
     64     50     51     66     1  0.0000000  0.6508444  3
     65     51     52     67     1  0.0000000  0.0000000  2
     66     51     52     67     1  0.0000000  0.0000000  2
     69     70     72     85     1  0.0000000  0.6508444  3
     69     70     72     86     1  0.0000000  0.6508444  3
     69     71     74     87     1  0.0000000  0.6508444  3
     69     71     74     88     1  0.0000000  0.6508444  3
     69     76     77     91     1  0.0000000  0.6508444  3
     69     76     77     92     1  0.0000000  0.6508444  3
     70     69     71     83     1  0.0000000  0.6508444  3
     70     69     71     84     1  0.0000000  0.6508444  3
     70     69     76     89     1  0.0000000  0.6508444  3
     70     69     76     90     1  0.0000000  0.6508444  3
     71     69     70     81     1  0.0000000  0.6508444  3
     71     69     70     82     1  0.0000000  0.6508444  3
     71     69     76     89     1  0.0000000  0.6508444  3
     71     69     76     90     1  0.0000000  0.6508444  3
     72     70     69     94     1  0.0000000  0.6508444  3
     72     73    171    172     1  180.0000771  10.4600000  2
     73     72     70     81     1  0.0000000  0.6508444  3
     73     72     70     82     1  0.0000000  0.6508444  3
     73    171    173    175     1  0.0000000  0.0000000  2
     73    171    173    176     1  0.0000000  0.0000000  2
     74     71     69     94     1  0.0000000  0.6508444  3
     74     75    183    184     1  180.0000771  10.4600000  2
     75     74     71     83     1  0.0000000  0.6508444  3
     75     74     71     84     1  0.0000000  0.6508444  3
     75    183    185    187     1  0.0000000  0.0000000  2
     75    183    185    188     1  0.0000000  0.0000000  2
     76     69     70     81     1  0.0000000  0.6508444  3
     76     69     70     82     1  0.0000000  0.6508444  3
     76     69     71     83     1  0.0000000  0.6508444  3
     76     69     71     84     1  0.0000000  0.6508444  3
     76     77     78     93     1  0.0000000  0.0000000  2
     77     76     69     94     1  0.0000000  0.6508444  3
     78     77     76     89     1  0.0000000  0.6508444  3
     78     77     76     90     1  0.0000000  0.6508444  3
     79     73     72     85     1  0.0000000  3.3472000  1
     79     73     72     85     1  0.0000000  0.0000000  2
     79     73     72     85     1  180.0000771  0.3347200  3
     79     73     72     86     1  0.0000000  3.3472000  1
     79     73     72     86     1  0.0000000  0.0000000  2
     79     73     72     86     1  180.0000771  0.3347200  3
     79     73    171    172     1  0.0000000  8.3680000  1
     79     73    171    172     1  180.0000771  10.4600000  2
     80     75     74     87     1  0.0000000  3.3472000  1
     80     75     74     87     1  0.0000000  0.0000000  2
     80     75     74     87     1  180.0000771  0.3347200  3
     80     75     74     88     1  0.0000000  3.3472000  1
     80     75     74     88     1  0.0000000  0.0000000  2
     80     75     74     88     1  180.0000771  0.3347200  3
     80     75    183    184     1  0.0000000  8.3680000  1
     80     75    183    184     1  180.0000771  10.4600000  2
     81     70     69     94     1  0.0000000  0.6508444  3
     81     70     72     85     1  0.0000000  0.6508444  3
     81     70     72     86     1  0.0000000  0.6508444  3
     82     70     69     94     1  0.0000000  0.6508444  3
     82     70     72     85     1  0.0000000  0.6508444  3
     82     70     72     86     1  0.0000000  0.6508444  3
     83     71     69     94     1  0.0000000  0.6508444  3
     83     71     74     87     1  0.0000000  0.6508444  3
     83     71     74     88     1  0.0000000  0.6508444  3
     84     71     69     94     1  0.0000000  0.6508444  3
     84     71     74     87     1  0.0000000  0.6508444  3
     84     71     74     88     1  0.0000000  0.6508444  3
     85     72     73    171     1  180.0000771  0.0000000  2
     86     72     73    171     1  180.0000771  0.0000000  2
     87     74     75    183     1  180.0000771  0.0000000  2
     88     74     75    183     1  180.0000771  0.0000000  2
     89     76     69     94     1  0.0000000  0.6508444  3
     89     76     77     91     1  0.0000000  0.6508444  3
     89     76     77     92     1  0.0000000  0.6508444  3
     90     76     69     94     1  0.0000000  0.6508444  3
     90     76     77     91     1  0.0000000  0.6508444  3
     90     76     77     92     1  0.0000000  0.6508444  3
     91     77     78     93     1  0.0000000  0.0000000  2
     92     77     78     93     1  0.0000000  0.0000000  2
     95     96     98    111     1  0.0000000  0.6508444  3
     95     96     98    112     1  0.0000000  0.6508444  3
     95     97    100    113     1  0.0000000  0.6508444  3
     95     97    100    114     1  0.0000000  0.6508444  3
     95    102    103    117     1  0.0000000  0.6508444  3
     95    102    103    118     1  0.0000000  0.6508444  3
     96     95     97    109     1  0.0000000  0.6508444  3
     96     95     97    110     1  0.0000000  0.6508444  3
     96     95    102    115     1  0.0000000  0.6508444  3
     96     95    102    116     1  0.0000000  0.6508444  3
     97     95     96    107     1  0.0000000  0.6508444  3
     97     95     96    108     1  0.0000000  0.6508444  3
     97     95    102    115     1  0.0000000  0.6508444  3
     97     95    102    116     1  0.0000000  0.6508444  3
     98     96     95    120     1  0.0000000  0.6508444  3
     98     99    195    196     1  180.0000771  10.4600000  2
     99     98     96    107     1  0.0000000  0.6508444  3
     99     98     96    108     1  0.0000000  0.6508444  3
     99    195    197    199     1  0.0000000  0.0000000  2
     99    195    197    200     1  0.0000000  0.0000000  2
    100     97     95    120     1  0.0000000  0.6508444  3
    100    101    207    208     1  180.0000771  10.4600000  2
    101    100     97    109     1  0.0000000  0.6508444  3
    101    100     97    110     1  0.0000000  0.6508444  3
    101    207    209    211     1  0.0000000  0.0000000  2
    101    207    209    212     1  0.0000000  0.0000000  2
    102     95     96    107     1  0.0000000  0.6508444  3
    102     95     96    108     1  0.0000000  0.6508444  3
    102     95     97    109     1  0.0000000  0.6508444  3
    102     95     97    110     1  0.0000000  0.6508444  3
    102    103    104    119     1  0.0000000  0.0000000  2
    103    102     95    120     1  0.0000000  0.6508444  3
    104    103    102    115     1  0.0000000  0.6508444  3
    104    103    102    116     1  0.0000000  0.6508444  3
    105     99     98    111     1  0.0000000  3.3472000  1
    105     99     98    111     1  0.0000000  0.0000000  2
    105     99     98    111     1  180.0000771  0.3347200  3
    105     99     98    112     1  0.0000000  3.3472000  1
    105     99     98    112     1  0.0000000  0.0000000  2
    105     99     98    112     1  180.0000771  0.3347200  3
    105     99    195    196     1  0.0000000  8.3680000  1
    105     99    195    196     1  180.0000771  10.4600000  2
    106    101    100    113     1  0.0000000  3.3472000  1
    106    101    100    113     1  0.0000000  0.0000000  2
    106    101    100    113     1  180.0000771  0.3347200  3
    106    101    100    114     1  0.0000000  3.3472000  1
    106    101    100    114     1  0.0000000  0.0000000  2
    106    101    100    114     1  180.0000771  0.3347200  3
    106    101    207    208     1  0.0000000  8.3680000  1
    106    101    207    208     1  180.0000771  10.4600000  2
    107     96     95    120     1  0.0000000  0.6508444  3
    107     96     98    111     1  0.0000000  0.6508444  3
    107     96     98    112     1  0.0000000  0.6508444  3
    108     96     95    120     1  0.0000000  0.6508444  3
    108     96     98    111     1  0.0000000  0.6508444  3
    108     96     98    112     1  0.0000000  0.6508444  3
    109     97     95    120     1  0.0000000  0.6508444  3
    109     97    100    113     1  0.0000000  0.6508444  3
    109     97    100    114     1  0.0000000  0.6508444  3
    110     97     95    120     1  0.0000000  0.6508444  3
    110     97    100    113     1  0.0000000  0.6508444  3
    110     97    100    114     1  0.0000000  0.6508444  3
    111     98     99    195     1  180.0000771  0.0000000  2
    112     98     99    195     1  180.0000771  0.0000000  2
    113    100    101    207     1  180.0000771  0.0000000  2
    114    100    101    207     1  180.0000771  0.0000000  2
    115    102     95    120     1  0.0000000  0.6508444  3
    115    102    103    117     1  0.0000000  0.6508444  3
    115    102    103    118     1  0.0000000  0.6508444  3
    116    102     95    120     1  0.0000000  0.6508444  3
    116    102    103    117     1  0.0000000  0.6508444  3
    116    102    103    118     1  0.0000000  0.6508444  3
    117    103    104    119     1  0.0000000  0.0000000  2
    118    103    104    119     1  0.0000000  0.0000000  2
    121    122    124    137     1  0.0000000  0.6508444  3
    121    122    124    138     1  0.0000000  0.6508444  3
    121    123    126    139     1  0.0000000  0.6508444  3
    121    123    126    140     1  0.0000000  0.6508444  3
    121    128    129    143     1  0.0000000  0.6508444  3
    121    128    129    144     1  0.0000000  0.6508444  3
    122    121    123    135     1  0.0000000  0.6508444  3
    122    121    123    136     1  0.0000000  0.6508444  3
    122    121    128    141     1  0.0000000  0.6508444  3
    122    121    128    142     1  0.0000000  0.6508444  3
    123    121    122    133     1  0.0000000  0.6508444  3
    123    121    122    134     1  0.0000000  0.6508444  3
    123    121    128    141     1  0.0000000  0.6508444  3
    123    121    128    142     1  0.0000000  0.6508444  3
    124    122    121    146     1  0.0000000  0.6508444  3
    124    125    219    220     1  180.0000771  10.4600000  2
    125    124    122    133     1  0.0000000  0.6508444  3
    125    124    122    134     1  0.0000000  0.6508444  3
    125    219    221    223     1  0.0000000  0.0000000  2
    125    219    221    224     1  0.0000000  0.0000000  2
    126    123    121    146     1  0.0000000  0.6508444  3
    126    127    231    232     1  180.0000771  10.4600000  2
    127    126    123    135     1  0.0000000  0.6508444  3
    127    126    123    136     1  0.0000000  0.6508444  3
    127    231    233    235     1  0.0000000  0.0000000  2
    127    231    233    236     1  0.0000000  0.0000000  2
    128    121    122    133     1  0.0000000  0.6508444  3
    128    121    122    134     1  0.0000000  0.6508444  3
    128    121    123    135     1  0.0000000  0.6508444  3
    128    121    123    136     1  0.0000000  0.6508444  3
    128    129    130    145     1  0.0000000  0.0000000  2
    129    128    121    146     1  0.0000000  0.6508444  3
    130    129    128    141     1  0.0000000  0.6508444  3
    130    129    128    142     1  0.0000000  0.6508444  3
    131    125    124    137     1  0.0000000  3.3472000  1
    131    125    124    137     1  0.0000000  0.0000000  2
    131    125    124    137     1  180.0000771  0.3347200  3
    131    125    124    138     1  0.0000000  3.3472000  1
    131    125    124    138     1  0.0000000  0.0000000  2
    131    125    124    138     1  180.0000771  0.3347200  3
    131    125    219    220     1  0.0000000  8.3680000  1
    131    125    219    220     1  180.0000771  10.4600000  2
    132    127    126    139     1  0.0000000  3.3472000  1
    132    127    126    139     1  0.0000000  0.0000000  2
    132    127    126    139     1  180.0000771  0.3347200  3
    132    127    126    140     1  0.0000000  3.3472000  1
    132    127    126    140     1  0.0000000  0.0000000  2
    132    127    126    140     1  180.0000771  0.3347200  3
    132    127    231    232     1  0.0000000  8.3680000  1
    132    127    231    232     1  180.0000771  10.4600000  2
    133    122    121    146     1  0.0000000  0.6508444  3
    133    122    124    137     1  0.0000000  0.6508444  3
    133    122    124    138     1  0.0000000  0.6508444  3
    134    122    121    146     1  0.0000000  0.6508444  3
    134    122    124    137     1  0.0000000  0.6508444  3
    134    122    124    138     1  0.0000000  0.6508444  3
    135    123    121    146     1  0.0000000  0.6508444  3
    135    123    126    139     1  0.0000000  0.6508444  3
    135    123    126    140     1  0.0000000  0.6508444  3
    136    123    121    146     1  0.0000000  0.6508444  3
    136    123    126    139     1  0.0000000  0.6508444  3
    136    123    126    140     1  0.0000000  0.6508444  3
    137    124    125    219     1  180.0000771  0.0000000  2
    138    124    125    219     1  180.0000771  0.0000000  2
    139    126    127    231     1  180.0000771  0.0000000  2
    140    126    127    231     1  180.0000771  0.0000000  2
    141    128    121    146     1  0.0000000  0.6508444  3
    141    128    129    143     1  0.0000000  0.6508444  3
    141    128    129    144     1  0.0000000  0.6508444  3
    142    128    121    146     1  0.0000000  0.6508444  3
    142    128    129    143     1  0.0000000  0.6508444  3
    142    128    129    144     1  0.0000000  0.6508444  3
    143    129    130    145     1  0.0000000  0.0000000  2
    144    129    130    145     1  0.0000000  0.0000000  2
    147    149    150    153     1  0.0000000  0.6508444  3
    147    149    150    154     1  0.0000000  0.6508444  3
    148    147    149    150     1  0.0000000  0.0000000  2
    148    147    149    151     1  0.0000000  0.0000000  2
    148    147    149    152     1  0.0000000  0.0000000  2
    149    150    155    156     1  0.0000000  0.6508444  3
    149    150    155    157     1  0.0000000  0.6508444  3
    149    150    155    158     1  0.0000000  0.6508444  3
    151    149    150    155     1  0.0000000  0.6508444  3
    151    149    150    153     1  0.0000000  0.6508444  3
    151    149    150    154     1  0.0000000  0.6508444  3
    152    149    150    155     1  0.0000000  0.6508444  3
    152    149    150    153     1  0.0000000  0.6508444  3
    152    149    150    154     1  0.0000000  0.6508444  3
    153    150    155    156     1  0.0000000  0.6508444  3
    153    150    155    157     1  0.0000000  0.6508444  3
    153    150    155    158     1  0.0000000  0.6508444  3
    154    150    155    156     1  0.0000000  0.6508444  3
    154    150    155    157     1  0.0000000  0.6508444  3
    154    150    155    158     1  0.0000000  0.6508444  3
    159    161    162    165     1  0.0000000  0.6508444  3
    159    161    162    166     1  0.0000000  0.6508444  3
    160    159    161    162     1  0.0000000  0.0000000  2
    160    159    161    163     1  0.0000000  0.0000000  2
    160    159    161    164     1  0.0000000  0.0000000  2
    161    162    167    168     1  0.0000000  0.6508444  3
    161    162    167    169     1  0.0000000  0.6508444  3
    161    162    167    170     1  0.0000000  0.6508444  3
    163    161    162    167     1  0.0000000  0.6508444  3
    163    161    162    165     1  0.0000000  0.6508444  3
    163    161    162    166     1  0.0000000  0.6508444  3
    164    161    162    167     1  0.0000000  0.6508444  3
    164    161    162    165     1  0.0000000  0.6508444  3
    164    161    162    166     1  0.0000000  0.6508444  3
    165    162    167    168     1  0.0000000  0.6508444  3
    165    162    167    169     1  0.0000000  0.6508444  3
    165    162    167    170     1  0.0000000  0.6508444  3
    166    162    167    168     1  0.0000000  0.6508444  3
    166    162    167    169     1  0.0000000  0.6508444  3
    166    162    167    170     1  0.0000000  0.6508444  3
    171    173    174    177     1  0.0000000  0.6508444  3
    171    173    174    178     1  0.0000000  0.6508444  3
    172    171    173    174     1  0.0000000  0.0000000  2
    172    171    173    175     1  0.0000000  0.0000000  2
    172    171    173    176     1  0.0000000  0.0000000  2
    173    174    179    180     1  0.0000000  0.6508444  3
    173    174    179    181     1  0.0000000  0.6508444  3
    173    174    179    182     1  0.0000000  0.6508444  3
    175    173    174    179     1  0.0000000  0.6508444  3
    175    173    174    177     1  0.0000000  0.6508444  3
    175    173    174    178     1  0.0000000  0.6508444  3
    176    173    174    179     1  0.0000000  0.6508444  3
    176    173    174    177     1  0.0000000  0.6508444  3
    176    173    174    178     1  0.0000000  0.6508444  3
    177    174    179    180     1  0.0000000  0.6508444  3
    177    174    179    181     1  0.0000000  0.6508444  3
    177    174    179    182     1  0.0000000  0.6508444  3
    178    174    179    180     1  0.0000000  0.6508444  3
    178    174    179    181     1  0.0000000  0.6508444  3
    178    174    179    182     1  0.0000000  0.6508444  3
    183    185    186    189     1  0.0000000  0.6508444  3
    183    185    186    190     1  0.0000000  0.6508444  3
    184    183    185    186     1  0.0000000  0.0000000  2
    184    183    185    187     1  0.0000000  0.0000000  2
    184    183    185    188     1  0.0000000  0.0000000  2
    185    186    191    192     1  0.0000000  0.6508444  3
    185    186    191    193     1  0.0000000  0.6508444  3
    185    186    191    194     1  0.0000000  0.6508444  3
    187    185    186    191     1  0.0000000  0.6508444  3
    187    185    186    189     1  0.0000000  0.6508444  3
    187    185    186    190     1  0.0000000  0.6508444  3
    188    185    186    191     1  0.0000000  0.6508444  3
    188    185    186    189     1  0.0000000  0.6508444  3
    188    185    186    190     1  0.0000000  0.6508444  3
    189    186    191    192     1  0.0000000  0.6508444  3
    189    186    191    193     1  0.0000000  0.6508444  3
    189    186    191    194     1  0.0000000  0.6508444  3
    190    186    191    192     1  0.0000000  0.6508444  3
    190    186    191    193     1  0.0000000  0.6508444  3
    190    186    191    194     1  0.0000000  0.6508444  3
    195    197    198    201     1  0.0000000  0.6508444  3
    195    197    198    202     1  0.0000000  0.6508444  3
    196    195    197    198     1  0.0000000  0.0000000  2
    196    195    197    199     1  0.0000000  0.0000000  2
    196    195    197    200     1  0.0000000  0.0000000  2
    197    198    203    204     1  0.0000000  0.6508444  3
    197    198    203    205     1  0.0000000  0.6508444  3
    197    198    203    206     1  0.0000000  0.6508444  3
    199    197    198    203     1  0.0000000  0.6508444  3
    199    197    198    201     1  0.0000000  0.6508444  3
    199    197    198    202     1  0.0000000  0.6508444  3
    200    197    198    203     1  0.0000000  0.6508444  3
    200    197    198    201     1  0.0000000  0.6508444  3
    200    197    198    202     1  0.0000000  0.6508444  3
    201    198    203    204     1  0.0000000  0.6508444  3
    201    198    203    205     1  0.0000000  0.6508444  3
    201    198    203    206     1  0.0000000  0.6508444  3
    202    198    203    204     1  0.0000000  0.6508444  3
    202    198    203    205     1  0.0000000  0.6508444  3
    202    198    203    206     1  0.0000000  0.6508444  3
    207    209    210    213     1  0.0000000  0.6508444  3
    207    209    210    214     1  0.0000000  0.6508444  3
    208    207    209    210     1  0.0000000  0.0000000  2
    208    207    209    211     1  0.0000000  0.0000000  2
    208    207    209    212     1  0.0000000  0.0000000  2
    209    210    215    216     1  0.0000000  0.6508444  3
    209    210    215    217     1  0.0000000  0.6508444  3
    209    210    215    218     1  0.0000000  0.6508444  3
    211    209    210    215     1  0.0000000  0.6508444  3
    211    209    210    213     1  0.0000000  0.6508444  3
    211    209    210    214     1  0.0000000  0.6508444  3
    212    209    210    215     1  0.0000000  0.6508444  3
    212    209    210    213     1  0.0000000  0.6508444  3
    212    209    210    214     1  0.0000000  0.6508444  3
    213    210    215    216     1  0.0000000  0.6508444  3
    213    210    215    217     1  0.0000000  0.6508444  3
    213    210    215    218     1  0.0000000  0.6508444  3
    214    210    215    216     1  0.0000000  0.6508444  3
    214    210    215    217     1  0.0000000  0.6508444  3
    214    210    215    218     1  0.0000000  0.6508444  3
    219    221    222    225     1  0.0000000  0.6508444  3
    219    221    222    226     1  0.0000000  0.6508444  3
    220    219    221    222     1  0.0000000  0.0000000  2
    220    219    221    223     1  0.0000000  0.0000000  2
    220    219    221    224     1  0.0000000  0.0000000  2
    221    222    227    228     1  0.0000000  0.6508444  3
    221    222    227    229     1  0.0000000  0.6508444  3
    221    222    227    230     1  0.0000000  0.6508444  3
    223    221    222    227     1  0.0000000  0.6508444  3
    223    221    222    225     1  0.0000000  0.6508444  3
    223    221    222    226     1  0.0000000  0.6508444  3
    224    221    222    227     1  0.0000000  0.6508444  3
    224    221    222    225     1  0.0000000  0.6508444  3
    224    221    222    226     1  0.0000000  0.6508444  3
    225    222    227    228     1  0.0000000  0.6508444  3
    225    222    227    229     1  0.0000000  0.6508444  3
    225    222    227    230     1  0.0000000  0.6508444  3
    226    222    227    228     1  0.0000000  0.6508444  3
    226    222    227    229     1  0.0000000  0.6508444  3
    226    222    227    230     1  0.0000000  0.6508444  3
    231    233    234    237     1  0.0000000  0.6508444  3
    231    233    234    238     1  0.0000000  0.6508444  3
    232    231    233    234     1  0.0000000  0.0000000  2
    232    231    233    235     1  0.0000000  0.0000000  2
    232    231    233    236     1  0.0000000  0.0000000  2
    233    234    239    240     1  0.0000000  0.6508444  3
    233    234    239    241     1  0.0000000  0.6508444  3
    233    234    239    242     1  0.0000000  0.6508444  3
    235    233    234    239     1  0.0000000  0.6508444  3
    235    233    234    237     1  0.0000000  0.6508444  3
    235    233    234    238     1  0.0000000  0.6508444  3
    236    233    234    239     1  0.0000000  0.6508444  3
    236    233    234    237     1  0.0000000  0.6508444  3
    236    233    234    238     1  0.0000000  0.6508444  3
    237    234    239    240     1  0.0000000  0.6508444  3
    237    234    239    241     1  0.0000000  0.6508444  3
    237    234    239    242     1  0.0000000  0.6508444  3
    238    234    239    240     1  0.0000000  0.6508444  3
    238    234    239    241     1  0.0000000  0.6508444  3
    238    234    239    242     1  0.0000000  0.6508444  3
     10     51     52     67     4  180.0000771  4.6024000  2
     12     77     78     93     4  180.0000771  4.6024000  2
     14    103    104    119     4  180.0000771  4.6024000  2
     16    129    130    145     4  180.0000771  4.6024000  2
     47    149    147    148     4  180.0000771  4.6024000  2
     49    161    159    160     4  180.0000771  4.6024000  2
     73    173    171    172     4  180.0000771  4.6024000  2
     75    185    183    184     4  180.0000771  4.6024000  2
     99    197    195    196     4  180.0000771  4.6024000  2
    101    209    207    208     4  180.0000771  4.6024000  2
    125    221    219    220     4  180.0000771  4.6024000  2
    127    233    231    232     4  180.0000771  4.6024000  2

;[ system ]
;; Name
;Generic title
;
;[ molecules ]
;; Compound       #mols
;g1dp_pamam          1
