G1DP-PAMAM in water
11157
    1aaa     N1    1   0.049   1.075   4.136 -0.2976  0.0607 -0.2139
    1aaa     C1    2   0.151   0.996   4.209 -0.3115  0.1094  0.1048
    1aaa     C2    3   0.281   0.982   4.128 -0.3958 -1.2746  0.7223
    1aaa     N2    4   0.364   0.865   4.169  0.2232  0.7202 -0.5556
    1aaa     C3    5   0.508   0.886   4.119  0.3628  0.5659 -0.1742
    1aaa     C4    6   0.295   0.742   4.106  0.7840 -0.1754 -0.5171
    1aaa     C5    7   0.078   1.221   4.128  0.2448 -0.3473 -0.3037
    1aaa     C6    8  -0.085   1.045   4.201 -0.2127 -0.2175  0.1253
    1aaa     C7    9   0.361   0.604   4.133  0.2168  0.6924  0.4345
    1aaa     C8   10   0.291   0.480   4.068 -0.3341 -0.7213  0.6468
    1aaa     C9   11   0.575   0.996   4.207 -0.0721  0.4523  0.2106
    1aaa    C10   12   0.716   1.008   4.160 -0.5763  0.6477  0.1664
    1aaa    C11   13   0.076   1.300   4.261 -0.1501 -0.1724  0.4643
    1aaa    C12   14   0.079   1.449   4.234  0.9260  0.5323 -0.2794
    1aaa    C13   15  -0.169   0.936   4.134 -0.1930 -0.1957  0.3140
    1aaa    C14   16  -0.314   0.950   4.192  0.3010 -0.4560 -0.4319
    1aaa     O1   17   0.750   1.031   4.045 -0.3174 -0.2737  0.2284
    1aaa     O2   18   0.229   0.502   3.965  0.5726  0.1963  0.1887
    1aaa     O3   19  -0.352   1.000   4.298 -0.7791  0.8567  0.8694
    1aaa     O4   20   0.058   1.492   4.118 -0.5205 -0.1600  0.3888
    1aaa     H1   21   0.109   0.898   4.230 -2.0084  0.6649 -0.5832
    1aaa     H2   22   0.170   1.048   4.303 -2.7513  0.1895  0.5980
    1aaa     H3   23   0.345   1.067   4.151 -1.9469 -0.0826  0.8036
    1aaa     H4   24   0.261   0.976   4.021 -0.3529 -2.7362  0.7723
    1aaa     H5   25   0.501   0.915   4.014  0.4079 -2.5611 -1.1234
    1aaa     H6   26   0.576   0.801   4.118 -0.3192  0.0243 -0.7015
    1aaa     H7   27   0.191   0.732   4.138  1.0989 -1.4493  0.1774
    1aaa     H8   28   0.291   0.748   3.997 -0.9962 -2.4796 -0.6699
    1aaa     H9   29   0.171   1.246   4.076 -0.4851  0.7136 -1.1381
    1aaa    H10   30  -0.004   1.253   4.064  0.6978  1.6155  0.0308
    1aaa    H11   31  -0.075   1.037   4.310  1.1761 -0.1287  0.0125
    1aaa    H12   32  -0.139   1.131   4.161 -0.1036  0.1322  0.7170
    1aaa    H13   33   0.451   0.613   4.071 -0.5280 -0.7933 -0.9279
    1aaa    H14   34   0.372   0.593   4.242 -0.2128  1.1357  0.5244
    1aaa    H15   35   0.575   0.964   4.312 -1.9776  0.8738  0.3700
    1aaa    H16   36   0.521   1.091   4.205 -0.0241  0.4795  0.2228
    1aaa    H17   37  -0.017   1.285   4.317 -1.1228  0.4623 -0.9221
    1aaa    H18   38   0.159   1.281   4.331 -0.2121  1.7509  1.1263
    1aaa    H19   39  -0.166   0.943   4.025 -1.3596  0.7936  0.3259
    1aaa    H20   40  -0.122   0.840   4.158  0.5237 -0.1294 -0.7855
    1aaa    H37   41   0.042   1.038   4.040  0.9143  2.3919 -1.2732
    1aaa    H38   42   0.370   0.857   4.272 -2.1594  1.0108 -0.3296
    2bbb     N1   43   0.243   0.065   3.884 -0.1645  0.1193 -0.1445
    2bbb     C1   44   0.335  -0.018   3.800  0.4176 -0.4833  0.3188
    2bbb     C2   45   0.130   0.129   3.805  0.2693  0.8768  0.2455
    2bbb     C3   46   0.281  -0.159   3.771 -0.0075  0.2787 -0.4787
    2bbb     C4   47   0.263  -0.241   3.902  0.3000  0.3868  0.3726
    2bbb     C5   48   0.159   0.247   3.709 -0.0128 -0.2803  0.6323
    2bbb     C6   49   0.241   0.212   3.587  0.5644  0.6113 -0.1929
    2bbb     C7   50   0.315   0.173   3.962  0.0586  0.5381  0.4408
    2bbb     C8   51   0.238   0.237   4.077 -0.0644  0.1259  0.2267
    2bbb     N2   52   0.304   0.359   4.131 -0.0928 -0.2022 -0.3951
    2bbb     O1   53   0.308  -0.199   4.007 -0.1013  0.4580 -0.1677
    2bbb     O2   54   0.236   0.100   3.533 -0.0746  0.0932 -0.2319
    2bbb     H1   55   0.351   0.037   3.707  1.2565 -0.1257  0.6649
    2bbb     H2   56   0.433  -0.032   3.847  0.8427 -2.1436 -0.9461
    2bbb     H3   57   0.040   0.151   3.863 -0.0708  1.5274 -0.5108
    2bbb     H4   58   0.100   0.046   3.740 -1.0756  1.9489 -0.5381
    2bbb     H5   59   0.184  -0.141   3.724 -0.3849  0.1125  0.2318
    2bbb     H6   60   0.346  -0.219   3.707  3.1055  0.6904  2.0303
    2bbb     H7   61   0.201   0.335   3.760 -0.1141  0.2055 -0.1073
    2bbb     H8   62   0.062   0.285   3.675  0.5699  1.3890  0.7650
    2bbb     H9   63   0.337   0.250   3.888 -0.1968 -0.5277 -0.7793
    2bbb    H10   64   0.403   0.121   4.000 -1.2805 -0.3264  2.5731
    2bbb    H11   65   0.224   0.163   4.156 -0.0597 -0.8680 -0.6835
    2bbb    H12   66   0.140   0.271   4.041  0.1951  0.4511 -0.1902
    2bbb    H13   67   0.351   0.359   4.221  0.4507  3.6792 -0.4756
    2bbb    H25   68   0.210   0.002   3.959 -0.5689  0.5215  0.0231
    3bbb     N1   69   1.181   1.022   4.312 -0.2801 -0.2523  0.7032
    3bbb     C1   70   1.253   1.045   4.443 -0.1753  0.0769 -0.4779
    3bbb     C2   71   1.195   1.154   4.224  0.4169  0.7984 -0.3021
    3bbb     C3   72   1.213   1.158   4.542  0.1798  0.3650 -0.2127
    3bbb     C4   73   1.300   1.160   4.669  0.4287  0.4855  0.3479
    3bbb     C5   74   1.334   1.149   4.153  0.2193 -0.8837  0.4595
    3bbb     C6   75   1.442   1.234   4.220  0.2854 -0.4767  0.6074
    3bbb     C7   76   1.036   0.987   4.347 -0.2470 -0.0153  0.0567
    3bbb     C8   77   0.949   0.961   4.224 -0.1998 -0.1775  0.5536
    3bbb     N2   78   0.809   0.980   4.257 -0.0051 -0.2298  0.2515
    3bbb     O1   79   1.376   1.070   4.706  0.0296 -0.4417 -0.0626
    3bbb     O2   80   1.443   1.265   4.337  0.1367 -0.1345 -0.6295
    3bbb     H1   81   1.252   0.948   4.493  0.4169 -0.7034 -1.9148
    3bbb     H2   82   1.359   1.057   4.417  0.4172 -0.3595  1.5141
    3bbb     H3   83   1.169   1.241   4.284 -1.9459 -0.6389  0.8851
    3bbb     H4   84   1.122   1.146   4.143 -1.9725 -0.5061  1.8448
    3bbb     H5   85   1.219   1.258   4.496 -0.4396  0.3873 -0.2424
    3bbb     H6   86   1.115   1.135   4.584 -0.4253 -3.2014 -3.0486
    3bbb     H7   87   1.319   1.190   4.053 -0.8611  1.8417  1.6488
    3bbb     H8   88   1.377   1.048   4.145 -0.8159 -1.5141  2.3324
    3bbb     H9   89   0.992   1.064   4.410 -1.0630  0.5075 -1.1134
    3bbb    H10   90   1.050   0.902   4.414  2.8912  0.9335  0.7885
    3bbb    H11   91   0.960   0.858   4.188  1.8191  0.4750 -0.8833
    3bbb    H12   92   0.980   1.012   4.133 -1.2302 -1.1664 -0.3811
    3bbb    H13   93   0.789   0.995   4.355  2.0563  0.7128  0.5827
    3bbb    H25   94   1.218   0.941   4.260  0.8865 -0.1915  1.4001
    4bbb     N1   95   0.033   1.905   4.260  0.1302  0.1472  0.4891
    4bbb     C1   96   0.116   1.991   4.167  0.2527 -0.0063 -0.6161
    4bbb     C2   97   0.041   1.973   4.395  0.2760  0.6657 -0.5636
    4bbb     C3   98   0.154   1.927   4.031 -0.1389  0.2758  0.0839
    4bbb     C4   99   0.241   2.025   3.958  0.0816 -0.2418 -0.1167
    4bbb     C5  100  -0.037   2.106   4.416  0.6701  0.0665 -0.2957
    4bbb     C6  101  -0.018   2.186   4.545 -0.5365 -0.3243  0.0878
    4bbb     C7  102   0.104   1.772   4.278  0.2813  0.6056  0.2198
    4bbb     C8  103   0.023   1.663   4.346  0.0079  0.5102 -0.4372
    4bbb     N2  104   0.089   1.534   4.340  0.8035  0.7600 -0.0088
    4bbb     O1  105   0.352   2.050   3.993 -0.0626  0.4001 -0.0933
    4bbb     O2  106   0.054   2.146   4.641  0.0880  0.2854 -0.1374
    4bbb     H1  107   0.051   2.077   4.149  0.3222  0.2841  0.4532
    4bbb     H2  108   0.213   2.026   4.203 -0.9629  3.1487 -0.1148
    4bbb     H3  109   0.145   1.970   4.426  0.1775 -0.8288 -0.2757
    4bbb     H4  110  -0.018   1.903   4.455 -3.4960  3.2802 -0.8816
    4bbb     H5  111   0.204   1.830   4.038  0.0344  0.1809 -1.9269
    4bbb     H6  112   0.068   1.911   3.966  0.0830  2.5716 -0.8790
    4bbb     H7  113  -0.144   2.085   4.406  0.6339  0.2414 -0.2755
    4bbb     H8  114  -0.014   2.178   4.337 -0.6270  0.8703  0.0498
    4bbb     H9  115   0.195   1.783   4.338  1.2381 -2.2849 -0.5099
    4bbb    H10  116   0.116   1.727   4.180 -4.0223 -0.6206  0.0709
    4bbb    H11  117  -0.078   1.658   4.303  0.7196  0.5927 -2.1873
    4bbb    H12  118   0.009   1.693   4.451 -0.9771  0.0896 -0.4377
    4bbb    H13  119   0.115   1.490   4.427 -1.0718  0.1733  0.2977
    4bbb    H25  120  -0.065   1.892   4.232  0.8179  0.7713 -2.5251
    5bbb     N1  121  -0.780   0.865   4.046  0.3898  0.1902  0.4633
    5bbb     C1  122  -0.835   0.932   4.177 -0.3231  0.3330 -0.6908
    5bbb     C2  123  -0.789   0.712   4.020  0.0889 -0.1331 -0.3537
    5bbb     C3  124  -0.830   1.086   4.194  0.1715  0.2147  0.0557
    5bbb     C4  125  -0.896   1.144   4.321 -0.1262 -0.1881 -0.7691
    5bbb     C5  126  -0.915   0.637   4.062  0.0214  0.3532  0.0706
    5bbb     C6  127  -0.891   0.486   4.044 -0.5202  0.7905 -0.3908
    5bbb     C7  128  -0.632   0.903   4.030 -0.5063  0.4786 -0.2925
    5bbb     C8  129  -0.535   0.862   4.142 -0.7084  0.3106 -0.1781
    5bbb     N2  130  -0.404   0.910   4.098  0.2407 -0.2574  0.0659
    5bbb     O1  131  -0.884   1.086   4.429  0.4390 -0.4328  0.0590
    5bbb     O2  132  -0.781   0.434   4.058 -0.1875  0.0843 -0.0704
    5bbb     H1  133  -0.940   0.904   4.181 -0.8633  2.3119  0.6322
    5bbb     H2  134  -0.787   0.886   4.264  1.6764  1.9920 -0.8552
    5bbb     H3  135  -0.704   0.674   4.078 -0.8369 -0.4948  0.7987
    5bbb     H4  136  -0.788   0.698   3.912  1.1880 -1.3627 -0.2068
    5bbb     H5  137  -0.725   1.113   4.209  0.0474  0.2487  0.9281
    5bbb     H6  138  -0.874   1.129   4.103  0.4197 -0.6092 -0.4659
    5bbb     H7  139  -0.996   0.670   3.995  1.7362 -2.2209 -3.5790
    5bbb     H8  140  -0.941   0.661   4.166  0.1859  1.3519 -0.1113
    5bbb     H9  141  -0.618   1.010   4.015  0.0234  0.5279  0.5260
    5bbb    H10  142  -0.599   0.854   3.938 -0.9977  0.8101 -0.6514
    5bbb    H11  143  -0.518   0.754   4.148  0.4155  0.4343 -0.7670
    5bbb    H12  144  -0.574   0.905   4.235  0.6083  0.9228  0.1244
    5bbb    H13  145  -0.364   0.863   4.018 -0.5279  1.6589 -1.5259
    5bbb    H25  146  -0.834   0.905   3.967 -0.1540 -1.3106  0.0450
    6ccc     N1  147   0.188  -0.358   3.888  0.2863 -0.3663  0.0933
    6ccc     H4  148   0.150  -0.386   3.799 -0.7195  2.8112 -0.6200
    6ccc     C3  149   0.149  -0.441   3.998  0.2900 -0.1015  0.1228
    6ccc     C4  150   0.257  -0.537   4.060 -0.1254  0.1927  0.2098
    6ccc     H5  151   0.062  -0.498   3.962 -1.1011  1.5145  0.7586
    6ccc     H6  152   0.114  -0.365   4.069 -0.3705  0.6883 -1.0060
    6ccc     H7  153   0.207  -0.600   4.133  2.9375 -0.7375  1.6917
    6ccc     H8  154   0.303  -0.604   3.986  0.3314 -0.3613  0.9887
    6ccc     N2  155   0.363  -0.459   4.126 -0.3186  0.1656 -0.1951
    6ccc     H9  156   0.406  -0.381   4.074 -1.6459 -0.0828 -1.7424
    6ccc    H10  157   0.311  -0.416   4.204  0.2793  1.5897 -0.5573
    6ccc    H11  158   0.437  -0.510   4.177 -0.4611 -1.4782 -1.5379
    7ccc     N1  159   0.298   0.324   3.530  0.1335 -0.3984 -0.3419
    7ccc     H4  160   0.284   0.410   3.581 -0.8324 -1.6485  1.6116
    7ccc     C3  161   0.345   0.332   3.388  0.2555 -0.0022  0.1063
    7ccc     C4  162   0.493   0.373   3.381 -0.1832  0.5362  0.0713
    7ccc     H5  163   0.291   0.407   3.329  0.8262  0.4828  0.1943
    7ccc     H6  164   0.329   0.235   3.339 -0.4559  1.1314 -2.0304
    7ccc     H7  165   0.497   0.476   3.416 -1.8714  1.3692 -1.9614
    7ccc     H8  166   0.559   0.311   3.442  0.2198  0.1418 -0.7473
    7ccc     N2  167   0.553   0.375   3.236 -0.5198  0.8055 -0.3655
    7ccc     H9  168   0.650   0.407   3.231 -0.4406  0.9002  1.2831
    7ccc    H10  169   0.545   0.281   3.195 -1.4215  0.0290  1.4756
    7ccc    H11  170   0.502   0.435   3.169 -0.4601 -1.2553 -2.4048
    8ccc     N1  171   1.277   1.275   4.745  0.6624  0.3750 -0.3593
    8ccc     H4  172   1.199   1.326   4.704  1.2683  0.7174 -1.1222
    8ccc     C3  173   1.328   1.301   4.879  0.2910 -0.2588 -0.1897
    8ccc     C4  174   1.302   1.445   4.922 -0.0660  0.0880 -0.0318
    8ccc     H5  175   1.434   1.274   4.872  0.1562 -0.8837  0.0627
    8ccc     H6  176   1.283   1.225   4.945  1.5870 -1.8262 -1.0304
    8ccc     H7  177   1.196   1.469   4.923 -0.1939 -0.4790  0.5724
    8ccc     H8  178   1.341   1.445   5.023  0.7401 -0.2065 -0.3307
    8ccc     N2  179   1.380   1.552   4.843  0.4748  0.2422  0.5359
    8ccc     H9  180   1.480   1.551   4.868  0.3020  2.5626  1.5655
    8ccc    H10  181   1.363   1.537   4.742 -1.0625  0.4022  0.7465
    8ccc    H11  182   1.344   1.646   4.864 -0.5049 -0.5365  2.6456
    9ccc     N1  183   1.549   1.250   4.138  0.2840  0.4093 -0.7039
    9ccc     H4  184   1.551   1.218   4.042 -2.5453  0.3750 -0.8158
    9ccc     C3  185   1.681   1.303   4.190 -0.1935 -0.6927 -0.9256
    9ccc     C4  186   1.672   1.438   4.272  0.7760  0.0046  0.5649
    9ccc     H5  187   1.754   1.315   4.109  1.0914  1.1669  0.4244
    9ccc     H6  188   1.728   1.234   4.262 -0.5214  0.6702  0.6781
    9ccc     H7  189   1.615   1.509   4.212  2.2327  1.0558  0.3713
    9ccc     H8  190   1.623   1.423   4.368 -0.3663  2.4619  0.4575
    9ccc     N2  191   1.808   1.496   4.299  0.2577 -0.0712 -0.6255
    9ccc     H9  192   1.875   1.435   4.349  0.1214 -0.1555 -0.5434
    9ccc    H10  193   1.853   1.524   4.211  0.1948 -1.7297 -1.2292
    9ccc    H11  194   1.798   1.572   4.367 -1.1022 -2.9538  2.7126
   10ccc     N1  195   0.187   2.076   3.838  0.3138 -0.2651  0.3894
   10ccc     H4  196   0.105   2.029   3.801  0.2260  0.6716 -0.6579
   10ccc     C3  197   0.280   2.136   3.740  0.1446  0.5887 -0.0814
   10ccc     C4  198   0.199   2.176   3.609  0.3053  0.2578  0.2155
   10ccc     H5  199   0.359   2.064   3.716  0.1082  0.8701 -1.0860
   10ccc     H6  200   0.320   2.222   3.793  0.8017 -0.7793  1.7516
   10ccc     H7  201   0.268   2.226   3.539 -0.2302  1.1370  0.2924
   10ccc     H8  202   0.164   2.085   3.561  1.3785  0.4961 -1.1189
   10ccc     N2  203   0.077   2.264   3.634 -0.5691  0.5716 -0.2480
   10ccc     H9  204   0.100   2.364   3.626 -0.6605  0.5985 -0.1762
   10ccc    H10  205   0.003   2.252   3.563 -1.1585  1.7182  0.1384
   10ccc    H11  206   0.042   2.238   3.727  2.3426  2.1148  1.4189
   11ccc     N1  207  -0.076   2.314   4.552 -0.5570  0.6128  0.2262
   11ccc     H4  208  -0.116   2.325   4.459  1.1812 -2.5543 -1.0758
   11ccc     C3  209  -0.055   2.423   4.644 -0.5659  0.1010  0.2583
   11ccc     C4  210   0.007   2.546   4.571  0.3971 -0.4486  0.0417
   11ccc     H5  211   0.001   2.387   4.731 -1.2178  0.4057  0.8155
   11ccc     H6  212  -0.147   2.459   4.693  0.3551  1.2797  1.1893
   11ccc     H7  213  -0.013   2.540   4.464 -1.1688  1.0307  0.2043
   11ccc     H8  214  -0.043   2.634   4.612  0.5539 -1.0952  1.6924
   11ccc     N2  215   0.149   2.565   4.597  0.1775 -0.1817  0.4691
   11ccc     H9  216   0.161   2.575   4.699  0.3764  2.8672  0.2343
   11ccc    H10  217   0.199   2.478   4.575  0.3015  0.1684 -0.7099
   11ccc    H11  218   0.179   2.657   4.561  1.0245 -0.2956  0.8612
   12ccc     N1  219  -0.961   1.270   4.309 -0.4701  0.9293  0.0400
   12ccc     H4  220  -0.959   1.303   4.214  3.8519 -2.7545 -1.5138
   12ccc     C3  221  -1.038   1.329   4.413  0.8914  0.0932 -0.0700
   12ccc     C4  222  -1.107   1.459   4.358 -0.4010 -0.0011 -0.6417
   12ccc     H5  223  -0.977   1.355   4.500 -0.0838  3.1295 -0.1982
   12ccc     H6  224  -1.114   1.261   4.452  1.0755 -1.1883 -1.7873
   12ccc     H7  225  -1.085   1.539   4.430 -1.1429 -0.8900  0.6150
   12ccc     H8  226  -1.076   1.477   4.255 -0.0882 -0.8536 -0.7086
   12ccc     N2  227  -1.252   1.451   4.355  0.2100  0.6875 -0.2872
   12ccc     H9  228  -1.292   1.519   4.288 -0.7341 -1.7540 -2.3774
   12ccc    H10  229  -1.285   1.360   4.320 -0.5204  0.2880  1.3201
   12ccc    H11  230  -1.285   1.471   4.450 -1.3643  1.1195 -0.8984
   13ccc     N1  231  -1.001   0.410   4.011  0.2515 -0.3520 -0.2301
   13ccc     H4  232  -1.089   0.459   4.000 -0.4940 -0.5519  3.4420
   13ccc     C3  233  -0.993   0.266   3.977 -0.4571 -0.1555 -0.4031
   13ccc     C4  234  -1.125   0.192   3.951  0.5068 -0.0891  0.1836
   13ccc     H5  235  -0.951   0.215   4.065 -1.9319 -1.3550 -0.3596
   13ccc     H6  236  -0.918   0.250   3.898  0.7811  1.8493  0.2914
   13ccc     H7  237  -1.111   0.084   3.954 -1.4684 -0.4121 -0.6933
   13ccc     H8  238  -1.196   0.222   4.027 -1.3767  0.1307 -1.5864
   13ccc     N2  239  -1.192   0.216   3.818  0.4867 -0.3978 -0.5846
   13ccc     H9  240  -1.139   0.191   3.733 -0.1778  1.1677 -1.5028
   13ccc    H10  241  -1.282   0.169   3.799 -0.2124  0.9582 -0.7491
   13ccc    H11  242  -1.213   0.315   3.800  1.0546 -0.4832 -1.7916
   14SOL     OW  243   0.076   4.003   2.308 -0.0598  0.4453 -0.2041
   14SOL    HW1  244   0.006   4.063   2.335 -0.6693 -0.4254  0.1892
   14SOL    HW2  245   0.150   4.060   2.290  0.2136  1.1703  2.7376
   15SOL     OW  246   3.979   0.778   0.619 -0.0658  0.1273  0.3948
   15SOL    HW1  247   3.887   0.785   0.593  0.0604 -0.4464 -0.2221
   15SOL    HW2  248   4.010   0.868   0.620  0.6438  0.1874 -4.1731
   16SOL     OW  249   3.965   0.644   3.147 -0.0345  0.5335  0.9341
   16SOL    HW1  250   3.925   0.559   3.163 -0.1687  0.7900  2.0783
   16SOL    HW2  251   3.942   0.696   3.224  0.7394  1.3469  0.6348
   17SOL     OW  252   4.569   1.249   4.005  0.3225 -0.4034 -0.0934
   17SOL    HW1  253   4.634   1.297   3.954 -0.5264  0.4142 -0.4486
   17SOL    HW2  254   4.514   1.206   3.940 -0.6521  0.4912  0.0920
   18SOL     OW  255   3.703   1.036   1.436  0.0592  0.0799 -0.3893
   18SOL    HW1  256   3.694   0.943   1.419  1.4727 -0.1597  0.0707
   18SOL    HW2  257   3.704   1.044   1.532 -1.1111  0.6955 -0.4056
   19SOL     OW  258   3.658   3.802   2.753 -0.5295 -0.1811 -0.2102
   19SOL    HW1  259   3.664   3.896   2.735  1.3744 -0.0435  0.9319
   19SOL    HW2  260   3.729   3.763   2.702  0.2713 -0.6671  1.2270
   20SOL     OW  261   1.404   0.107   3.234 -0.4834  0.5341  0.0112
   20SOL    HW1  262   1.331   0.169   3.222 -1.1672 -0.4173 -0.9545
   20SOL    HW2  263   1.477   0.161   3.263 -1.5586  1.5339  0.9423
   21SOL     OW  264   1.862   4.156   4.676  0.7444  0.4052  0.6645
   21SOL    HW1  265   1.883   4.219   4.607  0.4821 -1.2474 -1.0025
   21SOL    HW2  266   1.934   4.092   4.672 -0.7181 -1.2766 -0.0788
   22SOL     OW  267   1.066   0.395   0.295  0.3920 -0.1375  0.0250
   22SOL    HW1  268   1.156   0.390   0.326  0.4395  1.3653  0.2270
   22SOL    HW2  269   1.068   0.461   0.226 -0.7507  0.8229  0.8742
   23SOL     OW  270   1.928   0.665   3.514  0.0758 -0.4481 -0.3102
   23SOL    HW1  271   1.846   0.645   3.470 -1.4957 -0.0693  2.2265
   23SOL    HW2  272   1.920   0.756   3.541  2.2813  0.2643 -1.7942
   24SOL     OW  273   0.510   2.196   1.406 -0.3866  0.3461  0.7367
   24SOL    HW1  274   0.457   2.249   1.465 -0.0377  1.5445  0.0023
   24SOL    HW2  275   0.485   2.225   1.318 -2.1086 -2.5527  0.1496
   25SOL     OW  276   2.430   3.166   1.819 -0.0032 -0.3997  0.0265
   25SOL    HW1  277   2.446   3.241   1.761 -1.4875 -0.5535 -0.6306
   25SOL    HW2  278   2.342   3.136   1.795  0.1045 -1.6307  1.0917
   26SOL     OW  279   4.323   1.882   2.693 -0.1702  0.0710 -0.3313
   26SOL    HW1  280   4.339   1.831   2.613  1.3598  3.0118 -2.0518
   26SOL    HW2  281   4.238   1.923   2.678  0.8579  1.9596 -1.3168
   27SOL     OW  282   0.106   1.827   1.309  0.1057  0.2508 -0.0012
   27SOL    HW1  283   0.134   1.740   1.283  1.4828  0.5030  0.5584
   27SOL    HW2  284   0.162   1.850   1.383 -0.0196  1.7322 -0.3235
   28SOL     OW  285   0.574   3.715   2.058 -0.1841 -0.7333  0.0998
   28SOL    HW1  286   0.655   3.742   2.101 -0.0690 -1.4007  0.3164
   28SOL    HW2  287   0.596   3.632   2.016  0.0305  0.4303 -2.2324
   29SOL     OW  288   0.127   4.693   3.408 -0.0516 -0.1301 -0.2855
   29SOL    HW1  289   0.179   4.750   3.463 -1.6100  0.1936  0.9263
   29SOL    HW2  290   0.039   4.731   3.409 -1.4895 -3.1223  1.6126
   30SOL     OW  291   0.166   2.273   1.288  0.2475  0.2290  0.1331
   30SOL    HW1  292   0.156   2.223   1.369 -1.0321  0.3254  0.0601
   30SOL    HW2  293   0.166   2.365   1.317 -2.9265  0.4351 -0.0898
   31SOL     OW  294   0.865   3.609   3.294  0.6516  0.3069 -0.0209
   31SOL    HW1  295   0.951   3.633   3.259 -1.1395  3.1967 -3.0117
   31SOL    HW2  296   0.832   3.542   3.235  0.4346 -0.0607  0.5062
   32SOL     OW  297   0.588   1.188   1.398 -0.1491  0.0079  0.2066
   32SOL    HW1  298   0.571   1.097   1.373 -0.4041  0.2745 -0.6355
   32SOL    HW2  299   0.511   1.236   1.367  0.1445  0.5665  0.3202
   33SOL     OW  300   1.826   4.731   2.918 -0.4687 -0.3954 -0.2141
   33SOL    HW1  301   1.746   4.778   2.937 -0.5121 -1.0275  1.3518
   33SOL    HW2  302   1.843   4.748   2.825 -1.8825  0.5105 -0.3357
   34SOL     OW  303   3.117   0.561   1.043 -0.2183 -0.0945  0.7075
   34SOL    HW1  304   3.070   0.582   0.963 -3.9352 -4.9597  1.2163
   34SOL    HW2  305   3.065   0.601   1.113 -1.3707 -2.0812  1.0342
   35SOL     OW  306   0.224   1.280   2.055 -0.1665  0.2305  0.0026
   35SOL    HW1  307   0.310   1.319   2.068 -0.0958  0.4324 -0.9869
   35SOL    HW2  308   0.165   1.356   2.043 -0.4472  0.0891  0.4478
   36SOL     OW  309   0.427   0.319   2.684  0.3991 -0.0864  0.0261
   36SOL    HW1  310   0.434   0.315   2.589  3.3238  0.1814  0.1248
   36SOL    HW2  311   0.432   0.228   2.712 -0.9822 -0.2072 -0.0524
   37SOL     OW  312   1.351   1.224   2.817  0.5397 -0.5845  0.6445
   37SOL    HW1  313   1.278   1.274   2.780 -1.0184 -3.4279 -0.5153
   37SOL    HW2  314   1.317   1.191   2.901  2.0401  1.2817  2.0673
   38SOL     OW  315   4.304   2.765   3.182  0.3805  0.2535  0.0204
   38SOL    HW1  316   4.257   2.848   3.184 -3.8651 -1.8418 -0.7722
   38SOL    HW2  317   4.373   2.777   3.117 -0.4478  2.9247 -0.4789
   39SOL     OW  318   1.976   3.789   4.033  0.4594  0.1691  0.2563
   39SOL    HW1  319   2.005   3.747   3.952 -0.5663 -0.4446  0.1890
   39SOL    HW2  320   2.043   3.765   4.098  0.3062 -0.9361  0.0316
   40SOL     OW  321   1.873   4.389   1.763 -0.0047  0.3056  0.0470
   40SOL    HW1  322   1.832   4.303   1.771 -0.7599  0.6193 -0.3464
   40SOL    HW2  323   1.802   4.447   1.735  0.6155  0.9508 -0.2192
   41SOL     OW  324   4.633   3.322   1.973  0.5209  0.6230 -0.6132
   41SOL    HW1  325   4.629   3.324   1.877 -0.1174 -0.4190 -0.6289
   41SOL    HW2  326   4.571   3.253   1.997  0.3889  1.1444  0.5723
   42SOL     OW  327   3.551   2.209   2.839  0.2319 -0.1145 -0.1148
   42SOL    HW1  328   3.613   2.194   2.911 -0.8207 -1.8884  0.4893
   42SOL    HW2  329   3.577   2.144   2.772  0.6882  0.9713 -1.0317
   43SOL     OW  330   3.958   2.379   4.088 -0.5756 -0.4545 -0.2779
   43SOL    HW1  331   3.926   2.375   4.179 -1.1975 -1.3379 -0.5255
   43SOL    HW2  332   3.879   2.395   4.036 -0.2987 -0.5299 -0.7161
   44SOL     OW  333   2.778   1.403   0.278 -0.3795 -0.1451  0.0859
   44SOL    HW1  334   2.845   1.452   0.230  1.8869 -1.0985  2.0604
   44SOL    HW2  335   2.707   1.466   0.291  0.7931  1.4269 -0.7285
   45SOL     OW  336   3.663   2.303   3.306  0.1365 -0.3862 -0.0341
   45SOL    HW1  337   3.720   2.342   3.372 -1.1352  1.0247  0.2737
   45SOL    HW2  338   3.693   2.341   3.223  0.8660 -1.1342 -0.1282
   46SOL     OW  339   1.384   2.286   3.975 -0.2006 -0.2107  0.0948
   46SOL    HW1  340   1.391   2.202   3.931 -0.5301 -0.1611 -0.0557
   46SOL    HW2  341   1.468   2.298   4.018 -1.3497 -2.4374  3.3594
   47SOL     OW  342   4.073   1.133   0.502 -0.1510  0.4094 -0.3525
   47SOL    HW1  343   4.024   1.110   0.581  0.3644 -1.0578 -0.4423
   47SOL    HW2  344   4.131   1.059   0.487  0.1946  0.9396 -1.7698
   48SOL     OW  345   1.913   3.387   1.481  0.1605  0.4430  0.0802
   48SOL    HW1  346   1.904   3.452   1.411 -0.6240 -0.2139 -0.4355
   48SOL    HW2  347   1.913   3.303   1.436  1.3479  0.0724  0.7309
   49SOL     OW  348   2.844   3.162   4.715 -0.3312 -0.1198  0.1470
   49SOL    HW1  349   2.914   3.170   4.780  0.4877 -0.0833 -0.7193
   49SOL    HW2  350   2.773   3.217   4.750  0.8475  1.5340  0.0339
   50SOL     OW  351   0.198   3.910   1.854  0.0187 -0.1063  0.4088
   50SOL    HW1  352   0.142   3.851   1.904  0.0595 -0.2510  0.2846
   50SOL    HW2  353   0.170   3.998   1.881 -1.0939 -0.1499 -0.5250
   51SOL     OW  354   1.531   4.549   2.706  0.0865 -0.4581  0.8374
   51SOL    HW1  355   1.591   4.618   2.734  0.6796 -0.7896  0.4073
   51SOL    HW2  356   1.546   4.542   2.612  0.8549 -1.9415  1.0530
   52SOL     OW  357   0.788   3.948   2.993  0.2617  0.5214  0.0208
   52SOL    HW1  358   0.776   3.991   3.077  1.0488  1.0215 -0.1184
   52SOL    HW2  359   0.865   3.989   2.955 -0.0137  0.2172 -0.8972
   53SOL     OW  360   1.833   0.131   4.203 -0.3502  0.3632  0.5712
   53SOL    HW1  361   1.746   0.146   4.238 -1.0255 -2.7803  0.4569
   53SOL    HW2  362   1.833   0.178   4.119 -1.2506  1.8367  1.3405
   54SOL     OW  363   0.267   0.722   1.182 -0.3233  0.0206 -0.1820
   54SOL    HW1  364   0.207   0.653   1.153 -2.1040  0.9511  1.1115
   54SOL    HW2  365   0.290   0.697   1.271  1.5558 -0.4835 -0.7508
   55SOL     OW  366   2.570   2.242   4.104  0.1398 -0.0077 -0.3116
   55SOL    HW1  367   2.540   2.152   4.093  0.6702 -0.3294  0.7319
   55SOL    HW2  368   2.567   2.257   4.198 -2.3410  1.9300 -0.6092
   56SOL     OW  369   2.422   2.942   3.665  0.1355  0.4702  0.4011
   56SOL    HW1  370   2.513   2.943   3.697 -0.6011  1.4194  2.6959
   56SOL    HW2  371   2.428   2.907   3.576  2.8956  1.7136  0.0025
   57SOL     OW  372   1.638   2.103   3.767  0.3689 -0.6735  0.5488
   57SOL    HW1  373   1.687   2.176   3.804 -0.6432  0.8897 -1.0190
   57SOL    HW2  374   1.705   2.044   3.732  1.1866  0.1413  0.7135
   58SOL     OW  375   2.794   3.069   3.959  0.0342 -0.4251  0.2855
   58SOL    HW1  376   2.852   3.017   4.015 -0.6684 -1.9993 -0.4032
   58SOL    HW2  377   2.810   3.036   3.871 -0.0200  0.9430 -0.2637
   59SOL     OW  378   1.463   2.974   0.976 -0.1381 -0.2152  0.1421
   59SOL    HW1  379   1.399   3.003   0.910  0.5711  1.0008 -0.0456
   59SOL    HW2  380   1.514   2.906   0.933 -0.6215 -0.4619 -0.0532
   60SOL     OW  381   0.400   2.738   2.067 -0.1980  0.2166 -0.0067
   60SOL    HW1  382   0.451   2.662   2.096  0.8428  0.0867 -2.0212
   60SOL    HW2  383   0.426   2.808   2.127  0.6448 -0.4243  0.4064
   61SOL     OW  384   2.378   1.453   1.554 -0.3023  0.4020  0.1632
   61SOL    HW1  385   2.420   1.436   1.638  0.3591 -0.5932 -0.3618
   61SOL    HW2  386   2.369   1.549   1.551  0.4336  0.5063  0.9907
   62SOL     OW  387   3.673   1.953   3.602  0.0583  0.4242 -1.0873
   62SOL    HW1  388   3.675   1.858   3.592  0.8607  0.2967  0.1885
   62SOL    HW2  389   3.596   1.970   3.657  0.8754  0.3606  0.0951
   63SOL     OW  390   0.927   2.069   4.232 -0.0536 -0.2947 -0.7554
   63SOL    HW1  391   1.002   2.079   4.174 -0.8239  1.5370 -1.5103
   63SOL    HW2  392   0.906   2.159   4.260 -1.4376 -0.8506  0.1084
   64SOL     OW  393   2.358   3.328   0.241  0.4507  0.2475 -0.3955
   64SOL    HW1  394   2.400   3.412   0.255 -0.7455  1.3281 -2.6110
   64SOL    HW2  395   2.268   3.340   0.272  0.7534 -0.8660  1.0098
   65SOL     OW  396   2.630   0.681   2.214  0.1252 -1.1895 -0.1638
   65SOL    HW1  397   2.681   0.650   2.289 -0.3242 -2.0490 -0.2018
   65SOL    HW2  398   2.578   0.605   2.188  1.2998 -1.3685 -2.2418
   66SOL     OW  399   3.468   3.465   4.288  0.1767  0.1970 -0.5849
   66SOL    HW1  400   3.477   3.547   4.336  3.0560 -0.4374  0.1330
   66SOL    HW2  401   3.418   3.408   4.347  0.2774  0.6744 -0.0301
   67SOL     OW  402   1.112   2.237   3.708 -0.1067  0.6032 -0.0677
   67SOL    HW1  403   1.116   2.149   3.744  1.0242  0.5340 -0.3266
   67SOL    HW2  404   1.143   2.228   3.618  1.8550  1.5066  0.4389
   68SOL     OW  405   0.391   2.596   1.024 -0.1122 -0.1852  0.0200
   68SOL    HW1  406   0.429   2.523   0.974  1.7918  0.5221  0.3750
   68SOL    HW2  407   0.446   2.671   1.002 -2.9403  1.6059 -1.5819
   69SOL     OW  408   2.010   3.245   2.678  0.3301 -0.5470  0.0623
   69SOL    HW1  409   2.069   3.178   2.644 -0.7146 -0.5989 -1.7632
   69SOL    HW2  410   1.953   3.199   2.740  0.4261 -1.0812 -0.2458
   70SOL     OW  411   2.688   4.267   1.523 -0.2055 -0.3596  0.5853
   70SOL    HW1  412   2.682   4.360   1.546 -1.4692 -0.1495 -0.4920
   70SOL    HW2  413   2.754   4.264   1.454 -0.5169 -0.1853  0.2773
   71SOL     OW  414   2.174   4.147   3.000 -0.4078 -0.0452  0.1221
   71SOL    HW1  415   2.114   4.085   2.960 -1.1415  0.4649  0.4156
   71SOL    HW2  416   2.118   4.215   3.037  0.3071  0.0924  1.0020
   72SOL     OW  417   2.022   1.111   1.098  0.2854 -0.1246 -0.4692
   72SOL    HW1  418   2.039   1.102   1.191 -0.6530  0.9661 -0.1612
   72SOL    HW2  419   1.987   1.027   1.071  2.4643 -1.1481 -0.3225
   73SOL     OW  420   1.362   2.567   0.583  0.1268  0.2365 -0.2883
   73SOL    HW1  421   1.296   2.619   0.537 -0.5777 -1.3087 -1.0874
   73SOL    HW2  422   1.391   2.624   0.655  0.0688  2.0818 -1.6313
   74SOL     OW  423   0.261   0.656   1.488 -0.3872 -0.0543  0.0277
   74SOL    HW1  424   0.176   0.689   1.518  0.1405  1.2246  0.1933
   74SOL    HW2  425   0.252   0.561   1.491 -2.0315  0.0384 -0.5931
   75SOL     OW  426   4.487   3.094   3.372  0.2694  0.0608  0.3403
   75SOL    HW1  427   4.417   3.047   3.417  1.3260 -0.1506  1.8491
   75SOL    HW2  428   4.509   3.166   3.431  1.3428  0.1057 -0.0969
   76SOL     OW  429   0.845   2.575   4.756 -0.6753  0.0943 -0.2037
   76SOL    HW1  430   0.804   2.642   4.812  0.7615  0.4126  0.5026
   76SOL    HW2  431   0.929   2.613   4.730 -0.0693 -1.2101 -0.2348
   77SOL     OW  432   1.894   1.955   0.125 -0.2666  0.0226  0.4309
   77SOL    HW1  433   1.949   1.953   0.047  1.7297 -1.4077  1.7921
   77SOL    HW2  434   1.935   2.020   0.182 -0.7522 -0.1161  0.9455
   78SOL     OW  435   4.511   0.696   3.346 -0.3744 -0.0150  0.7360
   78SOL    HW1  436   4.537   0.616   3.391  0.8028 -0.0602  0.0372
   78SOL    HW2  437   4.427   0.676   3.306  0.3239 -1.2367 -0.1955
   79SOL     OW  438   2.660   0.252   0.888 -0.2934 -0.6739  0.0072
   79SOL    HW1  439   2.572   0.239   0.924 -0.1721 -0.3032  0.4318
   79SOL    HW2  440   2.719   0.221   0.956 -0.0388  0.7431  0.4698
   80SOL     OW  441   0.609   4.413   0.452 -0.1834  0.1932 -0.3327
   80SOL    HW1  442   0.654   4.496   0.464 -2.0462  1.2634 -0.2276
   80SOL    HW2  443   0.571   4.393   0.538 -0.0014 -0.6289 -0.4295
   81SOL     OW  444   1.131   4.127   4.659 -0.0440  0.5280  0.9371
   81SOL    HW1  445   1.206   4.150   4.604  0.3813  0.4305  1.4633
   81SOL    HW2  446   1.164   4.056   4.715 -0.7849 -0.1023  0.5905
   82SOL     OW  447   4.092   1.288   0.275  0.1129  0.2579  0.5490
   82SOL    HW1  448   4.068   1.247   0.358  0.6487  0.1526  0.6593
   82SOL    HW2  449   4.080   1.219   0.209 -0.6788  0.4554  0.4795
   83SOL     OW  450   0.675   0.977   2.075  0.4297  0.3450 -0.0059
   83SOL    HW1  451   0.605   1.010   2.018  0.9531  1.2999 -0.1120
   83SOL    HW2  452   0.628   0.937   2.149 -0.2350  0.1424 -0.5201
   84SOL     OW  453   1.786   0.320   2.326 -0.2734 -0.4022 -0.3093
   84SOL    HW1  454   1.737   0.392   2.286  0.8932 -0.5606 -2.1329
   84SOL    HW2  455   1.727   0.245   2.318 -0.1866 -0.3611 -1.5042
   85SOL     OW  456   0.295   4.778   3.133  0.2064 -0.2554 -0.3256
   85SOL    HW1  457   0.306   4.709   3.198  2.3580 -1.0503 -1.4195
   85SOL    HW2  458   0.243   4.737   3.064 -3.5984  1.1082  1.4676
   86SOL     OW  459   1.501   1.413   0.377  0.4069  0.2361  0.4997
   86SOL    HW1  460   1.411   1.436   0.400  0.1533 -0.6764  0.4639
   86SOL    HW2  461   1.539   1.378   0.458  0.1464 -1.0749  0.0873
   87SOL     OW  462   3.744   1.549   2.018  0.1474 -0.0906 -0.1117
   87SOL    HW1  463   3.821   1.501   1.987  1.5446 -0.1955  3.0900
   87SOL    HW2  464   3.758   1.639   1.990 -0.2375 -0.6574 -2.2926
   88SOL     OW  465   1.971   0.009   3.274 -0.2387 -0.3519  0.0408
   88SOL    HW1  466   1.880   0.002   3.303  0.1017 -1.8568  0.8326
   88SOL    HW2  467   1.998  -0.081   3.257  0.9023  0.1387 -0.8545
   89SOL     OW  468   0.154   1.590   0.885 -0.6628  0.8218 -0.3179
   89SOL    HW1  469   0.097   1.633   0.820 -0.9414 -0.1826 -0.7573
   89SOL    HW2  470   0.204   1.526   0.834  1.6846  2.3878 -0.1474
   90SOL     OW  471   1.613   3.861   0.722 -0.0174  0.2657 -0.3052
   90SOL    HW1  472   1.582   3.911   0.797 -1.0844 -3.2964  1.8688
   90SOL    HW2  473   1.559   3.782   0.722  2.1853 -1.4085 -2.8761
   91SOL     OW  474   2.890   1.255   1.655 -0.5999  0.0425 -0.0351
   91SOL    HW1  475   2.836   1.177   1.665 -0.9237  0.1416 -0.9744
   91SOL    HW2  476   2.913   1.279   1.745  0.6128 -1.8975  0.2291
   92SOL     OW  477   0.138   0.786   0.770  0.4672 -0.4654 -0.0802
   92SOL    HW1  478   0.160   0.855   0.832  0.0499 -0.7561  0.4041
   92SOL    HW2  479   0.192   0.804   0.693 -0.1700  0.8375 -0.2594
   93SOL     OW  480   0.364   4.621   0.536  0.3238 -0.0147 -0.5854
   93SOL    HW1  481   0.289   4.572   0.501 -0.1429  1.0409 -1.1187
   93SOL    HW2  482   0.381   4.580   0.621  0.3825 -1.5206 -1.2869
   94SOL     OW  483   4.080   1.953   0.471  0.7568  0.6356 -0.1449
   94SOL    HW1  484   4.059   2.012   0.544  0.2652  0.8254 -0.4356
   94SOL    HW2  485   4.042   1.869   0.497  2.6093  0.0499  0.8909
   95SOL     OW  486   3.544   1.640   0.436  0.0958  0.2449 -0.2714
   95SOL    HW1  487   3.630   1.611   0.467 -0.0353  0.0420 -0.0932
   95SOL    HW2  488   3.488   1.563   0.445 -0.6936  0.9819  1.8337
   96SOL     OW  489   4.163   4.200   4.635  0.2247  0.3757 -0.5411
   96SOL    HW1  490   4.113   4.119   4.626  0.3203  0.1858  0.5723
   96SOL    HW2  491   4.200   4.214   4.548 -0.8632 -0.0648 -1.0975
   97SOL     OW  492   4.244   3.241   2.722 -0.0827  0.5298  0.2501
   97SOL    HW1  493   4.202   3.306   2.777 -0.6318  0.3600  0.0413
   97SOL    HW2  494   4.328   3.223   2.764 -0.4312  0.5138  0.9414
   98SOL     OW  495   0.394   3.368   4.146 -0.2526  0.1969 -0.0672
   98SOL    HW1  496   0.413   3.405   4.232  0.6946 -0.3102 -0.0502
   98SOL    HW2  497   0.432   3.430   4.084 -1.4902  0.8958 -0.1682
   99SOL     OW  498   2.030   1.016   0.077 -0.4267  0.1145  0.1892
   99SOL    HW1  499   2.109   0.967   0.054 -0.9843  0.0284 -1.7111
   99SOL    HW2  500   2.059   1.076   0.146  0.8688 -1.1137  0.7676
  100SOL     OW  501   1.267   1.693   2.699  0.3776 -0.2688  0.0702
  100SOL    HW1  502   1.284   1.628   2.768 -0.8013  0.5526  1.1833
  100SOL    HW2  503   1.351   1.736   2.685  0.5995 -0.3120  1.1670
  101SOL     OW  504   3.226   0.822   2.403  0.2817 -0.0818  0.0749
  101SOL    HW1  505   3.223   0.784   2.316  0.2151 -0.3499  0.1931
  101SOL    HW2  506   3.135   0.843   2.423  0.4769  1.5800 -0.6119
  102SOL     OW  507   1.042   1.580   0.528  0.7920 -0.2811  0.2227
  102SOL    HW1  508   1.002   1.495   0.514  0.6733 -0.0192 -1.1550
  102SOL    HW2  509   1.132   1.561   0.555  0.2606 -0.8439  1.6739
  103SOL     OW  510   0.376   0.172   4.370 -0.0633 -0.5253 -0.3620
  103SOL    HW1  511   0.314   0.238   4.400  0.2103 -0.0853 -0.7493
  103SOL    HW2  512   0.462   0.210   4.386  0.1046 -0.9134 -0.3123
  104SOL     OW  513   1.153   0.846   1.843  0.1044 -0.3567 -0.3457
  104SOL    HW1  514   1.210   0.807   1.910  0.3124 -1.1699 -0.9827
  104SOL    HW2  515   1.118   0.924   1.885 -0.2034 -1.1459  0.9191
  105SOL     OW  516   0.756   4.263   1.623 -0.1264  0.7849  0.2703
  105SOL    HW1  517   0.802   4.187   1.658 -0.8751  0.0646 -0.2724
  105SOL    HW2  518   0.676   4.269   1.676 -0.1627  1.0817  0.1863
  106SOL     OW  519   2.408   0.697   3.549 -0.3582 -0.8244 -0.1127
  106SOL    HW1  520   2.372   0.626   3.496  0.9558 -1.1322 -0.6248
  106SOL    HW2  521   2.395   0.775   3.496 -0.4942 -0.8916 -0.1805
  107SOL     OW  522   2.014   3.119   4.706  0.4422 -0.2636 -0.4223
  107SOL    HW1  523   2.108   3.119   4.722  0.9716  1.0203 -2.9760
  107SOL    HW2  524   1.982   3.196   4.752  0.7879 -0.2546 -0.1963
  108SOL     OW  525   3.929   4.434   0.846  0.0253 -0.2263 -0.0051
  108SOL    HW1  526   3.863   4.461   0.910 -0.2670  2.8317 -1.4410
  108SOL    HW2  527   4.008   4.482   0.871  0.8070 -1.3646 -0.2013
  109SOL     OW  528   0.787   0.441   3.383 -0.6073 -0.0345  0.0503
  109SOL    HW1  529   0.835   0.446   3.301 -1.3918  2.3210 -0.3521
  109SOL    HW2  530   0.829   0.507   3.439 -0.4283 -1.2319  1.3691
  110SOL     OW  531   4.390   1.538   2.943  0.2536 -0.2699  0.3303
  110SOL    HW1  532   4.458   1.505   3.002 -1.7913  0.3848  3.2874
  110SOL    HW2  533   4.319   1.565   3.001 -2.6757 -1.0968 -2.5547
  111SOL     OW  534   1.525   1.271   0.999 -0.0665  0.1873  0.3989
  111SOL    HW1  535   1.584   1.199   0.977  0.9971  1.1461  0.0095
  111SOL    HW2  536   1.526   1.327   0.922 -2.6379 -0.4530 -0.2069
  112SOL     OW  537   1.305   4.501   4.314 -0.3264  0.0746  0.1086
  112SOL    HW1  538   1.377   4.564   4.317 -1.6365  1.5987  1.5252
  112SOL    HW2  539   1.299   4.466   4.403 -1.5931  0.3400  0.1542
  113SOL     OW  540   2.300   2.118   3.923  0.3288  0.3860  0.4628
  113SOL    HW1  541   2.344   2.074   3.995  0.0467 -0.6564  0.0087
  113SOL    HW2  542   2.213   2.079   3.920  0.8203 -0.6648 -1.3731
  114SOL     OW  543   0.183   3.726   0.795  0.2766  0.3074  0.6104
  114SOL    HW1  544   0.096   3.765   0.800 -1.0797 -2.6205  1.5573
  114SOL    HW2  545   0.168   3.638   0.761  2.9199 -0.1857  0.5285
  115SOL     OW  546   2.564   0.432   4.270 -0.0439  0.1942  0.6014
  115SOL    HW1  547   2.624   0.491   4.316  1.0858 -0.1301 -0.4289
  115SOL    HW2  548   2.524   0.486   4.202  0.3190 -0.0006  0.2315
  116SOL     OW  549   2.466   1.269   2.399 -0.5932 -0.1699  0.4501
  116SOL    HW1  550   2.561   1.265   2.405 -0.5723 -1.1018 -0.1588
  116SOL    HW2  551   2.435   1.258   2.489 -0.1154  2.3122  0.9832
  117SOL     OW  552   0.519   3.750   3.211 -0.4296  0.3651 -0.2779
  117SOL    HW1  553   0.585   3.799   3.260  1.1023 -1.7509 -0.1088
  117SOL    HW2  554   0.512   3.666   3.257 -1.9593 -0.1412 -1.3346
  118SOL     OW  555   2.299   2.223   0.429 -0.0046  0.1025  0.0508
  118SOL    HW1  556   2.347   2.174   0.496  0.5558  0.5126 -0.0380
  118SOL    HW2  557   2.208   2.224   0.460  0.7837  3.7717  3.0620
  119SOL     OW  558   1.250   1.646   3.256 -0.4917  0.1092  0.0049
  119SOL    HW1  559   1.216   1.593   3.185 -0.3823  1.9811 -1.5355
  119SOL    HW2  560   1.176   1.657   3.316 -1.0976 -0.0929 -0.6941
  120SOL     OW  561   3.455   1.362   3.547 -0.0974 -0.0837 -0.7345
  120SOL    HW1  562   3.546   1.336   3.532 -0.0048 -0.5916  0.6012
  120SOL    HW2  563   3.423   1.302   3.614 -0.8557  1.2380  0.1366
  121SOL     OW  564   1.880   2.889   2.534 -0.4697 -0.4146 -0.0545
  121SOL    HW1  565   1.910   2.948   2.603 -1.2679 -1.3254  1.1064
  121SOL    HW2  566   1.821   2.942   2.480  0.5711  0.4484 -0.3649
  122SOL     OW  567   2.687   1.887   3.105 -0.0377 -0.4833 -0.1268
  122SOL    HW1  568   2.694   1.837   3.186  1.0907 -1.3721 -0.7372
  122SOL    HW2  569   2.693   1.979   3.131 -2.0648 -0.6179  1.0146
  123SOL     OW  570   0.119   1.581   2.059  0.0852 -0.0051 -0.2567
  123SOL    HW1  571   0.067   1.640   2.114  0.8093  0.0105  0.4420
  123SOL    HW2  572   0.058   1.548   1.994 -1.0225 -0.6579  1.0724
  124SOL     OW  573   1.234   0.522   1.376 -0.2209  0.0284  0.3606
  124SOL    HW1  574   1.190   0.534   1.292 -1.8810  1.0593  1.3292
  124SOL    HW2  575   1.232   0.609   1.417  1.8589 -0.1091  0.8965
  125SOL     OW  576   3.272   1.966   2.505 -0.5694  0.6578  0.0213
  125SOL    HW1  577   3.278   1.883   2.552  0.6081  0.9775  0.4663
  125SOL    HW2  578   3.253   1.941   2.414 -0.3724 -0.0829  0.1781
  126SOL     OW  579   3.780   2.559   1.420 -0.4416  0.2848 -0.0251
  126SOL    HW1  580   3.720   2.547   1.494 -0.6701  0.6736 -0.1407
  126SOL    HW2  581   3.849   2.616   1.454 -0.4341  0.2906 -0.0500
  127SOL     OW  582   3.511   0.962   3.658  0.2328 -0.5190  0.0280
  127SOL    HW1  583   3.576   0.893   3.657 -1.7966 -2.5574 -1.0242
  127SOL    HW2  584   3.490   0.974   3.751 -0.0947 -2.0945  0.1853
  128SOL     OW  585   0.341   1.068   2.394 -0.3601  0.0558 -0.1069
  128SOL    HW1  586   0.273   1.132   2.374  0.1556  1.0263  1.1244
  128SOL    HW2  587   0.312   1.026   2.474  1.1230  1.4862  1.2493
  129SOL     OW  588   0.493   0.090   0.015 -0.0275  0.1879  0.6791
  129SOL    HW1  589   0.441   0.170   0.016  0.4915  0.5768 -1.0868
  129SOL    HW2  590   0.520   0.079  -0.076  0.4942 -1.6295  1.0032
  130SOL     OW  591   3.637   2.615   3.642  0.5908 -0.2058  0.0644
  130SOL    HW1  592   3.595   2.560   3.709  1.9525  1.0973  2.0992
  130SOL    HW2  593   3.564   2.656   3.596 -0.3890 -0.7244  1.1038
  131SOL     OW  594   0.853   3.530   3.956 -0.3507  0.1939  0.3102
  131SOL    HW1  595   0.797   3.598   3.918  0.8937  1.3078  0.3980
  131SOL    HW2  596   0.942   3.566   3.950  0.1803 -0.7995  1.7308
  132SOL     OW  597   3.030   2.028   2.024  0.6161  0.6409  0.5467
  132SOL    HW1  598   3.065   2.060   2.107  0.2257  2.2585  0.1333
  132SOL    HW2  599   3.015   2.108   1.972  1.9716 -0.3537 -1.5325
  133SOL     OW  600   1.652   2.409   0.236 -0.1284  0.0709 -1.2064
  133SOL    HW1  601   1.647   2.420   0.331  1.2610 -1.4304 -0.9184
  133SOL    HW2  602   1.614   2.323   0.220  0.0311  0.1325 -1.9651
  134SOL     OW  603   1.306   4.528   1.566  0.9915  0.1070  0.0910
  134SOL    HW1  604   1.275   4.584   1.494 -1.3182 -1.0575  0.0839
  134SOL    HW2  605   1.372   4.472   1.525  0.9534  0.6141 -0.7023
  135SOL     OW  606   4.678   3.040   3.146  0.1270 -0.5127  0.0577
  135SOL    HW1  607   4.656   3.063   3.236 -0.5425 -1.6798  0.2190
  135SOL    HW2  608   4.774   3.043   3.143  0.1820 -1.0399  0.9669
  136SOL     OW  609   3.191   3.036   2.675  0.2797  0.4516 -0.3138
  136SOL    HW1  610   3.249   3.080   2.612  1.6587  0.3142  0.8014
  136SOL    HW2  611   3.145   3.106   2.720 -0.2303  0.5741 -1.0056
  137SOL     OW  612   2.863   0.987   4.410  0.0725 -0.3180  0.0720
  137SOL    HW1  613   2.845   0.967   4.318 -4.5636 -0.5981  0.7798
  137SOL    HW2  614   2.879   0.901   4.450 -0.8562 -0.5584 -0.0392
  138SOL     OW  615   1.391   3.201   3.599  0.1660  0.0583 -0.3867
  138SOL    HW1  616   1.483   3.177   3.589 -0.3262 -2.6100  0.7058
  138SOL    HW2  617   1.392   3.273   3.663  1.4927  0.3973 -0.7576
  139SOL     OW  618   1.151   1.386   2.755  0.3599 -0.1089  0.0267
  139SOL    HW1  619   1.173   1.403   2.663  0.7980 -0.3435  0.0855
  139SOL    HW2  620   1.075   1.328   2.751  0.3023 -0.0214 -0.1863
  140SOL     OW  621   1.255   1.115   2.246  0.0429  0.2539  0.2430
  140SOL    HW1  622   1.249   1.132   2.340 -0.5464  0.1625  0.2275
  140SOL    HW2  623   1.338   1.069   2.235 -0.7271 -1.4026  0.9694
  141SOL     OW  624   2.915   4.260   2.433 -0.1304  0.4576  0.1614
  141SOL    HW1  625   2.826   4.293   2.441 -0.3414 -0.5195  2.5041
  141SOL    HW2  626   2.963   4.330   2.388 -1.8105  1.4482 -0.1379
  142SOL     OW  627   0.731   0.409   1.402  0.5696  0.2658  0.5127
  142SOL    HW1  628   0.772   0.441   1.482 -1.0906  0.9666  1.1209
  142SOL    HW2  629   0.743   0.479   1.338  0.9836  0.1410  0.4511
  143SOL     OW  630   0.444   2.985   4.290 -0.1243  0.3367  0.4834
  143SOL    HW1  631   0.453   3.049   4.361  0.8113  0.6548  0.0986
  143SOL    HW2  632   0.512   3.010   4.227  0.5397 -1.2674  0.5095
  144SOL     OW  633   1.320   2.422   2.147 -0.5960  0.2170  0.2854
  144SOL    HW1  634   1.374   2.495   2.176 -0.1102 -0.0573  0.0822
  144SOL    HW2  635   1.294   2.445   2.058 -1.8938  0.9486  0.8104
  145SOL     OW  636   1.579   4.370   3.037 -0.6202  0.0699  0.3284
  145SOL    HW1  637   1.653   4.401   2.984 -0.6667  0.1071  0.2850
  145SOL    HW2  638   1.562   4.441   3.098  1.8262 -1.3835  2.9416
  146SOL     OW  639   0.134   0.142   2.668 -0.5570  0.2030 -0.0245
  146SOL    HW1  640   0.172   0.220   2.708  2.3080 -0.9908 -0.1634
  146SOL    HW2  641   0.057   0.122   2.722 -1.7460  3.3227 -0.3266
  147SOL     OW  642   3.363   0.879   1.096  0.0820  0.5567 -0.1685
  147SOL    HW1  643   3.296   0.906   1.158 -1.8023  2.4226 -2.7837
  147SOL    HW2  644   3.345   0.786   1.081  0.1196  0.2565  1.4585
  148SOL     OW  645   3.740   3.100   2.679  0.3437  0.2500  0.2044
  148SOL    HW1  646   3.815   3.155   2.658  0.4505 -0.1990 -0.6222
  148SOL    HW2  647   3.685   3.101   2.601  0.1211 -0.4380  0.3383
  149SOL     OW  648   2.672   2.368   3.583 -0.2837  0.2872  0.3300
  149SOL    HW1  649   2.615   2.369   3.660 -0.9439 -1.0149 -0.1072
  149SOL    HW2  650   2.702   2.277   3.576 -0.4003  0.3321 -1.0469
  150SOL     OW  651   3.612   4.754   1.066 -0.2371 -0.5576 -0.0733
  150SOL    HW1  652   3.645   4.843   1.048  0.9615 -0.5200  1.9534
  150SOL    HW2  653   3.517   4.763   1.063 -0.1425  0.7771 -0.0318
  151SOL     OW  654   4.749   3.625   3.222 -0.5902  0.1357 -0.2685
  151SOL    HW1  655   4.709   3.623   3.309  1.4897 -0.1294  0.7337
  151SOL    HW2  656   4.685   3.671   3.168 -1.6555  0.9101  1.5546
  152SOL     OW  657   2.596   0.425   3.535  0.8052 -0.4440 -1.0910
  152SOL    HW1  658   2.572   0.340   3.497 -1.7479 -0.3034  0.0231
  152SOL    HW2  659   2.550   0.489   3.480  1.2310  0.0881 -0.8326
  153SOL     OW  660   2.239   4.664   0.778  0.0820 -0.2992 -0.0293
  153SOL    HW1  661   2.249   4.644   0.685 -2.1039  0.1049 -0.4112
  153SOL    HW2  662   2.193   4.748   0.780 -0.3798 -0.5534  1.4069
  154SOL     OW  663   2.517   3.438   3.993 -0.4966  0.5379 -0.2449
  154SOL    HW1  664   2.543   3.457   4.083 -1.8980 -0.7558  0.5041
  154SOL    HW2  665   2.593   3.394   3.955 -0.2050  0.2555  0.6267
  155SOL     OW  666   4.062   4.341   3.787  0.3226 -0.3462 -0.0276
  155SOL    HW1  667   4.068   4.330   3.882  1.2871 -2.5655 -0.2769
  155SOL    HW2  668   3.980   4.298   3.763 -0.6058  1.3777 -0.1082
  156SOL     OW  669   4.453   3.520   1.668 -0.6818 -0.6166  0.1657
  156SOL    HW1  670   4.407   3.459   1.609  0.0848 -0.7618 -0.2918
  156SOL    HW2  671   4.393   3.594   1.677 -1.0717 -0.8677 -0.3050
  157SOL     OW  672   2.089   2.317   1.235  0.3655 -0.4490  0.2995
  157SOL    HW1  673   2.043   2.401   1.241 -2.2072 -1.8188  1.9524
  157SOL    HW2  674   2.135   2.309   1.319  1.2415 -0.3876 -0.1640
  158SOL     OW  675   2.183   0.408   4.521 -0.4646 -0.3514  0.6354
  158SOL    HW1  676   2.193   0.462   4.443  1.8610  0.1633  1.2025
  158SOL    HW2  677   2.132   0.463   4.582  1.8517  1.3101  1.1975
  159SOL     OW  678   4.062   2.626   4.186  0.5181  0.2010 -0.7470
  159SOL    HW1  679   3.995   2.611   4.253 -0.6765  0.6583 -1.8077
  159SOL    HW2  680   4.050   2.554   4.124  0.6934  0.5624 -1.2000
  160SOL     OW  681   1.360   3.197   4.502 -0.1533 -0.1159  0.4669
  160SOL    HW1  682   1.375   3.118   4.451 -2.4403 -0.7273  0.6414
  160SOL    HW2  683   1.339   3.265   4.438 -1.8087 -0.5874  0.4617
  161SOL     OW  684   3.656   3.871   3.084 -0.3343  0.3428 -0.3649
  161SOL    HW1  685   3.644   3.779   3.107  1.3523 -0.1720 -1.3829
  161SOL    HW2  686   3.668   3.870   2.989  1.9914  1.3087 -0.1463
  162SOL     OW  687   0.241   2.538   0.433 -0.3902  0.8620  0.5662
  162SOL    HW1  688   0.212   2.499   0.515  0.6469  0.2192  0.6482
  162SOL    HW2  689   0.163   2.581   0.397 -1.2731 -0.2766  1.0666
  163SOL     OW  690   2.242   1.492   3.707 -0.2525  0.3389 -0.4788
  163SOL    HW1  691   2.321   1.466   3.661  1.4125  0.4315  2.1216
  163SOL    HW2  692   2.246   1.446   3.791 -2.6952  0.7695 -0.0261
  164SOL     OW  693   4.412   2.651   4.000  0.2156  0.1283 -0.0148
  164SOL    HW1  694   4.437   2.614   3.915  0.7578 -0.5783  0.4373
  164SOL    HW2  695   4.333   2.702   3.982  0.3776  0.0640 -0.9579
  165SOL     OW  696   1.924   2.497   2.168  0.4131  0.1014  0.0557
  165SOL    HW1  697   1.972   2.414   2.165  0.4228  0.1056  0.0951
  165SOL    HW2  698   1.863   2.492   2.094 -0.1541 -0.2861  0.5296
  166SOL     OW  699   3.451   3.444   3.689 -0.0329 -0.4657  0.3745
  166SOL    HW1  700   3.458   3.442   3.593  0.5271 -0.1221  0.4028
  166SOL    HW2  701   3.420   3.356   3.713 -2.3442  0.0845 -0.2728
  167SOL     OW  702   4.614   1.684   0.437 -0.2953  0.5518 -0.3354
  167SOL    HW1  703   4.677   1.654   0.372 -0.5330 -2.1167  0.5292
  167SOL    HW2  704   4.646   1.770   0.464  2.0916 -0.0543 -1.0209
  168SOL     OW  705   0.710   4.684   4.164  0.2442 -0.0104  0.8178
  168SOL    HW1  706   0.649   4.757   4.164  1.2660  0.8622  0.5526
  168SOL    HW2  707   0.760   4.694   4.245  0.4131 -0.3924  0.7633
  169SOL     OW  708   1.053   4.520   2.269 -0.2313 -0.1524  0.2010
  169SOL    HW1  709   0.994   4.497   2.197 -0.3788  0.3346  0.1667
  169SOL    HW2  710   1.112   4.445   2.276  0.4522  0.2291 -1.1118
  170SOL     OW  711   0.195   1.434   3.403 -0.1735 -0.4128 -0.3175
  170SOL    HW1  712   0.130   1.464   3.467  0.4658  0.1631  0.0739
  170SOL    HW2  713   0.278   1.469   3.435  0.3577 -1.2461 -0.7413
  171SOL     OW  714   2.490   2.588   2.157  0.4462  0.1147  0.1615
  171SOL    HW1  715   2.545   2.620   2.085  1.4813  0.8145  1.2412
  171SOL    HW2  716   2.542   2.602   2.236 -2.0631  2.8639  1.5177
  172SOL     OW  717   1.960   3.559   1.763 -0.4450 -0.2827  0.2275
  172SOL    HW1  718   1.901   3.634   1.760 -0.9427 -0.6053  1.4463
  172SOL    HW2  719   1.956   3.522   1.674  0.2698  1.4436 -0.5590
  173SOL     OW  720   1.503   3.052   4.033  0.1731 -0.0999 -0.2015
  173SOL    HW1  721   1.566   3.014   3.971  0.3839 -1.3281  0.7314
  173SOL    HW2  722   1.425   2.998   4.023 -0.4004  0.7778 -0.6083
  174SOL     OW  723   3.792   2.760   2.059  0.8822 -0.2550 -0.1159
  174SOL    HW1  724   3.776   2.854   2.055  0.4291 -0.2772  0.7857
  174SOL    HW2  725   3.766   2.735   2.148  0.1263 -1.3951 -0.6321
  175SOL     OW  726   3.608   1.021   4.610 -0.2302 -0.3959 -0.0630
  175SOL    HW1  727   3.656   0.939   4.594 -0.6302 -1.0402  1.8482
  175SOL    HW2  728   3.561   1.006   4.691 -2.1054  0.9512 -0.8327
  176SOL     OW  729   1.732   1.455   2.502 -0.1906 -0.4646  0.2227
  176SOL    HW1  730   1.694   1.534   2.463  2.3961  0.5480 -0.4037
  176SOL    HW2  731   1.735   1.474   2.596  2.1933  1.1223 -0.0780
  177SOL     OW  732   1.067   3.102   2.443 -0.2218 -0.2789  0.0557
  177SOL    HW1  733   1.085   3.069   2.531 -4.8796  0.5599  1.5675
  177SOL    HW2  734   1.020   3.030   2.400 -0.7222  0.4487 -0.6318
  178SOL     OW  735   3.906   0.630   0.373  0.0837  0.2265  0.3464
  178SOL    HW1  736   3.952   0.694   0.427 -1.7109  1.1008  0.9163
  178SOL    HW2  737   3.914   0.664   0.284  2.1270 -0.6512  0.1494
  179SOL     OW  738   2.152   4.410   4.474 -1.2043 -0.1862  0.4500
  179SOL    HW1  739   2.192   4.323   4.463 -2.9814 -1.5153  3.2350
  179SOL    HW2  740   2.220   4.461   4.518 -0.4877 -0.4503 -0.3117
  180SOL     OW  741   0.416   3.014   3.376  0.1612  0.5010  0.2373
  180SOL    HW1  742   0.436   2.937   3.430 -1.1357  0.6294  0.9387
  180SOL    HW2  743   0.490   3.021   3.316 -0.0164 -1.7213 -0.3312
  181SOL     OW  744   0.776   0.248   3.564  0.0080 -0.2891 -0.3200
  181SOL    HW1  745   0.793   0.176   3.504 -0.9402 -0.8464  0.0669
  181SOL    HW2  746   0.764   0.324   3.506 -0.6482 -0.7708 -0.8435
  182SOL     OW  747   1.939   2.508   0.225  0.1237  0.2136  0.0860
  182SOL    HW1  748   2.016   2.561   0.249  1.6096 -1.1166 -1.5009
  182SOL    HW2  749   1.882   2.513   0.302  0.3365  3.7644  0.1667
  183SOL     OW  750   2.351   2.615   4.459 -0.0367 -0.1763  0.5367
  183SOL    HW1  751   2.262   2.580   4.449  0.0241 -0.3336  0.5465
  183SOL    HW2  752   2.339   2.700   4.501 -0.3887  0.9116 -1.6099
  184SOL     OW  753   1.932   3.113   3.479  0.4069 -0.0485 -0.2023
  184SOL    HW1  754   1.928   3.178   3.548 -3.0974 -0.7644  0.4544
  184SOL    HW2  755   1.978   3.039   3.518 -1.4386 -0.4053  1.4119
  185SOL     OW  756   4.807   0.238   0.471  0.1685 -0.2661  0.6631
  185SOL    HW1  757   4.844   0.265   0.556  0.6780 -0.7379  0.5944
  185SOL    HW2  758   4.747   0.167   0.492 -0.4951  0.3052  0.7404
  186SOL     OW  759   2.633   3.564   4.522 -0.5927 -0.3729 -0.1453
  186SOL    HW1  760   2.710   3.619   4.507 -1.4515  0.7610 -0.5520
  186SOL    HW2  761   2.658   3.478   4.490 -0.0149  0.3488 -1.7299
  187SOL     OW  762   3.479   3.725   1.370  0.4667 -0.8694 -0.3001
  187SOL    HW1  763   3.449   3.635   1.380  0.4953 -1.1204 -2.0902
  187SOL    HW2  764   3.566   3.725   1.411 -0.0983 -1.2691  0.9575
  188SOL     OW  765   3.391   1.370   0.436  0.0162  0.0270  0.1506
  188SOL    HW1  766   3.411   1.327   0.352  1.6888 -0.4643  0.7789
  188SOL    HW2  767   3.310   1.419   0.418 -1.2891 -2.3245 -0.9652
  189SOL     OW  768   0.055   4.379   3.227  0.1857  0.1108 -0.1275
  189SOL    HW1  769   0.032   4.317   3.296 -0.8261  2.3383  1.6613
  189SOL    HW2  770  -0.023   4.382   3.171 -0.1743  0.5031  0.3829
  190SOL     OW  771   2.764   3.336   3.925 -0.2828 -0.5785 -0.1493
  190SOL    HW1  772   2.781   3.242   3.915  0.6747 -0.3589 -0.7764
  190SOL    HW2  773   2.792   3.374   3.842  2.1479  0.6167  1.0941
  191SOL     OW  774   1.343   4.122   2.411  0.3229 -0.1560  0.0610
  191SOL    HW1  775   1.339   4.168   2.494  1.6358  0.5253 -0.2253
  191SOL    HW2  776   1.315   4.033   2.431  2.0392 -0.4096  1.5766
  192SOL     OW  777   3.349   4.430   0.143  0.0421 -0.6304  0.6817
  192SOL    HW1  778   3.370   4.376   0.066 -0.8618  0.6805 -0.5407
  192SOL    HW2  779   3.257   4.411   0.160 -0.0001 -0.2379  0.8832
  193SOL     OW  780   1.326   0.206   2.851 -0.0732  0.1225  0.0414
  193SOL    HW1  781   1.277   0.126   2.835 -0.3602  0.3619 -0.2928
  193SOL    HW2  782   1.258   0.272   2.868  0.1403  0.4305 -0.3066
  194SOL     OW  783   1.097   4.377   3.862 -0.0340 -0.3965  0.5859
  194SOL    HW1  784   1.075   4.286   3.882 -1.0951  0.1317  2.0349
  194SOL    HW2  785   1.100   4.420   3.948 -0.4893  1.1191 -0.1233
  195SOL     OW  786   3.929   3.883   0.390 -0.2053  0.1713  0.2681
  195SOL    HW1  787   4.020   3.901   0.366 -0.4928  0.1578 -0.8694
  195SOL    HW2  788   3.921   3.919   0.479  0.3173  2.1351 -0.4150
  196SOL     OW  789   2.033   3.758   1.463  0.5014 -0.6774 -0.1349
  196SOL    HW1  790   1.945   3.745   1.499  0.9223 -0.6526  0.9456
  196SOL    HW2  791   2.090   3.763   1.540  0.8709  4.2533 -0.4114
  197SOL     OW  792   2.128   2.651   2.108  0.1237 -0.1959  0.1259
  197SOL    HW1  793   2.184   2.578   2.083 -1.7364 -0.9270 -2.1880
  197SOL    HW2  794   2.053   2.610   2.152 -1.2073  0.1830 -1.6876
  198SOL     OW  795   0.905   4.089   1.268  0.2824 -0.1518 -0.0440
  198SOL    HW1  796   0.884   4.078   1.175 -0.2584  0.6411 -0.0214
  198SOL    HW2  797   0.839   4.038   1.314 -1.1044  1.5995 -0.0084
  199SOL     OW  798   2.322   4.304   2.807  0.1253 -0.0863  0.2101
  199SOL    HW1  799   2.332   4.232   2.745  0.8643 -1.2925  1.6674
  199SOL    HW2  800   2.277   4.265   2.882  2.0305  0.4941  1.7375
  200SOL     OW  801   2.293   0.344   1.174 -0.0373 -0.6908 -0.1836
  200SOL    HW1  802   2.347   0.275   1.214 -0.1866 -1.3264 -1.0396
  200SOL    HW2  803   2.332   0.426   1.203 -0.4979 -1.1131  1.7423
  201SOL     OW  804   4.172   0.098   1.713  0.0795  0.0956  0.1476
  201SOL    HW1  805   4.121   0.053   1.646 -0.7874  0.6542  0.4219
  201SOL    HW2  806   4.175   0.035   1.786 -0.8455  0.3373  0.4049
  202SOL     OW  807   1.982   3.666   3.488 -0.0351 -0.3863  0.1289
  202SOL    HW1  808   2.018   3.665   3.576 -1.1903 -0.6193  0.6161
  202SOL    HW2  809   1.966   3.759   3.469  0.6385 -0.2951 -0.0333
  203SOL     OW  810   1.008   1.770   2.360 -0.1541 -0.2452 -0.1154
  203SOL    HW1  811   1.061   1.729   2.292 -1.0338 -0.5527 -0.6369
  203SOL    HW2  812   1.043   1.859   2.368 -0.1721 -0.1368 -1.1286
  204SOL     OW  813   2.090   4.566   1.347  0.2004 -0.0726 -0.2312
  204SOL    HW1  814   1.994   4.575   1.342  0.3837  2.9035 -0.4833
  204SOL    HW2  815   2.121   4.604   1.264  1.6282 -1.6458 -0.4726
  205SOL     OW  816   0.481   3.924   0.082  0.2627  0.2974 -0.4107
  205SOL    HW1  817   0.494   4.011   0.044  0.1546  0.9258  0.9355
  205SOL    HW2  818   0.524   3.929   0.168 -1.5623 -0.2866  0.5762
  206SOL     OW  819   0.042   0.510   3.321 -0.2066  0.2648 -0.0993
  206SOL    HW1  820   0.049   0.524   3.226 -1.3343  0.2662 -0.1961
  206SOL    HW2  821  -0.030   0.447   3.331  0.9357 -0.9680  0.6733
  207SOL     OW  822   3.261   2.452   1.853  0.1727  0.0789  0.0923
  207SOL    HW1  823   3.336   2.479   1.906 -0.7845  0.0362  1.5165
  207SOL    HW2  824   3.290   2.372   1.809  1.3648  0.7383 -0.3529
  208SOL     OW  825   1.637   3.056   3.528  0.1718  0.4284  0.1500
  208SOL    HW1  826   1.713   3.024   3.577  0.1409  0.6872  0.3674
  208SOL    HW2  827   1.572   2.986   3.536  0.0105  0.6572  0.8469
  209SOL     OW  828   1.025   0.301   2.308 -0.2819  0.3111  0.2509
  209SOL    HW1  829   1.074   0.252   2.374  0.0255  1.2432  0.7206
  209SOL    HW2  830   0.998   0.234   2.245 -0.2351 -0.5367  1.0975
  210SOL     OW  831   2.390   1.863   0.759 -0.2740 -0.0720  0.3870
  210SOL    HW1  832   2.351   1.822   0.837  2.0595 -2.1323  0.5910
  210SOL    HW2  833   2.434   1.791   0.714 -1.0005  1.1887 -2.5553
  211SOL     OW  834   1.382   0.774   0.196 -0.5130  0.0464  0.2846
  211SOL    HW1  835   1.434   0.815   0.127 -1.3637  0.2939 -0.2218
  211SOL    HW2  836   1.320   0.841   0.222  0.2287  0.1925  1.7855
  212SOL     OW  837   2.639   3.787   0.593  0.4084 -0.0321 -0.8735
  212SOL    HW1  838   2.623   3.858   0.655  0.0844  0.8883 -1.9721
  212SOL    HW2  839   2.719   3.812   0.548  0.9500 -0.9723 -0.4587
  213SOL     OW  840   1.584   0.214   4.296  0.1235 -0.4072 -0.0401
  213SOL    HW1  841   1.531   0.190   4.372  0.3277 -1.9489 -0.3548
  213SOL    HW2  842   1.542   0.293   4.262 -0.5697 -0.2749  1.0758
  214SOL     OW  843   4.191   3.808   0.352 -0.6573 -0.5185  0.6816
  214SOL    HW1  844   4.183   3.716   0.329  0.3864 -0.4745  0.0583
  214SOL    HW2  845   4.230   3.849   0.274  1.5800 -0.0767  1.9451
  215SOL     OW  846   0.665   0.210   0.899  0.8189 -0.1180 -0.0013
  215SOL    HW1  847   0.626   0.298   0.901  1.0447  0.0117 -0.9822
  215SOL    HW2  848   0.663   0.181   0.991  0.4498  0.7781  0.2851
  216SOL     OW  849   3.510   4.515   2.841 -0.3273 -0.0744  0.3060
  216SOL    HW1  850   3.483   4.536   2.751  2.6824  1.2123 -0.4302
  216SOL    HW2  851   3.455   4.570   2.896  0.3942  2.1482 -1.0490
  217SOL     OW  852   2.544   3.467   2.575 -0.1266 -0.2400  0.1823
  217SOL    HW1  853   2.453   3.478   2.547  0.0830  0.1940 -0.3316
  217SOL    HW2  854   2.540   3.472   2.671 -0.3968  1.8208  0.1113
  218SOL     OW  855   4.725   2.246   0.210 -0.2151  0.4954  0.0734
  218SOL    HW1  856   4.756   2.285   0.292  2.5163  3.0278 -1.9663
  218SOL    HW2  857   4.632   2.268   0.207 -0.0972  1.4290  1.9195
  219SOL     OW  858   0.536   1.915   1.528 -0.6406  0.0253 -0.2911
  219SOL    HW1  859   0.572   1.943   1.444  0.4899 -0.0325  0.1568
  219SOL    HW2  860   0.600   1.852   1.561 -0.7724  0.4718  0.8673
  220SOL     OW  861   3.686   3.273   0.148  0.8309 -0.4612 -0.5852
  220SOL    HW1  862   3.661   3.257   0.239  1.2444  0.2988 -0.3303
  220SOL    HW2  863   3.769   3.321   0.154  0.6370 -0.0191 -1.3579
  221SOL     OW  864   2.383   1.507   2.610 -0.4739 -0.0543  0.0278
  221SOL    HW1  865   2.288   1.509   2.605 -0.6546  0.3135  2.3317
  221SOL    HW2  866   2.406   1.414   2.619 -0.5928 -0.1542 -0.6848
  222SOL     OW  867   4.299   4.190   0.818  0.2765  0.2164  0.3126
  222SOL    HW1  868   4.287   4.261   0.882 -0.1263 -1.6454  2.3994
  222SOL    HW2  869   4.365   4.133   0.857  0.5614 -0.6168 -1.3131
  223SOL     OW  870   1.108   3.303   3.282  0.2270 -0.4716  0.1452
  223SOL    HW1  871   1.080   3.381   3.233  0.9215 -1.1558 -1.4304
  223SOL    HW2  872   1.201   3.317   3.299  0.9198 -1.8034 -2.0437
  224SOL     OW  873   2.957   3.933   3.931 -0.2891  0.5624  0.2121
  224SOL    HW1  874   2.896   3.961   3.999 -0.6279 -1.6122  0.8726
  224SOL    HW2  875   2.912   3.954   3.849 -0.6432  1.6049  0.6603
  225SOL     OW  876   4.637   0.110   3.755  0.1886  0.2952 -0.0867
  225SOL    HW1  877   4.694   0.033   3.752  0.8569  0.7556  0.3876
  225SOL    HW2  878   4.676   0.166   3.822  0.2360  1.4557 -1.0458
  226SOL     OW  879   3.545   0.022   2.842  0.3383  0.1415  0.5237
  226SOL    HW1  880   3.618   0.014   2.781 -1.8785  0.6562 -2.3811
  226SOL    HW2  881   3.526   0.115   2.846 -0.3401 -0.0054  1.0103
  227SOL     OW  882   0.664   2.688   0.747 -0.2753  0.7920 -0.2306
  227SOL    HW1  883   0.577   2.688   0.706 -1.2079 -1.8075  1.4484
  227SOL    HW2  884   0.653   2.742   0.825 -0.0384  1.3313 -0.5614
  228SOL     OW  885   2.177   4.198   0.442 -0.2673 -0.4530  0.0674
  228SOL    HW1  886   2.199   4.259   0.512 -0.5353 -1.7343  1.3067
  228SOL    HW2  887   2.241   4.216   0.373  1.4854 -0.7303  1.5672
  229SOL     OW  888   0.339   3.805   1.647 -0.6129  0.3565  0.2607
  229SOL    HW1  889   0.287   3.739   1.601 -2.9406  1.5011  1.0390
  229SOL    HW2  890   0.286   3.826   1.725  0.5328  2.3858  0.5496
  230SOL     OW  891   1.820   4.445   2.929 -0.2213 -0.4018 -0.1291
  230SOL    HW1  892   1.884   4.438   2.858  2.3462 -0.5593  2.0374
  230SOL    HW2  893   1.820   4.539   2.951  1.8024 -0.7910  1.9172
  231SOL     OW  894   1.733   0.537   3.070  0.6433  0.1284 -0.5220
  231SOL    HW1  895   1.753   0.444   3.066  1.9789  0.3782 -0.2784
  231SOL    HW2  896   1.784   0.575   2.998  0.5710  0.7300 -0.2582
  232SOL     OW  897   1.577   2.800   1.299  0.1268  0.2632 -0.3649
  232SOL    HW1  898   1.532   2.877   1.264 -1.0605  0.3084  1.1478
  232SOL    HW2  899   1.533   2.726   1.258  1.2550  0.3371 -1.8042
  233SOL     OW  900   4.317   2.464   0.987 -0.0330  0.0091 -0.2522
  233SOL    HW1  901   4.231   2.448   0.949 -0.4704  0.7456  0.4013
  233SOL    HW2  902   4.353   2.377   1.003 -1.0775 -0.3118  0.4139
  234SOL     OW  903   2.080   2.548   4.464 -0.4421 -1.0051  0.2969
  234SOL    HW1  904   2.054   2.464   4.425 -0.7573 -1.2177  0.9457
  234SOL    HW2  905   2.077   2.533   4.559 -2.5415  0.3083  0.5023
  235SOL     OW  906   4.360   1.989   2.199 -0.5227 -0.0891 -0.0638
  235SOL    HW1  907   4.356   2.051   2.126 -0.1543  0.0993  0.0691
  235SOL    HW2  908   4.284   2.010   2.253 -2.0712 -1.6778 -1.5066
  236SOL     OW  909   1.934   3.153   1.337 -0.0307  0.1068  0.0794
  236SOL    HW1  910   1.890   3.071   1.314 -2.2611  1.3466 -0.3824
  236SOL    HW2  911   1.999   3.165   1.268 -1.6612  0.1163 -1.5335
  237SOL     OW  912   0.194   1.217   3.197 -0.9036  0.2700  0.5311
  237SOL    HW1  913   0.192   1.293   3.256 -0.5123  1.3348 -0.7708
  237SOL    HW2  914   0.145   1.245   3.120 -1.2967 -1.0392  0.2817
  238SOL     OW  915   1.238   2.868   2.923 -0.1759  0.1037 -0.0859
  238SOL    HW1  916   1.232   2.875   3.019  4.6949  1.2850  0.4188
  238SOL    HW2  917   1.237   2.773   2.907 -0.1252 -0.1602  1.2831
  239SOL     OW  918   1.095   1.145   1.758  0.3333  0.0783 -0.1755
  239SOL    HW1  919   1.081   1.152   1.663 -0.4373 -1.9206 -0.2639
  239SOL    HW2  920   1.173   1.090   1.767 -1.0531 -1.9580  0.2688
  240SOL     OW  921   3.537   3.784   1.874 -0.6209  0.3375 -0.2110
  240SOL    HW1  922   3.611   3.839   1.900 -0.9813  0.6395  0.1868
  240SOL    HW2  923   3.575   3.720   1.813 -0.0842  0.6469 -0.2076
  241SOL     OW  924   1.649   1.931   0.859 -0.1240 -0.2493 -0.0216
  241SOL    HW1  925   1.691   1.847   0.838  0.8949  0.7295 -2.1738
  241SOL    HW2  926   1.594   1.949   0.783 -2.0515  0.0325  1.3808
  242SOL     OW  927   0.015   0.304   0.728 -0.0896 -0.3028 -0.0713
  242SOL    HW1  928   0.055   0.295   0.815 -2.4805 -2.0160  0.9506
  242SOL    HW2  929   0.002   0.399   0.718  1.7954  0.0759  0.6207
  243SOL     OW  930   4.772   2.298   2.589 -0.1773 -0.6970  0.1864
  243SOL    HW1  931   4.808   2.320   2.503 -0.4521  0.2677  0.2960
  243SOL    HW2  932   4.688   2.256   2.570 -0.6330  0.2736 -0.0200
  244SOL     OW  933   1.725   0.504   0.523 -0.4985 -0.2230 -0.0003
  244SOL    HW1  934   1.761   0.572   0.466  1.0529 -1.0973 -0.1336
  244SOL    HW2  935   1.673   0.449   0.465 -0.4198 -0.0772 -0.2090
  245SOL     OW  936   2.787   2.207   1.418 -0.0310  0.0597  0.0268
  245SOL    HW1  937   2.736   2.126   1.421  0.9465 -0.5274  1.3989
  245SOL    HW2  938   2.815   2.214   1.326 -0.7067 -0.7761 -0.2521
  246SOL     OW  939   0.534   0.184   0.283 -0.5389  0.2593 -0.7530
  246SOL    HW1  940   0.536   0.096   0.321 -0.8342  1.1088  1.3405
  246SOL    HW2  941   0.498   0.171   0.195 -1.9553 -1.5312  0.0307
  247SOL     OW  942   2.007   3.129   0.848  0.8085 -0.0775  0.0249
  247SOL    HW1  943   2.064   3.074   0.794  1.1469 -0.3369  0.6404
  247SOL    HW2  944   1.997   3.210   0.798 -0.8459 -1.2017 -1.5863
  248SOL     OW  945   0.095   2.650   0.104 -0.0856 -0.1458 -0.4939
  248SOL    HW1  946   0.007   2.648   0.142 -0.4254  0.8444 -1.1684
  248SOL    HW2  947   0.129   2.562   0.117 -0.5767 -0.1237  1.1700
  249SOL     OW  948   3.381   2.620   4.360  0.2407 -0.1736 -0.1649
  249SOL    HW1  949   3.352   2.665   4.281 -0.2884 -0.0064  0.1187
  249SOL    HW2  950   3.358   2.680   4.431  0.0480 -0.6437  0.1736
  250SOL     OW  951   3.148   2.385   3.143 -0.4613  0.1070 -0.3372
  250SOL    HW1  952   3.182   2.390   3.232 -0.6857 -0.5276 -0.2111
  250SOL    HW2  953   3.204   2.444   3.092 -0.5549  0.7524  0.2879
  251SOL     OW  954   2.913   0.579   2.051 -0.1644  0.0384  0.1784
  251SOL    HW1  955   2.832   0.625   2.028  0.7974  0.7740 -1.9851
  251SOL    HW2  956   2.930   0.521   1.977  0.7547 -0.9013  1.0893
  252SOL     OW  957   3.671   2.047   3.032  0.2953  0.2773  0.2476
  252SOL    HW1  958   3.761   2.029   3.005  0.4151  2.3458 -0.9348
  252SOL    HW2  959   3.637   1.962   3.059  2.1281 -0.8244 -0.6891
  253SOL     OW  960   1.702   4.142   1.799  0.1300  0.2955 -0.5198
  253SOL    HW1  961   1.640   4.070   1.810  1.0918 -0.4007  0.4230
  253SOL    HW2  962   1.767   4.109   1.737  2.3905 -0.9203  2.3308
  254SOL     OW  963   2.128   0.062   4.757 -0.6117  0.1265  0.0597
  254SOL    HW1  964   2.130   0.154   4.733 -1.7771 -0.1476 -1.2080
  254SOL    HW2  965   2.153   0.016   4.677 -0.7213 -0.6859  0.4827
  255SOL     OW  966   4.780   2.876   4.344 -0.5139 -0.0490 -0.3981
  255SOL    HW1  967   4.813   2.816   4.278  1.3197  1.3896 -0.8628
  255SOL    HW2  968   4.786   2.962   4.303 -0.1676  0.7833  1.3133
  256SOL     OW  969   3.726   1.695   2.781 -0.3290 -0.1549 -0.2427
  256SOL    HW1  970   3.782   1.749   2.726 -0.0452 -1.0527 -0.8725
  256SOL    HW2  971   3.638   1.709   2.746 -0.4543  0.9301  0.4755
  257SOL     OW  972   1.978   4.705   4.267 -0.3188 -0.0169 -0.3336
  257SOL    HW1  973   1.954   4.790   4.230  0.1573  0.0754 -0.4281
  257SOL    HW2  974   2.069   4.691   4.241 -0.6517 -0.9482 -1.0640
  258SOL     OW  975   1.014   3.069   3.186 -0.4348  0.1992  0.4062
  258SOL    HW1  976   1.022   3.153   3.232 -0.7089  0.4512  0.0014
  258SOL    HW2  977   1.061   3.007   3.241  1.2813  0.9473 -0.1523
  259SOL     OW  978   3.471   2.687   2.622 -0.2637  0.2725 -0.0859
  259SOL    HW1  979   3.458   2.599   2.657  1.2610 -0.1974 -0.5753
  259SOL    HW2  980   3.557   2.713   2.655 -0.5712  1.4656 -0.1887
  260SOL     OW  981   4.320   4.032   4.179  0.1809 -0.7260 -0.4907
  260SOL    HW1  982   4.376   3.964   4.217  0.4567 -0.7146 -0.8685
  260SOL    HW2  983   4.231   4.002   4.196  0.3006 -0.9757 -0.2902
  261SOL     OW  984   4.225   3.459   0.075 -0.0935 -0.1784  0.0104
  261SOL    HW1  985   4.242   3.470   0.169 -0.3110 -0.1551  0.0488
  261SOL    HW2  986   4.165   3.530   0.053  0.6051  0.3122 -0.3340
  262SOL     OW  987   3.862   4.811   0.089 -0.3217  0.3410  0.8137
  262SOL    HW1  988   3.845   4.719   0.071  1.0604 -0.4404  3.1565
  262SOL    HW2  989   3.837   4.856   0.007 -3.5517 -1.7189  0.4701
  263SOL     OW  990   4.442   0.952   3.067  0.5984  0.2323 -0.3973
  263SOL    HW1  991   4.444   0.867   3.111 -0.5838 -0.5680 -1.7856
  263SOL    HW2  992   4.421   0.931   2.976  0.0103  2.0393 -0.7189
  264SOL     OW  993   3.393   4.311   0.424  0.3523  0.1131 -0.3107
  264SOL    HW1  994   3.481   4.279   0.405 -0.2494 -1.5075 -0.5085
  264SOL    HW2  995   3.360   4.342   0.340  0.0861 -0.9437 -0.5991
  265SOL     OW  996   0.781   3.314   4.514  0.3078 -0.4779  0.4342
  265SOL    HW1  997   0.852   3.349   4.568 -0.8482  3.1753 -0.1540
  265SOL    HW2  998   0.753   3.388   4.459 -2.3944 -2.4107 -1.0519
  266SOL     OW  999   0.695   2.875   2.055 -0.5514  0.2393  0.3931
  266SOL    HW1 1000   0.659   2.856   2.141 -2.5089  0.7979 -0.2541
  266SOL    HW2 1001   0.724   2.966   2.059  1.5768 -0.4003  1.1200
  267SOL     OW 1002   1.253   3.981   3.239 -0.4105  0.0271  0.5634
  267SOL    HW1 1003   1.205   3.901   3.261 -1.4796  0.2193 -0.8915
  267SOL    HW2 1004   1.254   3.983   3.143 -1.1387  2.1581  0.5408
  268SOL     OW 1005   2.522   2.533   1.304 -0.2824 -0.7332  0.1205
  268SOL    HW1 1006   2.459   2.476   1.348  1.2413 -1.0349  2.0056
  268SOL    HW2 1007   2.549   2.595   1.371  0.9599 -0.2196 -0.8284
  269SOL     OW 1008   2.625   0.064   0.251  0.2836 -0.2674  0.3114
  269SOL    HW1 1009   2.541   0.100   0.222  1.5740  1.7058 -1.2118
  269SOL    HW2 1010   2.602   0.007   0.325 -2.3811  0.1321 -0.1052
  270SOL     OW 1011   4.478   2.259   2.129 -0.5564 -0.1350  0.0437
  270SOL    HW1 1012   4.504   2.298   2.212  1.5019 -1.7255  0.2346
  270SOL    HW2 1013   4.534   2.300   2.064 -0.6022 -0.4780 -0.2187
  271SOL     OW 1014   3.934   1.794   1.268 -0.7033  0.5244 -0.0483
  271SOL    HW1 1015   4.002   1.816   1.204 -1.0959  0.5417 -0.4635
  271SOL    HW2 1016   3.981   1.749   1.339 -0.6615 -2.5166 -1.8281
  272SOL     OW 1017   4.535   4.303   4.510 -0.0171  0.1284  0.0461
  272SOL    HW1 1018   4.554   4.396   4.520 -1.1159  0.3152  0.5585
  272SOL    HW2 1019   4.519   4.272   4.600  2.0916 -0.9813  0.1181
  273SOL     OW 1020   4.521   1.217   3.077 -0.2530  0.0746 -0.2166
  273SOL    HW1 1021   4.547   1.232   2.986  1.9293 -0.4075  0.2778
  273SOL    HW2 1022   4.509   1.122   3.084  1.4334 -0.1195  0.4138
  274SOL     OW 1023   3.016   1.536   2.062  0.0685  0.0076 -0.1658
  274SOL    HW1 1024   2.978   1.595   1.997 -0.7305  0.0658  0.3424
  274SOL    HW2 1025   2.995   1.448   2.031 -0.5476  0.0413  0.1453
  275SOL     OW 1026   4.668   0.632   1.187  0.0865 -0.0846  0.0239
  275SOL    HW1 1027   4.704   0.712   1.226 -2.6519  0.9074  0.7966
  275SOL    HW2 1028   4.687   0.639   1.094  0.3252  1.2401  0.1585
  276SOL     OW 1029   3.906   1.911   1.557  0.0561 -0.2281 -0.2334
  276SOL    HW1 1030   3.989   1.879   1.520 -0.1943  0.7475 -1.7009
  276SOL    HW2 1031   3.932   1.964   1.633  0.6441 -1.3256  0.3633
  277SOL     OW 1032   3.909   3.975   1.779 -0.1432 -0.1962 -0.6820
  277SOL    HW1 1033   3.873   4.043   1.723  1.4137  0.9662 -0.3438
  277SOL    HW2 1034   3.854   3.976   1.857 -0.6276  0.1087 -1.0278
  278SOL     OW 1035   1.990   0.518   4.669  0.7283 -0.1001 -0.1897
  278SOL    HW1 1036   1.949   0.432   4.684  0.7698 -0.2487 -0.8792
  278SOL    HW2 1037   1.925   0.566   4.617  0.9453  0.0797 -0.2959
  279SOL     OW 1038   3.696   0.503   3.748 -0.2164 -0.1746 -0.1581
  279SOL    HW1 1039   3.788   0.527   3.741  0.2769 -0.7572  2.9632
  279SOL    HW2 1040   3.649   0.576   3.706  1.6136 -1.0569 -4.1039
  280SOL     OW 1041   3.967   4.008   4.587 -0.0248  0.6946  0.0016
  280SOL    HW1 1042   3.902   4.039   4.524  0.7524 -1.9622 -2.2825
  280SOL    HW2 1043   3.941   4.049   4.670 -3.1102  1.7001 -1.3157
  281SOL     OW 1044   0.557   2.102   0.805 -0.2244 -0.7215  0.4418
  281SOL    HW1 1045   0.558   2.129   0.897 -0.6725  0.3082  0.1559
  281SOL    HW2 1046   0.484   2.040   0.799  0.4064 -1.5397  0.9704
  282SOL     OW 1047   3.510   4.031   2.470  0.1037  0.0347  0.1682
  282SOL    HW1 1048   3.573   4.074   2.527  0.4229 -0.5851  0.2926
  282SOL    HW2 1049   3.541   3.940   2.464 -0.9296 -0.3481  0.4615
  283SOL     OW 1050   0.499   3.843   3.891 -0.5022  0.1464 -0.1542
  283SOL    HW1 1051   0.495   3.888   3.807 -2.2210  0.0659 -0.1548
  283SOL    HW2 1052   0.410   3.849   3.926 -0.4513 -1.9808  0.5074
  284SOL     OW 1053   4.245   4.084   2.619 -0.7897 -1.4155  0.1231
  284SOL    HW1 1054   4.270   4.007   2.670 -4.1259 -1.7137  1.5849
  284SOL    HW2 1055   4.213   4.049   2.537  1.4052 -1.1861 -0.8976
  285SOL     OW 1056   1.674   4.528   3.940 -0.1025  0.2511 -0.0062
  285SOL    HW1 1057   1.625   4.518   3.859 -0.9539  0.8573  0.4148
  285SOL    HW2 1058   1.640   4.609   3.978  0.0228 -0.2203  1.1366
  286SOL     OW 1059   2.172   4.029   0.739 -0.5088 -0.3202 -0.4002
  286SOL    HW1 1060   2.090   4.061   0.777  0.8882  0.2239  2.4068
  286SOL    HW2 1061   2.195   4.095   0.674 -1.4241  0.4297 -0.0006
  287SOL     OW 1062   0.519   3.461   0.744 -0.6484  0.5510 -0.2645
  287SOL    HW1 1063   0.484   3.462   0.833  0.9622  2.0128  0.4044
  287SOL    HW2 1064   0.614   3.464   0.755 -0.4147  0.8197 -2.0258
  288SOL     OW 1065   4.727   4.524   1.815 -0.0997 -0.3470  0.2707
  288SOL    HW1 1066   4.642   4.567   1.802  0.0675 -0.1540 -0.2184
  288SOL    HW2 1067   4.792   4.591   1.793  0.1994 -0.2515  1.3982
  289SOL     OW 1068   4.163   1.785   1.757  0.7684 -0.0632 -0.5088
  289SOL    HW1 1069   4.235   1.805   1.699 -0.6012  1.4423 -1.7748
  289SOL    HW2 1070   4.101   1.857   1.745 -0.8118 -1.1350  0.7472
  290SOL     OW 1071   3.754   2.333   3.946 -0.2939 -0.1159  0.2835
  290SOL    HW1 1072   3.769   2.283   3.865 -1.3242  2.3371 -1.5392
  290SOL    HW2 1073   3.661   2.355   3.943  0.4492  3.5380 -0.0844
  291SOL     OW 1074   0.805   4.514   1.845  0.1849  0.1366 -0.1543
  291SOL    HW1 1075   0.857   4.486   1.770  1.3457  2.3612 -0.2304
  291SOL    HW2 1076   0.853   4.482   1.921 -1.2778 -2.6138 -0.2503
  292SOL     OW 1077   0.979   3.990   3.192 -0.2728 -0.0512 -0.8039
  292SOL    HW1 1078   1.042   4.057   3.218  1.1305 -1.7245  0.3090
  292SOL    HW2 1079   1.027   3.908   3.199 -2.4458 -1.3598 -0.3332
  293SOL     OW 1080   1.629   3.257   4.550 -0.4596  0.5567 -0.4106
  293SOL    HW1 1081   1.661   3.194   4.614 -1.1238  0.3692 -0.2596
  293SOL    HW2 1082   1.534   3.242   4.546 -0.4017  0.3899 -1.6170
  294SOL     OW 1083   0.244   2.418   0.069  0.0160 -0.4929  0.3742
  294SOL    HW1 1084   0.331   2.415   0.028 -0.0391 -0.2756  0.2372
  294SOL    HW2 1085   0.234   2.332   0.110  0.8989 -0.0133  1.6477
  295SOL     OW 1086   2.852   1.961   4.004 -0.5177 -0.1846  0.4607
  295SOL    HW1 1087   2.878   2.035   4.060  1.6823 -0.8275  0.3793
  295SOL    HW2 1088   2.819   2.003   3.924 -3.3670  0.7381  1.9623
  296SOL     OW 1089   2.162   4.250   3.384 -0.1212 -0.4926  0.5012
  296SOL    HW1 1090   2.074   4.233   3.418 -1.3195  2.4300 -0.8489
  296SOL    HW2 1091   2.155   4.334   3.339  3.0194 -0.8830 -0.9955
  297SOL     OW 1092   2.448   4.178   3.859  0.0197 -0.1653 -0.3109
  297SOL    HW1 1093   2.476   4.102   3.807 -0.8960  0.4266 -1.7206
  297SOL    HW2 1094   2.373   4.146   3.909  0.6838 -0.6346  0.4219
  298SOL     OW 1095   0.781   2.053   3.796  0.2809 -0.2496 -0.3144
  298SOL    HW1 1096   0.766   2.034   3.703 -1.0993 -0.6505 -0.0358
  298SOL    HW2 1097   0.714   2.118   3.818  2.1962  1.7567 -0.1797
  299SOL     OW 1098   2.222   0.500   0.813  0.4273 -0.5636  0.1207
  299SOL    HW1 1099   2.190   0.433   0.752  1.1403 -1.7012  0.9531
  299SOL    HW2 1100   2.316   0.483   0.820  0.6716  0.7061  0.1594
  300SOL     OW 1101   0.212   2.722   4.022  0.4959 -0.0343 -0.6895
  300SOL    HW1 1102   0.266   2.685   4.091  0.4332  0.6165 -0.2860
  300SOL    HW2 1103   0.175   2.801   4.060 -1.7278 -1.0771 -0.5315
  301SOL     OW 1104   4.422   1.340   4.205  0.0570 -0.3141 -0.5068
  301SOL    HW1 1105   4.478   1.314   4.132  0.2860  0.6989 -0.6962
  301SOL    HW2 1106   4.385   1.424   4.179  1.0605  0.6522  0.9996
  302SOL     OW 1107   0.900   0.794   1.926  0.0885 -0.0679 -0.3553
  302SOL    HW1 1108   0.819   0.759   1.889  0.0373 -0.1378 -0.1773
  302SOL    HW2 1109   0.967   0.770   1.862 -0.0099 -0.1284 -0.4370
  303SOL     OW 1110   4.469   0.231   2.868 -0.1459  0.3955 -0.6092
  303SOL    HW1 1111   4.445   0.247   2.777 -1.7391 -0.7430 -0.4214
  303SOL    HW2 1112   4.481   0.318   2.906  0.0260  0.8862 -1.7560
  304SOL     OW 1113   1.738   3.259   3.306 -0.4715 -0.1483  0.1100
  304SOL    HW1 1114   1.649   3.273   3.274 -0.2227  0.1146 -0.4784
  304SOL    HW2 1115   1.783   3.341   3.287  0.5019 -1.0365 -1.6719
  305SOL     OW 1116   0.361   2.354   1.569  0.4107  0.1269 -0.0539
  305SOL    HW1 1117   0.280   2.304   1.557  0.7770 -0.8093  1.1590
  305SOL    HW2 1118   0.348   2.403   1.650  1.0779 -0.1018  0.2035
  306SOL     OW 1119   2.332   4.451   1.356  0.6734 -0.0696 -0.5243
  306SOL    HW1 1120   2.337   4.380   1.293  1.1049  0.3555 -0.9799
  306SOL    HW2 1121   2.247   4.492   1.340  0.7417 -0.0218 -0.7706
  307SOL     OW 1122   2.791   3.526   3.361  0.4862 -0.0468 -0.0703
  307SOL    HW1 1123   2.794   3.436   3.393 -0.4645 -0.9219 -2.2367
  307SOL    HW2 1124   2.864   3.531   3.300 -0.6292  0.0002 -1.4391
  308SOL     OW 1125   2.732   1.219   4.295  0.7240  0.4617  0.0163
  308SOL    HW1 1126   2.798   1.184   4.355  0.3365 -1.2084 -0.4626
  308SOL    HW2 1127   2.769   1.301   4.263  2.1314  0.0470  0.4951
  309SOL     OW 1128   2.994   1.123   3.052 -0.3715  0.1565  0.1014
  309SOL    HW1 1129   2.932   1.151   3.120 -0.5111  0.2809 -0.0760
  309SOL    HW2 1130   3.070   1.180   3.063 -0.5261  0.3927 -0.0547
  310SOL     OW 1131   3.638   4.049   3.565 -0.3061  0.9458 -0.5256
  310SOL    HW1 1132   3.588   4.130   3.548 -1.4090  0.0625 -1.7028
  310SOL    HW2 1133   3.603   3.986   3.501  1.7083  0.0084 -0.7709
  311SOL     OW 1134   1.710   0.048   1.411 -0.2030 -0.0817 -0.2365
  311SOL    HW1 1135   1.620   0.016   1.410 -0.1427 -0.3250  0.6091
  311SOL    HW2 1136   1.711   0.114   1.481  0.4265 -0.5763  0.2420
  312SOL     OW 1137   1.704   4.581   0.119  0.2571 -0.3728  0.1204
  312SOL    HW1 1138   1.770   4.620   0.177 -0.1970 -0.0526  0.4300
  312SOL    HW2 1139   1.725   4.487   0.120  0.6350 -0.2915  0.3058
  313SOL     OW 1140   1.496   3.354   1.995  0.6384  0.7577  0.2206
  313SOL    HW1 1141   1.422   3.394   1.950  0.4045  2.5451  2.0360
  313SOL    HW2 1142   1.494   3.262   1.969 -1.9046  0.8596 -0.1558
  314SOL     OW 1143   3.010   1.902   3.330 -0.3974 -0.5934 -0.0661
  314SOL    HW1 1144   2.995   1.997   3.326  0.4474 -0.3958  0.9737
  314SOL    HW2 1145   2.968   1.874   3.411  0.6935 -0.8270  0.4350
  315SOL     OW 1146   1.123   3.835   3.715 -0.1301  0.3025 -0.2997
  315SOL    HW1 1147   1.146   3.915   3.668 -1.4715  1.0593  0.2686
  315SOL    HW2 1148   1.042   3.856   3.760  0.1978 -0.9568  0.9632
  316SOL     OW 1149   0.646   3.818   0.703 -0.2523 -0.6543  0.1097
  316SOL    HW1 1150   0.739   3.820   0.680  0.1361 -1.5285  1.4902
  316SOL    HW2 1151   0.613   3.738   0.663  0.1114 -1.4569  1.3335
  317SOL     OW 1152   4.552   1.409   3.348 -0.3221  0.5851  0.1766
  317SOL    HW1 1153   4.640   1.447   3.341 -0.6658  1.2018 -1.3101
  317SOL    HW2 1154   4.526   1.393   3.257 -0.8185 -1.8052  0.6799
  318SOL     OW 1155   3.411   0.886   3.885 -0.0629  0.1846 -0.2073
  318SOL    HW1 1156   3.323   0.925   3.885 -0.2493 -0.1853 -1.5772
  318SOL    HW2 1157   3.400   0.803   3.839  0.9207 -0.0764  0.0151
  319SOL     OW 1158   2.688   1.034   4.793 -0.2191 -0.0740  0.4231
  319SOL    HW1 1159   2.650   0.991   4.870  0.3217  0.2527  0.8833
  319SOL    HW2 1160   2.628   1.106   4.774  0.3800  0.7305  1.4378
  320SOL     OW 1161   1.376   3.704   1.524  0.2251  0.0842 -0.2993
  320SOL    HW1 1162   1.316   3.685   1.452 -0.1476 -1.2684  0.3344
  320SOL    HW2 1163   1.426   3.623   1.536  0.7150  0.4967  0.5584
  321SOL     OW 1164   3.337   0.498   2.953 -0.0657  0.0732  0.1308
  321SOL    HW1 1165   3.401   0.446   2.906 -0.1530 -1.1787  1.3326
  321SOL    HW2 1166   3.266   0.436   2.973 -0.5078  0.8258  0.9530
  322SOL     OW 1167   0.481   4.428   2.712 -0.5201 -0.1318 -0.4085
  322SOL    HW1 1168   0.395   4.387   2.706 -0.4992 -0.5163  1.3173
  322SOL    HW2 1169   0.471   4.492   2.783  0.0606  1.2875 -1.5646
  323SOL     OW 1170   1.187   0.797   0.557 -0.0938 -0.0740 -0.3674
  323SOL    HW1 1171   1.100   0.758   0.559 -0.1004 -0.1030  2.2260
  323SOL    HW2 1172   1.245   0.727   0.527 -0.6309 -0.9060  0.4783
  324SOL     OW 1173   0.459   1.257   3.316  0.1217 -0.1112  0.0847
  324SOL    HW1 1174   0.381   1.245   3.263  0.0972 -2.1827  0.5016
  324SOL    HW2 1175   0.485   1.347   3.300 -0.9416 -0.1046 -1.9850
  325SOL     OW 1176   2.144   3.457   2.860 -0.3079 -0.1815  0.3398
  325SOL    HW1 1177   2.059   3.415   2.877 -0.7216  0.3596 -0.3450
  325SOL    HW2 1178   2.159   3.512   2.937 -0.2352 -0.8184  0.7874
  326SOL     OW 1179   4.218   2.395   2.886 -0.0054 -0.5711  0.1883
  326SOL    HW1 1180   4.221   2.426   2.976  0.5965 -1.7849  0.6189
  326SOL    HW2 1181   4.231   2.473   2.832 -1.7013  0.3837  1.0913
  327SOL     OW 1182   3.410   1.545   3.809  0.1310  0.0876  0.0704
  327SOL    HW1 1183   3.439   1.455   3.798 -0.5159 -0.1341  0.1431
  327SOL    HW2 1184   3.405   1.557   3.904  1.2853  0.5587  0.0931
  328SOL     OW 1185   0.185   1.813   0.201  0.5849  0.7169  0.1538
  328SOL    HW1 1186   0.121   1.878   0.173 -0.1591  0.4619  1.1934
  328SOL    HW2 1187   0.267   1.839   0.157  0.0217  1.6371 -0.3863
  329SOL     OW 1188   0.816   4.774   3.614  0.1999  0.5449 -0.4051
  329SOL    HW1 1189   0.858   4.692   3.588  0.5048  0.0309  1.5500
  329SOL    HW2 1190   0.888   4.835   3.627  0.0345  0.8714 -1.0061
  330SOL     OW 1191   3.180   2.842   0.452 -0.0815 -0.3205  0.1206
  330SOL    HW1 1192   3.138   2.864   0.535 -0.3001 -1.9231  0.4655
  330SOL    HW2 1193   3.205   2.751   0.461  0.7587 -0.2500 -1.2346
  331SOL     OW 1194   1.173   4.171   0.649  0.0570 -0.6785 -0.0345
  331SOL    HW1 1195   1.244   4.190   0.711 -0.1638 -2.7529  0.9453
  331SOL    HW2 1196   1.103   4.135   0.704 -0.6467 -1.3475 -1.3436
  332SOL     OW 1197   1.956   4.765   1.003  0.2164 -0.4670 -0.4492
  332SOL    HW1 1198   1.904   4.688   1.027  1.2548 -0.5736  1.6635
  332SOL    HW2 1199   1.917   4.837   1.051  0.9041 -0.2032 -0.2693
  333SOL     OW 1200   3.928   1.043   1.715  0.8229 -0.0424 -0.0046
  333SOL    HW1 1201   3.841   1.081   1.703  0.8699 -0.0477 -0.3820
  333SOL    HW2 1202   3.912   0.957   1.753  0.6737  0.0489  0.1380
  334SOL     OW 1203   1.671   3.429   3.836  0.0252  0.4507 -0.4701
  334SOL    HW1 1204   1.763   3.428   3.811  0.0966  0.7826 -0.2316
  334SOL    HW2 1205   1.672   3.434   3.932 -0.2380 -3.7832 -0.0800
  335SOL     OW 1206   4.303   1.949   1.306 -0.3130  0.4581  0.1716
  335SOL    HW1 1207   4.374   2.009   1.330 -0.1734  1.5877 -2.6444
  335SOL    HW2 1208   4.224   2.003   1.308 -0.9101 -0.3939  1.6882
  336SOL     OW 1209   4.678   2.993   2.725 -0.2458 -0.2902  0.3135
  336SOL    HW1 1210   4.643   2.951   2.803 -0.2390  1.6334  1.4169
  336SOL    HW2 1211   4.606   2.992   2.662 -1.0493  0.2222  1.2012
  337SOL     OW 1212   1.147   0.651   2.574  0.4327 -0.0274  0.4277
  337SOL    HW1 1213   1.239   0.626   2.578  0.2588 -0.8539 -0.4609
  337SOL    HW2 1214   1.126   0.651   2.481 -0.3494  0.6131  0.5897
  338SOL     OW 1215   2.123   1.479   2.606 -0.0735 -0.4209 -0.7190
  338SOL    HW1 1216   2.109   1.415   2.537  1.0485 -1.6896  0.1754
  338SOL    HW2 1217   2.066   1.451   2.677  0.1999 -0.2581 -0.4298
  339SOL     OW 1218   0.372   1.182   3.929  0.1502  0.4052 -0.3363
  339SOL    HW1 1219   0.438   1.232   3.975 -0.6618 -0.1449  1.5260
  339SOL    HW2 1220   0.326   1.246   3.875  1.5727  0.9429 -0.9463
  340SOL     OW 1221   0.279   3.309   0.114 -0.2319  0.3685 -0.2091
  340SOL    HW1 1222   0.283   3.216   0.089 -0.1514  0.6618 -1.3402
  340SOL    HW2 1223   0.222   3.311   0.191  0.9694 -0.8030  0.7699
  341SOL     OW 1224   1.041   3.384   2.439 -0.5283 -0.0182 -0.1500
  341SOL    HW1 1225   1.054   3.290   2.439  1.9996  0.2549  1.4582
  341SOL    HW2 1226   1.011   3.405   2.528  1.4695  0.9119  0.3597
  342SOL     OW 1227   2.339   2.729   0.637  0.6960  0.4092 -0.4013
  342SOL    HW1 1228   2.311   2.645   0.602  2.5254 -0.8161  0.8759
  342SOL    HW2 1229   2.335   2.789   0.563 -2.8347 -0.1710 -0.8318
  343SOL     OW 1230   1.169   1.600   3.784 -0.0766  0.3347 -0.4573
  343SOL    HW1 1231   1.183   1.660   3.711  0.4458 -0.2495 -0.8494
  343SOL    HW2 1232   1.163   1.656   3.861 -2.5017  1.1444 -1.1271
  344SOL     OW 1233   1.981   3.858   0.090  0.0233  0.3248 -0.1785
  344SOL    HW1 1234   1.909   3.805   0.057  0.8960 -0.6238 -0.6129
  344SOL    HW2 1235   2.055   3.837   0.032  1.1963 -0.2145  1.4239
  345SOL     OW 1236   4.408   1.591   1.157  0.3128 -0.0276 -0.3078
  345SOL    HW1 1237   4.481   1.639   1.195 -0.3366 -0.9163  2.2415
  345SOL    HW2 1238   4.339   1.656   1.148  0.5078  0.2165 -0.0669
  346SOL     OW 1239   2.752   2.166   0.780 -0.4955  0.1940  0.6930
  346SOL    HW1 1240   2.793   2.207   0.704  0.7402 -0.8995  0.7340
  346SOL    HW2 1241   2.756   2.072   0.762 -0.8091 -0.0455  1.7950
  347SOL     OW 1242   1.730   1.878   2.371  0.0198 -0.4468  0.2931
  347SOL    HW1 1243   1.678   1.951   2.404 -1.9107 -1.4539 -0.3707
  347SOL    HW2 1244   1.780   1.914   2.299 -0.3299  0.4013  0.4652
  348SOL     OW 1245   2.910   3.209   0.677 -0.5870  0.1355 -0.0220
  348SOL    HW1 1246   2.939   3.284   0.625  1.4591 -0.5275  0.0621
  348SOL    HW2 1247   2.891   3.244   0.763 -1.4794  0.8345 -0.4915
  349SOL     OW 1248   4.399   0.848   2.825  0.2199  0.3997  0.1785
  349SOL    HW1 1249   4.326   0.887   2.775 -1.6325 -0.6033  1.9779
  349SOL    HW2 1250   4.476   0.865   2.770 -1.3308  1.4951 -1.8295
  350SOL     OW 1251   2.600   0.618   0.646  0.1767 -0.0453 -0.0904
  350SOL    HW1 1252   2.530   0.666   0.602  0.0446 -0.1986 -0.0500
  350SOL    HW2 1253   2.624   0.549   0.585  0.5572  0.2417 -0.2637
  351SOL     OW 1254   1.703   2.478   2.356 -0.1222  0.0416 -0.1336
  351SOL    HW1 1255   1.788   2.496   2.316 -0.4245  2.4181  0.1244
  351SOL    HW2 1256   1.724   2.456   2.447  0.2359  0.1727 -0.1826
  352SOL     OW 1257   2.696   0.515   2.687 -0.0523  0.1248 -0.3187
  352SOL    HW1 1258   2.683   0.446   2.621 -1.7213 -0.2327  0.3133
  352SOL    HW2 1259   2.765   0.570   2.652  0.5198 -1.2291 -1.3914
  353SOL     OW 1260   3.573   2.839   4.756 -0.5710 -0.0859  0.1615
  353SOL    HW1 1261   3.572   2.933   4.773  0.1701  0.0852 -0.6386
  353SOL    HW2 1262   3.557   2.832   4.662  0.4338 -0.6838  0.0194
  354SOL     OW 1263   0.226   4.050   3.837 -0.8817 -0.3942  0.2170
  354SOL    HW1 1264   0.139   4.045   3.798 -0.2256  2.8102 -2.0618
  354SOL    HW2 1265   0.286   4.031   3.764  0.3909 -1.7717  1.5490
  355SOL     OW 1266   4.709   3.083   0.853 -0.3631 -0.2416  0.3008
  355SOL    HW1 1267   4.614   3.092   0.841 -0.2617  0.3209 -0.1631
  355SOL    HW2 1268   4.739   3.173   0.869  0.3770 -0.0427 -1.8722
  356SOL     OW 1269   4.312   1.557   4.062  0.4512 -0.1606  0.0463
  356SOL    HW1 1270   4.379   1.625   4.073  1.3318 -0.7768 -1.2980
  356SOL    HW2 1271   4.229   1.605   4.061  1.0696  0.9431 -1.1435
  357SOL     OW 1272   1.064   0.583   1.789 -0.0211  0.5335  0.4814
  357SOL    HW1 1273   1.073   0.503   1.840  0.1655 -0.5533 -1.1590
  357SOL    HW2 1274   1.153   0.619   1.785  0.0578  0.3375  0.4731
  358SOL     OW 1275   3.367   3.311   1.016 -0.1076 -0.3721 -0.1989
  358SOL    HW1 1276   3.447   3.315   1.069  0.1895 -0.0880 -0.6608
  358SOL    HW2 1277   3.395   3.270   0.934  0.2212  2.1527 -1.4673
  359SOL     OW 1278   4.441   0.690   1.359  0.2357  0.1651  1.0970
  359SOL    HW1 1279   4.513   0.627   1.349  1.0606  1.2621 -0.1089
  359SOL    HW2 1280   4.437   0.735   1.275 -2.7783 -0.7729  0.6124
  360SOL     OW 1281   2.231   0.384   3.308 -0.2867  0.0062 -0.1384
  360SOL    HW1 1282   2.188   0.313   3.260  0.2040  0.8496 -1.9217
  360SOL    HW2 1283   2.296   0.340   3.363 -0.7420 -1.0033 -0.3784
  361SOL     OW 1284   3.812   3.523   4.384 -0.7502  0.0271 -0.1168
  361SOL    HW1 1285   3.846   3.436   4.360 -0.9748 -0.2994  0.6954
  361SOL    HW2 1286   3.797   3.567   4.301 -0.7650 -0.7707 -0.5499
  362SOL     OW 1287   0.709   2.196   0.352  0.2758 -0.8563  0.3250
  362SOL    HW1 1288   0.712   2.191   0.257 -0.9900 -1.1453  0.2794
  362SOL    HW2 1289   0.627   2.241   0.371  1.1654  0.4477  1.2661
  363SOL     OW 1290   4.438   1.273   4.677 -0.0039  0.7473  0.2046
  363SOL    HW1 1291   4.455   1.178   4.676 -0.3180  0.6729  0.9568
  363SOL    HW2 1292   4.386   1.287   4.756  2.0160  1.8814  1.4205
  364SOL     OW 1293   0.285   3.188   0.844 -0.0361  0.4446  0.1214
  364SOL    HW1 1294   0.372   3.170   0.808 -0.6583  0.1696 -1.2893
  364SOL    HW2 1295   0.295   3.171   0.938  1.2401 -0.3217 -0.1245
  365SOL     OW 1296   1.342   0.494   0.952  0.0375  0.1255 -0.2392
  365SOL    HW1 1297   1.346   0.482   0.857 -3.0262 -0.9498 -0.3323
  365SOL    HW2 1298   1.255   0.531   0.968  0.4213  0.1552  2.1604
  366SOL     OW 1299   0.784   1.485   2.797  0.3844  0.0493  0.0511
  366SOL    HW1 1300   0.722   1.468   2.727  0.4849 -1.4127  0.2890
  366SOL    HW2 1301   0.806   1.578   2.788 -0.9631  0.3154 -0.7263
  367SOL     OW 1302   0.343   3.318   4.621  0.6684 -0.7825  0.2327
  367SOL    HW1 1303   0.284   3.310   4.695 -0.5300  0.6658 -0.5059
  367SOL    HW2 1304   0.410   3.380   4.650  0.7284 -0.9300  0.4115
  368SOL     OW 1305   4.497   1.720   4.815 -0.7088 -0.0166 -0.0633
  368SOL    HW1 1306   4.502   1.813   4.837  4.4627  0.1672 -0.6425
  368SOL    HW2 1307   4.502   1.676   4.900  1.1917  0.3943  0.0790
  369SOL     OW 1308   0.473   2.507   4.348  0.5259 -0.0213  0.3072
  369SOL    HW1 1309   0.524   2.553   4.415 -0.1076  1.5409 -0.2495
  369SOL    HW2 1310   0.478   2.415   4.374  2.2442  0.2773  1.1800
  370SOL     OW 1311   3.903   2.433   1.763 -0.3157 -0.1353  0.4914
  370SOL    HW1 1312   3.995   2.427   1.736 -0.3828  0.5408  0.0895
  370SOL    HW2 1313   3.878   2.523   1.743 -0.8884 -0.1285  1.1935
  371SOL     OW 1314   4.477   4.413   1.114  0.4067  0.5012 -0.2672
  371SOL    HW1 1315   4.506   4.349   1.050 -0.0171 -0.3091  0.3315
  371SOL    HW2 1316   4.536   4.400   1.189  0.6890  1.2149 -0.3572
  372SOL     OW 1317   4.010   0.669   1.749  0.2373 -0.5452  0.4416
  372SOL    HW1 1318   4.078   0.647   1.686 -0.2649  1.8546 -1.0904
  372SOL    HW2 1319   3.930   0.674   1.697 -0.3563  0.6890  1.4027
  373SOL     OW 1320   3.873   3.688   2.876 -0.0452 -0.4806  0.6013
  373SOL    HW1 1321   3.894   3.614   2.819 -2.0944 -3.1574  3.0071
  373SOL    HW2 1322   3.787   3.717   2.848 -0.2379 -0.5741  1.0737
  374SOL     OW 1323   3.917   3.306   4.260 -0.7712 -0.4752 -0.3184
  374SOL    HW1 1324   3.989   3.277   4.203 -1.2555 -2.3773 -0.0467
  374SOL    HW2 1325   3.905   3.233   4.321 -0.7495  1.1793  1.8056
  375SOL     OW 1326   0.481   3.553   2.781 -0.5646  0.0287  0.0512
  375SOL    HW1 1327   0.564   3.505   2.770 -0.8847 -0.1119 -2.1187
  375SOL    HW2 1328   0.501   3.620   2.847  1.4222  0.2846 -0.7284
  376SOL     OW 1329   3.283   1.192   0.625  0.7864 -0.0668 -0.3096
  376SOL    HW1 1330   3.306   1.106   0.588 -1.6465 -0.6541 -0.6222
  376SOL    HW2 1331   3.319   1.255   0.562  1.9885 -0.8554 -0.4499
  377SOL     OW 1332   3.502   2.388   3.894 -0.4426  0.0249  0.4833
  377SOL    HW1 1333   3.453   2.442   3.956  0.7052  1.6274  0.0632
  377SOL    HW2 1334   3.436   2.356   3.833 -1.1325  1.2214  0.5746
  378SOL     OW 1335   3.499   4.012   3.830 -0.5488  0.2596 -0.1097
  378SOL    HW1 1336   3.409   4.037   3.810  0.2465  2.2785 -1.4213
  378SOL    HW2 1337   3.548   4.033   3.751  0.7237 -3.2000 -0.4284
  379SOL     OW 1338   0.663   1.451   2.513  0.6341 -0.4025 -0.0197
  379SOL    HW1 1339   0.654   1.543   2.537 -0.0712 -0.5141  0.1772
  379SOL    HW2 1340   0.578   1.428   2.475  0.3294 -1.3213  1.1559
  380SOL     OW 1341   4.457   2.311   3.220  0.3018  0.2563 -0.2203
  380SOL    HW1 1342   4.426   2.279   3.136  0.9665 -0.3109 -0.2651
  380SOL    HW2 1343   4.422   2.399   3.227  0.1045  0.2487 -1.0207
  381SOL     OW 1344   2.713   2.736   1.848 -0.1471 -0.0735 -0.5534
  381SOL    HW1 1345   2.628   2.775   1.830 -0.1571  0.3070  0.2637
  381SOL    HW2 1346   2.766   2.808   1.882  0.0567 -0.6031  0.2903
  382SOL     OW 1347   1.985   1.923   2.777  0.1630  0.2357  0.2611
  382SOL    HW1 1348   2.022   1.855   2.833 -0.8546  0.3385  1.0915
  382SOL    HW2 1349   2.014   1.900   2.689 -0.0157 -1.1680  0.5517
  383SOL     OW 1350   3.681   1.301   2.407  0.5812  0.3758  0.0289
  383SOL    HW1 1351   3.650   1.295   2.316 -0.7784  0.4664  0.4647
  383SOL    HW2 1352   3.603   1.323   2.457  1.0085 -1.0477  1.4080
  384SOL     OW 1353   3.639   0.192   0.158  0.1192  0.8413 -0.3570
  384SOL    HW1 1354   3.646   0.188   0.254  0.5632  1.0472 -0.3781
  384SOL    HW2 1355   3.718   0.148   0.127  0.5541  1.7877 -0.6229
  385SOL     OW 1356   3.066   3.373   1.663 -0.5094 -0.6177  0.3829
  385SOL    HW1 1357   2.988   3.388   1.610 -1.7752 -1.5622  1.9010
  385SOL    HW2 1358   3.050   3.425   1.742  1.2815  0.6624 -0.0337
  386SOL     OW 1359   2.516   0.940   0.966 -0.2053  0.7835 -0.1965
  386SOL    HW1 1360   2.583   0.912   0.903 -0.1723 -0.7626  0.4727
  386SOL    HW2 1361   2.553   1.016   1.009  0.8013  0.4132 -0.3805
  387SOL     OW 1362   3.334   4.408   0.895  0.0832 -0.2960 -0.3966
  387SOL    HW1 1363   3.398   4.422   0.825  1.1625 -0.9825  0.4300
  387SOL    HW2 1364   3.359   4.325   0.935 -1.3782 -0.6162 -0.0862
  388SOL     OW 1365   2.291   0.488   1.500 -0.0708 -0.3502  0.2033
  388SOL    HW1 1366   2.355   0.516   1.434  1.2448 -1.8587  0.7705
  388SOL    HW2 1367   2.337   0.498   1.583 -0.2583 -2.1412  0.5726
  389SOL     OW 1368   0.270   1.774   3.005  0.1427  0.7628  0.0081
  389SOL    HW1 1369   0.249   1.768   3.098 -1.2808  0.2241 -0.3241
  389SOL    HW2 1370   0.274   1.868   2.988  1.1424  0.8718  0.7468
  390SOL     OW 1371   0.375   3.965   4.221 -0.0599  0.9894  0.6557
  390SOL    HW1 1372   0.433   4.041   4.215  1.9354 -0.5383 -1.0361
  390SOL    HW2 1373   0.333   3.960   4.135 -0.8911  0.6723  1.0696
  391SOL     OW 1374   2.154   2.840   4.118  0.1221  0.2993  0.9549
  391SOL    HW1 1375   2.075   2.813   4.164  0.2455  0.8868  1.5211
  391SOL    HW2 1376   2.123   2.894   4.045  0.0016  0.5622  1.2005
  392SOL     OW 1377   4.098   4.340   0.422  0.4609  0.1436 -0.2483
  392SOL    HW1 1378   4.188   4.317   0.442  0.0998 -0.8960  0.2828
  392SOL    HW2 1379   4.100   4.434   0.403  1.3999  0.4493  1.2412
  393SOL     OW 1380   4.273   3.868   2.103  0.0597  0.6249  0.0344
  393SOL    HW1 1381   4.227   3.928   2.044  0.7956  0.5223 -0.6681
  393SOL    HW2 1382   4.363   3.903   2.106  0.7031 -0.8424 -0.9809
  394SOL     OW 1383   0.286   0.465   0.602 -0.2323 -0.0596 -0.4211
  394SOL    HW1 1384   0.375   0.493   0.581  0.1378 -0.0666  1.0129
  394SOL    HW2 1385   0.298   0.391   0.662 -1.2083 -0.2478 -0.4441
  395SOL     OW 1386   0.134   4.143   1.916  0.1883 -0.1395  0.2662
  395SOL    HW1 1387   0.198   4.213   1.903 -1.1515  1.0840 -0.0824
  395SOL    HW2 1388   0.050   4.189   1.925 -0.6537 -1.6793  0.6755
  396SOL     OW 1389   4.741   3.821   0.704 -0.5040  0.3669  0.0851
  396SOL    HW1 1390   4.679   3.772   0.650 -1.3052  0.7020  0.6693
  396SOL    HW2 1391   4.750   3.906   0.659 -0.1208  0.1599 -0.2342
  397SOL     OW 1392   3.041   1.319   0.450  0.0017 -0.2640  0.2766
  397SOL    HW1 1393   2.981   1.291   0.381  1.3683 -0.0347 -1.0590
  397SOL    HW2 1394   3.032   1.252   0.518 -2.0031 -0.0363  0.2994
  398SOL     OW 1395   0.097   0.774   3.422 -0.5967  0.0773  1.0256
  398SOL    HW1 1396   0.046   0.701   3.390  3.9839 -2.9917 -0.3115
  398SOL    HW2 1397   0.113   0.828   3.344 -0.5043  0.1089  1.0660
  399SOL     OW 1398   3.797   0.251   3.345 -0.2136 -0.3042  0.5299
  399SOL    HW1 1399   3.757   0.322   3.294  2.1898 -0.9047 -2.5403
  399SOL    HW2 1400   3.745   0.174   3.324  0.4952 -0.4597 -0.7627
  400SOL     OW 1401   2.797   1.245   2.128 -0.0443 -0.3659 -0.3550
  400SOL    HW1 1402   2.786   1.270   2.220 -1.0683 -0.4905 -0.4340
  400SOL    HW2 1403   2.759   1.158   2.122  1.3649 -0.9807 -0.5959
  401SOL     OW 1404   2.563   2.067   1.005 -0.3033  0.3618  0.3633
  401SOL    HW1 1405   2.467   2.070   1.006 -0.2909  0.8365  0.2832
  401SOL    HW2 1406   2.584   1.975   1.021 -0.7810  0.1322 -0.2612
  402SOL     OW 1407   0.385   2.093   2.011  0.1992 -0.5506  0.2078
  402SOL    HW1 1408   0.452   2.037   1.973 -1.9004 -4.0253  1.2007
  402SOL    HW2 1409   0.356   2.046   2.089 -1.3910  2.2540  1.4405
  403SOL     OW 1410   2.728   3.209   3.600  0.1461 -0.2762 -0.1249
  403SOL    HW1 1411   2.739   3.297   3.636 -0.3345  0.3874 -1.5345
  403SOL    HW2 1412   2.749   3.219   3.507  0.5261 -1.7513 -0.2110
  404SOL     OW 1413   4.117   4.693   1.318  0.2803  0.4882  0.6727
  404SOL    HW1 1414   4.075   4.757   1.376 -0.6442  0.1795  0.3720
  404SOL    HW2 1415   4.204   4.680   1.356  0.4187  1.7669  0.8509
  405SOL     OW 1416   2.893   0.622   3.213  0.2303 -0.0432  0.7738
  405SOL    HW1 1417   2.913   0.649   3.123  1.3070  0.0240  1.0200
  405SOL    HW2 1418   2.836   0.545   3.202  1.0807 -0.5913  0.0172
  406SOL     OW 1419   1.438   0.308   4.086  0.0625 -0.4830  0.7397
  406SOL    HW1 1420   1.363   0.249   4.088 -0.6867  0.1921 -2.2738
  406SOL    HW2 1421   1.408   0.388   4.129 -1.5384  0.2887 -1.6371
  407SOL     OW 1422   4.513   2.997   3.884 -0.0937  0.2660  0.4972
  407SOL    HW1 1423   4.570   3.058   3.930  0.6763  0.1873 -0.3256
  407SOL    HW2 1424   4.485   2.934   3.950  2.5081 -0.9823  0.5079
  408SOL     OW 1425   2.756   0.449   1.700 -0.4169 -0.2488  0.1549
  408SOL    HW1 1426   2.777   0.360   1.727  1.6552  0.4158  0.9696
  408SOL    HW2 1427   2.808   0.463   1.621  0.2888  0.6402  0.7612
  409SOL     OW 1428   4.537   0.574   0.888 -0.5521  0.9129 -0.3236
  409SOL    HW1 1429   4.498   0.594   0.803 -0.0820  0.7541 -0.5817
  409SOL    HW2 1430   4.626   0.608   0.883 -0.2783  0.2505 -0.1726
  410SOL     OW 1431   3.309   2.672   2.377  0.0964  0.2797  0.0837
  410SOL    HW1 1432   3.272   2.584   2.383 -0.9549  0.6108 -1.2461
  410SOL    HW2 1433   3.367   2.678   2.453  0.7655 -1.8193 -0.1905
  411SOL     OW 1434   0.562   2.272   4.484  0.4463  0.0663  0.1146
  411SOL    HW1 1435   0.652   2.287   4.513  0.5044 -2.6392  1.6706
  411SOL    HW2 1436   0.564   2.185   4.444 -0.9995  1.0601 -2.2971
  412SOL     OW 1437   0.531   1.306   1.696 -0.0210  0.3521 -0.2039
  412SOL    HW1 1438   0.624   1.332   1.696  0.2913 -0.6681 -1.9516
  412SOL    HW2 1439   0.530   1.223   1.743 -0.2835  1.0126  1.0038
  413SOL     OW 1440   3.377   2.177   3.514  0.5168 -0.0804  0.1248
  413SOL    HW1 1441   3.439   2.111   3.545 -0.0312  0.2698  2.0562
  413SOL    HW2 1442   3.297   2.129   3.497  0.3992 -0.0567  0.6138
  414SOL     OW 1443   3.196   4.134   3.528  0.0561  0.0380 -0.1480
  414SOL    HW1 1444   3.197   4.215   3.579 -1.5660  0.2790 -0.4311
  414SOL    HW2 1445   3.193   4.163   3.437  0.5272 -0.3553 -0.2911
  415SOL     OW 1446   1.769   4.678   4.442  0.0792 -0.4676  0.3374
  415SOL    HW1 1447   1.780   4.770   4.468 -0.9593 -0.5785  1.2566
  415SOL    HW2 1448   1.834   4.665   4.373 -0.6652  1.3448 -0.7900
  416SOL     OW 1449   2.933   0.690   1.186 -0.2524  0.1967  0.0463
  416SOL    HW1 1450   2.909   0.782   1.190 -0.5105  0.1360 -0.0640
  416SOL    HW2 1451   2.869   0.651   1.127 -0.6028 -0.1908  0.6731
  417SOL     OW 1452   1.248   3.230   1.273  0.2655 -0.3637  0.0847
  417SOL    HW1 1453   1.334   3.250   1.236  2.0748 -4.1767  1.6425
  417SOL    HW2 1454   1.214   3.158   1.220 -1.2643  0.0250  0.4736
  418SOL     OW 1455   1.252   4.677   3.488  0.2710  0.3693  0.1367
  418SOL    HW1 1456   1.265   4.632   3.572  1.4321  0.9129  0.2697
  418SOL    HW2 1457   1.324   4.740   3.484  0.4115  0.1292 -1.4154
  419SOL     OW 1458   0.024   3.649   2.321 -0.0926 -0.1557  0.2611
  419SOL    HW1 1459  -0.053   3.612   2.278 -0.0287 -0.1973  0.1827
  419SOL    HW2 1460   0.098   3.615   2.271 -0.0269 -0.0501  0.2864
  420SOL     OW 1461   4.082   3.602   3.886 -0.0116 -0.2799 -0.6863
  420SOL    HW1 1462   4.153   3.544   3.857  0.9176  0.9396 -0.9535
  420SOL    HW2 1463   4.003   3.547   3.883  0.5609 -1.0848 -2.4746
  421SOL     OW 1464   3.669   3.983   4.571  0.0153  0.3995 -0.1630
  421SOL    HW1 1465   3.685   4.073   4.598 -1.8013  0.7063  0.0264
  421SOL    HW2 1466   3.718   3.973   4.489  1.5323  1.0258  0.6427
  422SOL     OW 1467   0.987   4.719   0.800  0.5320  0.0937 -0.5004
  422SOL    HW1 1468   0.958   4.740   0.889  2.8467  0.2010  0.3154
  422SOL    HW2 1469   0.908   4.688   0.755 -1.0440  1.5962  1.0779
  423SOL     OW 1470   1.593   4.068   2.195 -0.1209 -0.4804 -0.1025
  423SOL    HW1 1471   1.515   4.038   2.243 -0.6750 -0.4293 -0.9578
  423SOL    HW2 1472   1.665   4.053   2.256 -0.7430 -0.9389  0.5428
  424SOL     OW 1473   4.418   3.225   3.107 -0.3974  0.1745  0.5275
  424SOL    HW1 1474   4.477   3.179   3.166 -0.4459 -2.0148 -1.0296
  424SOL    HW2 1475   4.330   3.207   3.141 -0.3756 -0.1617  0.4032
  425SOL     OW 1476   2.754   0.789   3.542 -0.2445  0.4292 -0.2625
  425SOL    HW1 1477   2.666   0.761   3.567 -0.4099  1.4831  0.4143
  425SOL    HW2 1478   2.805   0.708   3.538 -0.3188  0.0790  3.0489
  426SOL     OW 1479   1.865   2.372   0.006  0.3111  0.1464  0.3126
  426SOL    HW1 1480   1.890   2.432   0.077 -0.3430  2.3188 -1.1970
  426SOL    HW2 1481   1.792   2.322   0.042 -2.0956  3.3326  0.3221
  427SOL     OW 1482   1.788   1.468   4.716  0.1727 -0.2341  0.1191
  427SOL    HW1 1483   1.719   1.493   4.655  0.2779  0.1044  0.1357
  427SOL    HW2 1484   1.743   1.449   4.798  0.1128  0.1547  0.1798
  428SOL     OW 1485   1.414   3.641   4.583 -0.2712 -0.0373  0.4400
  428SOL    HW1 1486   1.479   3.690   4.632 -2.0667  0.3590  2.5981
  428SOL    HW2 1487   1.388   3.699   4.512  0.0421  0.7598  0.9729
  429SOL     OW 1488   2.074   1.320   1.626 -0.2027  0.2699 -0.2794
  429SOL    HW1 1489   2.064   1.402   1.673 -1.6366 -0.8355  1.4716
  429SOL    HW2 1490   2.025   1.332   1.544  1.2571  1.7864 -0.9717
  430SOL     OW 1491   3.292   3.691   1.726 -0.4621  0.2407 -0.2245
  430SOL    HW1 1492   3.373   3.725   1.764  0.7828 -1.2319 -1.4342
  430SOL    HW2 1493   3.223   3.734   1.776  1.0169 -1.1576  3.4260
  431SOL     OW 1494   2.202   2.729   0.146 -0.3788  0.1401 -0.0592
  431SOL    HW1 1495   2.223   2.823   0.149 -2.3813  0.5922  1.4564
  431SOL    HW2 1496   2.157   2.718   0.062  0.0578  0.4514 -0.3452
  432SOL     OW 1497   2.242   3.003   3.097  0.6402 -0.0891 -0.1976
  432SOL    HW1 1498   2.330   2.972   3.115 -0.0413 -1.0277  1.8409
  432SOL    HW2 1499   2.213   2.953   3.021  1.3444 -0.8526  0.0242
  433SOL     OW 1500   2.304   1.295   1.333  0.3434 -0.4835  0.1425
  433SOL    HW1 1501   2.291   1.348   1.412  0.5113 -2.5460  1.6371
  433SOL    HW2 1502   2.354   1.351   1.275 -0.1634  1.2706  1.3179
  434SOL     OW 1503   2.021   1.033   1.413 -0.2447 -0.1956  0.0448
  434SOL    HW1 1504   2.067   0.949   1.426 -0.2773 -0.1330  0.6047
  434SOL    HW2 1505   2.068   1.094   1.471  0.5725  0.4778 -1.2754
  435SOL     OW 1506   0.768   4.353   3.304  0.5036  0.0747 -0.5410
  435SOL    HW1 1507   0.695   4.297   3.279 -0.5670  1.4933 -0.6894
  435SOL    HW2 1508   0.782   4.334   3.397 -1.2760  1.0759 -0.0200
  436SOL     OW 1509   2.301   2.397   1.416  0.3175 -0.2280  0.0338
  436SOL    HW1 1510   2.249   2.475   1.403 -0.4102 -0.6655  0.2805
  436SOL    HW2 1511   2.271   2.361   1.500  1.2275 -0.3245  0.3409
  437SOL     OW 1512   0.219   3.992   0.451  0.0462 -0.5323 -0.1247
  437SOL    HW1 1513   0.279   4.066   0.451  2.2206 -2.1717 -0.0168
  437SOL    HW2 1514   0.265   3.924   0.401 -1.1534 -2.2896  1.0267
  438SOL     OW 1515   1.977   1.372   2.803 -0.5101  0.0465 -0.8552
  438SOL    HW1 1516   1.909   1.311   2.773 -1.7776  0.7299  0.4874
  438SOL    HW2 1517   1.936   1.420   2.875  1.2044  0.9372 -0.4150
  439SOL     OW 1518   1.096   0.226   2.627  0.3970 -0.0729  0.0660
  439SOL    HW1 1519   1.106   0.305   2.681  3.7360  0.7229 -1.4402
  439SOL    HW2 1520   1.108   0.154   2.689 -2.1448  0.5111  1.3781
  440SOL     OW 1521   4.142   1.307   4.017 -0.4350 -0.1857  1.0372
  440SOL    HW1 1522   4.140   1.254   3.938 -0.5059 -2.7563  2.6274
  440SOL    HW2 1523   4.229   1.348   4.017  0.9896 -2.9444  1.2236
  441SOL     OW 1524   2.847   0.015   0.610  0.0258  0.2205 -0.4604
  441SOL    HW1 1525   2.902   0.093   0.603  0.3666 -0.1234 -2.6138
  441SOL    HW2 1526   2.908  -0.058   0.597 -0.4556 -0.3400  0.3902
  442SOL     OW 1527   2.662   1.807   1.692 -0.2812  0.1733  0.4184
  442SOL    HW1 1528   2.686   1.714   1.698 -0.2000  0.2155  0.7481
  442SOL    HW2 1529   2.710   1.849   1.762 -1.3097  0.2624  1.0962
  443SOL     OW 1530   3.901   4.348   2.243  0.4669 -0.1300 -0.1682
  443SOL    HW1 1531   3.806   4.340   2.239  0.5924 -1.2470 -1.3665
  443SOL    HW2 1532   3.917   4.442   2.243 -0.6747  0.1549  2.0712
  444SOL     OW 1533   2.847   4.599   2.237 -0.4266  0.0821 -0.2475
  444SOL    HW1 1534   2.850   4.679   2.184 -0.3421 -0.8823 -1.7572
  444SOL    HW2 1535   2.925   4.550   2.211 -2.4712 -2.3187 -2.4660
  445SOL     OW 1536   4.598   1.812   4.475  0.1168 -0.1164 -0.1617
  445SOL    HW1 1537   4.528   1.759   4.437 -0.6133  1.5414 -1.2352
  445SOL    HW2 1538   4.576   1.818   4.568  0.3072 -1.7952  0.0094
  446SOL     OW 1539   4.018   1.096   1.387 -0.1047 -0.3008 -0.3660
  446SOL    HW1 1540   4.018   1.080   1.293  0.1218  4.3144 -1.3832
  446SOL    HW2 1541   3.927   1.087   1.413 -0.4985  0.3145 -1.4741
  447SOL     OW 1542   0.115   1.861   4.711  0.2515 -0.6331  0.0406
  447SOL    HW1 1543   0.058   1.815   4.772 -0.3446 -1.2269 -0.9414
  447SOL    HW2 1544   0.082   1.951   4.710 -0.2562 -0.8170 -0.0197
  448SOL     OW 1545   2.693   4.505   2.699  0.0195  0.1969  0.2258
  448SOL    HW1 1546   2.599   4.516   2.690 -0.0375  0.2929  0.9098
  448SOL    HW2 1547   2.703   4.425   2.752  0.2882  0.9012  1.2641
  449SOL     OW 1548   1.742   3.883   0.243  0.5139  0.3099 -0.0032
  449SOL    HW1 1549   1.811   3.816   0.243 -1.5074 -1.9989 -2.2831
  449SOL    HW2 1550   1.787   3.965   0.222  2.6856 -0.9444 -0.5197
  450SOL     OW 1551   4.312   0.377   2.690 -0.2982  0.4786  0.0656
  450SOL    HW1 1552   4.363   0.451   2.722  1.8203 -0.2732 -1.3486
  450SOL    HW2 1553   4.252   0.414   2.625  0.2550  1.0628 -0.1185
  451SOL     OW 1554   1.221   2.568   4.138 -0.3707  0.5404  0.2068
  451SOL    HW1 1555   1.301   2.548   4.090 -0.7806  0.7593 -0.5779
  451SOL    HW2 1556   1.241   2.648   4.186 -0.3110  0.9460 -0.4767
  452SOL     OW 1557   3.161   4.244   1.116 -0.4154  0.0222 -0.0533
  452SOL    HW1 1558   3.120   4.294   1.046  1.6443  0.6306 -0.8772
  452SOL    HW2 1559   3.188   4.162   1.075 -1.6683 -0.8185  0.7318
  453SOL     OW 1560   0.352   0.282   2.421  0.2167 -0.6734 -0.2508
  453SOL    HW1 1561   0.343   0.207   2.361  0.8981 -0.6763 -0.3530
  453SOL    HW2 1562   0.306   0.353   2.377  0.7050 -0.6776 -0.7803
  454SOL     OW 1563   1.890   1.653   0.925 -0.2524 -0.6309 -0.2238
  454SOL    HW1 1564   1.863   1.618   1.010 -2.1625  0.9011 -0.1349
  454SOL    HW2 1565   1.913   1.744   0.942 -2.1408  0.1493 -1.5590
  455SOL     OW 1566   0.205   3.429   2.657  0.0293 -0.3608  1.0253
  455SOL    HW1 1567   0.212   3.503   2.718 -0.4147  0.7217 -0.1746
  455SOL    HW2 1568   0.295   3.403   2.639  0.2214  0.2655  1.0546
  456SOL     OW 1569   4.702   3.691   2.915 -0.6816  0.5171  0.3159
  456SOL    HW1 1570   4.696   3.626   2.845 -0.4190  1.4241 -0.5764
  456SOL    HW2 1571   4.795   3.692   2.939 -0.4518  1.4285 -0.5452
  457SOL     OW 1572   1.303   3.183   0.824 -0.3439  0.5878 -0.1206
  457SOL    HW1 1573   1.379   3.223   0.783  0.8918 -0.1204  1.3437
  457SOL    HW2 1574   1.292   3.100   0.778  1.7883 -0.7707  1.6266
  458SOL     OW 1575   3.270   4.409   3.617 -0.1140  0.3527  0.2124
  458SOL    HW1 1576   3.228   4.449   3.693 -0.7106 -0.2058  0.1810
  458SOL    HW2 1577   3.249   4.468   3.545  0.3216  0.8011  0.4473
  459SOL     OW 1578   1.253   1.817   0.021 -0.2005  0.3008  0.3749
  459SOL    HW1 1579   1.225   1.887   0.080 -0.8700  1.0864 -0.8395
  459SOL    HW2 1580   1.178   1.801  -0.036  0.1602 -0.9834  0.2228
  460SOL     OW 1581   3.962   1.492   2.761  0.2179  0.4658  0.0372
  460SOL    HW1 1582   3.875   1.524   2.783  0.8216  1.3008  1.3141
  460SOL    HW2 1583   4.021   1.563   2.786  1.2884 -0.1511 -0.6469
  461SOL     OW 1584   3.846   2.784   3.614 -0.0013  0.2018  0.0520
  461SOL    HW1 1585   3.832   2.824   3.700 -0.1818  0.5045 -0.1175
  461SOL    HW2 1586   3.792   2.705   3.615 -1.2566  1.0263 -0.3632
  462SOL     OW 1587   1.224   3.330   4.711 -0.1055 -0.2147  0.3398
  462SOL    HW1 1588   1.286   3.355   4.780  0.4603  0.5466 -0.4226
  462SOL    HW2 1589   1.280   3.300   4.639 -0.5067  1.8564 -0.9075
  463SOL     OW 1590   2.412   0.725   2.806  0.5152 -0.3850 -0.0980
  463SOL    HW1 1591   2.416   0.736   2.901 -0.0165 -0.4313 -0.0717
  463SOL    HW2 1592   2.494   0.764   2.774  0.4413  0.1336  0.3335
  464SOL     OW 1593   3.762   0.827   2.518 -0.8279  0.2421  0.2959
  464SOL    HW1 1594   3.844   0.787   2.491 -0.2101  0.4785  1.7423
  464SOL    HW2 1595   3.779   0.921   2.518 -1.1779  0.3099  0.3521
  465SOL     OW 1596   1.673   1.588   1.559  0.4600  0.7151  0.2575
  465SOL    HW1 1597   1.580   1.581   1.580  0.6176  2.2929  1.7378
  465SOL    HW2 1598   1.717   1.581   1.644  1.5995  1.0688 -0.2857
  466SOL     OW 1599   3.231   1.822   0.315  0.0047 -0.2707  0.5218
  466SOL    HW1 1600   3.148   1.863   0.292 -0.0557 -0.9660 -0.5729
  466SOL    HW2 1601   3.267   1.879   0.383  0.4694  2.3589 -1.6946
  467SOL     OW 1602   1.269   2.399   4.691  0.7803 -0.1272 -0.5647
  467SOL    HW1 1603   1.286   2.388   4.784  0.1021 -2.6786 -0.6763
  467SOL    HW2 1604   1.200   2.465   4.687  1.0414  0.2576  0.6856
  468SOL     OW 1605   2.449   3.614   1.232  0.4352 -0.3573  0.2203
  468SOL    HW1 1606   2.408   3.613   1.318 -0.0849 -2.7259  0.0238
  468SOL    HW2 1607   2.540   3.590   1.249  1.0671  1.9410  0.3467
  469SOL     OW 1608   4.821   0.147   4.495  0.0357 -0.2169  0.2641
  469SOL    HW1 1609   4.896   0.198   4.463  0.0039 -0.4492 -0.1856
  469SOL    HW2 1610   4.810   0.175   4.586  0.3366  0.2101  0.1727
  470SOL     OW 1611   2.731   2.931   3.049 -0.1443  0.2642  0.0051
  470SOL    HW1 1612   2.790   3.005   3.062  1.0936 -0.6823 -0.0777
  470SOL    HW2 1613   2.655   2.968   3.003  1.6032  1.0155 -2.4713
  471SOL     OW 1614   3.963   0.210   2.629  0.3648 -0.6999 -0.4724
  471SOL    HW1 1615   4.014   0.213   2.710  0.1179  0.5227 -0.3483
  471SOL    HW2 1616   3.940   0.301   2.611  0.9802 -0.8628 -2.2872
  472SOL     OW 1617   2.171   2.143   2.751 -0.2744  0.2161  0.1979
  472SOL    HW1 1618   2.247   2.119   2.805 -0.4039 -0.0158  0.2784
  472SOL    HW2 1619   2.103   2.081   2.777 -0.4162  0.2679 -0.0487
  473SOL     OW 1620   3.628   4.689   2.482  0.2237 -0.2302 -0.3878
  473SOL    HW1 1621   3.590   4.684   2.394 -0.4341 -2.2186 -0.0234
  473SOL    HW2 1622   3.552   4.693   2.541  0.6368 -0.4330  0.1659
  474SOL     OW 1623   1.689   0.055   2.334  0.1008 -0.0428 -0.6538
  474SOL    HW1 1624   1.639   0.081   2.411  0.3513  1.7443 -1.0278
  474SOL    HW2 1625   1.773   0.025   2.369  0.1365  0.5484 -0.2150
  475SOL     OW 1626   3.520   4.661   2.226 -0.0526  0.7020  0.3393
  475SOL    HW1 1627   3.429   4.642   2.248 -0.3308  0.4221 -0.9481
  475SOL    HW2 1628   3.516   4.732   2.162  0.6589  1.0185  0.6314
  476SOL     OW 1629   2.676   3.056   0.839  0.2090 -0.0715  0.5285
  476SOL    HW1 1630   2.740   3.063   0.769 -0.3845  2.1210  0.1289
  476SOL    HW2 1631   2.716   2.997   0.903  2.7586  1.4380  0.4442
  477SOL     OW 1632   3.551   2.007   1.477  0.6400 -0.4148  0.0918
  477SOL    HW1 1633   3.580   1.916   1.488 -0.4151 -0.5365  2.4783
  477SOL    HW2 1634   3.457   2.005   1.494  0.7862  1.2801  1.3557
  478SOL     OW 1635   3.958   2.937   2.924  0.2761 -0.0999 -0.4399
  478SOL    HW1 1636   3.989   2.851   2.894  0.0737  0.2285 -1.6026
  478SOL    HW2 1637   4.015   2.957   2.998  1.3767 -0.5212 -1.1460
  479SOL     OW 1638   3.589   1.707   1.767  0.1209 -0.5534  0.2314
  479SOL    HW1 1639   3.579   1.660   1.850  0.2917 -0.8362  0.0948
  479SOL    HW2 1640   3.636   1.787   1.791 -1.3518  0.2001  0.6740
  480SOL     OW 1641   4.348   3.856   3.266 -0.1970  0.4822 -0.4147
  480SOL    HW1 1642   4.257   3.837   3.289  0.2676 -0.9241  0.4026
  480SOL    HW2 1643   4.397   3.845   3.348  0.7718  0.7184 -0.9422
  481SOL     OW 1644   0.220   4.547   2.333  0.4249  0.0626  0.0517
  481SOL    HW1 1645   0.201   4.621   2.391 -1.3974 -1.2772  1.3042
  481SOL    HW2 1646   0.169   4.564   2.254  0.4270  0.3949  0.1239
  482SOL     OW 1647   3.848   0.978   2.805 -0.4272  0.5250 -0.1689
  482SOL    HW1 1648   3.801   0.992   2.723 -0.4707 -0.6791 -0.3673
  482SOL    HW2 1649   3.873   1.066   2.834 -1.4594  1.0570 -0.8446
  483SOL     OW 1650   4.308   3.506   0.342 -0.4167 -0.2842  0.1769
  483SOL    HW1 1651   4.391   3.543   0.312 -0.2877 -1.0287 -0.4066
  483SOL    HW2 1652   4.333   3.440   0.406 -0.6115  0.1053  0.6647
  484SOL     OW 1653   4.216   3.884   2.401 -0.2578  0.1816  0.2437
  484SOL    HW1 1654   4.267   3.809   2.430  0.5284  1.1399  1.4432
  484SOL    HW2 1655   4.271   3.926   2.335 -0.7269 -0.3140 -0.4770
  485SOL     OW 1656   0.148   2.483   0.952  0.0328  0.2406  0.1561
  485SOL    HW1 1657   0.211   2.513   1.018  0.8165 -1.7841  0.4027
  485SOL    HW2 1658   0.076   2.445   1.002 -0.5453  0.9152 -0.1484
  486SOL     OW 1659   3.557   0.671   2.865  0.2680  0.0995  0.0026
  486SOL    HW1 1660   3.541   0.655   2.772  2.4754 -0.3022 -0.3641
  486SOL    HW2 1661   3.490   0.621   2.911 -2.7335  2.5717 -1.3226
  487SOL     OW 1662   2.147   0.864   3.199  0.0068 -0.2517  0.4913
  487SOL    HW1 1663   2.182   0.810   3.270  2.2451  1.2706  0.6398
  487SOL    HW2 1664   2.055   0.874   3.220  0.1265 -1.7046  1.9305
  488SOL     OW 1665   0.672   3.225   2.975 -0.2677 -0.2876 -0.2230
  488SOL    HW1 1666   0.682   3.272   3.058  0.3006  0.9268 -0.9392
  488SOL    HW2 1667   0.760   3.196   2.953 -0.7244 -2.3818  0.5627
  489SOL     OW 1668   0.104   3.690   3.427  0.7753  0.0885  0.1375
  489SOL    HW1 1669   0.051   3.660   3.354  3.0501 -1.2613 -1.0481
  489SOL    HW2 1670   0.092   3.623   3.495 -2.2228  1.8949  1.6018
  490SOL     OW 1671   3.602   2.099   0.384  0.2535  0.2969 -0.1847
  490SOL    HW1 1672   3.595   2.029   0.450 -0.5804 -0.2856 -0.8812
  490SOL    HW2 1673   3.602   2.053   0.300 -0.3120  1.1351 -0.6512
  491SOL     OW 1674   1.391   3.773   3.714  0.0174  0.0135 -0.3687
  491SOL    HW1 1675   1.420   3.858   3.748  0.1200 -0.0504 -0.2945
  491SOL    HW2 1676   1.296   3.775   3.722  0.1063 -0.5876  1.3410
  492SOL     OW 1677   2.497   1.580   3.397 -0.2309  0.2227 -0.1032
  492SOL    HW1 1678   2.423   1.536   3.437 -0.2259 -0.5542 -0.9109
  492SOL    HW2 1679   2.556   1.600   3.470  0.5783 -2.6507  0.1650
  493SOL     OW 1680   1.359   2.845   3.304  0.2680 -0.0945 -0.5154
  493SOL    HW1 1681   1.375   2.759   3.267  1.4683 -0.4223  0.6853
  493SOL    HW2 1682   1.418   2.904   3.257  1.2997 -0.3911  0.3793
  494SOL     OW 1683   0.933   2.669   0.259  0.2350 -0.0428 -0.0512
  494SOL    HW1 1684   0.855   2.692   0.209 -0.0603  0.6507  0.7126
  494SOL    HW2 1685   0.975   2.753   0.280  1.0596 -0.3936 -0.2533
  495SOL     OW 1686   1.595   1.268   1.247  0.1130 -0.2258  0.1639
  495SOL    HW1 1687   1.575   1.266   1.154  0.4549 -1.5725  0.0951
  495SOL    HW2 1688   1.615   1.360   1.266  1.9760 -0.2354 -1.4968
  496SOL     OW 1689   4.132   2.972   3.166  0.3807 -0.1535 -0.3117
  496SOL    HW1 1690   4.087   2.968   3.250 -0.2411 -0.1307 -0.6392
  496SOL    HW2 1691   4.150   3.065   3.153  1.1386 -0.2308  0.1361
  497SOL     OW 1692   3.593   0.314   2.210  0.2359 -0.3001 -0.1102
  497SOL    HW1 1693   3.590   0.407   2.190 -1.6733 -0.6286 -1.6176
  497SOL    HW2 1694   3.648   0.276   2.141  3.0610 -0.0987  1.8327
  498SOL     OW 1695   2.397   1.668   1.996 -0.8772 -0.0188  0.6135
  498SOL    HW1 1696   2.431   1.580   1.986  0.4362  0.4161  1.0982
  498SOL    HW2 1697   2.331   1.660   2.066 -3.1674 -1.1951 -1.5305
  499SOL     OW 1698   0.454   4.511   2.442  0.5981 -0.4825 -0.5425
  499SOL    HW1 1699   0.377   4.515   2.386  0.7756 -1.2583 -0.8517
  499SOL    HW2 1700   0.419   4.495   2.530  0.2392  1.8658 -0.1852
  500SOL     OW 1701   0.348   0.731   1.780  0.0549  0.0877 -0.2104
  500SOL    HW1 1702   0.262   0.714   1.743 -0.3341  0.3252  0.5501
  500SOL    HW2 1703   0.400   0.654   1.758 -0.0117  0.4367 -1.6379
  501SOL     OW 1704   1.221   0.031   1.634  0.2537 -0.2738  0.1472
  501SOL    HW1 1705   1.252  -0.028   1.703 -1.0992 -1.0079  0.1572
  501SOL    HW2 1706   1.144   0.073   1.671  0.3232  0.3691 -0.4175
  502SOL     OW 1707   2.954   1.521   0.064 -0.2527 -0.4242 -0.0405
  502SOL    HW1 1708   2.951   1.452  -0.003  0.2258 -0.4262 -0.0634
  502SOL    HW2 1709   3.048   1.536   0.078 -0.2992 -1.4482  1.6802
  503SOL     OW 1710   3.757   1.668   4.633  0.3133 -0.4695 -0.2308
  503SOL    HW1 1711   3.826   1.687   4.696  0.5476  0.0068 -0.6310
  503SOL    HW2 1712   3.777   1.723   4.557 -0.6058 -0.1791 -0.2745
  504SOL     OW 1713   2.667   1.638   3.634 -0.4388 -0.5220 -0.9564
  504SOL    HW1 1714   2.636   1.707   3.692 -0.1512  1.1936 -2.7389
  504SOL    HW2 1715   2.689   1.565   3.692  0.2768  1.2581  1.1241
  505SOL     OW 1716   2.078   1.262   2.435 -0.7454  0.2718  0.3952
  505SOL    HW1 1717   1.983   1.256   2.450 -0.5178 -0.4663  1.8134
  505SOL    HW2 1718   2.109   1.172   2.448  0.1984  0.5918  0.4182
  506SOL     OW 1719   3.086   0.110   1.622 -0.1121  0.4934 -0.0404
  506SOL    HW1 1720   3.056   0.020   1.613 -1.0049  0.7825 -0.0361
  506SOL    HW2 1721   3.119   0.133   1.535  0.0722  0.1816 -0.0540
  507SOL     OW 1722   4.066   3.847   1.600 -0.2592  0.0231  0.0494
  507SOL    HW1 1723   3.998   3.898   1.643  0.3452  1.4454 -0.6222
  507SOL    HW2 1724   4.042   3.755   1.617 -2.1625  0.4866  0.0531
  508SOL     OW 1725   4.729   4.386   4.203 -0.3944  0.3117  0.0120
  508SOL    HW1 1726   4.706   4.304   4.159  2.7155 -0.1581 -0.9901
  508SOL    HW2 1727   4.773   4.358   4.284 -3.5416  1.1486  2.1765
  509SOL     OW 1728   1.663   2.223   4.060 -0.1006 -0.0568 -0.0858
  509SOL    HW1 1729   1.726   2.259   3.997  1.4106 -0.9873  0.8321
  509SOL    HW2 1730   1.693   2.134   4.075 -1.4429 -0.4017  0.6702
  510SOL     OW 1731   2.120   1.694   4.375 -0.0950  0.4035 -0.0219
  510SOL    HW1 1732   2.187   1.628   4.392  1.1431  1.3469 -1.0169
  510SOL    HW2 1733   2.085   1.716   4.461  1.8749  0.8899  0.7066
  511SOL     OW 1734   3.292   2.469   4.069  0.1718 -0.1499 -0.4048
  511SOL    HW1 1735   3.219   2.495   4.012  0.5249 -1.7768 -1.6466
  511SOL    HW2 1736   3.314   2.549   4.116 -1.7553  0.6299 -0.7408
  512SOL     OW 1737   4.183   0.311   1.329 -0.0634 -0.9391  0.2840
  512SOL    HW1 1738   4.250   0.266   1.381  0.4037  0.3291  0.7987
  512SOL    HW2 1739   4.173   0.396   1.370  0.7967  0.3834 -2.0592
  513SOL     OW 1740   0.509   2.107   3.425  0.0477  0.1067 -0.7624
  513SOL    HW1 1741   0.519   2.197   3.455 -1.4236 -0.7152  2.6852
  513SOL    HW2 1742   0.424   2.106   3.380  0.4022  0.5593 -1.4536
  514SOL     OW 1743   0.942   3.168   2.915 -0.3241 -0.2613 -0.2090
  514SOL    HW1 1744   0.991   3.158   2.997 -0.6282  0.2722  0.0508
  514SOL    HW2 1745   0.975   3.250   2.878 -2.7893  1.5272  1.2698
  515SOL     OW 1746   0.480   4.761   2.766 -0.7267  0.5433 -0.0081
  515SOL    HW1 1747   0.432   4.710   2.832  2.4655 -4.2758 -0.9006
  515SOL    HW2 1748   0.551   4.802   2.814 -0.6809  0.3326  0.1062
  516SOL     OW 1749   3.155   4.578   3.772 -0.0874  0.1491  0.6579
  516SOL    HW1 1750   3.076   4.554   3.820 -0.5130  1.7049  0.7956
  516SOL    HW2 1751   3.125   4.642   3.706  0.9034  0.0495  0.0820
  517SOL     OW 1752   0.998   2.701   1.974  0.1239  0.3942  0.2686
  517SOL    HW1 1753   0.923   2.683   1.917 -0.5736  1.5683  0.7667
  517SOL    HW2 1754   0.984   2.790   2.004  1.3343  0.3631  0.9938
  518SOL     OW 1755   1.021   3.390   1.537 -0.0964  0.0046  0.2383
  518SOL    HW1 1756   0.970   3.369   1.616  0.0918  0.4761  0.4878
  518SOL    HW2 1757   0.955   3.419   1.474 -0.3288 -1.0403 -0.0208
  519SOL     OW 1758   3.282   3.485   1.513  0.2149  0.4958  0.2921
  519SOL    HW1 1759   3.291   3.543   1.588 -0.1748 -0.0512  0.7750
  519SOL    HW2 1760   3.206   3.430   1.533 -0.0937  0.5504 -0.6494
  520SOL     OW 1761   1.906   1.329   0.225 -0.0165 -0.0223  0.4356
  520SOL    HW1 1762   1.973   1.262   0.239 -0.0739 -0.0640  0.5093
  520SOL    HW2 1763   1.899   1.374   0.310  0.9194  0.9007  0.0582
  521SOL     OW 1764   3.063   0.101   0.094 -0.2158 -0.1667  0.2055
  521SOL    HW1 1765   3.139   0.126   0.147 -1.2009 -0.9558  2.0791
  521SOL    HW2 1766   3.061   0.165   0.023  0.8671  1.2666  1.4105
  522SOL     OW 1767   2.430   0.215   3.404 -0.9747 -0.4511  0.2553
  522SOL    HW1 1768   2.375   0.185   3.477 -2.2581 -0.4684 -0.6829
  522SOL    HW2 1769   2.438   0.139   3.347 -1.8312  0.1500 -0.6978
  523SOL     OW 1770   2.944   2.032   1.574 -0.9126  0.2787 -0.4746
  523SOL    HW1 1771   2.861   2.076   1.555 -0.3355  1.6178  0.0611
  523SOL    HW2 1772   2.930   1.990   1.659 -1.0378  0.5099 -0.3809
  524SOL     OW 1773   4.099   0.089   3.548 -0.3619  0.1659 -0.1386
  524SOL    HW1 1774   4.120  -0.004   3.545 -1.5700 -0.1022 -1.7925
  524SOL    HW2 1775   4.171   0.132   3.502 -0.0040  0.0041  0.2723
  525SOL     OW 1776   0.887   4.387   0.621 -0.0196  0.2773  0.5313
  525SOL    HW1 1777   0.980   4.398   0.601  0.2750 -0.2424  1.5357
  525SOL    HW2 1778   0.863   4.304   0.578 -0.2957  0.9128 -0.5850
  526SOL     OW 1779   1.727   0.136   1.682  0.1260  0.2836 -0.6043
  526SOL    HW1 1780   1.653   0.077   1.695  0.0531  0.0165 -2.0831
  526SOL    HW2 1781   1.803   0.088   1.715  0.0217 -0.5368 -1.5118
  527SOL     OW 1782   0.837   3.308   1.096 -0.8618 -0.0774  0.1423
  527SOL    HW1 1783   0.915   3.252   1.087 -1.3729 -0.9099  0.7489
  527SOL    HW2 1784   0.843   3.368   1.022 -0.0606 -0.6465 -0.2840
  528SOL     OW 1785   1.139   2.908   1.470  0.1741 -0.3705 -0.0201
  528SOL    HW1 1786   1.198   2.921   1.396  0.8444 -1.5120  0.2948
  528SOL    HW2 1787   1.196   2.908   1.547 -0.1896 -1.6546  0.2747
  529SOL     OW 1788   3.968   1.472   1.885  0.3431  0.0523  1.2097
  529SOL    HW1 1789   3.953   1.497   1.794  0.4061 -1.6437  0.6965
  529SOL    HW2 1790   4.063   1.477   1.896  0.2640  1.1687  1.4821
  530SOL     OW 1791   1.690   1.653   3.637 -0.1097  0.0182  0.3725
  530SOL    HW1 1792   1.633   1.593   3.587 -1.2019 -1.2820  3.0022
  530SOL    HW2 1793   1.746   1.595   3.688  3.3971  1.2626 -1.6771
  531SOL     OW 1794   4.757   0.721   0.920  0.6972  0.1452  0.0591
  531SOL    HW1 1795   4.823   0.736   0.851 -1.1030 -0.8501 -2.0070
  531SOL    HW2 1796   4.725   0.809   0.941 -0.2588  0.3701 -2.0612
  532SOL     OW 1797   1.313   2.357   0.399 -0.0889  0.6489 -0.7155
  532SOL    HW1 1798   1.224   2.388   0.415  0.1479  0.6593  0.6534
  532SOL    HW2 1799   1.364   2.390   0.473  0.9091  0.0356 -1.1081
  533SOL     OW 1800   4.134   3.700   2.731  0.3865  0.2996 -0.6617
  533SOL    HW1 1801   4.099   3.741   2.810 -1.8398  0.2029 -1.5311
  533SOL    HW2 1802   4.064   3.710   2.666  1.6102 -0.8438 -2.2203
  534SOL     OW 1803   2.702   2.547   3.386  0.1231 -0.5856  0.2102
  534SOL    HW1 1804   2.662   2.489   3.451  0.4795 -2.0991 -0.8554
  534SOL    HW2 1805   2.796   2.530   3.394  0.0987 -1.9398 -1.6532
  535SOL     OW 1806   4.456   3.182   0.835  0.1452  0.5603 -0.1770
  535SOL    HW1 1807   4.407   3.117   0.785  1.0890 -0.6772  0.4348
  535SOL    HW2 1808   4.388   3.240   0.871 -0.7648 -0.2821 -0.4684
  536SOL     OW 1809   4.350   1.976   3.835 -0.1129 -0.8530  0.1007
  536SOL    HW1 1810   4.327   2.018   3.918 -0.7109 -0.7001 -0.1382
  536SOL    HW2 1811   4.444   1.992   3.827 -0.5999  2.2994 -0.9506
  537SOL     OW 1812   0.380   0.443   1.712  0.1227 -0.0872  0.0034
  537SOL    HW1 1813   0.307   0.389   1.742  0.5854 -0.0943  1.2149
  537SOL    HW2 1814   0.398   0.413   1.623 -0.2188 -1.3072  0.3202
  538SOL     OW 1815   2.270   2.241   3.660 -0.1719  0.5177  0.3059
  538SOL    HW1 1816   2.218   2.315   3.630  0.5833  0.9501  0.0449
  538SOL    HW2 1817   2.259   2.241   3.755 -1.0828  0.2632  0.2139
  539SOL     OW 1818   0.419   2.986   2.711  0.9554  0.2975 -0.0447
  539SOL    HW1 1819   0.464   3.071   2.715  0.4608  0.6729 -1.5250
  539SOL    HW2 1820   0.412   2.958   2.802 -0.6133  2.8120  0.7433
  540SOL     OW 1821   1.432   0.875   2.026 -0.3633 -0.3243  0.3261
  540SOL    HW1 1822   1.490   0.925   2.083  0.7044 -0.6105 -0.4797
  540SOL    HW2 1823   1.384   0.816   2.085  0.7432 -0.6497  0.9170
  541SOL     OW 1824   1.056   1.462   1.576 -0.0344 -0.3370 -0.1866
  541SOL    HW1 1825   1.104   1.416   1.644 -1.9569 -0.1501  1.4025
  541SOL    HW2 1826   0.995   1.518   1.624 -2.5874 -1.3684 -2.0002
  542SOL     OW 1827   0.849   3.767   1.886 -0.0600  0.2746  0.1784
  542SOL    HW1 1828   0.830   3.674   1.877 -0.1047  0.3746 -0.8020
  542SOL    HW2 1829   0.817   3.790   1.973 -0.3725 -0.5445  0.2815
  543SOL     OW 1830   3.606   1.613   2.443 -0.0077  0.0158  0.0077
  543SOL    HW1 1831   3.673   1.545   2.433  0.9774  0.7699  1.1233
  543SOL    HW2 1832   3.646   1.691   2.406 -0.4011  0.3977  0.3740
  544SOL     OW 1833   1.983   2.184   0.226 -0.2441 -0.2424  0.2153
  544SOL    HW1 1834   2.062   2.202   0.175 -0.3557  1.5091  0.5843
  544SOL    HW2 1835   2.004   2.212   0.315 -1.4130  0.7326  0.2145
  545SOL     OW 1836   0.572   1.340   1.992  0.4645 -0.2324  0.0821
  545SOL    HW1 1837   0.621   1.395   1.931  0.3542 -0.9723 -0.6758
  545SOL    HW2 1838   0.548   1.262   1.942 -1.8207  0.2548  0.2908
  546SOL     OW 1839   0.665   0.071   2.010 -0.1448  0.2367  0.0494
  546SOL    HW1 1840   0.623   0.116   2.083 -0.3216  1.5179 -0.8122
  546SOL    HW2 1841   0.592   0.041   1.956 -0.0306 -1.0955  0.5826
  547SOL     OW 1842   1.505   4.100   0.636  0.0554  0.2156  0.2525
  547SOL    HW1 1843   1.468   4.102   0.547 -1.0297 -1.9502  0.6069
  547SOL    HW2 1844   1.559   4.021   0.637  0.6475  0.6214  1.3232
  548SOL     OW 1845   1.704   3.436   2.138  0.3231 -0.1344 -0.1345
  548SOL    HW1 1846   1.699   3.382   2.217  0.5191 -0.2487 -0.2006
  548SOL    HW2 1847   1.619   3.423   2.095  0.1223  0.1184  0.1792
  549SOL     OW 1848   2.910   3.825   4.761  0.2893 -0.0894  0.0182
  549SOL    HW1 1849   2.818   3.850   4.767  0.3814  0.8291 -1.7925
  549SOL    HW2 1850   2.957   3.896   4.805  0.2536  0.7125 -1.1807
  550SOL     OW 1851   4.318   3.891   0.132 -0.6520 -0.0579 -0.3366
  550SOL    HW1 1852   4.291   3.891   0.040  1.7046  0.6086 -1.1257
  550SOL    HW2 1853   4.377   3.815   0.139 -0.6142  0.0459  0.5483
  551SOL     OW 1854   3.995   2.413   2.294  0.4011  0.1853  0.3257
  551SOL    HW1 1855   3.961   2.473   2.228 -0.2166  1.2835  1.5804
  551SOL    HW2 1856   4.090   2.424   2.289  0.5650 -1.4916 -1.9100
  552SOL     OW 1857   2.010   3.105   4.346 -0.5700 -0.6385  0.5492
  552SOL    HW1 1858   1.941   3.172   4.345 -0.2473 -0.3057  0.0238
  552SOL    HW2 1859   1.967   3.027   4.382 -1.2597 -0.4744  0.1077
  553SOL     OW 1860   3.782   4.657   1.625 -0.0788 -0.0837  0.1438
  553SOL    HW1 1861   3.773   4.669   1.531  2.4438 -0.6732 -0.2501
  553SOL    HW2 1862   3.753   4.740   1.663  0.8300  0.9359 -1.3016
  554SOL     OW 1863   2.615   1.273   0.523  0.1163  0.0473 -0.3834
  554SOL    HW1 1864   2.671   1.265   0.445  0.6333 -0.3061  0.0149
  554SOL    HW2 1865   2.561   1.194   0.521  1.7733 -1.1758  0.8727
  555SOL     OW 1866   2.972   1.992   4.347  0.4917 -0.1580  0.9522
  555SOL    HW1 1867   2.930   2.026   4.426 -1.9861  0.5063 -0.5231
  555SOL    HW2 1868   2.994   2.070   4.296 -2.2947 -0.4764 -1.0220
  556SOL     OW 1869   2.505   1.644   4.534 -0.1170  0.1305 -0.0031
  556SOL    HW1 1870   2.557   1.566   4.553 -0.8082 -0.5850 -0.9716
  556SOL    HW2 1871   2.487   1.682   4.620  0.7725 -0.4068  0.4358
  557SOL     OW 1872   3.688   4.087   2.706 -0.1224 -0.1268 -0.0444
  557SOL    HW1 1873   3.778   4.117   2.689 -0.6153  1.7633  0.4866
  557SOL    HW2 1874   3.672   4.111   2.797 -1.7317  1.1185 -0.6099
  558SOL     OW 1875   4.525   1.581   2.132 -0.0251 -0.9858 -0.5411
  558SOL    HW1 1876   4.590   1.643   2.165 -1.2495  0.0675  0.0003
  558SOL    HW2 1877   4.456   1.637   2.096 -1.9470 -1.9475  1.4259
  559SOL     OW 1878   0.121   0.140   3.222  0.5183 -0.3687  0.1362
  559SOL    HW1 1879   0.193   0.079   3.207 -0.4080 -1.8118  1.2659
  559SOL    HW2 1880   0.067   0.097   3.288 -2.0945  0.0739 -1.5982
  560SOL     OW 1881   1.277   3.522   1.136  0.4275  0.0151 -0.3457
  560SOL    HW1 1882   1.345   3.456   1.145  1.4277  1.0106 -0.2982
  560SOL    HW2 1883   1.223   3.514   1.215 -1.6030 -2.9892 -1.8604
  561SOL     OW 1884   1.505   2.030   1.323  0.1083 -0.4222 -0.3213
  561SOL    HW1 1885   1.589   2.015   1.281  0.1263  0.6445 -0.6826
  561SOL    HW2 1886   1.476   2.114   1.290 -1.2830 -0.9401 -0.4821
  562SOL     OW 1887   1.567   4.767   4.069 -0.0350  0.4430 -0.9249
  562SOL    HW1 1888   1.472   4.762   4.066 -0.0208  0.4848 -2.0060
  562SOL    HW2 1889   1.588   4.845   4.016  0.6405 -0.2236 -1.6630
  563SOL     OW 1890   1.125   2.497   1.603  0.2856  0.1090  0.0368
  563SOL    HW1 1891   1.071   2.575   1.616  0.2658  0.0619  0.2348
  563SOL    HW2 1892   1.076   2.444   1.540  1.0031  0.9434 -1.2791
  564SOL     OW 1893   4.675   0.544   1.516 -0.2777  0.0023 -0.0701
  564SOL    HW1 1894   4.655   0.637   1.528 -2.9247 -0.4186 -0.6414
  564SOL    HW2 1895   4.732   0.541   1.439  1.2871  1.2338  0.9739
  565SOL     OW 1896   3.867   3.406   3.030  0.5454 -0.3741 -0.0596
  565SOL    HW1 1897   3.901   3.478   3.084 -0.6957 -0.6487  1.1460
  565SOL    HW2 1898   3.874   3.438   2.940 -1.3502  1.9045  0.5058
  566SOL     OW 1899   2.012   4.793   3.803  0.1354  0.2500  0.1395
  566SOL    HW1 1900   1.942   4.806   3.739  0.6650 -1.1300 -0.7868
  566SOL    HW2 1901   2.068   4.870   3.795 -0.9898  1.1178  0.5189
  567SOL     OW 1902   1.515   4.337   1.523 -0.1314  0.6093  0.2712
  567SOL    HW1 1903   1.498   4.250   1.485  1.0903  0.2060  0.6071
  567SOL    HW2 1904   1.493   4.327   1.615  0.6397  0.4594  0.4432
  568SOL     OW 1905   1.223   1.949   4.135  0.0590 -0.6771  0.4930
  568SOL    HW1 1906   1.224   2.014   4.065 -0.5215 -0.2559  0.8661
  568SOL    HW2 1907   1.176   1.874   4.097 -0.7450 -0.2418  0.5978
  569SOL     OW 1908   4.351   0.550   2.285 -0.1216 -0.1702  0.1597
  569SOL    HW1 1909   4.416   0.509   2.343 -0.2829 -2.0317 -0.8964
  569SOL    HW2 1910   4.285   0.482   2.271 -1.6126  1.2254  0.0965
  570SOL     OW 1911   2.564   3.348   3.078  0.6057  0.2739  0.0515
  570SOL    HW1 1912   2.609   3.323   3.158  0.3177  0.2734  0.2136
  570SOL    HW2 1913   2.472   3.331   3.096  0.6543 -1.0202 -0.7450
  571SOL     OW 1914   2.622   1.758   3.897  0.1198  0.4726 -0.0824
  571SOL    HW1 1915   2.535   1.786   3.927 -0.0433  0.5813 -0.6441
  571SOL    HW2 1916   2.638   1.676   3.945  0.3417  1.1990  1.1133
  572SOL     OW 1917   0.263   4.569   1.056  0.5663 -0.5216 -0.0491
  572SOL    HW1 1918   0.330   4.634   1.078 -0.2880  0.3381  0.1034
  572SOL    HW2 1919   0.208   4.564   1.134 -0.4033 -0.1006 -0.6807
  573SOL     OW 1920   0.039   0.794   1.307  0.2326  0.4238 -0.4082
  573SOL    HW1 1921   0.051   0.888   1.323 -1.1226  0.8278 -1.5505
  573SOL    HW2 1922   0.110   0.770   1.248 -1.4888  1.6630 -3.2078
  574SOL     OW 1923   3.278   3.900   1.425 -0.2805  0.2525  0.3136
  574SOL    HW1 1924   3.357   3.848   1.413 -0.5992 -0.2970  0.5498
  574SOL    HW2 1925   3.211   3.836   1.451 -1.1802  0.4691 -1.3384
  575SOL     OW 1926   0.551   4.186   4.276  0.3906  0.4074  0.1265
  575SOL    HW1 1927   0.591   4.272   4.281  1.6842 -0.1374 -0.4691
  575SOL    HW2 1928   0.578   4.141   4.356  2.9510 -0.7436 -1.2748
  576SOL     OW 1929   3.208   4.513   1.905  0.7944  0.5200 -0.5232
  576SOL    HW1 1930   3.304   4.520   1.900  0.7026  0.9103 -2.3546
  576SOL    HW2 1931   3.176   4.570   1.835 -0.8176  0.7702  0.3573
  577SOL     OW 1932   2.667   1.001   2.327 -0.4573  0.3974  0.0632
  577SOL    HW1 1933   2.706   0.963   2.248 -0.5591 -0.0905  0.2415
  577SOL    HW2 1934   2.574   1.007   2.307 -0.1781  2.7711 -0.8559
  578SOL     OW 1935   3.196   4.065   2.119 -0.6939  0.2579 -0.5833
  578SOL    HW1 1936   3.212   3.980   2.160  0.7046  0.8205  0.1265
  578SOL    HW2 1937   3.242   4.061   2.036  0.0201  0.5584 -0.2159
  579SOL     OW 1938   2.857   4.371   4.495  0.3878 -0.1612  0.3216
  579SOL    HW1 1939   2.811   4.421   4.428 -0.0937 -0.3595  0.4986
  579SOL    HW2 1940   2.895   4.437   4.553  0.4139  0.0049  0.1128
  580SOL     OW 1941   3.473   2.999   0.932 -0.1269 -0.1079  0.0839
  580SOL    HW1 1942   3.526   2.953   0.867 -0.3864 -0.5483  0.1742
  580SOL    HW2 1943   3.384   2.998   0.895  0.0219  1.1859 -0.3676
  581SOL     OW 1944   2.719   2.497   2.019  0.4079 -0.2185  0.4125
  581SOL    HW1 1945   2.657   2.450   1.963  0.4766 -0.4779  0.5482
  581SOL    HW2 1946   2.748   2.571   1.966  0.1706 -0.2359  0.2557
  582SOL     OW 1947   3.363   2.941   2.314  0.3313  0.4014  0.3951
  582SOL    HW1 1948   3.275   2.973   2.296  1.1982  1.8836 -1.5486
  582SOL    HW2 1949   3.353   2.847   2.326 -1.3812  0.4082 -0.7421
  583SOL     OW 1950   3.542   1.058   0.250 -0.4150  0.1462 -0.3607
  583SOL    HW1 1951   3.637   1.064   0.260 -0.4432 -0.4998  0.3842
  583SOL    HW2 1952   3.522   1.114   0.175  0.7135 -0.7894 -1.3996
  584SOL     OW 1953   2.435   2.692   1.583 -0.1911 -0.1343  1.0258
  584SOL    HW1 1954   2.510   2.646   1.619  0.0304  0.5091  1.4145
  584SOL    HW2 1955   2.448   2.783   1.610  0.1127  0.4389 -0.8768
  585SOL     OW 1956   0.326   1.713   0.441 -0.3056  0.1399  0.7150
  585SOL    HW1 1957   0.308   1.801   0.406  2.3834  0.7019  0.5580
  585SOL    HW2 1958   0.332   1.658   0.364  1.9821  0.6697  0.4406
  586SOL     OW 1959   0.071   3.325   2.120 -0.2321 -0.3222 -0.1520
  586SOL    HW1 1960  -0.014   3.305   2.079 -0.7991  1.8646 -0.1458
  586SOL    HW2 1961   0.075   3.265   2.195 -1.8547 -0.3790 -0.0638
  587SOL     OW 1962   0.302   1.768   1.758 -0.2763 -0.1101 -0.1373
  587SOL    HW1 1963   0.218   1.729   1.735 -0.4300 -0.2610  0.6571
  587SOL    HW2 1964   0.358   1.694   1.780 -0.5851  0.0867  1.4239
  588SOL     OW 1965   2.212   1.736   2.855 -0.7234  0.2647  0.0129
  588SOL    HW1 1966   2.223   1.682   2.777 -0.9187 -0.2020  0.3102
  588SOL    HW2 1967   2.300   1.742   2.893 -1.1208 -2.1496  1.5070
  589SOL     OW 1968   4.417   4.376   4.179 -0.2716  0.1734  0.6286
  589SOL    HW1 1969   4.428   4.378   4.084 -1.8031  0.8867  0.4454
  589SOL    HW2 1970   4.506   4.359   4.213  0.2603 -0.2903 -0.9128
  590SOL     OW 1971   3.178   0.639   2.182 -0.2391 -0.1761 -0.7227
  590SOL    HW1 1972   3.235   0.655   2.107  0.2788 -2.2249 -0.8242
  590SOL    HW2 1973   3.096   0.607   2.144 -0.6552  0.5506 -0.4701
  591SOL     OW 1974   1.005   1.786   2.058  0.2722  0.2739  0.0305
  591SOL    HW1 1975   1.009   1.701   2.102  0.6319  0.4979  0.4416
  591SOL    HW2 1976   1.092   1.797   2.020  0.2063  0.4310 -0.0733
  592SOL     OW 1977   0.651   1.557   3.700  0.7249 -0.1238  0.5343
  592SOL    HW1 1978   0.674   1.628   3.640  0.0139 -2.2271 -2.4971
  592SOL    HW2 1979   0.730   1.503   3.704  0.0670 -1.2109 -0.4607
  593SOL     OW 1980   0.756   1.686   2.289  0.4349 -0.5128 -0.1559
  593SOL    HW1 1981   0.845   1.712   2.314 -0.4511  0.3011  2.4903
  593SOL    HW2 1982   0.752   1.593   2.311  0.4435 -0.3832  0.4254
  594SOL     OW 1983   1.162   4.815   2.770  0.5589 -0.2109 -0.1529
  594SOL    HW1 1984   1.074   4.783   2.792  0.1422  0.0499 -1.3648
  594SOL    HW2 1985   1.215   4.736   2.762 -0.3288 -0.6332 -2.5532
  595SOL     OW 1986   3.062   2.210   2.515 -0.2884 -0.2905 -0.3735
  595SOL    HW1 1987   3.121   2.166   2.577 -0.0254  0.7659  0.1507
  595SOL    HW2 1988   2.975   2.180   2.540 -0.1334 -0.3199  0.1489
  596SOL     OW 1989   0.793   3.925   4.358 -0.0931 -0.0585 -0.0745
  596SOL    HW1 1990   0.732   3.963   4.422  0.6338 -0.5104  0.9235
  596SOL    HW2 1991   0.741   3.860   4.312 -0.5508  0.0404  0.2852
  597SOL     OW 1992   2.642   4.519   4.409 -0.2698 -0.1950  0.3165
  597SOL    HW1 1993   2.603   4.454   4.351 -0.4895  1.9843 -2.2230
  597SOL    HW2 1994   2.568   4.553   4.459 -0.6381 -0.1345 -0.2516
  598SOL     OW 1995   3.388   4.052   1.229  0.2155 -0.5634 -0.0525
  598SOL    HW1 1996   3.351   4.026   1.313  0.9744 -2.0508 -0.1494
  598SOL    HW2 1997   3.323   4.112   1.192 -1.1530 -1.5402  0.6698
  599SOL     OW 1998   1.897   3.523   3.263  0.3307 -0.4155 -0.0499
  599SOL    HW1 1999   1.840   3.589   3.224  0.9185  0.1071 -0.0300
  599SOL    HW2 2000   1.933   3.565   3.341  1.0112 -0.6228 -0.2512
  600SOL     OW 2001   2.175   2.707   0.407  0.0110  0.2516  0.5588
  600SOL    HW1 2002   2.195   2.723   0.315  0.7583 -1.3095  0.4224
  600SOL    HW2 2003   2.097   2.759   0.425  0.0477  0.8153 -0.8678
  601SOL     OW 2004   4.228   1.486   3.390  0.3521  0.3225 -0.2718
  601SOL    HW1 2005   4.316   1.470   3.425 -0.2625 -0.2871  1.0969
  601SOL    HW2 2006   4.194   1.558   3.444 -0.3286 -0.1030 -0.1172
  602SOL     OW 2007   3.101   2.224   4.809 -0.2997  0.0401  0.0263
  602SOL    HW1 2008   3.197   2.216   4.803 -0.3464  0.3921 -1.5459
  602SOL    HW2 2009   3.079   2.295   4.750 -1.5934 -0.3203  0.0465
  603SOL     OW 2010   2.386   4.301   0.295 -0.1504  0.2339  0.3943
  603SOL    HW1 2011   2.359   4.376   0.241 -0.8166 -0.9654 -1.0229
  603SOL    HW2 2012   2.429   4.242   0.234 -2.2005 -1.8314  0.7986
  604SOL     OW 2013   0.648   4.415   1.046  0.2551  1.0096  0.8850
  604SOL    HW1 2014   0.649   4.381   1.135 -0.3752  1.3919  1.0469
  604SOL    HW2 2015   0.725   4.377   1.005 -0.0498 -0.0398  1.2622
  605SOL     OW 2016   3.685   4.730   3.570 -0.3869  0.1386 -0.0872
  605SOL    HW1 2017   3.719   4.819   3.564 -0.1571  0.1000  0.5515
  605SOL    HW2 2018   3.764   4.675   3.572 -0.5053 -0.0164  0.4228
  606SOL     OW 2019   1.316   4.215   1.146  0.2127 -0.4462  0.1755
  606SOL    HW1 2020   1.232   4.253   1.169  0.4626 -0.4330  1.1121
  606SOL    HW2 2021   1.309   4.195   1.053 -1.5176 -2.2681  0.6424
  607SOL     OW 2022   3.741   2.209   3.673  0.4920  0.3902 -0.7302
  607SOL    HW1 2023   3.743   2.118   3.644  1.9675  0.5719 -1.2740
  607SOL    HW2 2024   3.649   2.225   3.693  0.3270 -1.4473  0.1736
  608SOL     OW 2025   2.212   3.484   1.062 -0.0356 -0.3039 -0.1229
  608SOL    HW1 2026   2.298   3.527   1.061  0.1819 -0.6144  1.5110
  608SOL    HW2 2027   2.175   3.508   1.147 -1.3597 -0.6070 -0.5898
  609SOL     OW 2028   1.796   1.443   3.777  0.6869 -0.2064 -0.3834
  609SOL    HW1 2029   1.869   1.384   3.795 -0.1229 -1.4281 -0.9447
  609SOL    HW2 2030   1.720   1.385   3.771 -0.2860  1.0000 -0.1134
  610SOL     OW 2031   4.487   1.272   1.479  0.2480  0.6491 -0.4490
  610SOL    HW1 2032   4.582   1.277   1.469  0.0890  1.2827 -1.8175
  610SOL    HW2 2033   4.467   1.338   1.545  0.8859 -0.5575  1.0204
  611SOL     OW 2034   0.414   2.752   3.574 -0.3260  0.3653  0.0300
  611SOL    HW1 2035   0.461   2.700   3.639 -0.3460 -1.0951 -1.0658
  611SOL    HW2 2036   0.459   2.733   3.492 -0.5466  1.8628 -0.4676
  612SOL     OW 2037   4.751   3.062   0.337 -0.4633 -0.3619  0.1832
  612SOL    HW1 2038   4.812   2.991   0.315 -0.9419 -0.7424  0.0642
  612SOL    HW2 2039   4.664   3.025   0.321 -0.7390  0.0939  0.5889
  613SOL     OW 2040   3.572   0.208   4.615 -0.4660 -0.4754  0.4978
  613SOL    HW1 2041   3.504   0.142   4.612 -0.5149 -0.4793  1.4163
  613SOL    HW2 2042   3.592   0.227   4.523 -0.0777 -2.1338  0.2182
  614SOL     OW 2043   1.555   2.851   2.135  0.5446  0.0685 -0.3230
  614SOL    HW1 2044   1.524   2.780   2.191 -0.4545 -1.6319 -2.8409
  614SOL    HW2 2045   1.477   2.905   2.119  1.2356  1.6654  1.3562
  615SOL     OW 2046   1.867   2.561   3.389  0.1690  0.1181 -0.4925
  615SOL    HW1 2047   1.773   2.553   3.374  0.1836  0.9219 -1.1067
  615SOL    HW2 2048   1.907   2.533   3.306  0.3225  3.1634 -1.5462
  616SOL     OW 2049   2.262   2.968   1.422 -0.2261 -0.2829 -0.9517
  616SOL    HW1 2050   2.242   3.062   1.419  1.6358  0.2610  0.7659
  616SOL    HW2 2051   2.352   2.965   1.456  0.1243 -2.6742 -1.9366
  617SOL     OW 2052   0.869   1.058   3.191 -0.6166  0.5841 -0.2397
  617SOL    HW1 2053   0.815   0.993   3.146 -0.5520  0.9432 -0.8381
  617SOL    HW2 2054   0.809   1.100   3.254 -0.5094 -0.4800  0.6095
  618SOL     OW 2055   1.235   4.598   0.718 -0.2798  0.4358 -0.5717
  618SOL    HW1 2056   1.150   4.592   0.762 -0.3339 -1.4772 -0.8378
  618SOL    HW2 2057   1.213   4.612   0.626 -0.3358 -0.2725 -0.6734
  619SOL     OW 2058   3.837   3.976   1.323  0.1757  0.6698 -0.2717
  619SOL    HW1 2059   3.773   4.005   1.258 -1.6442  1.5795  1.7979
  619SOL    HW2 2060   3.905   3.931   1.272 -2.4639 -1.0421 -2.5345
  620SOL     OW 2061   1.915   1.189   3.414 -0.2149  0.1050 -0.2756
  620SOL    HW1 2062   1.981   1.157   3.354  1.0398 -0.0480  1.1297
  620SOL    HW2 2063   1.955   1.266   3.455 -0.8022 -0.1163  0.7522
  621SOL     OW 2064   4.612   0.858   2.396  0.5857  0.5181 -0.4581
  621SOL    HW1 2065   4.611   0.822   2.308  1.1927  0.2162 -0.3452
  621SOL    HW2 2066   4.704   0.854   2.423  0.0441 -2.2706  1.3595
  622SOL     OW 2067   0.429   1.525   3.502 -0.1322  0.2224 -0.8447
  622SOL    HW1 2068   0.501   1.502   3.560  0.0107  1.0821 -0.6711
  622SOL    HW2 2069   0.469   1.537   3.416 -0.2075 -0.1560 -0.9362
  623SOL     OW 2070   2.650   2.332   0.473 -0.2470  0.0266  0.3203
  623SOL    HW1 2071   2.730   2.279   0.478 -0.3223 -0.1789 -0.5837
  623SOL    HW2 2072   2.592   2.293   0.538  0.3830  0.1971  1.0152
  624SOL     OW 2073   1.547   1.655   2.098  0.3898  1.0966  0.0335
  624SOL    HW1 2074   1.554   1.749   2.110  0.2447  1.2026 -0.6971
  624SOL    HW2 2075   1.615   1.633   2.034  1.7504  0.4086  1.6459
  625SOL     OW 2076   2.131   3.452   0.366 -0.2351 -0.3794 -0.2381
  625SOL    HW1 2077   2.170   3.448   0.454  0.4545 -0.9242 -0.5581
  625SOL    HW2 2078   2.106   3.544   0.355 -1.2738 -0.4924  0.9221
  626SOL     OW 2079   2.264   2.180   2.340 -0.3799 -0.1229 -0.0353
  626SOL    HW1 2080   2.342   2.183   2.395 -1.0510 -1.1784  1.0395
  626SOL    HW2 2081   2.191   2.195   2.401 -1.1766 -1.7050 -0.5538
  627SOL     OW 2082   0.207   0.519   0.329 -0.1071 -0.1901 -0.0632
  627SOL    HW1 2083   0.260   0.484   0.400 -0.9864 -0.5886  0.4121
  627SOL    HW2 2084   0.256   0.596   0.298  1.5281 -1.4204 -0.6869
  628SOL     OW 2085   1.604   2.525   4.288  0.0592  0.1487  0.4865
  628SOL    HW1 2086   1.688   2.513   4.333  0.8165  2.5062 -0.1503
  628SOL    HW2 2087   1.606   2.463   4.216  0.9329 -0.3340  0.9064
  629SOL     OW 2088   1.718   1.211   3.107  0.2839  0.5477  0.3384
  629SOL    HW1 2089   1.808   1.238   3.125  0.6483 -0.4974  0.1810
  629SOL    HW2 2090   1.727   1.138   3.046 -0.6750  0.4294  0.3279
  630SOL     OW 2091   1.373   0.391   4.571 -0.0855  0.2821 -0.0380
  630SOL    HW1 2092   1.358   0.297   4.564  0.5198  0.1545  0.2828
  630SOL    HW2 2093   1.395   0.404   4.663 -1.6773  0.9687  0.2813
  631SOL     OW 2094   1.753   0.933   1.693 -0.0519 -0.2373 -0.6216
  631SOL    HW1 2095   1.659   0.918   1.696 -0.4820  2.0452  2.0483
  631SOL    HW2 2096   1.791   0.861   1.743 -0.7797  0.5656  1.1709
  632SOL     OW 2097   0.581   3.269   3.825  0.2884  0.1485  0.4554
  632SOL    HW1 2098   0.560   3.344   3.769 -0.4517 -0.2424  0.2101
  632SOL    HW2 2099   0.525   3.199   3.794  0.9104 -0.4880  0.7519
  633SOL     OW 2100   4.519   0.798   3.837  0.7198 -0.2311  0.3846
  633SOL    HW1 2101   4.450   0.740   3.870 -2.4043  1.5983 -2.3642
  633SOL    HW2 2102   4.570   0.743   3.778 -1.1986 -0.6714 -0.9499
  634SOL     OW 2103   4.072   4.394   4.070 -0.5716 -0.0248  0.3575
  634SOL    HW1 2104   4.103   4.448   4.143  0.4007 -0.5201  0.3224
  634SOL    HW2 2105   4.024   4.322   4.111 -0.0994 -0.2560  0.5064
  635SOL     OW 2106   1.580   3.148   2.695  0.1824 -0.0466  0.2929
  635SOL    HW1 2107   1.522   3.115   2.763 -2.1354 -1.4949 -2.2262
  635SOL    HW2 2108   1.666   3.112   2.717 -0.9242 -2.2248  1.3016
  636SOL     OW 2109   2.916   0.878   4.761  0.3397 -0.1714 -0.0816
  636SOL    HW1 2110   2.842   0.939   4.757 -0.1527 -0.7436  0.1037
  636SOL    HW2 2111   2.878   0.797   4.795  0.6743 -1.0589 -1.7213
  637SOL     OW 2112   4.359   3.553   1.334 -0.0770  0.0605  0.1820
  637SOL    HW1 2113   4.313   3.492   1.391  0.2300  0.1431  0.5213
  637SOL    HW2 2114   4.293   3.617   1.308 -0.2666 -0.0979  0.2757
  638SOL     OW 2115   2.032   0.768   1.187  0.9348  0.6782 -0.2379
  638SOL    HW1 2116   2.077   0.800   1.265 -0.5117  2.1941  0.0341
  638SOL    HW2 2117   2.101   0.728   1.134  2.4167  2.0141  0.6021
  639SOL     OW 2118   3.722   2.658   0.072  0.3692 -0.2330  0.2622
  639SOL    HW1 2119   3.708   2.585   0.011  0.0501 -0.7879  0.9885
  639SOL    HW2 2120   3.665   2.728   0.040  1.4508  0.0972 -1.0629
  640SOL     OW 2121   3.607   0.213   4.330  0.8962 -0.2211 -0.1149
  640SOL    HW1 2122   3.550   0.281   4.294 -0.2082  0.5878  2.8290
  640SOL    HW2 2123   3.571   0.131   4.298  0.4771  0.4555 -1.4256
  641SOL     OW 2124   3.640   4.035   1.146  0.0014 -0.5636  0.4649
  641SOL    HW1 2125   3.643   3.984   1.065 -1.1157  0.8065 -0.4858
  641SOL    HW2 2126   3.547   4.035   1.170  0.0150  0.7631  0.5899
  642SOL     OW 2127   3.954   0.113   4.395 -0.4371  0.9150 -0.4139
  642SOL    HW1 2128   3.909   0.059   4.330 -0.2993 -0.9221  0.9600
  642SOL    HW2 2129   4.043   0.077   4.399 -0.6770  0.4393  1.3596
  643SOL     OW 2130   4.398   2.047   4.289  0.5394  0.1692 -0.4168
  643SOL    HW1 2131   4.404   2.025   4.382  1.6227 -0.8745 -0.7188
  643SOL    HW2 2132   4.432   2.137   4.284 -0.1452  0.4851  0.2635
  644SOL     OW 2133   3.684   4.370   2.587  0.1714 -0.1450  0.0716
  644SOL    HW1 2134   3.669   4.303   2.653 -0.3892  0.3109  0.4218
  644SOL    HW2 2135   3.600   4.378   2.541  0.5330 -0.4054 -0.6506
  645SOL     OW 2136   1.769   1.234   2.747 -0.2921  0.3272 -0.0888
  645SOL    HW1 2137   1.710   1.171   2.789 -0.5852 -0.3494 -1.4472
  645SOL    HW2 2138   1.712   1.287   2.692  0.0098  1.5553  0.7538
  646SOL     OW 2139   4.807   3.437   1.407 -0.1904 -0.4100  0.2620
  646SOL    HW1 2140   4.781   3.348   1.433 -0.6909 -0.1374  0.7148
  646SOL    HW2 2141   4.725   3.485   1.400  0.0966  0.0978  0.3109
  647SOL     OW 2142   1.905   2.140   3.094  0.4143  0.0585  0.0256
  647SOL    HW1 2143   1.860   2.116   3.175  0.8505  1.6763  0.7949
  647SOL    HW2 2144   1.982   2.083   3.091  0.6620  0.3218  1.0377
  648SOL     OW 2145   2.433   2.619   3.575  0.5859  0.7583 -0.0080
  648SOL    HW1 2146   2.491   2.647   3.645 -0.7120  2.3552  0.4931
  648SOL    HW2 2147   2.435   2.690   3.511  1.6914 -0.6381 -1.6224
  649SOL     OW 2148   3.760   1.296   1.764  0.0560  0.5964 -0.2565
  649SOL    HW1 2149   3.820   1.350   1.816  1.4421  0.7284 -1.9237
  649SOL    HW2 2150   3.737   1.351   1.689  1.2582 -0.9617 -1.8436
  650SOL     OW 2151   2.245   0.697   0.985 -0.0256  0.0645  0.7562
  650SOL    HW1 2152   2.337   0.691   1.009  0.9396  2.2528 -1.8330
  650SOL    HW2 2153   2.232   0.626   0.921  0.8449  1.5944 -1.2431
  651SOL     OW 2154   0.265   1.679   4.575  0.4326  0.2851  0.2152
  651SOL    HW1 2155   0.215   1.728   4.639 -0.2209  1.6683 -1.2869
  651SOL    HW2 2156   0.288   1.743   4.507 -0.4799 -1.4438 -1.8455
  652SOL     OW 2157   4.649   1.299   1.029  0.4001  0.0995  0.0985
  652SOL    HW1 2158   4.620   1.378   0.984  0.9058  0.2939  0.1093
  652SOL    HW2 2159   4.577   1.278   1.089 -1.1954 -1.3052 -2.1657
  653SOL     OW 2160   0.044   4.788   4.103  0.3201 -0.6748  0.6458
  653SOL    HW1 2161  -0.009   4.710   4.091 -1.0252  0.3646 -0.6859
  653SOL    HW2 2162  -0.020   4.859   4.116  1.4802  0.2475  1.6332
  654SOL     OW 2163   2.041   2.228   2.520  0.0081 -0.0314  0.0912
  654SOL    HW1 2164   1.990   2.301   2.557 -0.2677 -0.8036  1.3007
  654SOL    HW2 2165   2.090   2.193   2.594  0.4547 -0.8245 -0.5595
  655SOL     OW 2166   0.612   4.105   3.189  0.9149  0.1845 -0.1176
  655SOL    HW1 2167   0.599   4.120   3.096 -0.3316 -1.5555 -0.2583
  655SOL    HW2 2168   0.550   4.164   3.232 -2.6053 -2.7902 -0.6151
  656SOL     OW 2169   0.604   1.701   2.559  0.2940 -0.1774  0.1849
  656SOL    HW1 2170   0.557   1.728   2.480  1.5059  0.9626 -0.1668
  656SOL    HW2 2171   0.542   1.719   2.630 -1.0037 -1.6896 -0.5116
  657SOL     OW 2172   1.360   1.627   1.537  0.3641 -0.8584 -0.4282
  657SOL    HW1 2173   1.325   1.635   1.626  0.6641  0.9269 -0.4311
  657SOL    HW2 2174   1.295   1.672   1.482  1.2098 -0.0935 -0.8186
  658SOL     OW 2175   4.665   0.922   0.620  0.2382  0.0996  0.1070
  658SOL    HW1 2176   4.694   0.935   0.529  2.2857 -1.1058  0.5038
  658SOL    HW2 2177   4.679   1.007   0.662 -0.0502  0.4712 -0.5346
  659SOL     OW 2178   2.713   0.299   2.451  0.4030  0.2353  0.3859
  659SOL    HW1 2179   2.656   0.256   2.388 -0.9040  0.4161  1.4043
  659SOL    HW2 2180   2.755   0.369   2.402  0.5704 -0.5645 -0.6457
  660SOL     OW 2181   0.373   2.387   2.367 -0.2941  0.1919  0.4696
  660SOL    HW1 2182   0.345   2.441   2.293 -3.1867  0.0338  1.3391
  660SOL    HW2 2183   0.468   2.398   2.369 -0.3447  1.9894 -1.8565
  661SOL     OW 2184   0.411   3.234   3.101  0.2254  0.0851 -0.1866
  661SOL    HW1 2185   0.484   3.270   3.049  0.8878 -1.4951 -0.3989
  661SOL    HW2 2186   0.410   3.288   3.180  4.7172 -2.5736  2.0934
  662SOL     OW 2187   3.088   2.988   2.385 -0.5802  0.7981  0.4880
  662SOL    HW1 2188   3.027   2.932   2.337  0.2676  1.4147 -1.4058
  662SOL    HW2 2189   3.034   3.028   2.453 -1.9344  0.1757 -0.1670
  663SOL     OW 2190   3.436   1.282   1.234 -0.9619  0.4164  0.1394
  663SOL    HW1 2191   3.356   1.333   1.243 -0.9430  0.4037  0.3989
  663SOL    HW2 2192   3.411   1.193   1.259 -0.8044  0.4676  0.4869
  664SOL     OW 2193   0.475   4.262   3.605 -0.1867  0.6608  0.2634
  664SOL    HW1 2194   0.402   4.300   3.556 -0.2943  0.9772  0.6653
  664SOL    HW2 2195   0.535   4.336   3.619  2.1633 -0.2332 -3.4292
  665SOL     OW 2196   1.640   0.494   1.216 -0.1569  0.5713 -0.0247
  665SOL    HW1 2197   1.725   0.491   1.260 -0.5199  0.6679  0.7121
  665SOL    HW2 2198   1.661   0.498   1.123  0.6422 -1.3253  0.0137
  666SOL     OW 2199   4.573   1.978   2.622  0.4297  0.0581  0.3753
  666SOL    HW1 2200   4.581   1.912   2.553 -2.7498 -0.8349  0.6809
  666SOL    HW2 2201   4.493   1.954   2.669  1.9230  1.1581  3.8442
  667SOL     OW 2202   2.879   2.764   2.346  0.0090 -0.7068  0.2918
  667SOL    HW1 2203   2.925   2.734   2.425 -1.0895  0.2589  1.3430
  667SOL    HW2 2204   2.787   2.764   2.370 -0.3238 -0.1226 -0.9070
  668SOL     OW 2205   2.175   0.795   1.447 -0.4314 -0.0567 -0.3404
  668SOL    HW1 2206   2.122   0.741   1.506  0.7513 -1.1655 -0.2389
  668SOL    HW2 2207   2.264   0.784   1.480  0.1520 -0.0550 -1.8681
  669SOL     OW 2208   4.748   1.670   3.939  0.1230  0.2317  0.0025
  669SOL    HW1 2209   4.740   1.624   3.856 -0.2799  0.5594 -0.1439
  669SOL    HW2 2210   4.808   1.616   3.991  0.7396  0.2712 -0.6647
  670SOL     OW 2211   0.177   2.844   0.484 -0.1970 -0.3392  0.1534
  670SOL    HW1 2212   0.265   2.812   0.505 -0.7635 -1.2599  1.2262
  670SOL    HW2 2213   0.153   2.898   0.559 -1.1095 -1.3026  0.5769
  671SOL     OW 2214   3.794   3.323   3.333  0.5813  0.2787 -0.6456
  671SOL    HW1 2215   3.799   3.278   3.248 -0.6942  0.2369 -0.7238
  671SOL    HW2 2216   3.843   3.266   3.392  1.0202  0.0252 -1.2362
  672SOL     OW 2217   3.748   0.446   0.654  0.5573  0.8854  0.0294
  672SOL    HW1 2218   3.733   0.476   0.565  2.3260 -3.0195 -1.8591
  672SOL    HW2 2219   3.670   0.396   0.677  0.6033  0.8644  0.1435
  673SOL     OW 2220   0.143   2.842   4.562 -0.5166  0.4141  0.0872
  673SOL    HW1 2221   0.051   2.863   4.579 -0.7150  0.6861 -1.2026
  673SOL    HW2 2222   0.153   2.853   4.468  1.1577  1.6691  0.3619
  674SOL     OW 2223   0.140   1.252   1.706 -0.2222 -0.6413 -0.0971
  674SOL    HW1 2224   0.205   1.313   1.673 -2.1295  0.6734 -1.6502
  674SOL    HW2 2225   0.188   1.171   1.722  1.7500  0.2565 -1.1966
  675SOL     OW 2226   1.426   0.009   1.404  0.2935 -0.5219  0.1493
  675SOL    HW1 2227   1.389   0.022   1.491  0.7232 -2.6907  0.7061
  675SOL    HW2 2228   1.368   0.058   1.345 -0.9325 -0.3497  1.4590
  676SOL     OW 2229   0.925   0.687   4.481  0.3956 -0.1870 -0.3172
  676SOL    HW1 2230   0.990   0.750   4.512  1.1376 -0.6577 -0.8937
  676SOL    HW2 2231   0.974   0.607   4.465  0.2657  0.2170 -3.4605
  677SOL     OW 2232   0.095   1.478   0.497 -0.2324 -0.0914 -0.0325
  677SOL    HW1 2233   0.021   1.424   0.525 -1.0116  1.8373  1.9712
  677SOL    HW2 2234   0.170   1.419   0.501 -1.3978 -1.6968 -0.5911
  678SOL     OW 2235   3.814   0.383   1.606 -0.0330 -0.2732 -0.5386
  678SOL    HW1 2236   3.898   0.398   1.650 -0.2168 -0.6782 -0.0406
  678SOL    HW2 2237   3.770   0.468   1.610  1.1045  0.4535 -2.4675
  679SOL     OW 2238   0.912   2.649   3.127  0.3271  0.9491  0.1453
  679SOL    HW1 2239   0.906   2.693   3.212  1.9645 -0.9278  1.2998
  679SOL    HW2 2240   0.857   2.571   3.137  3.0664 -1.0512  0.7601
  680SOL     OW 2241   0.969   2.659   4.424 -0.4615  0.2870  0.1561
  680SOL    HW1 2242   0.915   2.694   4.353 -0.4869  0.7213  0.3885
  680SOL    HW2 2243   0.999   2.574   4.391  0.5502  1.0281 -0.8830
  681SOL     OW 2244   2.320   3.239   1.436  0.3687  0.1634  0.2075
  681SOL    HW1 2245   2.297   3.332   1.435 -0.7525 -0.1099 -0.7051
  681SOL    HW2 2246   2.390   3.233   1.501  0.1342  1.5655  0.6278
  682SOL     OW 2247   1.539   1.350   3.443  0.5724 -0.2470  0.2858
  682SOL    HW1 2248   1.498   1.436   3.449  0.7364 -0.1884  0.5556
  682SOL    HW2 2249   1.487   1.294   3.500  1.1702 -0.0549  1.0317
  683SOL     OW 2250   4.819   4.482   0.818 -0.1529  0.0205 -0.1944
  683SOL    HW1 2251   4.820   4.576   0.804  0.5980  0.3302  1.6653
  683SOL    HW2 2252   4.736   4.466   0.864  0.0969 -0.0933  0.2229
  684SOL     OW 2253   0.531   2.181   4.142  0.4362 -0.0109  0.1277
  684SOL    HW1 2254   0.478   2.151   4.069  0.7999 -1.9082  0.5943
  684SOL    HW2 2255   0.467   2.212   4.206  0.1164  1.6887 -0.9499
  685SOL     OW 2256   3.100   2.334   0.980  0.0858 -0.7528  0.4919
  685SOL    HW1 2257   3.086   2.427   0.967  1.5596 -0.5716 -0.0223
  685SOL    HW2 2258   3.094   2.296   0.892 -0.7631 -1.1973  0.7274
  686SOL     OW 2259   3.882   2.183   4.727 -0.4092 -0.4545 -0.4633
  686SOL    HW1 2260   3.972   2.150   4.728 -0.8422 -1.8575  2.1073
  686SOL    HW2 2261   3.891   2.277   4.712  1.5484 -0.4585  0.3808
  687SOL     OW 2262   4.156   1.721   3.515  0.3144  0.2377 -0.1254
  687SOL    HW1 2263   4.062   1.733   3.530  0.3195 -0.7907  0.8629
  687SOL    HW2 2264   4.196   1.732   3.602  1.0131 -0.1517 -0.3886
  688SOL     OW 2265   3.093   1.781   4.040 -0.1171  0.5593 -0.2105
  688SOL    HW1 2266   3.038   1.857   4.056  0.2732  0.7053  0.4899
  688SOL    HW2 2267   3.033   1.707   4.038 -0.4581  0.8443 -0.5460
  689SOL     OW 2268   2.540   4.037   2.811 -0.3638 -0.0151 -0.2807
  689SOL    HW1 2269   2.457   4.044   2.765 -0.5845 -0.2642  0.0771
  689SOL    HW2 2270   2.606   4.037   2.742 -0.6527  0.3028 -0.5600
  690SOL     OW 2271   0.817   3.449   1.348  0.0515 -0.4906 -0.5502
  690SOL    HW1 2272   0.807   3.364   1.391 -1.9072  0.8373  1.9236
  690SOL    HW2 2273   0.743   3.455   1.288 -0.3988 -0.1869  0.0179
  691SOL     OW 2274   4.128   4.338   2.665  0.2113 -0.2254  1.0960
  691SOL    HW1 2275   4.160   4.248   2.653 -0.3954 -0.5319  1.6907
  691SOL    HW2 2276   4.199   4.382   2.711  1.0205 -0.0477 -0.2530
  692SOL     OW 2277   1.068   1.996   0.143 -0.2275  0.4361  0.1519
  692SOL    HW1 2278   1.056   1.941   0.220 -1.4127 -0.5082 -0.6722
  692SOL    HW2 2279   1.048   2.085   0.174  1.2597  0.3795  1.3818
  693SOL     OW 2280   0.440   4.155   2.509 -0.4343  0.2564  0.2984
  693SOL    HW1 2281   0.361   4.156   2.455  0.3384  0.1460 -0.8576
  693SOL    HW2 2282   0.414   4.200   2.590 -1.1913  1.7962 -0.7587
  694SOL     OW 2283   0.355   1.741   2.412  0.9269  0.3323  0.2125
  694SOL    HW1 2284   0.357   1.708   2.322 -0.4959 -1.8631  0.9050
  694SOL    HW2 2285   0.283   1.803   2.413  2.3297  2.0635 -0.6224
  695SOL     OW 2286   3.063   2.366   1.259 -0.1256  0.2294  0.0210
  695SOL    HW1 2287   3.061   2.391   1.166  2.1014 -0.1488 -0.1873
  695SOL    HW2 2288   3.076   2.448   1.305  0.0248  0.2693 -0.0931
  696SOL     OW 2289   0.695   1.733   1.632 -0.5857  0.4874  0.1533
  696SOL    HW1 2290   0.660   1.652   1.596  1.7046 -0.3395 -0.3845
  696SOL    HW2 2291   0.738   1.706   1.713 -0.8169  1.3861  0.5846
  697SOL     OW 2292   1.609   4.102   4.575  0.0950 -0.0292  0.0296
  697SOL    HW1 2293   1.626   4.049   4.497 -0.7195 -1.6725  0.9174
  697SOL    HW2 2294   1.697   4.128   4.605  0.5179 -0.9287 -0.3923
  698SOL     OW 2295   0.928   3.772   0.791  0.0604  0.1862 -0.2254
  698SOL    HW1 2296   1.012   3.772   0.837  0.2804 -0.9586 -0.5838
  698SOL    HW2 2297   0.892   3.684   0.807 -0.5606  0.2900 -0.9780
  699SOL     OW 2298   4.375   0.339   3.830  0.3429  0.0891 -0.3543
  699SOL    HW1 2299   4.306   0.363   3.769  1.5293  0.9120 -1.4286
  699SOL    HW2 2300   4.443   0.300   3.775  1.4196  0.8118  0.4196
  700SOL     OW 2301   3.360   1.928   4.469 -0.4098  0.0240 -0.0136
  700SOL    HW1 2302   3.332   1.983   4.396 -2.6984  0.8889  1.4005
  700SOL    HW2 2303   3.416   1.985   4.522 -0.7477  0.1975  0.1600
  701SOL     OW 2304   3.637   1.043   0.672 -0.5002 -0.7357 -0.0086
  701SOL    HW1 2305   3.627   0.969   0.611 -1.5845 -0.6989  0.1075
  701SOL    HW2 2306   3.607   1.009   0.756  0.1157 -0.5034  0.3090
  702SOL     OW 2307   3.140   0.331   0.847 -0.6621 -0.4764 -0.4080
  702SOL    HW1 2308   3.204   0.398   0.820 -1.3007  0.2002 -0.2913
  702SOL    HW2 2309   3.159   0.316   0.940 -1.0524  0.1671 -0.2190
  703SOL     OW 2310   2.979   0.735   0.227  0.3692 -0.3463  0.1868
  703SOL    HW1 2311   3.009   0.660   0.278 -1.3287 -0.4717  1.1095
  703SOL    HW2 2312   2.911   0.700   0.170  0.6675  0.2145 -0.5270
  704SOL     OW 2313   0.598   3.437   1.198  0.1242  0.2249 -0.0319
  704SOL    HW1 2314   0.553   3.359   1.231 -1.9648  1.6477  0.6087
  704SOL    HW2 2315   0.664   3.402   1.137 -2.2864 -1.9482 -1.5933
  705SOL     OW 2316   1.883   4.051   1.566  0.4277  0.4553  0.2947
  705SOL    HW1 2317   1.807   4.030   1.512  1.3854 -1.4597 -0.3899
  705SOL    HW2 2318   1.935   4.110   1.513 -0.5040  1.6901  0.7231
  706SOL     OW 2319   2.465   1.255   3.955  0.2006 -0.1309  0.3568
  706SOL    HW1 2320   2.377   1.267   3.991  0.3852 -0.2065  0.8446
  706SOL    HW2 2321   2.514   1.330   3.986 -0.1519  0.8929 -1.4448
  707SOL     OW 2322   3.353   4.764   0.776  0.6919 -0.1133 -0.2866
  707SOL    HW1 2323   3.405   4.775   0.697  1.3451 -3.5213 -0.4763
  707SOL    HW2 2324   3.384   4.682   0.814 -1.6386 -0.0898  1.9386
  708SOL     OW 2325   1.648   0.948   4.182 -0.0362 -0.0936 -0.0124
  708SOL    HW1 2326   1.734   0.956   4.223 -0.5537  1.1773  0.8876
  708SOL    HW2 2327   1.593   0.909   4.251 -1.5233  4.2489  1.6253
  709SOL     OW 2328   3.200   2.932   1.609  0.0384  0.5796  0.1778
  709SOL    HW1 2329   3.231   2.996   1.673  1.0515  1.0156 -0.7236
  709SOL    HW2 2330   3.107   2.921   1.630 -0.1204  2.2077  0.4720
  710SOL     OW 2331   0.050   1.497   2.723 -0.3399  0.4802 -0.0546
  710SOL    HW1 2332   0.051   1.537   2.810 -0.4281  1.8387 -0.6602
  710SOL    HW2 2333  -0.043   1.494   2.699 -0.3579 -0.3422  0.0814
  711SOL     OW 2334   2.777   4.771   1.851  0.2873  0.3428 -0.6926
  711SOL    HW1 2335   2.776   4.677   1.836  2.1146  0.3563 -1.2355
  711SOL    HW2 2336   2.785   4.781   1.946  0.8601 -0.0796 -0.6925
  712SOL     OW 2337   4.084   3.990   1.003 -0.5206 -0.0395 -0.5436
  712SOL    HW1 2338   4.077   4.056   1.071 -1.7530 -0.3543 -0.3466
  712SOL    HW2 2339   4.042   4.030   0.926  1.2144  0.4756 -1.2818
  713SOL     OW 2340   2.824   4.808   0.076 -0.3231 -0.2628 -0.3728
  713SOL    HW1 2341   2.759   4.840   0.139  1.5440 -0.6880  1.9109
  713SOL    HW2 2342   2.902   4.860   0.094  1.9866 -3.9583  1.5711
  714SOL     OW 2343   3.383   2.476   0.751 -0.2101  0.5590  0.3164
  714SOL    HW1 2344   3.325   2.404   0.775  1.7398 -1.5114 -0.7774
  714SOL    HW2 2345   3.468   2.452   0.786  0.3704  2.7971  0.6429
  715SOL     OW 2346   3.961   0.995   3.514  0.0078 -0.0282  0.2592
  715SOL    HW1 2347   3.903   0.961   3.446  1.0396  0.6154 -0.9785
  715SOL    HW2 2348   4.018   1.056   3.468  3.1102 -2.1835  0.9774
  716SOL     OW 2349   1.715   3.034   2.352 -0.2537  0.9187 -0.0104
  716SOL    HW1 2350   1.640   3.092   2.363 -2.0333 -1.2079 -0.2710
  716SOL    HW2 2351   1.683   2.963   2.296  1.7184 -0.4675  0.4874
  717SOL     OW 2352   4.190   1.848   4.342 -0.0940 -0.1813  0.4088
  717SOL    HW1 2353   4.166   1.844   4.249 -2.9279  1.6794  0.9402
  717SOL    HW2 2354   4.201   1.942   4.359 -0.9536 -0.3768  2.2438
  718SOL     OW 2355   4.189   4.357   1.615  0.3091 -0.1306 -0.0072
  718SOL    HW1 2356   4.108   4.377   1.569 -0.9185  0.2473  2.2027
  718SOL    HW2 2357   4.175   4.388   1.704  2.5129 -0.9690  0.7016
  719SOL     OW 2358   0.634   3.804   4.168  0.7492 -0.3651 -0.1012
  719SOL    HW1 2359   0.595   3.735   4.115 -0.2508  0.4661 -0.4907
  719SOL    HW2 2360   0.562   3.866   4.183  1.1504 -0.2719  1.7100
  720SOL     OW 2361   4.317   1.926   3.098 -0.0458  0.2173  0.8396
  720SOL    HW1 2362   4.266   1.911   3.177 -0.6148  2.0780  0.8531
  720SOL    HW2 2363   4.267   1.990   3.048  1.3168  0.6159 -0.0712
  721SOL     OW 2364   1.154   1.500   1.083  0.1026 -0.3112  0.7730
  721SOL    HW1 2365   1.110   1.460   1.159 -0.4402 -0.5010  0.3620
  721SOL    HW2 2366   1.174   1.426   1.026 -0.9855 -0.0002 -0.0375
  722SOL     OW 2367   1.016   4.494   4.522  0.0854 -0.1759  0.5786
  722SOL    HW1 2368   1.008   4.588   4.539 -0.6172  0.0718 -0.9785
  722SOL    HW2 2369   0.954   4.454   4.584 -0.2813  0.4654  0.6391
  723SOL     OW 2370   2.904   0.950   1.217 -0.6086 -0.2287  0.2297
  723SOL    HW1 2371   2.908   0.996   1.301 -0.1419 -2.1028  1.3114
  723SOL    HW2 2372   2.915   1.018   1.151  0.5532  1.1149  1.7362
  724SOL     OW 2373   4.035   0.818   2.433 -0.0158  0.3348  0.3399
  724SOL    HW1 2374   3.980   0.865   2.371  0.3917  0.5904  0.1680
  724SOL    HW2 2375   4.111   0.876   2.446  1.1908 -0.8959 -0.9700
  725SOL     OW 2376   2.404   4.683   4.774 -0.0981  0.3770 -0.0353
  725SOL    HW1 2377   2.439   4.655   4.858 -1.3362 -0.9825  0.0658
  725SOL    HW2 2378   2.480   4.719   4.727  0.5910  1.2499  1.6653
  726SOL     OW 2379   2.798   1.895   0.651 -0.5363 -0.5895 -0.2684
  726SOL    HW1 2380   2.787   1.806   0.685 -0.6212 -0.6988 -0.5813
  726SOL    HW2 2381   2.886   1.920   0.679 -0.8216 -0.4544  0.5425
  727SOL     OW 2382   2.772   0.640   0.056  0.3566 -0.4588  0.0135
  727SOL    HW1 2383   2.781   0.551   0.090 -1.1999 -0.1962  1.2559
  727SOL    HW2 2384   2.691   0.639   0.005  0.3039  0.2377  0.0639
  728SOL     OW 2385   4.795   4.277   1.654  0.2859 -0.0918 -0.8106
  728SOL    HW1 2386   4.827   4.295   1.566  1.9842  0.1855 -0.1882
  728SOL    HW2 2387   4.774   4.363   1.691 -0.3984 -0.2041 -0.9204
  729SOL     OW 2388   4.774   3.740   0.287  0.2782  0.2273 -0.5001
  729SOL    HW1 2389   4.821   3.665   0.251  1.3156  0.4249  0.3804
  729SOL    HW2 2390   4.842   3.791   0.332 -0.4997  1.4211 -0.6358
  730SOL     OW 2391   1.588   3.537   4.300 -0.3213  0.0715 -0.6991
  730SOL    HW1 2392   1.516   3.525   4.239 -0.2742 -0.3673 -0.6727
  730SOL    HW2 2393   1.553   3.511   4.385 -0.1344 -0.1345 -0.6844
  731SOL     OW 2394   1.853   4.346   2.396  0.2919 -0.2192 -0.2801
  731SOL    HW1 2395   1.781   4.328   2.457 -0.0709  1.8952  0.0134
  731SOL    HW2 2396   1.815   4.408   2.334  1.0194 -1.4102 -1.9775
  732SOL     OW 2397   1.742   3.931   2.911 -0.1393  0.1640  0.6493
  732SOL    HW1 2398   1.738   3.966   3.000 -0.8631  1.7185  0.0380
  732SOL    HW2 2399   1.710   3.841   2.919  0.3040  0.1056  2.0351
  733SOL     OW 2400   0.887   2.817   0.996  0.0905 -0.4354 -0.0465
  733SOL    HW1 2401   0.864   2.872   1.070 -0.1846 -0.3121 -0.2194
  733SOL    HW2 2402   0.975   2.786   1.015 -0.4658 -1.4886  0.9897
  734SOL     OW 2403   4.593   0.574   2.448 -0.4112 -0.0191 -0.2021
  734SOL    HW1 2404   4.586   0.548   2.539 -2.3013 -0.6507 -0.4841
  734SOL    HW2 2405   4.633   0.661   2.450 -0.9456  0.2090  1.2639
  735SOL     OW 2406   3.596   1.679   3.627 -0.1219  0.4149 -0.3509
  735SOL    HW1 2407   3.603   1.623   3.550 -1.6568  1.4274 -1.2897
  735SOL    HW2 2408   3.543   1.628   3.689 -0.0435  0.1419 -0.5077
  736SOL     OW 2409   3.986   3.035   1.523 -0.0894  0.1959  0.1091
  736SOL    HW1 2410   3.934   3.095   1.577  0.4828 -0.0426  0.9422
  736SOL    HW2 2411   4.038   2.985   1.586  1.2048  0.4757 -0.6919
  737SOL     OW 2412   0.273   2.694   3.066  0.1068  0.0762 -0.0481
  737SOL    HW1 2413   0.220   2.674   2.988  0.8888 -0.3179 -0.4936
  737SOL    HW2 2414   0.305   2.783   3.050 -0.9396  0.5763  0.5336
  738SOL     OW 2415   1.682   2.183   0.050 -0.4301  0.0252  0.3064
  738SOL    HW1 2416   1.598   2.153   0.016 -0.3137  1.0837 -1.0058
  738SOL    HW2 2417   1.708   2.115   0.113 -1.6395 -0.9787 -0.2293
  739SOL     OW 2418   2.442   2.085   0.600  0.5475  0.3045 -0.7286
  739SOL    HW1 2419   2.430   2.001   0.645  0.1945  0.8483  0.2368
  739SOL    HW2 2420   2.450   2.149   0.671  0.0523  1.1851 -1.4449
  740SOL     OW 2421   4.747   1.940   0.094  0.1353  0.1009 -0.3305
  740SOL    HW1 2422   4.691   1.875   0.136 -2.2571  0.7117 -2.3539
  740SOL    HW2 2423   4.734   2.019   0.146  1.1471 -0.3484  0.6703
  741SOL     OW 2424   0.953   4.489   3.190  0.0301  0.2236 -0.4593
  741SOL    HW1 2425   0.895   4.418   3.217  2.4905 -1.2739  1.3542
  741SOL    HW2 2426   0.943   4.494   3.095 -1.6404 -1.2273 -0.3957
  742SOL     OW 2427   3.524   0.418   2.461 -0.3097  0.2258  0.0065
  742SOL    HW1 2428   3.550   0.385   2.375 -1.2619 -0.2995 -0.0988
  742SOL    HW2 2429   3.498   0.341   2.510 -1.7549  0.7086  0.0489
  743SOL     OW 2430   0.347   0.293   0.842  0.0144  0.0458  0.3794
  743SOL    HW1 2431   0.410   0.353   0.882  0.1553  0.8584 -1.0208
  743SOL    HW2 2432   0.399   0.218   0.816 -0.1113 -0.5965  1.8497
  744SOL     OW 2433   3.921   3.368   0.242  0.5033 -0.2451 -0.0593
  744SOL    HW1 2434   3.917   3.453   0.285  2.3107  0.5048 -1.2765
  744SOL    HW2 2435   3.989   3.320   0.289 -0.1759 -0.8839  0.3155
  745SOL     OW 2436   4.199   4.287   3.493 -0.1434 -0.4948  0.0824
  745SOL    HW1 2437   4.288   4.312   3.516 -0.1172 -0.5272  0.0179
  745SOL    HW2 2438   4.146   4.317   3.566  0.3310 -3.5826  1.8701
  746SOL     OW 2439   4.210   1.483   4.382 -0.1723  0.3006 -0.1964
  746SOL    HW1 2440   4.147   1.523   4.322 -0.2037  0.9123  0.2400
  746SOL    HW2 2441   4.227   1.397   4.345 -2.3499 -0.4603  0.4363
  747SOL     OW 2442   3.246   1.132   2.718  0.5936  0.0496 -0.7453
  747SOL    HW1 2443   3.158   1.120   2.684  0.1287 -1.2009  0.8177
  747SOL    HW2 2444   3.255   1.227   2.726 -1.6316  0.1812  1.4914
  748SOL     OW 2445   1.251   4.296   2.251  0.2220  0.0668  0.4318
  748SOL    HW1 2446   1.205   4.241   2.187 -0.5781  0.2050  0.8678
  748SOL    HW2 2447   1.294   4.234   2.309  0.5966 -0.0653  0.0194
  749SOL     OW 2448   3.345   0.189   0.114 -0.0182 -0.1112  0.7101
  749SOL    HW1 2449   3.413   0.122   0.120  0.7512  0.6782  0.8786
  749SOL    HW2 2450   3.368   0.241   0.037 -1.7822 -1.2864 -0.7050
  750SOL     OW 2451   2.976   4.174   4.173  0.0772 -0.5458  0.7252
  750SOL    HW1 2452   2.903   4.154   4.231  0.3571  0.7925  1.5807
  750SOL    HW2 2453   2.938   4.227   4.103  0.1297 -0.2202  0.9369
  751SOL     OW 2454   4.432   2.506   1.844 -0.5818  0.0686  0.3685
  751SOL    HW1 2455   4.480   2.429   1.814  1.8430  1.7642 -0.3901
  751SOL    HW2 2456   4.363   2.519   1.779 -0.3419 -0.8542 -0.0773
  752SOL     OW 2457   4.154   2.142   1.056 -0.3357 -0.1639  0.1571
  752SOL    HW1 2458   4.161   2.066   0.999  1.6696  1.2634 -1.6691
  752SOL    HW2 2459   4.244   2.173   1.066 -1.0267  1.6853  1.2318
  753SOL     OW 2460   2.281   1.887   1.899 -0.4171 -0.2787 -0.5431
  753SOL    HW1 2461   2.309   1.796   1.910 -0.5997 -0.4480 -1.3563
  753SOL    HW2 2462   2.246   1.913   1.984  0.5244 -0.6534 -0.0282
  754SOL     OW 2463   0.410   2.552   4.669  0.4768 -0.4644  0.4587
  754SOL    HW1 2464   0.483   2.583   4.615  0.2169  0.6951  0.7528
  754SOL    HW2 2465   0.437   2.465   4.698  0.6141 -1.1653 -1.5770
  755SOL     OW 2466   0.527   2.681   1.736  0.0364 -0.5173 -0.0765
  755SOL    HW1 2467   0.605   2.728   1.706  0.8061 -1.0867  0.9656
  755SOL    HW2 2468   0.455   2.718   1.685  0.7477  1.1856  0.0992
  756SOL     OW 2469   4.113   2.127   1.371 -0.2204 -0.0726  0.2252
  756SOL    HW1 2470   4.127   2.144   1.278  0.5193 -0.7776  0.1961
  756SOL    HW2 2471   4.037   2.181   1.394  0.4364  1.1787 -0.4435
  757SOL     OW 2472   3.259   2.127   2.950  0.1325 -0.0987 -0.2935
  757SOL    HW1 2473   3.305   2.167   3.023 -0.0831  1.4659 -0.9661
  757SOL    HW2 2474   3.327   2.108   2.886  0.0355  1.0208 -0.7577
  758SOL     OW 2475   2.681   4.533   3.045 -0.3389  0.2306 -0.0431
  758SOL    HW1 2476   2.749   4.478   3.005 -1.0809  0.2848 -1.4514
  758SOL    HW2 2477   2.599   4.501   3.005 -0.9119  1.5284  0.0582
  759SOL     OW 2478   2.742   1.987   3.758 -0.3575  0.1566  0.0216
  759SOL    HW1 2479   2.659   2.034   3.768 -0.6433 -0.6583  1.8048
  759SOL    HW2 2480   2.724   1.899   3.792  1.7090  0.5281  2.3011
  760SOL     OW 2481   1.878   4.499   3.627  0.4966 -0.0787 -0.2972
  760SOL    HW1 2482   1.827   4.543   3.695  1.8727  1.7834 -0.3989
  760SOL    HW2 2483   1.968   4.527   3.643  1.1926 -1.5391 -1.4440
  761SOL     OW 2484   2.700   3.171   1.802 -0.5994 -0.4295 -0.2576
  761SOL    HW1 2485   2.605   3.183   1.801 -0.6951 -0.4124 -3.5129
  761SOL    HW2 2486   2.728   3.200   1.715  2.5250  0.3282  0.8841
  762SOL     OW 2487   1.002   1.800   4.709 -0.4973  0.1906  0.1946
  762SOL    HW1 2488   0.980   1.811   4.616  0.5537  0.0035 -0.1021
  762SOL    HW2 2489   0.932   1.843   4.756 -1.8989 -1.0736 -0.6385
  763SOL     OW 2490   2.135   2.566   0.904  0.1641  0.2224  0.1447
  763SOL    HW1 2491   2.168   2.655   0.891  0.1165  0.0711 -1.1096
  763SOL    HW2 2492   2.091   2.569   0.989 -0.6836  1.6624 -0.3054
  764SOL     OW 2493   1.382   4.760   0.894  0.3828 -0.1531 -0.6228
  764SOL    HW1 2494   1.423   4.692   0.948 -1.4792 -0.5067  0.4556
  764SOL    HW2 2495   1.343   4.711   0.821  0.6134 -0.0077 -0.8434
  765SOL     OW 2496   4.020   3.736   2.256 -0.1983 -0.0046 -0.0685
  765SOL    HW1 2497   4.083   3.805   2.278  1.4887 -1.7621  0.8917
  765SOL    HW2 2498   4.070   3.655   2.261 -2.6353 -1.5537  1.2135
  766SOL     OW 2499   2.172   4.734   2.354 -0.4569 -0.1907  0.4152
  766SOL    HW1 2500   2.266   4.746   2.348 -0.1370 -1.8520  1.3792
  766SOL    HW2 2501   2.146   4.701   2.268 -0.1722  0.3025  0.1390
  767SOL     OW 2502   0.298   2.215   2.571  0.3380  0.5234  0.5017
  767SOL    HW1 2503   0.301   2.247   2.481  0.3558  1.6676  0.8956
  767SOL    HW2 2504   0.301   2.120   2.563 -1.2881  0.5343 -0.7914
  768SOL     OW 2505   3.103   4.783   3.599 -0.4432 -0.2733  0.0433
  768SOL    HW1 2506   3.080   4.758   3.510 -1.2670 -1.2948  0.5256
  768SOL    HW2 2507   3.180   4.840   3.589  0.4280 -1.6119 -1.2146
  769SOL     OW 2508   1.059   2.269   0.176  0.0185 -0.7067 -0.3200
  769SOL    HW1 2509   1.012   2.336   0.126 -0.0523 -2.5805 -2.9231
  769SOL    HW2 2510   1.150   2.277   0.149  0.2441 -0.8362  0.3670
  770SOL     OW 2511   2.995   4.239   2.100  0.1699  0.0870 -0.3142
  770SOL    HW1 2512   3.072   4.189   2.125  0.3212  1.1119  1.4728
  770SOL    HW2 2513   2.923   4.199   2.149  0.2696  1.4558  1.0349
  771SOL     OW 2514   0.059   0.564   0.684  0.7249  0.0012 -0.1631
  771SOL    HW1 2515   0.135   0.526   0.639  1.8472  1.2142  0.6364
  771SOL    HW2 2516   0.096   0.632   0.740 -0.7850 -0.5002  1.5316
  772SOL     OW 2517   1.384   3.976   1.924 -0.1585 -0.7579 -0.0884
  772SOL    HW1 2518   1.428   3.901   1.964 -0.3865 -1.1262 -0.5059
  772SOL    HW2 2519   1.317   3.936   1.868  0.9006 -0.3086 -1.7443
  773SOL     OW 2520   4.215   2.273   0.042 -0.4550 -0.5531 -0.4648
  773SOL    HW1 2521   4.171   2.260   0.127 -1.1950 -0.0988 -0.7741
  773SOL    HW2 2522   4.192   2.195  -0.008 -0.0920 -0.7796 -0.2819
  774SOL     OW 2523   1.932   3.641   2.481  0.0276  0.5893 -0.2797
  774SOL    HW1 2524   2.025   3.622   2.473 -0.3075 -2.1842  1.1705
  774SOL    HW2 2525   1.928   3.722   2.533  1.6314  0.2608  0.3974
  775SOL     OW 2526   3.425   3.972   3.251  0.1579  0.0201 -0.2769
  775SOL    HW1 2527   3.468   3.948   3.333 -1.5707  0.5175  0.8360
  775SOL    HW2 2528   3.484   3.941   3.183  1.0312 -1.6098  1.1326
  776SOL     OW 2529   2.518   2.258   1.588  0.4269 -0.6099 -0.6163
  776SOL    HW1 2530   2.555   2.254   1.500  0.8177 -0.2283 -0.4740
  776SOL    HW2 2531   2.520   2.167   1.619  1.6787 -0.5471 -0.4451
  777SOL     OW 2532   3.641   4.138   0.596  0.2251  0.0395 -0.0384
  777SOL    HW1 2533   3.615   4.189   0.673  2.2306 -1.5544  1.8140
  777SOL    HW2 2534   3.594   4.055   0.605  0.7757 -0.3089 -0.2867
  778SOL     OW 2535   1.408   1.641   4.053 -0.1718 -0.3224  0.2916
  778SOL    HW1 2536   1.344   1.610   4.117 -0.0911 -2.2406 -0.4867
  778SOL    HW2 2537   1.409   1.574   3.985  0.5646  1.0974 -1.1862
  779SOL     OW 2538   3.597   2.964   3.656 -0.3001  0.5050  0.1733
  779SOL    HW1 2539   3.528   2.913   3.612 -1.2448 -0.8968  3.0462
  779SOL    HW2 2540   3.578   3.055   3.632 -2.0574 -0.0086 -0.5765
  780SOL     OW 2541   2.122   2.179   0.801  0.5384 -0.2943 -0.1723
  780SOL    HW1 2542   2.063   2.250   0.776  0.7786 -0.5190 -1.4726
  780SOL    HW2 2543   2.137   2.131   0.719  1.3663 -1.0992  0.4332
  781SOL     OW 2544   0.274   1.018   1.705 -0.4974 -0.1954  0.4847
  781SOL    HW1 2545   0.297   0.930   1.734 -1.9471 -1.0379 -0.8615
  781SOL    HW2 2546   0.289   1.018   1.611 -1.4351  0.6885  0.3152
  782SOL     OW 2547   2.630   1.386   4.597 -0.1502 -0.2224  0.4586
  782SOL    HW1 2548   2.571   1.338   4.540  0.6483 -1.6057  0.7395
  782SOL    HW2 2549   2.622   1.343   4.682  0.3114  0.3822  0.8155
  783SOL     OW 2550   1.614   2.953   3.217 -0.9293 -0.1397  0.4519
  783SOL    HW1 2551   1.660   2.924   3.138 -1.6112 -1.0231  0.3672
  783SOL    HW2 2552   1.552   3.019   3.186 -1.4261 -0.7246  0.1998
  784SOL     OW 2553   4.146   2.913   1.691 -0.3858  0.2932 -0.4818
  784SOL    HW1 2554   4.191   2.849   1.637 -0.1471 -0.5987  0.7445
  784SOL    HW2 2555   4.185   2.903   1.778  0.3614  2.7741 -0.4505
  785SOL     OW 2556   1.795   3.680   1.575 -0.0399 -0.2288  0.5179
  785SOL    HW1 2557   1.752   3.646   1.497 -0.0095  0.9840 -0.0474
  785SOL    HW2 2558   1.735   3.747   1.609  1.4205  1.6369 -0.3921
  786SOL     OW 2559   1.542   4.728   2.138  0.1048 -0.5695 -0.3975
  786SOL    HW1 2560   1.560   4.643   2.179  2.8919 -0.7355 -1.6909
  786SOL    HW2 2561   1.572   4.792   2.202 -0.3355 -0.6154 -0.1404
  787SOL     OW 2562   0.098   2.534   1.412  0.5584 -0.1932 -0.2031
  787SOL    HW1 2563   0.194   2.534   1.417  0.5433 -0.9802  0.4737
  787SOL    HW2 2564   0.070   2.540   1.504 -0.0139 -1.0267 -0.3129
  788SOL     OW 2565   4.532   2.792   1.926 -0.6092  0.0742 -0.2356
  788SOL    HW1 2566   4.557   2.825   1.839  1.3917 -1.7386 -0.4417
  788SOL    HW2 2567   4.500   2.703   1.910 -0.2585 -0.2668  0.8604
  789SOL     OW 2568   1.778   3.200   0.615  0.0242 -0.0375 -0.0910
  789SOL    HW1 2569   1.741   3.261   0.551  1.1874 -0.5428 -1.2851
  789SOL    HW2 2570   1.816   3.256   0.682 -2.7781  0.5128  1.1935
  790SOL     OW 2571   1.699   4.244   0.776  0.2414 -0.1279 -0.1050
  790SOL    HW1 2572   1.629   4.215   0.718 -0.9543  1.4462  0.4843
  790SOL    HW2 2573   1.654   4.277   0.854  1.6472  0.6622  0.4109
  791SOL     OW 2574   3.109   1.720   1.595  0.2468 -0.1173  0.2956
  791SOL    HW1 2575   3.081   1.636   1.558 -2.4805  0.5840  0.5645
  791SOL    HW2 2576   3.200   1.706   1.619  0.2433 -2.5943 -0.8459
  792SOL     OW 2577   3.362   4.674   2.994 -0.4954  0.2804 -0.0623
  792SOL    HW1 2578   3.277   4.711   3.016 -0.7544 -0.6000  0.4571
  792SOL    HW2 2579   3.419   4.750   2.983 -1.0381  0.8430  0.8759
  793SOL     OW 2580   0.054   1.634   1.698 -0.0077 -0.2437 -0.0971
  793SOL    HW1 2581   0.028   1.554   1.745 -0.2821  0.2678  0.6574
  793SOL    HW2 2582  -0.009   1.640   1.626  1.7671 -2.2333 -1.9686
  794SOL     OW 2583   1.897   2.754   1.495 -0.3259  0.4646  0.0558
  794SOL    HW1 2584   1.952   2.766   1.572  0.1916 -0.2597 -0.1888
  794SOL    HW2 2585   1.820   2.708   1.527  0.6805 -1.4803 -0.1102
  795SOL     OW 2586   1.262   1.353   2.092 -0.5355 -0.3886  0.1158
  795SOL    HW1 2587   1.258   1.265   2.128 -0.1813 -0.2286  0.5561
  795SOL    HW2 2588   1.349   1.385   2.117  0.4250 -0.9005 -2.3289
  796SOL     OW 2589   3.785   1.989   1.154  0.5797  0.3737 -0.2148
  796SOL    HW1 2590   3.827   1.910   1.188  1.4359  0.6456 -0.5998
  796SOL    HW2 2591   3.795   2.054   1.224 -1.0352 -0.1217  0.5220
  797SOL     OW 2592   2.550   0.391   2.903  0.3759 -0.6350 -0.5178
  797SOL    HW1 2593   2.592   0.305   2.909  1.4126 -0.1066  0.0003
  797SOL    HW2 2594   2.580   0.427   2.819 -1.2631 -1.3718 -1.4694
  798SOL     OW 2595   2.258   4.320   4.218  0.0959 -0.5151  0.1866
  798SOL    HW1 2596   2.240   4.414   4.207  1.6896 -0.0978  0.8054
  798SOL    HW2 2597   2.174   4.282   4.243 -0.4993  0.8023  0.2972
  799SOL     OW 2598   2.559   4.580   1.449 -0.2739 -0.1180  0.2610
  799SOL    HW1 2599   2.475   4.536   1.438 -1.1942  0.9685  2.3732
  799SOL    HW2 2600   2.556   4.655   1.389 -1.0706  0.2471  0.7477
  800SOL     OW 2601   1.812   0.161   1.169  0.0508  0.2006 -0.0102
  800SOL    HW1 2602   1.767   0.240   1.141  1.4726  0.6436 -1.1486
  800SOL    HW2 2603   1.776   0.143   1.256  1.3982  3.4461  1.3628
  801SOL     OW 2604   3.466   4.552   1.819 -0.0970 -0.5721 -0.3210
  801SOL    HW1 2605   3.453   4.469   1.773  0.1376 -0.5514 -0.4242
  801SOL    HW2 2606   3.512   4.607   1.757  1.9784 -1.1893  0.6001
  802SOL     OW 2607   1.853   2.422   2.639  0.1759 -0.0032 -0.0530
  802SOL    HW1 2608   1.831   2.376   2.721 -0.0029 -0.3402 -0.2862
  802SOL    HW2 2609   1.816   2.510   2.650  2.3176  0.8056  1.2523
  803SOL     OW 2610   2.717   3.525   1.287  0.3204 -0.4526  0.1728
  803SOL    HW1 2611   2.714   3.429   1.282 -1.3154 -0.4101 -0.3912
  803SOL    HW2 2612   2.780   3.550   1.219  0.4713 -1.1200  0.0574
  804SOL     OW 2613   0.793   3.563   2.978 -0.3759 -0.1750 -0.2071
  804SOL    HW1 2614   0.713   3.616   2.973  0.9184  1.8439 -0.7279
  804SOL    HW2 2615   0.814   3.541   2.888  0.0541 -0.0397 -0.1440
  805SOL     OW 2616   2.620   4.329   0.431 -0.0645 -0.0012  0.1275
  805SOL    HW1 2617   2.534   4.333   0.389  0.5331  0.9009 -1.0624
  805SOL    HW2 2618   2.625   4.408   0.485  0.3876  0.4604 -0.5758
  806SOL     OW 2619   2.254   1.924   2.225 -0.3621 -0.0007 -0.0524
  806SOL    HW1 2620   2.262   2.011   2.264  1.3325  0.5973 -1.5948
  806SOL    HW2 2621   2.343   1.889   2.226 -0.6944 -0.9484 -1.1504
  807SOL     OW 2622   2.222   3.531   2.121 -0.0323 -0.2990  0.3459
  807SOL    HW1 2623   2.239   3.455   2.176  0.0101 -0.7148 -0.2348
  807SOL    HW2 2624   2.135   3.516   2.086  0.5660 -0.8434 -0.9771
  808SOL     OW 2625   2.984   3.720   2.096  0.1675 -0.5858  0.2804
  808SOL    HW1 2626   3.046   3.754   2.160 -0.9471  1.0274  0.5806
  808SOL    HW2 2627   2.912   3.686   2.149 -1.2156  1.6328 -0.0091
  809SOL     OW 2628   2.746   0.507   1.282  0.1189 -0.5709  0.0368
  809SOL    HW1 2629   2.802   0.564   1.228 -0.4115  0.2905  0.3719
  809SOL    HW2 2630   2.787   0.509   1.368 -0.3992  0.0504  0.2796
  810SOL     OW 2631   1.320   2.892   1.677  0.0419  0.2274 -0.0417
  810SOL    HW1 2632   1.349   2.973   1.720  0.0298  0.0852  0.2395
  810SOL    HW2 2633   1.315   2.828   1.748  1.4102 -0.3965 -0.4717
  811SOL     OW 2634   2.738   2.389   2.488  1.1202  0.5752 -0.1699
  811SOL    HW1 2635   2.807   2.336   2.528  0.0499 -0.8397 -0.1127
  811SOL    HW2 2636   2.773   2.414   2.403  2.2666  1.1325  0.4423
  812SOL     OW 2637   3.553   4.174   1.972  0.3636  0.2756  0.3048
  812SOL    HW1 2638   3.475   4.215   1.934 -2.0760 -1.7173  2.7562
  812SOL    HW2 2639   3.549   4.196   2.066  2.1938 -0.7835  0.6935
  813SOL     OW 2640   0.813   2.925   0.375 -0.1821 -0.3522  0.4301
  813SOL    HW1 2641   0.752   2.992   0.343 -0.1479  1.5256  3.8082
  813SOL    HW2 2642   0.756   2.853   0.402 -0.7608  0.4921  1.5490
  814SOL     OW 2643   2.250   1.349   0.533 -0.6181 -0.0398  0.1365
  814SOL    HW1 2644   2.216   1.431   0.569 -1.0202  0.3316 -1.0203
  814SOL    HW2 2645   2.256   1.366   0.439  1.4492 -0.5730  0.1325
  815SOL     OW 2646   1.679   3.929   4.392  0.2928  0.1064 -0.1886
  815SOL    HW1 2647   1.722   3.922   4.307  0.5931 -0.2354 -0.0116
  815SOL    HW2 2648   1.592   3.891   4.378 -0.4267  1.8882 -0.8599
  816SOL     OW 2649   2.641   2.766   3.834 -0.3426  0.4247  1.1061
  816SOL    HW1 2650   2.728   2.739   3.865 -0.0336 -2.1139 -1.5061
  816SOL    HW2 2651   2.657   2.851   3.792  0.5162  0.7658  2.0668
  817SOL     OW 2652   2.720   3.202   1.512 -0.5739  0.2387 -0.0114
  817SOL    HW1 2653   2.785   3.137   1.487  0.4090 -0.0115  2.8254
  817SOL    HW2 2654   2.766   3.286   1.505 -0.0975  0.1173  1.3682
  818SOL     OW 2655   0.786   4.768   1.310 -0.2112 -0.1754 -0.8426
  818SOL    HW1 2656   0.795   4.797   1.401 -0.3055  0.1956 -0.9488
  818SOL    HW2 2657   0.806   4.846   1.259  1.2830 -0.7463 -1.1689
  819SOL     OW 2658   0.070   3.116   3.570  0.6578  0.6827 -0.0464
  819SOL    HW1 2659   0.069   3.029   3.610 -0.1965  1.1607  1.0616
  819SOL    HW2 2660   0.159   3.148   3.584  1.1628 -0.2356 -1.0209
  820SOL     OW 2661   2.204   2.829   1.915  0.0291 -0.1660 -0.3331
  820SOL    HW1 2662   2.195   2.912   1.961  0.4041  0.9740 -2.2215
  820SOL    HW2 2663   2.167   2.764   1.975  1.4152  1.0540  1.9980
  821SOL     OW 2664   0.538   0.745   1.103  0.0330  0.2043  0.0866
  821SOL    HW1 2665   0.447   0.749   1.130  0.3013  1.0544  0.9100
  821SOL    HW2 2666   0.536   0.696   1.020 -1.4371  1.9996 -1.0369
  822SOL     OW 2667   0.943   2.510   3.945 -0.2986  0.0887 -0.4922
  822SOL    HW1 2668   0.883   2.458   3.998  1.6380  0.3655  2.1931
  822SOL    HW2 2669   0.957   2.457   3.866 -2.0600 -1.1553 -0.0304
  823SOL     OW 2670   3.449   2.994   3.946 -0.1637 -0.0963 -0.4905
  823SOL    HW1 2671   3.418   3.070   3.897  0.0813  0.0836 -0.3729
  823SOL    HW2 2672   3.541   2.986   3.921  0.9574  2.0163  2.3846
  824SOL     OW 2673   0.859   4.418   2.096 -0.0040  0.2032  0.0968
  824SOL    HW1 2674   0.779   4.450   2.138 -1.5096 -0.5081 -2.0386
  824SOL    HW2 2675   0.875   4.333   2.138  0.4207  0.9259  1.4469
  825SOL     OW 2676   4.484   3.987   2.239  0.0707  0.4049 -0.0280
  825SOL    HW1 2677   4.532   3.914   2.200  0.7170  2.1616 -2.7551
  825SOL    HW2 2678   4.552   4.051   2.261 -0.6065  0.7725  1.0540
  826SOL     OW 2679   2.010   4.390   2.746  0.0768 -0.0143  0.2613
  826SOL    HW1 2680   2.044   4.307   2.714  0.3002 -0.3063  1.2150
  826SOL    HW2 2681   2.070   4.456   2.712  0.0994 -0.2767 -0.2079
  827SOL     OW 2682   1.906   2.010   1.645  0.5257  0.5164 -0.0166
  827SOL    HW1 2683   1.876   2.100   1.658  1.6762  0.8142  0.6973
  827SOL    HW2 2684   1.828   1.963   1.614 -0.3350  1.5311  0.5437
  828SOL     OW 2685   1.207   3.265   2.804 -0.0690  0.6854  0.0639
  828SOL    HW1 2686   1.290   3.266   2.758 -0.8967 -0.0009 -1.5519
  828SOL    HW2 2687   1.176   3.356   2.802 -1.3949  0.3343 -3.4231
  829SOL     OW 2688   1.475   3.318   1.176 -0.1395 -0.0153  0.4498
  829SOL    HW1 2689   1.551   3.364   1.140 -0.2984  0.0926  0.2525
  829SOL    HW2 2690   1.511   3.235   1.207 -0.2527 -0.7459 -1.3160
  830SOL     OW 2691   4.012   4.605   2.197  0.2369 -0.0930  0.3433
  830SOL    HW1 2692   3.995   4.641   2.284 -0.4654 -2.5391  1.3027
  830SOL    HW2 2693   3.964   4.663   2.138 -0.9268  0.5068  1.7947
  831SOL     OW 2694   0.279   2.712   1.635  0.2170 -0.0469  0.9335
  831SOL    HW1 2695   0.239   2.761   1.707  1.6667  3.1794 -0.2280
  831SOL    HW2 2696   0.220   2.728   1.561 -0.2607 -1.7153  0.9279
  832SOL     OW 2697   1.072   1.757   3.999 -0.6910 -0.4786  0.4292
  832SOL    HW1 2698   0.980   1.758   3.973 -1.1027  0.7413  1.8146
  832SOL    HW2 2699   1.078   1.686   4.064 -0.6329 -0.5928  0.3004
  833SOL     OW 2700   4.511   4.753   1.871  0.7031  0.2782 -0.2130
  833SOL    HW1 2701   4.460   4.713   1.800 -0.9995  0.2430  0.9644
  833SOL    HW2 2702   4.462   4.833   1.893  0.0327 -0.7008  2.1938
  834SOL     OW 2703   0.257   1.834   2.073  0.4003 -0.2189  0.2213
  834SOL    HW1 2704   0.172   1.805   2.042  0.5614 -0.4155 -0.0480
  834SOL    HW2 2705   0.319   1.775   2.030  0.6361 -0.4344  0.8410
  835SOL     OW 2706   3.608   0.778   0.097 -0.1387 -0.5893 -0.4067
  835SOL    HW1 2707   3.701   0.800   0.092 -0.5136  0.9861 -0.8476
  835SOL    HW2 2708   3.606   0.690   0.135  1.4050  0.3113  1.9662
  836SOL     OW 2709   0.594   1.598   4.479  0.5373 -0.6484  0.4438
  836SOL    HW1 2710   0.516   1.654   4.473  1.6616  1.4584  3.2990
  836SOL    HW2 2711   0.640   1.613   4.396 -0.1269  1.2964  0.3753
  837SOL     OW 2712   1.643   2.300   2.078  0.2420  0.0932  0.0080
  837SOL    HW1 2713   1.668   2.234   2.143  2.1244  0.1532 -0.5907
  837SOL    HW2 2714   1.555   2.328   2.104 -0.0907 -1.7428  0.9984
  838SOL     OW 2715   3.849   2.057   4.477  0.2913 -0.0513 -0.0311
  838SOL    HW1 2716   3.859   2.095   4.564  1.6457 -1.7598  0.6132
  838SOL    HW2 2717   3.873   1.965   4.488 -1.8502 -0.8869 -1.7351
  839SOL     OW 2718   2.102   4.735   4.528  0.6580 -0.5331  0.0987
  839SOL    HW1 2719   2.039   4.668   4.502  0.4785 -0.4029  0.2044
  839SOL    HW2 2720   2.082   4.810   4.472 -0.3849  0.1099  1.2851
  840SOL     OW 2721   2.784   2.673   0.507  0.2471  0.2506 -0.2571
  840SOL    HW1 2722   2.823   2.731   0.441  1.2338 -0.3814 -0.2463
  840SOL    HW2 2723   2.710   2.632   0.462  0.3337  0.5410 -0.6702
  841SOL     OW 2724   2.971   1.976   1.297  0.4142  0.0665  0.0534
  841SOL    HW1 2725   2.943   1.885   1.300 -0.6262  0.3438 -0.7363
  841SOL    HW2 2726   3.013   1.991   1.382 -0.7281 -0.7315  0.7859
  842SOL     OW 2727   0.115   3.544   0.172  0.4597  0.1251  0.1827
  842SOL    HW1 2728   0.086   3.457   0.200 -0.1543  0.5320  0.8255
  842SOL    HW2 2729   0.188   3.526   0.112 -1.1886 -0.9384 -1.6428
  843SOL     OW 2730   3.055   0.146   2.756  0.2251 -0.3656 -0.4282
  843SOL    HW1 2731   3.019   0.207   2.692 -0.7975 -0.5950 -0.0804
  843SOL    HW2 2732   2.981   0.093   2.784  0.9515 -1.2708 -0.1549
  844SOL     OW 2733   2.311   0.861   4.592  0.2390 -0.0623  0.5337
  844SOL    HW1 2734   2.254   0.809   4.649 -0.0444  0.8910  1.1415
  844SOL    HW2 2735   2.367   0.796   4.549 -0.8836 -0.9718  0.3792
  845SOL     OW 2736   1.168   0.835   3.987 -0.2061  0.1129  0.4753
  845SOL    HW1 2737   1.243   0.834   3.928 -0.2828 -0.6904  0.3878
  845SOL    HW2 2738   1.195   0.783   4.062 -0.5965 -0.0014  0.5395
  846SOL     OW 2739   4.360   0.735   2.563 -0.3893  0.2015 -0.0440
  846SOL    HW1 2740   4.411   0.746   2.483  0.5449 -0.0324  0.5051
  846SOL    HW2 2741   4.302   0.811   2.565  1.8520  2.0203  0.7025
  847SOL     OW 2742   2.754   2.664   3.130  0.0651 -0.3089  0.4833
  847SOL    HW1 2743   2.735   2.758   3.133 -0.6829 -0.4503  0.2042
  847SOL    HW2 2744   2.764   2.639   3.222  0.8031  0.1391  0.5421
  848SOL     OW 2745   2.908   0.541   1.492  0.0438  0.2620  0.0940
  848SOL    HW1 2746   2.853   0.618   1.504 -1.1287 -0.2759 -1.3997
  848SOL    HW2 2747   2.997   0.573   1.501 -0.4295  1.7532 -0.2646
  849SOL     OW 2748   0.749   2.092   1.374 -0.4856 -0.1107 -0.2897
  849SOL    HW1 2749   0.663   2.134   1.367 -0.8020 -0.9047 -1.4945
  849SOL    HW2 2750   0.781   2.089   1.284  0.3195 -0.8313  0.0093
  850SOL     OW 2751   1.830   2.902   1.285  0.1597  0.2240  0.4442
  850SOL    HW1 2752   1.868   2.840   1.348 -0.2635 -1.0069 -0.4683
  850SOL    HW2 2753   1.737   2.878   1.281 -0.3854  2.0091  1.2825
  851SOL     OW 2754   3.659   3.313   2.324 -0.2741  0.4536 -0.1251
  851SOL    HW1 2755   3.652   3.232   2.374  0.3873 -0.2223 -1.1240
  851SOL    HW2 2756   3.666   3.286   2.233  1.5720  1.5530 -0.3622
  852SOL     OW 2757   0.938   0.672   0.566  0.2404  0.0525 -0.4242
  852SOL    HW1 2758   0.940   0.576   0.571 -0.4135 -0.0689 -1.9151
  852SOL    HW2 2759   0.878   0.691   0.494 -0.2191  1.6193  0.3254
  853SOL     OW 2760   0.945   3.402   4.694  0.8541 -0.8982  0.2222
  853SOL    HW1 2761   0.926   3.414   4.788  1.4913 -0.5473  0.3122
  853SOL    HW2 2762   1.040   3.411   4.688  0.7382 -0.0993 -0.5800
  854SOL     OW 2763   4.584   4.019   4.818  0.2086 -0.1999  0.0267
  854SOL    HW1 2764   4.665   3.995   4.774  0.3493  0.0703  0.1320
  854SOL    HW2 2765   4.515   4.003   4.754  0.3149 -0.7283  0.0454
  855SOL     OW 2766   2.946   2.839   1.687 -0.6296  0.0069 -0.5904
  855SOL    HW1 2767   2.967   2.746   1.696  2.6065  0.5371 -1.3536
  855SOL    HW2 2768   2.948   2.873   1.777 -0.5397 -0.4059 -0.4340
  856SOL     OW 2769   1.224   0.184   1.269  0.4037 -0.2709  0.3562
  856SOL    HW1 2770   1.168   0.245   1.316 -0.8271 -0.7041 -0.4818
  856SOL    HW2 2771   1.290   0.239   1.227 -1.7263  0.8033 -1.8826
  857SOL     OW 2772   1.143   4.626   0.446 -0.4080  0.2305 -0.0124
  857SOL    HW1 2773   1.222   4.633   0.392 -0.1270 -0.6099  0.2811
  857SOL    HW2 2774   1.071   4.638   0.384 -0.0720  2.2481 -0.1070
  858SOL     OW 2775   1.766   2.500   1.966 -0.2100  0.2567 -0.1505
  858SOL    HW1 2776   1.697   2.548   1.919 -0.3148 -0.4551 -0.7525
  858SOL    HW2 2777   1.720   2.424   2.002  0.5599 -1.1913 -2.0632
  859SOL     OW 2778   2.902   2.571   4.427  0.3742  0.0566  0.3495
  859SOL    HW1 2779   2.935   2.573   4.337  0.0399  2.4653  0.2230
  859SOL    HW2 2780   2.807   2.579   4.419  0.4253  1.6316  0.9026
  860SOL     OW 2781   4.759   4.699   3.129 -0.0135  0.0379 -0.1743
  860SOL    HW1 2782   4.717   4.617   3.155 -1.0720  0.5068 -0.3565
  860SOL    HW2 2783   4.756   4.754   3.207  1.2424 -0.2851  0.1322
  861SOL     OW 2784   1.583   4.587   4.271  0.5023 -0.1108  0.1372
  861SOL    HW1 2785   1.639   4.640   4.327 -0.4128 -1.1825  2.1711
  861SOL    HW2 2786   1.571   4.640   4.192  1.0979  1.8733  1.3045
  862SOL     OW 2787   1.601   2.474   0.514 -0.4336  0.1028  0.2371
  862SOL    HW1 2788   1.517   2.514   0.537 -0.6629  0.6472 -1.4120
  862SOL    HW2 2789   1.667   2.539   0.539 -0.4831 -0.2931  1.4616
  863SOL     OW 2790   3.073   3.743   1.503  0.1157  0.2237 -0.0714
  863SOL    HW1 2791   3.105   3.733   1.593 -0.4526  0.3732  0.1527
  863SOL    HW2 2792   2.989   3.698   1.503 -1.1529  2.4577  0.1873
  864SOL     OW 2793   3.064   4.417   0.941 -0.1355 -0.6422  0.3032
  864SOL    HW1 2794   3.138   4.407   0.882 -0.8439 -1.1881 -0.5054
  864SOL    HW2 2795   3.067   4.509   0.969  0.7882 -0.6417  0.2247
  865SOL     OW 2796   2.307   3.588   0.045  0.1796 -0.1809 -0.4170
  865SOL    HW1 2797   2.245   3.530   0.001 -1.1081  1.3874 -0.7519
  865SOL    HW2 2798   2.329   3.542   0.126 -0.6754 -1.2138 -0.7429
  866SOL     OW 2799   0.056   3.642   1.801 -0.2090  0.6385 -0.0536
  866SOL    HW1 2800   0.059   3.680   1.713 -0.0606  0.1536 -0.2607
  866SOL    HW2 2801  -0.036   3.652   1.827 -0.3093  0.5543 -0.3648
  867SOL     OW 2802   1.021   0.213   4.773  0.5453 -0.5531  0.0932
  867SOL    HW1 2803   1.088   0.188   4.837  0.0862  0.0385  0.8253
  867SOL    HW2 2804   0.938   0.206   4.821  0.0749 -1.2631 -0.8002
  868SOL     OW 2805   4.145   1.517   0.447 -0.3421 -0.1653  0.7371
  868SOL    HW1 2806   4.073   1.513   0.510 -0.9966  0.5194  0.0514
  868SOL    HW2 2807   4.134   1.438   0.393  0.3105 -0.8330  1.5538
  869SOL     OW 2808   0.648   1.181   2.605  0.2753  0.4810  0.1104
  869SOL    HW1 2809   0.657   1.138   2.520  0.9661  0.1586  0.3429
  869SOL    HW2 2810   0.649   1.275   2.585 -0.1468  0.4021 -0.2912
  870SOL     OW 2811   4.628   3.860   1.586  0.2509 -0.6063  0.1280
  870SOL    HW1 2812   4.626   3.818   1.672  0.3116  0.3959  0.6317
  870SOL    HW2 2813   4.621   3.953   1.605 -1.7870 -0.4630 -1.0493
  871SOL     OW 2814   0.674   3.376   4.121  0.4585 -0.3127 -0.0242
  871SOL    HW1 2815   0.623   3.425   4.056 -0.5832  1.1006  1.7592
  871SOL    HW2 2816   0.701   3.441   4.185  1.9597 -1.5625  0.6786
  872SOL     OW 2817   0.339   1.370   4.459 -0.4592 -0.1840 -0.3416
  872SOL    HW1 2818   0.358   1.430   4.387  1.2982 -1.2259 -0.8041
  872SOL    HW2 2819   0.374   1.413   4.537  3.1408 -1.5554 -1.0186
  873SOL     OW 2820   1.732   2.032   2.787  0.7821 -0.1299  0.0983
  873SOL    HW1 2821   1.743   2.114   2.835  0.0317 -0.0234  0.1092
  873SOL    HW2 2822   1.821   2.000   2.772  1.0214 -1.0755  3.0731
  874SOL     OW 2823   0.616   1.508   1.488  0.9656 -0.0403  0.8493
  874SOL    HW1 2824   0.601   1.422   1.528 -2.9179  0.4692  0.8466
  874SOL    HW2 2825   0.639   1.489   1.398  0.5188 -1.0890  0.9463
  875SOL     OW 2826   1.950   0.041   2.484  0.1301  0.2128  0.0040
  875SOL    HW1 2827   2.032  -0.006   2.498 -1.2129 -2.1091  0.6196
  875SOL    HW2 2828   1.975   0.118   2.433  2.6106 -0.6442 -0.2155
  876SOL     OW 2829   4.660   0.728   2.170 -0.3183  0.2488  0.3885
  876SOL    HW1 2830   4.747   0.746   2.133 -0.0909  0.0030  0.7929
  876SOL    HW2 2831   4.654   0.633   2.172 -1.8339  0.2065 -2.4532
  877SOL     OW 2832   1.537   2.877   0.514 -0.2504 -0.7710 -0.0894
  877SOL    HW1 2833   1.523   2.893   0.420 -0.9407  0.3830  0.2009
  877SOL    HW2 2834   1.632   2.871   0.523 -0.2089 -1.8973 -1.0102
  878SOL     OW 2835   3.930   3.926   2.536 -0.8126  0.2799  0.2707
  878SOL    HW1 2836   3.953   3.979   2.460 -3.3310  1.3600  0.1797
  878SOL    HW2 2837   3.955   3.980   2.611 -0.6929  0.3238  0.1996
  879SOL     OW 2838   4.573   0.176   0.161 -0.2265  0.5533 -0.2125
  879SOL    HW1 2839   4.525   0.228   0.226 -0.2446 -0.2021  0.4080
  879SOL    HW2 2840   4.619   0.110   0.214  0.4491  0.4557 -0.9101
  880SOL     OW 2841   3.661   3.481   0.467 -0.4603 -0.1427 -0.6806
  880SOL    HW1 2842   3.737   3.530   0.435 -2.2780  1.1907 -3.3380
  880SOL    HW2 2843   3.614   3.544   0.523 -0.6424 -0.2770 -0.6814
  881SOL     OW 2844   4.715   0.089   2.834 -0.1863 -0.6702  0.1316
  881SOL    HW1 2845   4.633   0.133   2.812 -0.9422 -2.5607 -1.0856
  881SOL    HW2 2846   4.735   0.118   2.923 -1.9389  0.1925  0.2801
  882SOL     OW 2847   0.969   1.083   2.004  0.0987 -0.0698 -0.1211
  882SOL    HW1 2848   0.997   1.114   1.918  1.2742 -0.5720  0.0617
  882SOL    HW2 2849   0.896   1.140   2.028  1.2701  1.5921 -0.4105
  883SOL     OW 2850   0.342   1.516   1.545  0.2630 -0.0271 -0.1998
  883SOL    HW1 2851   0.407   1.572   1.588 -0.0146  0.1338  0.0181
  883SOL    HW2 2852   0.389   1.437   1.521  0.2261 -0.4877  1.1879
  884SOL     OW 2853   0.986   0.561   2.757 -0.0548  1.0405  0.4093
  884SOL    HW1 2854   1.037   0.608   2.691  1.7547  2.4028  2.6280
  884SOL    HW2 2855   0.975   0.623   2.829 -2.5732 -0.1266  1.1744
  885SOL     OW 2856   2.770   3.614   4.046 -0.4282  0.2643 -0.1136
  885SOL    HW1 2857   2.798   3.685   4.104 -0.0444 -1.1134  1.4682
  885SOL    HW2 2858   2.688   3.645   4.009  0.9452  2.5841 -1.4966
  886SOL     OW 2859   1.316   2.399   0.135 -0.9042  0.0258  0.2056
  886SOL    HW1 2860   1.270   2.483   0.137 -2.1111 -0.5929 -0.2888
  886SOL    HW2 2861   1.323   2.374   0.227  2.0957  1.9904  0.6283
  887SOL     OW 2862   3.052   4.000   2.452 -0.2374 -0.0526 -0.2136
  887SOL    HW1 2863   3.118   3.981   2.519 -0.9247 -1.4287  0.1030
  887SOL    HW2 2864   3.032   4.093   2.464  0.3903 -0.0318  0.8202
  888SOL     OW 2865   1.668   1.201   1.712 -0.3347 -0.1119 -0.3120
  888SOL    HW1 2866   1.701   1.112   1.705  0.7775  0.3832 -2.2134
  888SOL    HW2 2867   1.621   1.216   1.629  1.8919  1.9026 -1.3434
  889SOL     OW 2868   2.444   1.177   1.772 -0.4688  0.2375 -1.0754
  889SOL    HW1 2869   2.363   1.174   1.721 -0.4320 -0.8166 -1.0827
  889SOL    HW2 2870   2.509   1.135   1.716 -0.1416  0.2100 -0.6755
  890SOL     OW 2871   1.826   4.240   3.554 -0.3321  0.4169 -0.0707
  890SOL    HW1 2872   1.861   4.220   3.641  0.6301 -0.3446 -0.6103
  890SOL    HW2 2873   1.818   4.336   3.552 -0.4732  0.4295  0.8865
  891SOL     OW 2874   3.772   4.434   3.506  0.4933  0.0594  0.1125
  891SOL    HW1 2875   3.828   4.472   3.438 -0.1020  0.8976  0.0800
  891SOL    HW2 2876   3.800   4.477   3.587 -1.0501  1.6006 -0.1076
  892SOL     OW 2877   0.976   1.136   2.968 -0.5373  0.0447  0.4552
  892SOL    HW1 2878   0.934   1.074   2.909 -0.0749 -0.6939  0.8970
  892SOL    HW2 2879   0.959   1.102   3.056 -1.3802  1.2296  0.7778
  893SOL     OW 2880   4.264   3.793   1.069  0.1077  0.0812  0.6156
  893SOL    HW1 2881   4.215   3.865   1.031 -1.6507 -0.7510  1.2189
  893SOL    HW2 2882   4.318   3.834   1.136  1.1591  1.1670 -0.8268
  894SOL     OW 2883   2.047   1.388   3.520  0.1334  0.0732  0.0022
  894SOL    HW1 2884   2.101   1.424   3.449 -1.3928  2.5494 -0.0074
  894SOL    HW2 2885   2.070   1.440   3.596 -1.8074  0.8354  0.1212
  895SOL     OW 2886   2.657   3.511   4.793  0.0324  0.5086 -0.1271
  895SOL    HW1 2887   2.612   3.520   4.709 -0.9548 -2.8966 -0.0947
  895SOL    HW2 2888   2.750   3.512   4.770 -0.2213 -0.9084 -1.4139
  896SOL     OW 2889   3.278   1.335   4.581 -0.5678  0.0800 -0.3937
  896SOL    HW1 2890   3.365   1.352   4.617  0.5917 -1.8998 -2.0525
  896SOL    HW2 2891   3.237   1.276   4.644 -1.0138  1.5056  0.7088
  897SOL     OW 2892   1.923   4.560   0.716 -0.5335  0.3308  0.6935
  897SOL    HW1 2893   1.844   4.591   0.759 -0.3875  1.0888  0.4343
  897SOL    HW2 2894   1.987   4.549   0.786 -0.4901  0.9404  0.7535
  898SOL     OW 2895   4.180   2.094   2.925 -0.4386 -0.1045  0.2878
  898SOL    HW1 2896   4.180   2.189   2.912 -0.4835 -0.2777 -1.0973
  898SOL    HW2 2897   4.090   2.067   2.907 -0.8227 -0.2356  2.2305
  899SOL     OW 2898   1.004   1.954   4.458  0.7389  0.1858  0.6082
  899SOL    HW1 2899   1.016   1.975   4.365  4.2084 -0.9343  0.6418
  899SOL    HW2 2900   1.031   2.034   4.504  0.8224  0.1289  0.6577
  900SOL     OW 2901   4.768   0.775   4.714  0.3502  0.1421  0.4895
  900SOL    HW1 2902   4.779   0.686   4.682 -0.3990 -0.4436  1.7774
  900SOL    HW2 2903   4.763   0.766   4.810 -2.5864  1.1731  0.5491
  901SOL     OW 2904   2.561   1.615   2.395 -0.2849 -0.0346 -0.1482
  901SOL    HW1 2905   2.520   1.547   2.449  0.6414 -0.6420 -0.1810
  901SOL    HW2 2906   2.633   1.570   2.352  0.4291  1.0045 -0.0653
  902SOL     OW 2907   2.079   1.793   1.722 -0.0073 -0.0088 -0.2211
  902SOL    HW1 2908   2.132   1.851   1.777 -1.1421  1.0301 -0.1592
  902SOL    HW2 2909   2.023   1.852   1.672 -1.7093 -1.0478  0.3514
  903SOL     OW 2910   2.177   1.580   0.675  0.7463  0.1900 -0.4291
  903SOL    HW1 2911   2.083   1.563   0.684  0.6731 -0.3757 -2.0713
  903SOL    HW2 2912   2.193   1.651   0.738 -1.0720  1.3163 -1.1352
  904SOL     OW 2913   4.374   2.277   0.757 -0.1657 -0.4536 -0.4731
  904SOL    HW1 2914   4.457   2.259   0.713  0.0877  0.0353 -0.2050
  904SOL    HW2 2915   4.383   2.235   0.843 -0.1279 -0.2574 -0.3806
  905SOL     OW 2916   1.710   3.434   1.094 -0.3607  0.0725  0.0352
  905SOL    HW1 2917   1.738   3.349   1.061  1.0669  0.0502  1.1639
  905SOL    HW2 2918   1.731   3.496   1.023 -0.8580 -0.4170 -0.5519
  906SOL     OW 2919   1.278   4.395   3.373 -0.4009  0.1028 -0.0797
  906SOL    HW1 2920   1.266   4.487   3.396 -2.2233 -0.3183  0.8263
  906SOL    HW2 2921   1.373   4.386   3.359 -0.1722  2.0755 -0.1107
  907SOL     OW 2922   1.276   0.735   2.222 -0.3134  0.1648  0.1440
  907SOL    HW1 2923   1.277   0.777   2.308  0.8552  1.9847 -0.7008
  907SOL    HW2 2924   1.284   0.642   2.241 -1.9704  0.3422  2.0616
  908SOL     OW 2925   0.778   2.272   0.694  0.2049 -0.2203  0.2508
  908SOL    HW1 2926   0.842   2.245   0.628 -0.1221 -0.5225  0.0573
  908SOL    HW2 2927   0.729   2.193   0.715 -0.4829  0.1291 -0.0148
  909SOL     OW 2928   1.526   3.619   1.837 -0.2455  0.2193  0.1792
  909SOL    HW1 2929   1.441   3.574   1.831 -1.2900  2.1612 -0.3240
  909SOL    HW2 2930   1.589   3.548   1.844 -1.8747 -1.3110  0.2303
  910SOL     OW 2931   3.608   0.932   2.936  0.1733 -0.0225  0.2697
  910SOL    HW1 2932   3.576   0.851   2.896  0.5036  0.2808 -0.6331
  910SOL    HW2 2933   3.700   0.936   2.910 -0.0833  1.1218 -0.5074
  911SOL     OW 2934   4.518   0.434   3.059 -0.1264  0.1103  0.0983
  911SOL    HW1 2935   4.582   0.493   3.020  0.4916 -0.0324  0.8784
  911SOL    HW2 2936   4.564   0.393   3.132 -1.2401  0.3286  0.9583
  912SOL     OW 2937   1.884   4.323   4.473  0.1901 -0.8060  0.0412
  912SOL    HW1 2938   1.977   4.344   4.483 -0.0779  0.0663  0.8071
  912SOL    HW2 2939   1.867   4.336   4.380  0.3917  1.0288  0.2218
  913SOL     OW 2940   4.269   4.212   2.333 -0.2457 -0.5353 -0.6754
  913SOL    HW1 2941   4.349   4.196   2.283  0.5896  1.2436 -0.0047
  913SOL    HW2 2942   4.245   4.302   2.310 -0.1862  0.1169  1.5867
  914SOL     OW 2943   1.452   4.089   0.368  0.2269  0.1290  0.4741
  914SOL    HW1 2944   1.497   4.010   0.336 -1.6109 -0.2049 -1.5385
  914SOL    HW2 2945   1.480   4.157   0.307 -1.1163  0.1439 -0.1524
  915SOL     OW 2946   2.890   2.834   4.477  0.2779 -0.1407 -0.6186
  915SOL    HW1 2947   2.913   2.742   4.465 -1.1710 -0.6022 -0.1214
  915SOL    HW2 2948   2.811   2.832   4.531 -0.7789  1.3085 -2.0150
  916SOL     OW 2949   4.663   0.914   2.771  0.0839  0.3025  0.1082
  916SOL    HW1 2950   4.658   1.009   2.757 -0.3058 -0.0779 -2.8424
  916SOL    HW2 2951   4.749   0.902   2.813 -0.8263  2.0914  2.7708
  917SOL     OW 2952   1.471   0.725   4.602 -0.5257  0.4533 -0.3158
  917SOL    HW1 2953   1.504   0.748   4.689 -1.6396 -0.7453  0.4629
  917SOL    HW2 2954   1.392   0.673   4.620 -0.8277  0.2780 -2.0485
  918SOL     OW 2955   3.287   0.640   4.047  0.2398  0.3097  0.5277
  918SOL    HW1 2956   3.281   0.660   4.140  0.5012 -0.5377  0.7410
  918SOL    HW2 2957   3.208   0.679   4.008  0.5284  1.3579  0.9606
  919SOL     OW 2958   0.221   0.943   3.814  0.1296  0.1422  0.3005
  919SOL    HW1 2959   0.301   0.988   3.787  1.3254 -1.5542  0.7683
  919SOL    HW2 2960   0.154   1.011   3.818  1.7087  1.7481  0.5517
  920SOL     OW 2961   2.357   3.756   2.880  0.0872  0.7139  0.3667
  920SOL    HW1 2962   2.414   3.679   2.883  0.4964  1.0370  1.6190
  920SOL    HW2 2963   2.412   3.827   2.915 -1.0884  1.0266  1.6539
  921SOL     OW 2964   2.412   2.804   3.394  0.7448  0.1445 -0.1936
  921SOL    HW1 2965   2.411   2.740   3.323 -0.8492  0.6738 -0.7031
  921SOL    HW2 2966   2.434   2.887   3.351  1.1019  0.2376  0.1629
  922SOL     OW 2967   4.587   0.817   1.573  0.3811  0.4081  0.1754
  922SOL    HW1 2968   4.534   0.812   1.652  0.3718 -0.6527  0.1095
  922SOL    HW2 2969   4.524   0.803   1.502  0.6621 -0.3772  0.0748
  923SOL     OW 2970   1.937   1.609   2.011 -0.2995  0.1769  0.2622
  923SOL    HW1 2971   1.980   1.684   2.051 -1.6981  1.2823 -0.2229
  923SOL    HW2 2972   1.972   1.533   2.058  1.4231  1.0734  0.5217
  924SOL     OW 2973   1.448   4.436   1.289 -0.4568 -0.2668  0.3577
  924SOL    HW1 2974   1.354   4.418   1.297 -0.5860  0.6456  1.1566
  924SOL    HW2 2975   1.487   4.386   1.361 -0.5750  0.8841  1.2515
  925SOL     OW 2976   1.132   3.073   4.226  0.2945  0.0645 -0.4971
  925SOL    HW1 2977   1.121   3.107   4.315  0.7233  0.1185 -0.4639
  925SOL    HW2 2978   1.129   3.151   4.170  2.3165  0.2972 -0.3379
  926SOL     OW 2979   0.810   3.678   1.512 -0.3282 -0.6230 -0.1916
  926SOL    HW1 2980   0.729   3.660   1.559 -0.1579 -0.8482  0.0217
  926SOL    HW2 2981   0.823   3.601   1.457 -1.3821  0.3304 -1.8551
  927SOL     OW 2982   3.310   3.987   1.883  0.0997  0.7192 -0.4861
  927SOL    HW1 2983   3.304   4.046   1.807  1.2500  0.1629 -1.0338
  927SOL    HW2 2984   3.387   3.933   1.865  2.0321  2.3173  2.3012
  928SOL     OW 2985   1.934   3.058   0.314  0.6721  0.1576 -0.1115
  928SOL    HW1 2986   1.905   3.099   0.232 -1.7498  1.7933  1.4459
  928SOL    HW2 2987   1.916   3.123   0.382  0.2949 -2.0332  2.0307
  929SOL     OW 2988   2.429   1.882   4.374  0.0729  0.1026  0.1288
  929SOL    HW1 2989   2.482   1.814   4.415  0.4748  1.0359  1.1768
  929SOL    HW2 2990   2.339   1.861   4.400  0.0282 -0.8104 -0.7010
  930SOL     OW 2991   4.318   4.422   2.832  0.3260 -0.2103 -0.4408
  930SOL    HW1 2992   4.337   4.359   2.901  1.0363 -0.7480 -1.1150
  930SOL    HW2 2993   4.326   4.507   2.874 -1.7879 -0.5377  0.7828
  931SOL     OW 2994   1.739   2.095   3.361 -0.4819  0.0763 -0.5343
  931SOL    HW1 2995   1.784   2.152   3.422 -1.7624  0.5690 -0.0157
  931SOL    HW2 2996   1.789   2.014   3.362  0.1690  0.4784  0.2929
  932SOL     OW 2997   2.735   1.551   1.769 -0.0435 -0.4387 -0.2687
  932SOL    HW1 2998   2.673   1.512   1.830  1.2852 -0.5739  1.0720
  932SOL    HW2 2999   2.748   1.485   1.701  0.0993 -1.2171  0.4982
  933SOL     OW 3000   1.180   2.081   3.138 -0.2550  0.3957  0.2616
  933SOL    HW1 3001   1.166   2.009   3.076  1.5561 -0.7490  1.0668
  933SOL    HW2 3002   1.117   2.147   3.113 -0.7535 -0.7305 -1.7024
  934SOL     OW 3003   3.723   4.229   4.670  0.2881 -0.9701 -0.1218
  934SOL    HW1 3004   3.785   4.182   4.727 -1.2276 -1.0467  1.5363
  934SOL    HW2 3005   3.737   4.321   4.691 -1.3505 -1.0624  1.6380
  935SOL     OW 3006   0.073   2.950   1.412  0.1360 -0.3168  0.0158
  935SOL    HW1 3007   0.141   2.901   1.366 -1.0159 -1.6720 -0.3008
  935SOL    HW2 3008   0.028   2.884   1.465  0.1492  0.8528  1.5726
  936SOL     OW 3009   4.296   2.570   0.697 -0.1467  0.2282 -0.3648
  936SOL    HW1 3010   4.207   2.574   0.663 -0.8140  1.6588  1.3798
  936SOL    HW2 3011   4.307   2.479   0.724 -0.6508 -0.2208 -1.6000
  937SOL     OW 3012   0.412   4.255   3.251  0.3322 -0.1875 -0.3344
  937SOL    HW1 3013   0.369   4.290   3.329  0.5494  1.0306 -0.7385
  937SOL    HW2 3014   0.379   4.309   3.179  1.8855  0.2536 -0.7637
  938SOL     OW 3015   0.081   0.836   2.895 -0.1271  0.2557 -0.1807
  938SOL    HW1 3016   0.131   0.755   2.893 -1.9555 -0.9562 -2.8414
  938SOL    HW2 3017   0.147   0.905   2.888  1.3161 -1.1814 -1.6062
  939SOL     OW 3018   3.500   2.593   3.233  0.8049 -0.9957  0.7081
  939SOL    HW1 3019   3.561   2.545   3.177  1.8746  0.5832  0.4430
  939SOL    HW2 3020   3.550   2.670   3.262 -1.4973  1.2583 -0.8096
  940SOL     OW 3021   0.101   1.888   1.008 -0.8835 -0.2277 -0.4642
  940SOL    HW1 3022   0.164   1.815   1.011 -0.1255  0.4066 -0.7014
  940SOL    HW2 3023   0.036   1.859   0.944  0.0373 -0.2251 -1.4444
  941SOL     OW 3024   0.802   0.106   2.465 -0.4586  0.1991 -0.0575
  941SOL    HW1 3025   0.713   0.070   2.463 -1.0123  1.4505  0.5167
  941SOL    HW2 3026   0.859   0.030   2.462 -1.5598 -0.6939  0.7046
  942SOL     OW 3027   2.547   1.425   1.900 -0.6601  0.2872 -0.0855
  942SOL    HW1 3028   2.533   1.336   1.868  1.0704 -0.4402  1.0464
  942SOL    HW2 3029   2.533   1.418   1.994 -0.6422  1.2588 -0.0070
  943SOL     OW 3030   2.561   2.489   4.660 -0.2809 -0.2313  0.1027
  943SOL    HW1 3031   2.475   2.456   4.634 -0.6713  1.1912 -0.4740
  943SOL    HW2 3032   2.607   2.504   4.578  0.3763 -0.5539  0.4008
  944SOL     OW 3033   3.791   1.154   2.048 -0.2455 -0.2336  0.1097
  944SOL    HW1 3034   3.775   1.178   1.956 -0.6280  1.9974  0.6811
  944SOL    HW2 3035   3.705   1.159   2.089  0.2039  0.9725  0.9913
  945SOL     OW 3036   2.268   3.764   4.038 -0.3021  0.6095 -0.6456
  945SOL    HW1 3037   2.274   3.791   4.129 -1.2699  1.6991 -0.8734
  945SOL    HW2 3038   2.262   3.846   3.989 -2.3930  0.0673 -1.4456
  946SOL     OW 3039   4.325   4.629   3.824  0.2510 -0.2583  0.1563
  946SOL    HW1 3040   4.413   4.615   3.792  0.7161  1.5442  0.5077
  946SOL    HW2 3041   4.295   4.543   3.852  1.8835 -0.9054  0.0094
  947SOL     OW 3042   2.726   2.703   4.172  0.3053 -0.0588  0.3140
  947SOL    HW1 3043   2.813   2.739   4.186  0.2867 -0.4116  1.4130
  947SOL    HW2 3044   2.670   2.781   4.162  0.3509  0.2410  2.1376
  948SOL     OW 3045   2.993   1.921   0.926 -0.5768 -0.4385  0.6174
  948SOL    HW1 3046   3.050   1.901   1.001 -1.2577 -1.4999  0.8725
  948SOL    HW2 3047   2.914   1.959   0.966 -0.5166 -0.0270  0.3489
  949SOL     OW 3048   1.781   0.069   0.048 -0.0432  0.0147 -0.4643
  949SOL    HW1 3049   1.752  -0.022   0.043 -0.3490  0.0407  0.6902
  949SOL    HW2 3050   1.861   0.067   0.099  0.1515  0.3552 -0.7474
  950SOL     OW 3051   3.697   3.643   1.707  0.3016 -0.4568 -0.2299
  950SOL    HW1 3052   3.638   3.580   1.665 -0.3022  0.1498 -0.3209
  950SOL    HW2 3053   3.726   3.700   1.635 -0.0184  0.0271  0.0170
  951SOL     OW 3054   3.196   3.140   3.519 -0.0645  0.1650  0.4596
  951SOL    HW1 3055   3.178   3.210   3.457 -0.0622  1.3341  1.7371
  951SOL    HW2 3056   3.157   3.062   3.479 -0.4095  0.9561 -0.8063
  952SOL     OW 3057   2.803   3.142   0.431 -0.0408 -0.2277  0.0992
  952SOL    HW1 3058   2.815   3.152   0.525 -0.1384  0.0952  0.0782
  952SOL    HW2 3059   2.885   3.171   0.392  1.3729 -3.5288  0.2177
  953SOL     OW 3060   3.875   4.004   0.649  0.2983 -0.3145 -0.3013
  953SOL    HW1 3061   3.802   4.066   0.649 -0.1443 -0.8153  0.5675
  953SOL    HW2 3062   3.952   4.057   0.668 -0.2828 -0.2226  2.0289
  954SOL     OW 3063   0.020   1.596   4.800 -0.8860  0.1885  0.0315
  954SOL    HW1 3064  -0.009   1.604   4.891  0.6374  0.3014  0.5332
  954SOL    HW2 3065  -0.058   1.569   4.752 -2.0363  1.3680  1.1495
  955SOL     OW 3066   0.096   4.353   1.425 -0.3183  0.5385  0.1511
  955SOL    HW1 3067   0.154   4.293   1.379 -0.0859  1.8074 -1.2766
  955SOL    HW2 3068   0.148   4.432   1.438 -1.4203  1.3691 -0.3211
  956SOL     OW 3069   2.498   3.032   2.187 -0.7048 -0.2694  0.3431
  956SOL    HW1 3070   2.411   2.992   2.187 -1.7520  1.7809 -1.3029
  956SOL    HW2 3071   2.558   2.959   2.176 -2.3489 -1.6039 -0.2038
  957SOL     OW 3072   1.881   0.488   3.719  0.3556  0.3788  0.1182
  957SOL    HW1 3073   1.943   0.513   3.787  0.3146  0.4195  0.1408
  957SOL    HW2 3074   1.912   0.533   3.640  0.5117  0.1806  0.0652
  958SOL     OW 3075   2.644   1.171   2.869  0.3296 -0.0999  0.4513
  958SOL    HW1 3076   2.730   1.170   2.827 -0.5575  1.3365 -1.5801
  958SOL    HW2 3077   2.638   1.258   2.908 -0.4151  0.0331  0.0585
  959SOL     OW 3078   4.806   1.301   1.465 -0.4767 -0.6009 -0.3287
  959SOL    HW1 3079   4.832   1.379   1.417 -2.5667  0.7200  0.5266
  959SOL    HW2 3080   4.834   1.317   1.555 -2.1085 -0.1542  0.1346
  960SOL     OW 3081   1.568   3.864   1.712 -0.3905 -0.7895 -0.1865
  960SOL    HW1 3082   1.486   3.838   1.669 -0.3521 -0.4108 -0.4909
  960SOL    HW2 3083   1.567   3.817   1.795 -0.8284 -0.9336 -0.2689
  961SOL     OW 3084   0.094   2.078   0.485  0.2071  0.5171  0.1944
  961SOL    HW1 3085   0.091   2.087   0.580 -1.7811 -1.7762  0.4535
  961SOL    HW2 3086   0.003   2.060   0.460  1.0406 -1.4035 -1.8081
  962SOL     OW 3087   1.424   1.594   2.888  0.2081 -0.0401 -0.0941
  962SOL    HW1 3088   1.502   1.544   2.914 -0.1773  0.3442  1.9063
  962SOL    HW2 3089   1.443   1.684   2.915 -0.5687  0.2418 -0.4606
  963SOL     OW 3090   1.943   3.333   3.042 -0.3827 -0.1171 -0.2233
  963SOL    HW1 3091   1.903   3.262   2.991 -2.9856  0.0805  1.3225
  963SOL    HW2 3092   1.983   3.289   3.117  0.8199 -0.1759 -0.8883
  964SOL     OW 3093   0.330   0.617   2.368  0.4202 -0.2494  0.0072
  964SOL    HW1 3094   0.384   0.570   2.305 -1.1314  0.1075 -1.6720
  964SOL    HW2 3095   0.247   0.633   2.322 -0.5385  0.6218  1.9116
  965SOL     OW 3096   2.740   2.725   0.972  0.3984  0.4287  0.2791
  965SOL    HW1 3097   2.660   2.704   1.020 -0.6310  2.5774 -0.3404
  965SOL    HW2 3098   2.713   2.724   0.880  1.3283  0.2303  0.0002
  966SOL     OW 3099   0.404   3.382   3.323 -0.1669  0.0075 -0.5527
  966SOL    HW1 3100   0.406   3.475   3.347 -0.9168 -0.4045  1.2690
  966SOL    HW2 3101   0.360   3.339   3.397  0.9926 -1.9304 -0.9070
  967SOL     OW 3102   2.281   0.010   3.874 -0.7815  0.6422  0.0227
  967SOL    HW1 3103   2.244   0.068   3.940 -0.6045  2.0886 -1.1170
  967SOL    HW2 3104   2.219  -0.064   3.870 -1.3038  1.0000  1.0887
  968SOL     OW 3105   1.446   2.746   0.212  0.3476 -0.0494 -0.3039
  968SOL    HW1 3106   1.389   2.820   0.235 -0.6160 -0.1578 -2.1358
  968SOL    HW2 3107   1.385   2.678   0.182  1.3391 -0.8289 -0.5959
  969SOL     OW 3108   0.813   0.625   4.769  0.1863  0.2678 -0.6775
  969SOL    HW1 3109   0.737   0.662   4.814  0.9330  0.5158  0.3981
  969SOL    HW2 3110   0.826   0.682   4.693  0.7189  1.6681  0.4167
  970SOL     OW 3111   3.263   4.119   1.592  0.4322  0.0207  0.0055
  970SOL    HW1 3112   3.262   4.042   1.534 -1.3235  0.3735 -0.4935
  970SOL    HW2 3113   3.206   4.182   1.548  2.6948  2.0858 -0.1636
  971SOL     OW 3114   0.707   2.865   3.902 -0.6278 -0.0880  0.4531
  971SOL    HW1 3115   0.784   2.884   3.955 -0.0673 -0.3964 -0.2250
  971SOL    HW2 3116   0.642   2.929   3.929  0.9311  2.3702 -1.2318
  972SOL     OW 3117   3.357   3.709   2.508  0.0482 -0.4866 -0.0098
  972SOL    HW1 3118   3.364   3.669   2.421  0.9027 -1.6808  0.5726
  972SOL    HW2 3119   3.429   3.671   2.558  0.6594  1.5180  0.7307
  973SOL     OW 3120   4.687   4.133   4.095 -0.1037  0.2813  0.1140
  973SOL    HW1 3121   4.637   4.055   4.069 -1.1143  0.6381  0.9236
  973SOL    HW2 3122   4.762   4.099   4.143 -0.1931 -0.2222 -0.0961
  974SOL     OW 3123   4.382   1.181   0.496  0.3172  0.0252  0.0580
  974SOL    HW1 3124   4.316   1.116   0.473  0.4778  0.1561 -0.8082
  974SOL    HW2 3125   4.446   1.132   0.549 -0.0846 -0.2709  0.2751
  975SOL     OW 3126   0.413   3.093   0.450 -0.4317 -0.2053 -0.0864
  975SOL    HW1 3127   0.380   3.183   0.453 -1.1956 -0.4665 -0.5486
  975SOL    HW2 3128   0.418   3.067   0.541 -2.1476 -0.3843 -0.0157
  976SOL     OW 3129   2.382   0.090   4.406  0.2714  0.1575 -0.1412
  976SOL    HW1 3130   2.385   0.116   4.314  0.1911 -1.9679 -0.7968
  976SOL    HW2 3131   2.292   0.109   4.434  0.1734  0.3951 -0.6076
  977SOL     OW 3132   0.974   3.345   4.228 -0.3315  0.2985  0.3385
  977SOL    HW1 3133   0.897   3.392   4.195  0.3517  1.4222  0.2699
  977SOL    HW2 3134   1.032   3.339   4.152 -0.0356  0.1354  0.5756
  978SOL     OW 3135   1.292   3.329   1.538  0.4042  0.4021 -0.3767
  978SOL    HW1 3136   1.306   3.262   1.471 -0.0220 -1.5781  1.3705
  978SOL    HW2 3137   1.198   3.345   1.535  0.6416  1.7354 -1.4659
  979SOL     OW 3138   2.184   0.683   4.765 -0.4373  0.6556 -0.2817
  979SOL    HW1 3139   2.118   0.616   4.742 -0.1882  0.7417 -1.2956
  979SOL    HW2 3140   2.189   0.679   4.860 -4.1598  2.7414  0.2186
  980SOL     OW 3141   1.456   2.700   1.528  0.7901  0.0997 -0.2897
  980SOL    HW1 3142   1.396   2.759   1.575 -0.2387 -0.5995 -0.6789
  980SOL    HW2 3143   1.494   2.754   1.459 -0.2217  0.2973 -0.7070
  981SOL     OW 3144   2.650   1.488   4.064 -0.0492 -0.2973 -0.2782
  981SOL    HW1 3145   2.741   1.508   4.087 -0.3898  0.2695  0.5888
  981SOL    HW2 3146   2.598   1.522   4.137 -1.0443  0.3651 -1.2562
  982SOL     OW 3147   1.094   0.263   4.510  0.3527 -1.2622  0.1373
  982SOL    HW1 3148   1.109   0.358   4.513  0.5847 -1.2681 -0.5971
  982SOL    HW2 3149   1.054   0.242   4.594  1.8785 -0.7822  1.0247
  983SOL     OW 3150   2.199   4.192   1.908  0.4448  0.1373 -0.3178
  983SOL    HW1 3151   2.204   4.221   1.817  0.5366  1.9673  0.2269
  983SOL    HW2 3152   2.207   4.272   1.959  2.2997 -1.0360  1.3812
  984SOL     OW 3153   2.710   2.442   2.781 -0.0824 -0.2131 -0.3749
  984SOL    HW1 3154   2.793   2.482   2.808 -0.3785 -0.9235  1.8347
  984SOL    HW2 3155   2.720   2.424   2.688  2.2019 -0.1798 -0.1739
  985SOL     OW 3156   3.816   0.844   3.343 -0.3479  0.3248 -0.0070
  985SOL    HW1 3157   3.797   0.765   3.394 -0.0062  0.7343  0.7758
  985SOL    HW2 3158   3.731   0.873   3.310 -0.3512 -0.9743 -1.2463
  986SOL     OW 3159   2.856   3.704   1.031 -0.0133 -0.9237 -0.2166
  986SOL    HW1 3160   2.787   3.770   1.036  1.9913  1.3273 -0.6108
  986SOL    HW2 3161   2.892   3.713   0.942  1.5259 -1.2473  0.3445
  987SOL     OW 3162   2.247   2.194   4.382  0.6094  0.0438 -0.3224
  987SOL    HW1 3163   2.306   2.197   4.306 -0.2656 -0.5803 -1.0435
  987SOL    HW2 3164   2.159   2.192   4.344  0.0176  2.6040  0.7627
  988SOL     OW 3165   2.375   1.438   0.823 -0.1809  0.0242  0.1052
  988SOL    HW1 3166   2.315   1.391   0.882  0.0846 -0.7586 -0.2288
  988SOL    HW2 3167   2.325   1.450   0.743  0.0361 -0.4539 -0.1050
  989SOL     OW 3168   0.187   0.944   4.593 -0.0242  0.3467 -0.2716
  989SOL    HW1 3169   0.142   1.003   4.654 -0.1908 -1.3456  1.3261
  989SOL    HW2 3170   0.152   0.858   4.614  2.5328 -0.7769 -0.3266
  990SOL     OW 3171   3.430   2.200   2.500 -0.5044 -0.1208 -0.2961
  990SOL    HW1 3172   3.373   2.123   2.507 -1.3209  0.6252  2.0007
  990SOL    HW2 3173   3.490   2.192   2.573  0.8461  0.3285 -1.3267
  991SOL     OW 3174   3.838   1.085   2.516  0.3436  0.0949  0.9065
  991SOL    HW1 3175   3.898   1.155   2.542 -0.2591  0.3586  1.6273
  991SOL    HW2 3176   3.764   1.130   2.476 -0.9704  0.0616  3.1416
  992SOL     OW 3177   3.056   1.272   1.277 -0.1532  0.0515  0.2872
  992SOL    HW1 3178   3.034   1.206   1.343  0.6225  1.7498  2.3610
  992SOL    HW2 3179   2.993   1.343   1.292  1.1096  1.1943  0.4005
  993SOL     OW 3180   0.547   4.797   3.532  0.2458  0.9378 -0.1250
  993SOL    HW1 3181   0.636   4.801   3.569 -0.4206  2.4480  1.4213
  993SOL    HW2 3182   0.557   4.831   3.443  1.5894 -1.1852 -0.8927
  994SOL     OW 3183   3.398   1.616   4.061 -0.0895 -0.2947 -0.5148
  994SOL    HW1 3184   3.319   1.583   4.104  1.2896 -0.5408  2.0295
  994SOL    HW2 3185   3.400   1.709   4.084  0.7794 -0.4749  0.1753
  995SOL     OW 3186   1.110   4.538   1.741 -0.1207 -0.5602  0.1580
  995SOL    HW1 3187   1.162   4.513   1.818 -1.1954 -1.4739  0.6212
  995SOL    HW2 3188   1.173   4.541   1.669  0.5801 -1.7474  0.6870
  996SOL     OW 3189   4.194   2.478   3.152  0.1277 -0.3088 -0.7274
  996SOL    HW1 3190   4.180   2.420   3.227  1.8255 -0.3185 -0.3692
  996SOL    HW2 3191   4.201   2.565   3.191 -0.3048 -0.1379 -1.0292
  997SOL     OW 3192   2.990   2.980   3.403 -0.0943 -0.7090  0.1863
  997SOL    HW1 3193   2.935   3.058   3.389  0.7589 -0.4741 -2.4408
  997SOL    HW2 3194   2.935   2.907   3.376  0.0106 -0.7487  0.0829
  998SOL     OW 3195   0.486   3.150   2.408  0.7813 -0.1730 -0.2961
  998SOL    HW1 3196   0.399   3.134   2.443  0.0343 -0.2917 -2.0981
  998SOL    HW2 3197   0.543   3.157   2.485 -0.9565  0.8125  0.9515
  999SOL     OW 3198   3.325   4.421   4.612  0.3740 -0.3733 -0.0979
  999SOL    HW1 3199   3.326   4.416   4.516 -0.3594 -0.6543 -0.0978
  999SOL    HW2 3200   3.383   4.495   4.633 -0.6775  0.7002 -0.8398
 1000SOL     OW 3201   3.154   3.834   2.300  0.2408  0.4180 -0.1938
 1000SOL    HW1 3202   3.191   3.772   2.363 -0.7209  0.0024 -0.0274
 1000SOL    HW2 3203   3.099   3.892   2.352  1.5653  1.8174 -0.2532
 1001SOL     OW 3204   3.312   2.435   3.366  0.5501  0.0296 -0.4309
 1001SOL    HW1 3205   3.334   2.354   3.412  0.4095 -0.2062 -0.7719
 1001SOL    HW2 3206   3.396   2.470   3.337  0.4961 -0.9634 -1.8920
 1002SOL     OW 3207   1.759   0.666   4.528 -0.1565 -0.0060 -0.1663
 1002SOL    HW1 3208   1.679   0.713   4.549 -0.2387 -0.7863  1.4251
 1002SOL    HW2 3209   1.735   0.606   4.457 -1.0175 -0.3119  0.3774
 1003SOL     OW 3210   2.172   4.108   4.477 -0.1937 -0.2231  0.1583
 1003SOL    HW1 3211   2.203   4.037   4.534  0.1820  0.1135  0.3754
 1003SOL    HW2 3212   2.127   4.063   4.406  0.7132 -0.7245 -0.1148
 1004SOL     OW 3213   1.056   2.378   2.710  0.1602 -0.1432 -0.6891
 1004SOL    HW1 3214   1.093   2.290   2.705  0.5568 -0.0539  0.4201
 1004SOL    HW2 3215   0.964   2.367   2.686  0.1232 -0.9305 -0.2115
 1005SOL     OW 3216   3.079   1.459   3.097 -0.5550  0.3624 -0.0970
 1005SOL    HW1 3217   3.135   1.386   3.069  0.6432  1.1260  0.2597
 1005SOL    HW2 3218   3.139   1.532   3.112 -1.2948  0.4943  2.8395
 1006SOL     OW 3219   3.121   0.441   2.410 -0.3028  0.1201  0.9130
 1006SOL    HW1 3220   3.186   0.475   2.471 -0.3005 -0.3562  1.1823
 1006SOL    HW2 3221   3.140   0.486   2.328  1.3399 -1.0742  0.5782
 1007SOL     OW 3222   1.241   0.131   4.126  0.0622 -0.1969 -0.7485
 1007SOL    HW1 3223   1.150   0.138   4.099 -0.1131  0.5721 -0.0175
 1007SOL    HW2 3224   1.256   0.037   4.137 -0.4762 -0.3610 -1.3943
 1008SOL     OW 3225   0.513   4.200   2.123  0.5196  0.0832  0.2633
 1008SOL    HW1 3226   0.555   4.115   2.110 -0.1282 -0.4016  1.2170
 1008SOL    HW2 3227   0.530   4.248   2.042  1.2230 -0.8126 -0.1349
 1009SOL     OW 3228   3.221   1.840   1.857  0.0008 -0.2487  0.2802
 1009SOL    HW1 3229   3.143   1.788   1.835 -0.7522  0.3097  1.5478
 1009SOL    HW2 3230   3.187   1.928   1.874  0.9311  0.0401  0.7053
 1010SOL     OW 3231   2.492   4.102   4.651  0.2547 -0.6552  0.2700
 1010SOL    HW1 3232   2.458   4.023   4.610 -2.4732 -0.4066  1.8417
 1010SOL    HW2 3233   2.456   4.174   4.599 -3.5145 -0.3233  2.9136
 1011SOL     OW 3234   0.975   3.734   4.419 -0.3046  0.4738  0.0543
 1011SOL    HW1 3235   0.937   3.814   4.384  0.6672  0.9703  0.0907
 1011SOL    HW2 3236   0.997   3.755   4.510 -1.0464 -0.1939  0.4006
 1012SOL     OW 3237   2.336   0.166   3.657  0.3392 -0.2765 -0.4677
 1012SOL    HW1 3238   2.270   0.145   3.591  1.4348  0.1259 -1.7383
 1012SOL    HW2 3239   2.324   0.099   3.725  0.8084 -2.3357 -2.2821
 1013SOL     OW 3240   1.101   2.619   4.666  0.0746 -0.5298  0.1099
 1013SOL    HW1 3241   1.055   2.636   4.584 -2.3754 -0.2383  1.4323
 1013SOL    HW2 3242   1.158   2.695   4.679 -0.6362  0.1363 -0.5890
 1014SOL     OW 3243   0.099   3.400   1.153 -0.8490  0.2668 -0.1970
 1014SOL    HW1 3244   0.024   3.406   1.093 -1.1898  0.5664  0.2521
 1014SOL    HW2 3245   0.059   3.398   1.240 -0.4835 -2.3642 -0.0165
 1015SOL     OW 3246   3.133   4.711   0.987  0.8190 -0.1455 -0.2717
 1015SOL    HW1 3247   3.164   4.742   0.902  2.0682  0.1687  0.2869
 1015SOL    HW2 3248   3.039   4.734   0.987  1.0098  0.7400 -1.1649
 1016SOL     OW 3249   1.975   2.475   1.775 -0.1727  0.4029 -0.5516
 1016SOL    HW1 3250   1.938   2.487   1.862  0.6113  1.0689 -0.2988
 1016SOL    HW2 3251   1.926   2.536   1.720  1.0471  1.8908 -0.0568
 1017SOL     OW 3252   0.277   4.206   1.284  0.4496 -0.2718 -0.1612
 1017SOL    HW1 3253   0.258   4.116   1.311 -0.5389  0.0215  0.1190
 1017SOL    HW2 3254   0.372   4.205   1.267  0.3910 -1.4567 -0.5258
 1018SOL     OW 3255   3.201   4.111   3.241  0.3454 -0.1924  0.4253
 1018SOL    HW1 3256   3.288   4.071   3.245  0.3409 -0.1605  0.8665
 1018SOL    HW2 3257   3.154   4.061   3.174  0.4557 -0.6936  0.7231
 1019SOL     OW 3258   0.320   3.207   3.548  0.0014 -0.0121  0.0758
 1019SOL    HW1 3259   0.389   3.243   3.605  1.2745 -0.0305 -1.3990
 1019SOL    HW2 3260   0.362   3.135   3.502 -1.5632 -1.2279  0.4833
 1020SOL     OW 3261   4.447   3.873   3.513 -0.4343 -0.1025  0.0780
 1020SOL    HW1 3262   4.462   3.967   3.501  1.4233 -0.3934 -0.1657
 1020SOL    HW2 3263   4.427   3.864   3.606 -0.5975  0.5415  0.1084
 1021SOL     OW 3264   4.605   3.401   4.061  0.5992 -0.0256  0.0497
 1021SOL    HW1 3265   4.571   3.401   4.151 -0.9109  1.3597 -0.4704
 1021SOL    HW2 3266   4.527   3.404   4.006  1.5206  1.2747 -1.2575
 1022SOL     OW 3267   0.102   3.974   2.598 -0.0583  0.2075 -0.3105
 1022SOL    HW1 3268   0.136   3.965   2.687 -1.1287  1.7923  0.3042
 1022SOL    HW2 3269   0.039   4.046   2.604  0.3976  0.8405 -2.5116
 1023SOL     OW 3270   3.631   2.519   4.284  0.7278 -0.1388  0.1174
 1023SOL    HW1 3271   3.550   2.529   4.332  1.1324  3.0235  0.3340
 1023SOL    HW2 3272   3.664   2.433   4.310 -2.1623 -1.2421  0.5001
 1024SOL     OW 3273   4.789   2.082   3.392  0.4889 -0.2968  0.2045
 1024SOL    HW1 3274   4.777   1.987   3.386 -2.7512  0.0377 -0.2650
 1024SOL    HW2 3275   4.740   2.117   3.318 -2.0129  1.8927  2.6723
 1025SOL     OW 3276   2.317   3.569   3.865  0.5244  0.0710  0.9331
 1025SOL    HW1 3277   2.398   3.531   3.900 -0.4002 -1.2894  1.6998
 1025SOL    HW2 3278   2.275   3.610   3.940 -1.2084 -2.3969  1.4286
 1026SOL     OW 3279   0.390   4.557   2.940  0.0098  0.1026  0.1214
 1026SOL    HW1 3280   0.306   4.598   2.960 -0.5221 -1.2829  0.8695
 1026SOL    HW2 3281   0.388   4.474   2.988  0.2775 -1.6613 -2.7173
 1027SOL     OW 3282   0.651   0.961   1.009  0.3278  0.3829  0.1893
 1027SOL    HW1 3283   0.741   0.966   1.042  0.8524 -1.0233 -0.9097
 1027SOL    HW2 3284   0.618   0.878   1.044 -0.0382  0.2117 -0.5479
 1028SOL     OW 3285   3.129   3.491   3.587  0.1672 -0.1778  0.0579
 1028SOL    HW1 3286   3.187   3.548   3.536  0.6866 -1.0501 -0.3425
 1028SOL    HW2 3287   3.109   3.419   3.527 -1.5567  0.2358  0.0888
 1029SOL     OW 3288   4.424   2.573   3.337  0.2403  0.2963 -0.8116
 1029SOL    HW1 3289   4.388   2.625   3.266 -0.8714  1.0339  0.2536
 1029SOL    HW2 3290   4.436   2.635   3.409  1.6417 -0.3619 -0.4445
 1030SOL     OW 3291   3.448   3.184   0.539 -0.1637  0.2036  0.3651
 1030SOL    HW1 3292   3.418   3.274   0.524 -2.1829 -0.4866 -0.0587
 1030SOL    HW2 3293   3.542   3.186   0.517 -0.3163  2.0394 -0.2858
 1031SOL     OW 3294   1.741   0.815   1.196  0.7802 -0.0731 -0.0433
 1031SOL    HW1 3295   1.827   0.783   1.222  1.0394  0.3543 -0.3625
 1031SOL    HW2 3296   1.711   0.868   1.269 -0.0975 -1.8318  0.9372
 1032SOL     OW 3297   1.731   3.042   4.749 -0.4588  0.4002  0.7653
 1032SOL    HW1 3298   1.827   3.033   4.749 -0.4399  0.6167  0.6773
 1032SOL    HW2 3299   1.702   2.982   4.680 -0.4612 -0.4875  1.5062
 1033SOL     OW 3300   4.734   2.696   3.780  0.0080 -0.0908 -0.7044
 1033SOL    HW1 3301   4.816   2.725   3.740  0.3685 -0.0808  0.0136
 1033SOL    HW2 3302   4.667   2.752   3.741  0.2773 -0.4241 -1.6548
 1034SOL     OW 3303   1.144   1.036   3.430  0.1488 -0.2487 -0.7417
 1034SOL    HW1 3304   1.058   1.002   3.454  0.5659 -1.0055 -0.2938
 1034SOL    HW2 3305   1.125   1.107   3.369 -0.7781 -0.7952 -1.1129
 1035SOL     OW 3306   0.061   3.961   3.438  0.2827  0.7011  0.2973
 1035SOL    HW1 3307   0.147   4.002   3.429  1.1785 -0.8857  1.3048
 1035SOL    HW2 3308   0.079   3.867   3.441 -1.5251  0.3123  0.1766
 1036SOL     OW 3309   4.227   3.350   4.164 -0.1784 -0.0589  0.3255
 1036SOL    HW1 3310   4.227   3.443   4.142  3.2383 -0.2323 -1.0227
 1036SOL    HW2 3311   4.246   3.306   4.081  0.6888 -1.7576  1.3835
 1037SOL     OW 3312   3.230   1.697   3.123  0.1682 -0.1408  0.3751
 1037SOL    HW1 3313   3.194   1.733   3.204 -0.1556  0.4537 -0.0284
 1037SOL    HW2 3314   3.325   1.712   3.130  0.0153  1.0358  0.1062
 1038SOL     OW 3315   2.010   3.518   4.036 -0.2649  0.4034 -0.2023
 1038SOL    HW1 3316   1.973   3.565   4.110  1.4029  1.4579  0.0079
 1038SOL    HW2 3317   2.050   3.440   4.074 -0.8440  0.0951 -0.2200
 1039SOL     OW 3318   2.156   1.867   4.147  0.3108 -0.8498 -0.5748
 1039SOL    HW1 3319   2.093   1.845   4.079  1.0353 -1.4210 -1.0842
 1039SOL    HW2 3320   2.131   1.812   4.221 -1.2133  0.6359  0.0845
 1040SOL     OW 3321   1.573   0.517   0.748  0.3085  0.3131 -0.4310
 1040SOL    HW1 3322   1.613   0.512   0.661 -1.2170  1.0867 -1.2125
 1040SOL    HW2 3323   1.490   0.471   0.740 -0.2903  1.2011  0.3479
 1041SOL     OW 3324   0.675   0.705   1.730  0.2672  0.1817  0.3761
 1041SOL    HW1 3325   0.712   0.677   1.647  0.2846 -1.3587  0.8662
 1041SOL    HW2 3326   0.634   0.789   1.711  2.1613  0.9291 -0.6564
 1042SOL     OW 3327   2.440   3.573   0.284 -0.5499  0.3180  0.0721
 1042SOL    HW1 3328   2.455   3.585   0.378  0.8789 -1.8576  0.1998
 1042SOL    HW2 3329   2.515   3.615   0.242 -0.5788  0.2816 -0.0164
 1043SOL     OW 3330   2.306   3.301   3.127  0.2199  0.2139 -0.0537
 1043SOL    HW1 3331   2.240   3.369   3.143  1.0570  1.3781 -1.2650
 1043SOL    HW2 3332   2.256   3.221   3.116 -1.2320  1.3548 -2.6869
 1044SOL     OW 3333   3.712   3.829   4.817 -0.9560  0.0036 -0.2509
 1044SOL    HW1 3334   3.687   3.859   4.729  0.3827  1.0205 -0.3146
 1044SOL    HW2 3335   3.747   3.741   4.802  1.7413  1.1362 -1.2135
 1045SOL     OW 3336   1.748   3.547   1.344 -0.4900  0.0966 -0.1771
 1045SOL    HW1 3337   1.728   3.504   1.262 -1.1647  1.1617 -0.5980
 1045SOL    HW2 3338   1.687   3.508   1.407 -0.0428 -0.6435 -0.1890
 1046SOL     OW 3339   2.712   4.228   3.814 -0.2049 -0.4563 -0.2879
 1046SOL    HW1 3340   2.779   4.265   3.872 -0.5364 -1.0931  0.5214
 1046SOL    HW2 3341   2.630   4.237   3.862 -0.7409  0.4467 -1.3365
 1047SOL     OW 3342   1.002   0.602   2.341  0.0382 -0.1357  0.3828
 1047SOL    HW1 3343   1.035   0.513   2.329  3.6369  1.2770 -1.6848
 1047SOL    HW2 3344   0.989   0.636   2.253 -1.1536  1.4409  1.1104
 1048SOL     OW 3345   0.008   1.851   1.861 -0.0810  0.5279 -0.2945
 1048SOL    HW1 3346   0.022   1.788   1.789 -0.8247 -0.7748  0.6524
 1048SOL    HW2 3347   0.007   1.936   1.818  2.3002  0.0498 -1.4675
 1049SOL     OW 3348   3.919   0.563   2.795 -0.6709 -0.7865  0.3233
 1049SOL    HW1 3349   3.828   0.589   2.809 -0.4128 -0.6108  1.9147
 1049SOL    HW2 3350   3.924   0.538   2.703 -1.9179  0.8229 -0.2201
 1050SOL     OW 3351   3.679   3.420   0.859  0.5503  0.2315 -0.4121
 1050SOL    HW1 3352   3.719   3.442   0.943 -1.1033  2.3833 -0.0894
 1050SOL    HW2 3353   3.605   3.480   0.852  0.1913 -0.4066 -3.0797
 1051SOL     OW 3354   0.973   0.161   3.169  0.7704  0.3937  0.9097
 1051SOL    HW1 3355   1.040   0.228   3.185  0.6137  0.9288 -0.5212
 1051SOL    HW2 3356   1.019   0.078   3.182  1.6089  0.7574  0.3767
 1052SOL     OW 3357   0.893   0.226   1.293 -0.4861  0.0841 -0.1760
 1052SOL    HW1 3358   0.819   0.271   1.333  0.8561  2.8964 -0.5935
 1052SOL    HW2 3359   0.967   0.246   1.352  0.2963 -1.0598 -0.7436
 1053SOL     OW 3360   4.496   1.069   2.547  0.0773 -0.1861 -0.0071
 1053SOL    HW1 3361   4.536   0.992   2.506 -0.7547 -0.5470 -0.1633
 1053SOL    HW2 3362   4.402   1.052   2.544 -0.1342  0.9012 -0.1663
 1054SOL     OW 3363   0.400   0.820   4.480 -0.1260  0.2118 -0.0372
 1054SOL    HW1 3364   0.384   0.911   4.504  0.4708 -0.2174  2.2342
 1054SOL    HW2 3365   0.343   0.769   4.537  1.5363 -0.9153  0.7060
 1055SOL     OW 3366   4.801   1.370   4.554 -0.5656 -0.0938  0.0146
 1055SOL    HW1 3367   4.728   1.325   4.511 -1.3777  0.9388  0.2741
 1055SOL    HW2 3368   4.761   1.445   4.598  0.4924 -0.1335  1.1220
 1056SOL     OW 3369   1.533   4.664   1.176 -0.3082 -0.2609 -0.4890
 1056SOL    HW1 3370   1.533   4.745   1.227  1.6025  1.2434 -2.6507
 1056SOL    HW2 3371   1.509   4.596   1.239 -1.3048  1.8652  1.5864
 1057SOL     OW 3372   0.758   2.580   1.146 -0.5060  0.1500 -0.4863
 1057SOL    HW1 3373   0.725   2.490   1.140  1.9833 -0.8876 -0.1916
 1057SOL    HW2 3374   0.719   2.625   1.072 -1.3687 -1.3531 -0.9998
 1058SOL     OW 3375   2.069   0.553   3.892 -0.2473  0.0166  0.1952
 1058SOL    HW1 3376   2.080   0.640   3.931  1.8017  0.2568 -0.7685
 1058SOL    HW2 3377   2.158   0.522   3.878 -0.9161 -1.2358 -1.6732
 1059SOL     OW 3378   1.290   4.808   4.729  0.6733 -0.0166 -0.2908
 1059SOL    HW1 3379   1.307   4.838   4.640  1.8729  2.4975  0.6947
 1059SOL    HW2 3380   1.370   4.764   4.755 -0.2263 -2.1536 -0.8994
 1060SOL     OW 3381   2.859   2.420   2.242  0.1961  0.5726  0.1415
 1060SOL    HW1 3382   2.834   2.328   2.244 -0.5552  0.7716  0.9422
 1060SOL    HW2 3383   2.807   2.458   2.171 -0.8628  0.7196  0.9628
 1061SOL     OW 3384   3.408   0.907   4.786 -0.3436  0.4225  0.1715
 1061SOL    HW1 3385   3.448   0.853   4.854  2.8056  1.0349 -1.0552
 1061SOL    HW2 3386   3.333   0.856   4.756  0.0444 -1.2980  1.8995
 1062SOL     OW 3387   2.547   4.816   1.306  0.1321 -0.4922 -0.2689
 1062SOL    HW1 3388   2.489   4.891   1.317  0.4193 -0.1861 -0.8162
 1062SOL    HW2 3389   2.634   4.849   1.328  0.3391 -0.5207 -1.0192
 1063SOL     OW 3390   0.450   1.148   3.596  0.0732  0.1286 -1.0304
 1063SOL    HW1 3391   0.413   1.197   3.669  0.6185 -1.2327  0.2074
 1063SOL    HW2 3392   0.425   1.199   3.518 -0.3314  1.7383  0.0909
 1064SOL     OW 3393   1.503   2.769   2.695  0.4197 -0.0272  0.4141
 1064SOL    HW1 3394   1.499   2.858   2.728  0.1117  0.2576 -0.3552
 1064SOL    HW2 3395   1.415   2.751   2.662  0.3549 -0.7776  0.9601
 1065SOL     OW 3396   2.813   1.901   2.852 -0.0583 -0.6654 -0.4311
 1065SOL    HW1 3397   2.903   1.886   2.882  0.1894 -2.3269 -1.8515
 1065SOL    HW2 3398   2.761   1.902   2.932  1.4039  2.4038  0.6526
 1066SOL     OW 3399   4.498   4.670   2.259  0.0107 -0.4586 -0.2510
 1066SOL    HW1 3400   4.568   4.695   2.320 -0.2509 -2.9701  1.2142
 1066SOL    HW2 3401   4.422   4.721   2.286  0.5367  0.2605 -0.0927
 1067SOL     OW 3402   2.514   1.630   0.691 -0.4471  0.3392 -0.0023
 1067SOL    HW1 3403   2.560   1.583   0.621 -1.5154  1.6726 -1.7089
 1067SOL    HW2 3404   2.476   1.561   0.745 -1.0187 -0.8041 -1.7487
 1068SOL     OW 3405   1.674   0.748   2.463 -0.4898 -0.9370 -1.0064
 1068SOL    HW1 3406   1.716   0.663   2.475  0.0115 -0.5544  0.0628
 1068SOL    HW2 3407   1.595   0.744   2.516  0.9331  0.2057  1.3461
 1069SOL     OW 3408   0.115   3.449   0.523 -0.2814  0.0275  0.1622
 1069SOL    HW1 3409   0.139   3.427   0.613 -0.6617 -0.9691  0.0339
 1069SOL    HW2 3410   0.199   3.467   0.480  0.2430 -2.6284 -0.0796
 1070SOL     OW 3411   0.374   3.920   4.524 -0.5216  0.2898  0.0827
 1070SOL    HW1 3412   0.444   3.983   4.541 -0.9475  0.5968  0.7400
 1070SOL    HW2 3413   0.391   3.888   4.436  0.1136  0.7956  0.0180
 1071SOL     OW 3414   3.496   4.677   1.550 -0.0121 -0.0043 -0.0966
 1071SOL    HW1 3415   3.464   4.767   1.549 -0.0917 -0.0283  0.2064
 1071SOL    HW2 3416   3.577   4.680   1.498  0.1516  0.3076  0.1698
 1072SOL     OW 3417   1.914   3.061   3.141  0.1941 -0.1654  0.0311
 1072SOL    HW1 3418   2.007   3.054   3.163  0.1688 -0.1934  0.1287
 1072SOL    HW2 3419   1.912   3.054   3.045  0.2940 -0.1472  0.0273
 1073SOL     OW 3420   3.382   2.923   0.606 -0.2918  0.5421  0.2116
 1073SOL    HW1 3421   3.406   3.008   0.570  0.5376  0.7444  1.1930
 1073SOL    HW2 3422   3.310   2.941   0.666 -0.5568  0.4567 -0.0823
 1074SOL     OW 3423   4.400   0.867   0.701  0.4076 -0.0812 -0.2395
 1074SOL    HW1 3424   4.383   0.887   0.794  1.6009 -0.6064  0.0995
 1074SOL    HW2 3425   4.490   0.895   0.686 -0.1121  1.0178 -1.5523
 1075SOL     OW 3426   3.563   0.586   4.019  0.1700 -0.1014 -0.4532
 1075SOL    HW1 3427   3.474   0.612   4.042 -0.3937  0.1593 -2.6508
 1075SOL    HW2 3428   3.566   0.592   3.923  2.4056 -0.6009 -0.4846
 1076SOL     OW 3429   0.987   1.209   1.027  0.2075  0.0301  0.5328
 1076SOL    HW1 3430   1.053   1.149   1.063 -0.5959 -0.4162  1.2936
 1076SOL    HW2 3431   0.940   1.241   1.103  0.3391  1.3147  0.0940
 1077SOL     OW 3432   1.972   4.276   3.104  0.0942  0.3935  0.0727
 1077SOL    HW1 3433   2.005   4.343   3.164  3.4838  0.3993 -1.6113
 1077SOL    HW2 3434   1.916   4.324   3.043  1.0636  1.3949 -0.0526
 1078SOL     OW 3435   1.386   2.983   4.718  0.5609  0.3576 -0.2853
 1078SOL    HW1 3436   1.428   2.916   4.665  0.3446  0.2086 -0.2672
 1078SOL    HW2 3437   1.372   3.056   4.658  0.7447  0.3655 -0.3186
 1079SOL     OW 3438   2.888   0.194   1.015 -0.1156 -0.0750 -0.2744
 1079SOL    HW1 3439   2.979   0.191   1.046  0.5618 -0.4305 -2.1389
 1079SOL    HW2 3440   2.877   0.114   0.964 -1.1967  0.3806 -0.8022
 1080SOL     OW 3441   4.430   3.271   1.431  0.3127  0.1685 -0.2887
 1080SOL    HW1 3442   4.395   3.185   1.407 -1.3313  1.0079 -1.1053
 1080SOL    HW2 3443   4.458   3.309   1.347 -1.8855  1.6155 -0.4377
 1081SOL     OW 3444   2.885   4.631   3.953  0.4647  0.1861 -0.0218
 1081SOL    HW1 3445   2.841   4.652   4.036  0.7295 -0.2087  0.2186
 1081SOL    HW2 3446   2.904   4.717   3.915 -1.4031  0.3911 -0.6241
 1082SOL     OW 3447   1.979   2.786   3.708 -0.2960 -0.9180  0.3736
 1082SOL    HW1 3448   1.953   2.868   3.750 -1.3785 -0.7455 -0.5682
 1082SOL    HW2 3449   2.034   2.813   3.634 -1.9184 -0.8900 -0.8770
 1083SOL     OW 3450   0.156   2.157   1.521 -0.7288  0.5752  0.2067
 1083SOL    HW1 3451   0.202   2.073   1.530  0.0942  1.0514  0.5325
 1083SOL    HW2 3452   0.122   2.174   1.609 -1.0429  0.5085  0.1003
 1084SOL     OW 3453   4.691   0.219   4.740  0.1905  0.5994 -0.4071
 1084SOL    HW1 3454   4.701   0.314   4.738  0.5708  0.6374  1.3741
 1084SOL    HW2 3455   4.662   0.200   4.830  1.1069 -1.0404 -0.4220
 1085SOL     OW 3456   0.450   0.646   0.258  0.1127  0.1849 -0.5527
 1085SOL    HW1 3457   0.507   0.577   0.293  0.5926  0.1924 -1.2829
 1085SOL    HW2 3458   0.508   0.721   0.246 -0.5255  0.9214  0.7800
 1086SOL     OW 3459   3.491   0.613   3.540 -0.4113  0.3586  0.1230
 1086SOL    HW1 3460   3.480   0.661   3.459  0.3888 -0.2312 -0.3545
 1086SOL    HW2 3461   3.414   0.635   3.593 -0.1338  2.0196 -0.1354
 1087SOL     OW 3462   3.440   4.714   3.802  0.5301 -0.1652 -0.3163
 1087SOL    HW1 3463   3.357   4.670   3.818 -1.3915  2.5494 -1.9929
 1087SOL    HW2 3464   3.422   4.807   3.817  3.2390  0.5472 -0.8401
 1088SOL     OW 3465   1.675   0.494   4.096 -0.1261 -0.4898 -0.0960
 1088SOL    HW1 3466   1.655   0.535   4.181  1.9970 -0.9276  0.6678
 1088SOL    HW2 3467   1.598   0.440   4.078 -1.1675  0.5747  0.9213
 1089SOL     OW 3468   3.826   2.991   4.719  0.4198  0.3937  0.4013
 1089SOL    HW1 3469   3.860   2.989   4.808  0.9710  1.2620  0.2267
 1089SOL    HW2 3470   3.827   2.900   4.690  0.3012  0.1191  1.2544
 1090SOL     OW 3471   1.981   3.661   0.778 -0.0972  0.9561 -0.5105
 1090SOL    HW1 3472   1.946   3.741   0.738 -0.0990  1.1981 -0.0291
 1090SOL    HW2 3473   2.076   3.672   0.774 -0.0997  1.5300  0.6269
 1091SOL     OW 3474   1.931   0.634   1.626 -0.1087  0.3346 -0.2320
 1091SOL    HW1 3475   1.842   0.662   1.607  0.1843  1.8408  0.4389
 1091SOL    HW2 3476   1.921   0.554   1.677 -1.0563  0.2800 -0.4815
 1092SOL     OW 3477   0.292   0.053   0.617 -0.0715 -0.4269 -0.4444
 1092SOL    HW1 3478   0.297   0.042   0.712  0.1177  0.0491 -0.3972
 1092SOL    HW2 3479   0.326  -0.029   0.581 -1.9930 -1.4336 -0.1024
 1093SOL     OW 3480   3.732   3.446   3.620 -0.6286 -0.3243  0.3832
 1093SOL    HW1 3481   3.811   3.488   3.586 -0.5161 -1.2120 -0.4837
 1093SOL    HW2 3482   3.669   3.518   3.627  0.2199  0.3802  1.0163
 1094SOL     OW 3483   1.027   1.371   3.921 -0.0129  0.0207 -0.9300
 1094SOL    HW1 3484   1.060   1.432   3.986 -0.0943 -1.1350  0.2277
 1094SOL    HW2 3485   1.060   1.286   3.948 -1.4400 -0.7288 -1.4471
 1095SOL     OW 3486   4.593   3.848   4.066  0.1527 -0.3842  0.0040
 1095SOL    HW1 3487   4.516   3.793   4.056  0.4318 -0.5143 -1.9553
 1095SOL    HW2 3488   4.653   3.797   4.121 -0.6614 -0.8141  0.5032
 1096SOL     OW 3489   4.752   0.423   4.361  0.7434  0.1225 -0.3680
 1096SOL    HW1 3490   4.824   0.447   4.419 -0.2140  0.8282  0.5420
 1096SOL    HW2 3491   4.677   0.413   4.419  0.7125 -3.7585 -0.8052
 1097SOL     OW 3492   1.541   0.516   0.205 -0.4694 -1.0222 -0.5440
 1097SOL    HW1 3493   1.502   0.604   0.210 -1.4387 -1.4867  0.8196
 1097SOL    HW2 3494   1.618   0.527   0.149 -0.3785  0.7809 -0.1420
 1098SOL     OW 3495   3.286   2.360   4.393 -0.0843  0.7314 -0.6207
 1098SOL    HW1 3496   3.215   2.378   4.455 -0.5665 -0.5302 -0.7889
 1098SOL    HW2 3497   3.280   2.430   4.328 -0.4491  1.2736 -0.0139
 1099SOL     OW 3498   4.062   2.537   0.077  0.3726  0.2257  0.1274
 1099SOL    HW1 3499   4.123   2.470   0.046 -0.4092  0.4420 -2.0429
 1099SOL    HW2 3500   4.111   2.619   0.071  1.6982 -0.0990  3.7834
 1100SOL     OW 3501   2.378   2.057   2.911  0.3160  0.6976  0.0523
 1100SOL    HW1 3502   2.462   2.047   2.865  0.8108 -1.3329  1.2612
 1100SOL    HW2 3503   2.360   1.970   2.947 -1.5677  1.4683  1.1146
 1101SOL     OW 3504   1.828   2.265   3.867 -0.2854 -0.1615 -0.1539
 1101SOL    HW1 3505   1.865   2.351   3.851  0.8109  0.1706  3.2340
 1101SOL    HW2 3506   1.897   2.203   3.845  0.0306  0.0455  0.2494
 1102SOL     OW 3507   3.632   4.373   2.250 -0.2041 -0.2772 -0.8836
 1102SOL    HW1 3508   3.545   4.333   2.249 -0.0535 -0.7140 -3.5306
 1102SOL    HW2 3509   3.625   4.445   2.312 -1.6885 -1.8224  0.8752
 1103SOL     OW 3510   0.023   3.101   4.188  0.8256  0.1486 -0.2283
 1103SOL    HW1 3511   0.109   3.115   4.149  0.8650  1.0573  0.1522
 1103SOL    HW2 3512  -0.038   3.134   4.122  0.8305  0.4984 -0.0630
 1104SOL     OW 3513   4.385   4.009   1.221  0.0757  0.1327  0.0627
 1104SOL    HW1 3514   4.440   4.003   1.299  0.1393  2.0633  0.2141
 1104SOL    HW2 3515   4.310   4.063   1.247 -0.1883  0.3491 -1.0479
 1105SOL     OW 3516   3.432   2.167   3.157  0.0354 -0.4623  0.2379
 1105SOL    HW1 3517   3.523   2.139   3.161  0.3362  0.4946  0.5456
 1105SOL    HW2 3518   3.421   2.224   3.233 -0.8089 -0.5422  0.1863
 1106SOL     OW 3519   1.941   1.239   3.950  0.4160 -0.0829 -0.2330
 1106SOL    HW1 3520   2.020   1.218   3.900  2.1211  1.4388  1.6453
 1106SOL    HW2 3521   1.917   1.156   3.992  2.0425 -0.2357  0.4793
 1107SOL     OW 3522   1.991   0.412   0.661  0.2051 -0.2071 -0.1070
 1107SOL    HW1 3523   1.969   0.331   0.706 -0.7651 -0.8833 -1.6982
 1107SOL    HW2 3524   1.909   0.438   0.618  0.9009  0.7861 -0.8670
 1108SOL     OW 3525   0.755   4.540   2.561  0.6075  0.2894  0.1031
 1108SOL    HW1 3526   0.757   4.466   2.500  1.4368  0.0031  0.4717
 1108SOL    HW2 3527   0.670   4.533   2.604 -1.5374  2.3509 -3.2634
 1109SOL     OW 3528   4.817   2.732   0.880  0.0008  0.1609  0.1858
 1109SOL    HW1 3529   4.820   2.785   0.960  4.3503  0.5750 -0.0028
 1109SOL    HW2 3530   4.860   2.649   0.905 -2.4018 -1.4726 -0.7536
 1110SOL     OW 3531   4.539   3.683   0.555 -0.3982  0.0454 -0.4144
 1110SOL    HW1 3532   4.523   3.699   0.462  0.0488  1.1357 -0.3206
 1110SOL    HW2 3533   4.496   3.756   0.599 -0.1763 -0.1948  0.2006
 1111SOL     OW 3534   3.988   3.590   1.716  0.1939  0.6562 -0.1434
 1111SOL    HW1 3535   3.892   3.581   1.720  0.3167 -0.4897  0.6117
 1111SOL    HW2 3536   4.011   3.639   1.794  0.3123  0.0177  0.2276
 1112SOL     OW 3537   1.110   3.827   2.441  0.3637 -0.1642  0.1962
 1112SOL    HW1 3538   1.161   3.748   2.425  0.6990  0.2432 -0.7706
 1112SOL    HW2 3539   1.100   3.868   2.355 -1.4511 -0.1508  0.3763
 1113SOL     OW 3540   0.637   3.355   1.556 -0.0981  0.7318 -0.1982
 1113SOL    HW1 3541   0.551   3.326   1.525 -0.3445  1.4291 -0.1862
 1113SOL    HW2 3542   0.619   3.436   1.603  0.3366 -0.0437  1.3737
 1114SOL     OW 3543   0.715   2.814   2.980 -0.0193 -0.0423  0.3520
 1114SOL    HW1 3544   0.792   2.764   3.008  0.4204  0.2611 -0.2830
 1114SOL    HW2 3545   0.656   2.749   2.944 -0.6721 -0.4704  2.0856
 1115SOL     OW 3546   2.664   3.698   0.193  0.0885  0.3160  0.9124
 1115SOL    HW1 3547   2.652   3.780   0.145 -0.8054 -0.9091 -1.1021
 1115SOL    HW2 3548   2.664   3.630   0.125 -0.0094 -1.4274  2.5667
 1116SOL     OW 3549   4.521   1.510   0.929  0.3429  0.1798 -0.2702
 1116SOL    HW1 3550   4.472   1.552   0.999  2.2288  1.5199  0.3346
 1116SOL    HW2 3551   4.466   1.520   0.852 -1.5550 -0.8900  0.8695
 1117SOL     OW 3552   4.002   1.159   4.678  0.4415  0.0238  0.2170
 1117SOL    HW1 3553   3.970   1.131   4.592  1.4167 -0.0126 -0.1449
 1117SOL    HW2 3554   4.033   1.248   4.665 -1.0031  0.6784  0.9593
 1118SOL     OW 3555   4.577   3.618   3.440 -0.2925  0.6168 -0.6221
 1118SOL    HW1 3556   4.571   3.562   3.518  1.1240 -1.0875 -1.6527
 1118SOL    HW2 3557   4.561   3.707   3.473 -1.0337 -0.1869  1.3660
 1119SOL     OW 3558   0.517   4.635   1.386 -0.3232  0.2981  0.3449
 1119SOL    HW1 3559   0.588   4.679   1.340  1.6663 -0.9917  1.9693
 1119SOL    HW2 3560   0.530   4.542   1.367 -2.6241  0.1250 -0.6407
 1120SOL     OW 3561   0.627   1.248   2.233  0.2450 -0.2856  0.1366
 1120SOL    HW1 3562   0.554   1.274   2.289 -0.0050  1.1766 -0.8112
 1120SOL    HW2 3563   0.600   1.273   2.145  0.2986 -3.2456 -0.8201
 1121SOL     OW 3564   3.667   2.118   1.691  0.1780  0.2129  0.2655
 1121SOL    HW1 3565   3.647   2.085   1.604  0.3821  0.3088  0.1819
 1121SOL    HW2 3566   3.587   2.163   1.719 -1.6489 -3.5855  1.9668
 1122SOL     OW 3567   3.376   1.177   1.629  0.4860 -0.5300  0.3680
 1122SOL    HW1 3568   3.355   1.123   1.552  1.2078  0.5718 -0.6222
 1122SOL    HW2 3569   3.462   1.147   1.657  0.6386 -0.2735  0.1686
 1123SOL     OW 3570   2.832   4.085   4.441  0.0845  0.5401 -0.0925
 1123SOL    HW1 3571   2.825   4.169   4.486 -1.3266 -0.3510  1.4692
 1123SOL    HW2 3572   2.893   4.034   4.494  0.2480  0.2688 -0.5334
 1124SOL     OW 3573   0.885   2.245   4.484 -0.1332  0.6917 -0.3428
 1124SOL    HW1 3574   0.969   2.211   4.515  0.3413  1.3374 -0.9050
 1124SOL    HW2 3575   0.908   2.318   4.427 -1.1386  2.2056  1.1270
 1125SOL     OW 3576   3.060   1.847   2.943  0.6644  0.0383  0.2875
 1125SOL    HW1 3577   3.117   1.923   2.954  0.5371  0.2156 -0.2865
 1125SOL    HW2 3578   3.102   1.778   2.995  0.7303  0.5230  0.8800
 1126SOL     OW 3579   2.441   0.638   4.501 -0.4313 -0.4464 -0.1088
 1126SOL    HW1 3580   2.368   0.601   4.452 -1.4414  0.9900  0.2295
 1126SOL    HW2 3581   2.501   0.670   4.434 -1.8356  1.5718 -0.4950
 1127SOL     OW 3582   2.349   3.251   1.146 -0.1773  0.4834 -0.2032
 1127SOL    HW1 3583   2.254   3.238   1.148  0.2228 -4.5035  0.1490
 1127SOL    HW2 3584   2.365   3.291   1.061 -2.5639  1.0561 -0.4714
 1128SOL     OW 3585   2.130   3.821   4.677 -0.7481 -0.3135 -0.0322
 1128SOL    HW1 3586   2.045   3.809   4.634  0.7481 -1.0106 -3.0525
 1128SOL    HW2 3587   2.172   3.736   4.673  1.4574  0.7598 -1.8950
 1129SOL     OW 3588   2.724   1.681   4.352 -0.0186 -0.3137  0.2824
 1129SOL    HW1 3589   2.758   1.599   4.387  0.6702  0.2291  0.9247
 1129SOL    HW2 3590   2.679   1.723   4.426  1.7753  1.0150  0.6995
 1130SOL     OW 3591   3.397   1.401   0.090 -0.5127 -0.3221  0.0611
 1130SOL    HW1 3592   3.333   1.471   0.082  0.3722  0.4541 -0.3580
 1130SOL    HW2 3593   3.356   1.326   0.047 -1.2825  0.0575  0.1239
 1131SOL     OW 3594   4.399   2.081   1.851  0.1014 -0.0951  0.0536
 1131SOL    HW1 3595   4.304   2.090   1.854 -0.3145 -2.4035 -2.0690
 1131SOL    HW2 3596   4.424   2.122   1.768  1.0367  0.8589  0.7864
 1132SOL     OW 3597   1.066   0.354   1.971 -0.8168  0.2345  0.1690
 1132SOL    HW1 3598   1.124   0.334   2.044 -1.4265 -1.5763  0.1885
 1132SOL    HW2 3599   0.978   0.352   2.009 -1.0660  0.5135 -0.3803
 1133SOL     OW 3600   3.374   1.133   4.044  0.3070 -0.6251 -0.3280
 1133SOL    HW1 3601   3.283   1.129   4.075  0.1643  1.0417 -0.4374
 1133SOL    HW2 3602   3.425   1.091   4.114 -0.4264 -0.5403  0.2725
 1134SOL     OW 3603   0.344   3.546   4.377 -0.0920 -0.1164 -0.0827
 1134SOL    HW1 3604   0.299   3.590   4.304  0.9336  0.0210 -0.6603
 1134SOL    HW2 3605   0.275   3.503   4.426 -0.9302  0.6944 -0.5187
 1135SOL     OW 3606   1.545   3.619   3.562 -0.2429 -0.1865  0.1606
 1135SOL    HW1 3607   1.493   3.663   3.629 -0.8441  0.4510 -0.6908
 1135SOL    HW2 3608   1.630   3.603   3.603 -0.1238  1.4691  0.6198
 1136SOL     OW 3609   2.759   2.074   3.478 -0.0075 -0.0446  0.5275
 1136SOL    HW1 3610   2.666   2.055   3.474 -0.5647  2.4154 -0.2532
 1136SOL    HW2 3611   2.791   2.025   3.553 -2.2080  0.0945  1.6301
 1137SOL     OW 3612   3.910   3.342   2.471  0.7724  0.0649 -0.1302
 1137SOL    HW1 3613   3.982   3.389   2.428  0.7660  0.2209  0.0271
 1137SOL    HW2 3614   3.836   3.351   2.410  1.1580 -0.9825 -0.7811
 1138SOL     OW 3615   1.786   2.625   0.596  0.6412  0.0227  0.3309
 1138SOL    HW1 3616   1.809   2.635   0.689  1.1546 -0.1032  0.2209
 1138SOL    HW2 3617   1.840   2.690   0.551  0.3138  0.1572  0.1292
 1139SOL     OW 3618   4.374   3.598   0.892  0.1950 -0.4956 -0.2567
 1139SOL    HW1 3619   4.332   3.655   0.956 -0.8259 -2.3816  0.8705
 1139SOL    HW2 3620   4.467   3.608   0.909  0.0244  0.4868  0.2034
 1140SOL     OW 3621   2.437   2.921   0.350  0.2162  0.1368 -0.0674
 1140SOL    HW1 3622   2.353   2.937   0.307 -0.1007  1.4837  0.9977
 1140SOL    HW2 3623   2.469   3.007   0.374  0.9724 -0.4903  1.2741
 1141SOL     OW 3624   3.728   3.947   1.976  0.2965 -0.3965 -0.6163
 1141SOL    HW1 3625   3.766   3.912   2.056 -0.7554  0.8266  0.4657
 1141SOL    HW2 3626   3.682   4.027   2.004  0.3074  0.3231 -2.5142
 1142SOL     OW 3627   0.228   0.603   3.592 -0.1603 -0.0784 -0.4676
 1142SOL    HW1 3628   0.318   0.632   3.609  0.1990 -1.6802  0.6070
 1142SOL    HW2 3629   0.193   0.669   3.532  1.2385  1.4069  0.2442
 1143SOL     OW 3630   1.271   3.882   2.714 -1.0496 -0.0105 -0.4644
 1143SOL    HW1 3631   1.309   3.829   2.644  2.8771  0.2184  1.2735
 1143SOL    HW2 3632   1.249   3.965   2.672 -1.9567 -0.9968 -2.0380
 1144SOL     OW 3633   0.280   4.398   4.632  0.1858  0.1798 -0.4676
 1144SOL    HW1 3634   0.345   4.468   4.626  0.7062 -0.3012 -0.5204
 1144SOL    HW2 3635   0.216   4.419   4.564  1.2569 -0.3263 -1.6748
 1145SOL     OW 3636   1.561   1.820   2.761 -0.5260 -0.0353  0.1776
 1145SOL    HW1 3637   1.623   1.892   2.751 -1.0543  0.4210  0.1576
 1145SOL    HW2 3638   1.616   1.742   2.769  0.0782  0.4628  1.0522
 1146SOL     OW 3639   4.765   2.503   1.666 -0.0877 -0.1454  0.2267
 1146SOL    HW1 3640   4.788   2.527   1.756 -1.4614  1.4194  0.2011
 1146SOL    HW2 3641   4.734   2.413   1.672  1.4949 -0.6794  1.0032
 1147SOL     OW 3642   4.003   2.420   2.573  0.2200  0.0431  0.9472
 1147SOL    HW1 3643   4.083   2.471   2.588  1.0561 -1.6729  2.7019
 1147SOL    HW2 3644   3.991   2.423   2.478  2.1702  0.6424  0.6651
 1148SOL     OW 3645   4.487   2.109   1.416  0.1061  0.1655 -0.1656
 1148SOL    HW1 3646   4.519   2.172   1.480 -2.2020 -1.3377  2.7229
 1148SOL    HW2 3647   4.559   2.048   1.403  1.4875  1.9181 -1.0853
 1149SOL     OW 3648   3.166   1.970   3.570  0.1231 -0.1799  0.2645
 1149SOL    HW1 3649   3.100   2.038   3.558 -1.0198 -1.2848  0.0796
 1149SOL    HW2 3650   3.139   1.924   3.649  2.8062  1.6641  2.4390
 1150SOL     OW 3651   2.691   4.508   1.689  0.0863 -0.0818  0.1369
 1150SOL    HW1 3652   2.618   4.478   1.743 -1.5928 -1.3465 -2.6293
 1150SOL    HW2 3653   2.650   4.565   1.623  2.1070  1.7606  0.3470
 1151SOL     OW 3654   0.726   1.830   1.075 -0.1140 -0.0715  0.2820
 1151SOL    HW1 3655   0.807   1.792   1.107 -1.2060 -1.6764  1.2879
 1151SOL    HW2 3656   0.699   1.772   1.003 -0.1298  0.7367 -0.3797
 1152SOL     OW 3657   0.269   1.909   1.529 -0.5061  0.0621 -0.2490
 1152SOL    HW1 3658   0.358   1.924   1.496 -0.6293  0.6535 -0.3247
 1152SOL    HW2 3659   0.283   1.864   1.612 -0.1463 -0.1906 -0.4422
 1153SOL     OW 3660   1.944   4.042   0.463 -1.1855 -0.5165 -0.3735
 1153SOL    HW1 3661   1.877   4.109   0.468 -0.0927  0.7224 -1.5701
 1153SOL    HW2 3662   2.026   4.090   0.459 -0.3251 -1.9381 -0.5422
 1154SOL     OW 3663   2.084   0.016   1.892  0.2721  0.3190 -0.1564
 1154SOL    HW1 3664   2.042  -0.034   1.823  0.3278  0.9694 -0.6662
 1154SOL    HW2 3665   2.164  -0.033   1.913 -0.1494 -0.3056  0.0199
 1155SOL     OW 3666   3.172   0.787   4.723  0.0407  0.2958 -0.2409
 1155SOL    HW1 3667   3.155   0.694   4.742  0.0370  0.2425 -0.5087
 1155SOL    HW2 3668   3.088   0.830   4.742 -0.3398  0.0680 -1.3036
 1156SOL     OW 3669   4.446   4.447   0.318 -0.4332  0.2085  0.2312
 1156SOL    HW1 3670   4.505   4.477   0.387  0.3203 -1.7479  0.4800
 1156SOL    HW2 3671   4.435   4.354   0.334 -0.4449 -0.2621 -2.1132
 1157SOL     OW 3672   4.312   3.780   4.712  0.1302  0.2959 -0.5942
 1157SOL    HW1 3673   4.375   3.719   4.674 -0.2413 -0.5559  0.1374
 1157SOL    HW2 3674   4.238   3.725   4.738 -0.1164  1.0258  0.2846
 1158SOL     OW 3675   2.413   2.247   0.178 -0.1530  0.2332 -0.1374
 1158SOL    HW1 3676   2.347   2.242   0.248  1.1383 -0.9218  1.0721
 1158SOL    HW2 3677   2.432   2.340   0.170  0.5300  0.3511  1.9842
 1159SOL     OW 3678   2.829   4.033   1.665 -0.0772 -0.2050 -0.0592
 1159SOL    HW1 3679   2.791   4.119   1.650 -0.8421 -0.3406  0.9229
 1159SOL    HW2 3680   2.845   4.030   1.760  2.8426 -0.0078 -0.4833
 1160SOL     OW 3681   3.784   4.792   0.686  0.1903  0.7398 -0.4659
 1160SOL    HW1 3682   3.854   4.834   0.636 -0.8532  0.6624 -2.0566
 1160SOL    HW2 3683   3.805   4.699   0.683  0.5091  0.7998 -0.1444
 1161SOL     OW 3684   1.049   3.505   3.074 -0.1044  0.0074  0.2097
 1161SOL    HW1 3685   1.121   3.491   3.013  0.0873 -0.8550  0.6209
 1161SOL    HW2 3686   0.970   3.493   3.021  0.0609 -0.3126  0.0341
 1162SOL     OW 3687   2.807   0.949   2.060  0.4350  0.0549 -0.5258
 1162SOL    HW1 3688   2.877   0.914   2.005  1.3777 -0.0199  0.6740
 1162SOL    HW2 3689   2.727   0.926   2.014  1.0842 -2.0402 -0.7427
 1163SOL     OW 3690   1.184   2.638   0.145 -0.1433  0.6741 -0.4100
 1163SOL    HW1 3691   1.095   2.636   0.182 -0.0232  2.0888  0.0152
 1163SOL    HW2 3692   1.191   2.724   0.104  1.0378  0.5779 -0.4387
 1164SOL     OW 3693   0.293   0.222   1.983 -0.5646  0.0673 -0.0234
 1164SOL    HW1 3694   0.372   0.187   1.941 -0.1914 -0.2999  0.9531
 1164SOL    HW2 3695   0.227   0.222   1.913 -0.4345 -2.1055 -0.2112
 1165SOL     OW 3696   4.012   2.910   0.721 -0.1382  0.2307 -0.0590
 1165SOL    HW1 3697   4.017   3.000   0.752  0.7381 -0.1993  1.1038
 1165SOL    HW2 3698   4.008   2.857   0.800 -0.4558 -0.7742 -0.7248
 1166SOL     OW 3699   1.955   1.903   3.451 -0.5558  0.1953 -0.0373
 1166SOL    HW1 3700   2.036   1.954   3.455 -0.3800 -0.1526  1.1317
 1166SOL    HW2 3701   1.934   1.885   3.542  0.1804 -3.0683 -0.4107
 1167SOL     OW 3702   3.182   3.446   2.530 -0.2251 -0.2549  0.1074
 1167SOL    HW1 3703   3.252   3.420   2.471 -1.2392  1.1008 -1.8161
 1167SOL    HW2 3704   3.157   3.365   2.575  0.4309 -1.4195 -1.5298
 1168SOL     OW 3705   2.865   4.776   0.907 -0.3143 -1.0314  0.3311
 1168SOL    HW1 3706   2.791   4.720   0.931 -0.2477 -1.2083  0.1223
 1168SOL    HW2 3707   2.860   4.784   0.812 -1.3627  0.7605  0.4978
 1169SOL     OW 3708   1.302   0.888   2.459  0.3868  0.0422 -0.5524
 1169SOL    HW1 3709   1.256   0.844   2.529  0.6721  0.5754 -0.0176
 1169SOL    HW2 3710   1.306   0.980   2.486  1.6454  0.0376 -0.6370
 1170SOL     OW 3711   0.372   1.383   2.855 -0.2203 -0.5871 -0.1182
 1170SOL    HW1 3712   0.355   1.443   2.782 -0.3198  0.6381  0.8701
 1170SOL    HW2 3713   0.296   1.392   2.912  1.5717  1.7304  2.2285
 1171SOL     OW 3714   3.493   4.455   0.657 -0.2309 -0.1171  0.3074
 1171SOL    HW1 3715   3.559   4.523   0.646  0.0544 -0.2975  0.8608
 1171SOL    HW2 3716   3.468   4.431   0.568  0.2307  0.1695  0.0982
 1172SOL     OW 3717   3.679   3.165   4.041 -0.2170  0.2500  0.1567
 1172SOL    HW1 3718   3.775   3.161   4.045 -0.2731 -0.4506  1.1395
 1172SOL    HW2 3719   3.658   3.257   4.057  0.1911 -0.1330  3.4353
 1173SOL     OW 3720   1.008   3.517   1.989 -0.6833 -0.1004 -0.4713
 1173SOL    HW1 3721   0.953   3.447   2.026  1.0468 -1.4843 -0.4113
 1173SOL    HW2 3722   1.090   3.512   2.038 -0.2342  1.5014 -0.9876
 1174SOL     OW 3723   0.269   3.787   2.373 -0.1153 -0.3211  0.0460
 1174SOL    HW1 3724   0.312   3.872   2.373  0.1748 -0.4086 -1.9292
 1174SOL    HW2 3725   0.295   3.747   2.290 -3.8671 -0.4686 -1.2413
 1175SOL     OW 3726   1.303   1.674   0.343 -0.5830 -0.1442 -0.2067
 1175SOL    HW1 3727   1.307   1.631   0.429  1.3626  0.8518  0.2509
 1175SOL    HW2 3728   1.211   1.698   0.333 -0.9620 -0.8237  1.3280
 1176SOL     OW 3729   1.175   4.766   3.862  0.1345  0.1890  0.6061
 1176SOL    HW1 3730   1.166   4.860   3.878 -1.2704  0.9099 -3.3743
 1176SOL    HW2 3731   1.098   4.727   3.904  0.4688  0.8368  1.8625
 1177SOL     OW 3732   1.373   2.308   0.770  0.8697  0.5565 -0.0482
 1177SOL    HW1 3733   1.342   2.388   0.728  0.5443 -1.0007 -3.0417
 1177SOL    HW2 3734   1.465   2.301   0.744  0.7526 -0.3040 -0.2588
 1178SOL     OW 3735   0.745   2.165   2.871 -0.0769 -0.1751 -0.6421
 1178SOL    HW1 3736   0.771   2.230   2.806 -2.1723  1.8461  0.3738
 1178SOL    HW2 3737   0.649   2.169   2.872 -0.1695 -1.4209  1.3104
 1179SOL     OW 3738   4.528   4.127   3.638 -1.1171 -0.4561 -0.1703
 1179SOL    HW1 3739   4.463   4.114   3.706  0.2566 -0.2640  1.2249
 1179SOL    HW2 3740   4.541   4.222   3.635 -0.1968 -0.5529  0.2802
 1180SOL     OW 3741   2.435   4.551   2.669 -0.1439 -0.5456 -0.2023
 1180SOL    HW1 3742   2.368   4.487   2.690 -0.6906 -0.1828 -0.8304
 1180SOL    HW2 3743   2.388   4.634   2.659  0.4007 -0.2687 -0.5672
 1181SOL     OW 3744   3.182   0.448   1.739 -0.0309  0.0723  0.3347
 1181SOL    HW1 3745   3.181   0.534   1.782 -4.1621  1.2338 -1.4732
 1181SOL    HW2 3746   3.130   0.392   1.796 -2.0231  0.4718 -0.9594
 1182SOL     OW 3747   1.800   2.919   0.593  0.0206 -0.4973 -0.5529
 1182SOL    HW1 3748   1.790   3.014   0.587  2.0212 -0.3357 -3.4094
 1182SOL    HW2 3749   1.894   2.905   0.581 -0.5432 -2.9032 -2.9626
 1183SOL     OW 3750   4.651   1.336   0.286 -0.3921 -0.3461  0.1407
 1183SOL    HW1 3751   4.608   1.299   0.209 -1.2757  2.3363 -0.7533
 1183SOL    HW2 3752   4.744   1.314   0.274 -0.4942  0.0600 -1.7454
 1184SOL     OW 3753   0.119   4.641   2.941  0.2811  0.5967 -0.2536
 1184SOL    HW1 3754   0.085   4.610   2.856  1.9483 -0.2018 -0.6825
 1184SOL    HW2 3755   0.041   4.663   2.991 -0.8679 -0.8668 -1.2755
 1185SOL     OW 3756   3.198   0.103   4.569  0.0045  0.0674 -0.1422
 1185SOL    HW1 3757   3.158   0.106   4.483 -1.5859 -1.9161  0.4451
 1185SOL    HW2 3758   3.271   0.042   4.560  1.7060  2.1180 -0.7310
 1186SOL     OW 3759   3.006   2.508   0.095 -0.2429  0.2414 -0.7647
 1186SOL    HW1 3760   2.931   2.497   0.154  0.4848  0.2784  0.2039
 1186SOL    HW2 3761   3.079   2.468   0.142  0.0461 -1.1957 -2.3810
 1187SOL     OW 3762   2.446   3.441   1.720 -0.5531  0.5638 -0.1969
 1187SOL    HW1 3763   2.407   3.493   1.789 -1.1479  0.5455 -0.5138
 1187SOL    HW2 3764   2.540   3.460   1.725 -0.5963  0.5600  0.6057
 1188SOL     OW 3765   4.553   2.984   0.023  0.1959 -0.2238 -0.0654
 1188SOL    HW1 3766   4.599   3.064  -0.003 -0.4245 -0.1474 -0.9724
 1188SOL    HW2 3767   4.462   3.000  -0.004  0.0154 -1.1331 -0.0041
 1189SOL     OW 3768   0.740   0.590   1.207 -0.0386 -0.0750  0.3495
 1189SOL    HW1 3769   0.702   0.678   1.214 -0.3421 -0.0607 -1.1729
 1189SOL    HW2 3770   0.698   0.552   1.130  0.4459 -1.3886  0.7133
 1190SOL     OW 3771   2.819   3.451   3.684 -0.8177 -0.5256  0.0890
 1190SOL    HW1 3772   2.797   3.535   3.722 -0.2780  0.2433 -1.2335
 1190SOL    HW2 3773   2.887   3.470   3.619 -1.4369 -1.8089 -1.0043
 1191SOL     OW 3774   4.084   3.201   0.419  0.1541  0.0733 -0.3081
 1191SOL    HW1 3775   4.085   3.253   0.499  1.0590 -1.0608  0.4445
 1191SOL    HW2 3776   4.176   3.190   0.396 -0.0632 -0.3357 -1.0286
 1192SOL     OW 3777   1.638   0.366   2.701 -0.7587 -0.2816  0.1856
 1192SOL    HW1 3778   1.660   0.431   2.768 -1.4816 -0.2262  0.3795
 1192SOL    HW2 3779   1.673   0.284   2.735  2.2742  0.3254 -1.1329
 1193SOL     OW 3780   3.841   1.465   3.505 -0.0150 -0.2162 -0.3133
 1193SOL    HW1 3781   3.778   1.412   3.456 -0.8295  0.7310 -0.3227
 1193SOL    HW2 3782   3.867   1.534   3.444  1.4283 -0.8674 -0.4717
 1194SOL     OW 3783   4.459   0.839   1.822 -0.0934  0.5557 -0.3864
 1194SOL    HW1 3784   4.540   0.861   1.869 -0.3182  1.7913 -0.5607
 1194SOL    HW2 3785   4.432   0.756   1.861  0.6692  0.6745  0.4481
 1195SOL     OW 3786   0.067   1.086   1.296 -0.3803  0.8458  0.3705
 1195SOL    HW1 3787   0.005   1.151   1.329 -1.9621  1.0856 -2.7039
 1195SOL    HW2 3788   0.095   1.121   1.211  0.7806 -1.2458 -0.1798
 1196SOL     OW 3789   1.420   1.973   1.569  0.1489  0.1346 -0.2169
 1196SOL    HW1 3790   1.346   2.029   1.592  0.4944  0.2551  0.6159
 1196SOL    HW2 3791   1.428   1.982   1.474 -1.1298 -0.1617 -0.3706
 1197SOL     OW 3792   1.298   3.587   3.215  0.2092  1.1711  0.0244
 1197SOL    HW1 3793   1.355   3.548   3.281 -0.3843 -0.9690 -0.6452
 1197SOL    HW2 3794   1.348   3.580   3.133 -0.6524  0.0189 -0.4287
 1198SOL     OW 3795   2.914   1.414   4.170 -0.7380  0.0340  0.1798
 1198SOL    HW1 3796   2.991   1.393   4.222 -0.9105  1.2215  0.9433
 1198SOL    HW2 3797   2.906   1.509   4.176 -1.8870 -0.0083 -0.4203
 1199SOL     OW 3798   0.522   2.391   0.853 -0.6763  0.0172 -0.1428
 1199SOL    HW1 3799   0.506   2.324   0.787 -3.7733  0.7257 -0.2696
 1199SOL    HW2 3800   0.584   2.451   0.812  0.8094 -1.7895 -0.6829
 1200SOL     OW 3801   3.777   2.303   0.725 -0.0473  0.2368 -0.4565
 1200SOL    HW1 3802   3.816   2.259   0.801 -0.3772  2.2335  0.9440
 1200SOL    HW2 3803   3.699   2.346   0.759 -0.6426  0.5609 -2.1117
 1201SOL     OW 3804   1.629   4.557   1.721  0.1163 -0.6581 -0.0855
 1201SOL    HW1 3805   1.599   4.519   1.638 -1.3992  1.4420 -0.5706
 1201SOL    HW2 3806   1.556   4.544   1.781 -0.8952  2.2214 -0.5474
 1202SOL     OW 3807   0.801   2.299   2.638 -0.4536  0.0601 -0.2767
 1202SOL    HW1 3808   0.739   2.228   2.619 -0.0569 -0.5658  0.7596
 1202SOL    HW2 3809   0.754   2.378   2.611 -1.8234 -0.3791  0.7402
 1203SOL     OW 3810   3.037   2.597   1.825  0.6204 -0.2832  0.4070
 1203SOL    HW1 3811   3.041   2.602   1.921  0.9262  0.5440  0.3581
 1203SOL    HW2 3812   3.118   2.552   1.800  0.2872 -0.9886  0.5582
 1204SOL     OW 3813   2.991   2.560   4.182 -0.1949 -0.2145 -0.2297
 1204SOL    HW1 3814   3.018   2.582   4.093 -2.7093  0.6599 -0.8719
 1204SOL    HW2 3815   2.959   2.470   4.175  0.3645 -0.4311 -0.0151
 1205SOL     OW 3816   3.844   4.375   1.605 -0.5059  0.4712  0.1754
 1205SOL    HW1 3817   3.805   4.338   1.684 -0.0578  0.0157  0.1891
 1205SOL    HW2 3818   3.835   4.470   1.616  0.0322  0.4353  1.0218
 1206SOL     OW 3819   2.052   3.914   1.738  0.0746 -0.7452 -0.2188
 1206SOL    HW1 3820   1.986   3.867   1.789  0.0647 -1.0432 -0.5068
 1206SOL    HW2 3821   2.003   3.953   1.665  0.3623 -1.7278 -0.9452
 1207SOL     OW 3822   0.295   3.714   2.685 -0.3526 -0.3853  0.7645
 1207SOL    HW1 3823   0.369   3.660   2.711 -0.2681 -0.6167  0.0715
 1207SOL    HW2 3824   0.333   3.800   2.666 -0.5426  0.0510  2.2474
 1208SOL     OW 3825   3.356   2.235   0.426 -0.0049 -0.0140 -0.5016
 1208SOL    HW1 3826   3.441   2.206   0.393  0.3259  1.5404 -1.0908
 1208SOL    HW2 3827   3.355   2.329   0.410 -1.4225  0.1608  0.4484
 1209SOL     OW 3828   0.357   3.481   1.006  0.0518  0.2900 -0.2809
 1209SOL    HW1 3829   0.281   3.528   1.041 -0.4749  0.3856 -1.5114
 1209SOL    HW2 3830   0.431   3.515   1.057 -0.9786 -1.8245  2.9545
 1210SOL     OW 3831   1.385   3.099   2.485 -0.5048 -0.2996  0.4136
 1210SOL    HW1 3832   1.314   3.051   2.529 -0.1157 -0.3872  0.9589
 1210SOL    HW2 3833   1.450   3.113   2.554  0.7996 -1.7598 -0.4553
 1211SOL     OW 3834   4.592   0.500   3.657  0.7335 -0.1099 -0.2778
 1211SOL    HW1 3835   4.623   0.449   3.583  1.1793 -1.1907  0.6369
 1211SOL    HW2 3836   4.670   0.521   3.708  0.2646 -0.8005  0.7636
 1212SOL     OW 3837   2.467   2.800   4.055 -0.2178 -0.3737  0.2973
 1212SOL    HW1 3838   2.534   2.770   3.994  1.5696  1.6412  1.1623
 1212SOL    HW2 3839   2.390   2.748   4.033  1.1913 -1.7581 -1.6989
 1213SOL     OW 3840   3.076   0.017   1.913 -0.0174  0.0038  0.0621
 1213SOL    HW1 3841   3.050   0.062   1.832  0.0277  0.2705  0.1948
 1213SOL    HW2 3842   3.172   0.019   1.912  0.1451  4.2800  2.4132
 1214SOL     OW 3843   2.235   1.275   1.000 -0.7732  0.1646  0.2709
 1214SOL    HW1 3844   2.291   1.209   0.958 -1.5925  0.7113 -1.7979
 1214SOL    HW2 3845   2.174   1.225   1.053 -1.0640 -0.7361 -0.8833
 1215SOL     OW 3846   4.121   4.783   4.008 -0.3925  0.0932 -0.7053
 1215SOL    HW1 3847   4.125   4.854   3.944 -1.4184 -1.0196 -2.0534
 1215SOL    HW2 3848   4.194   4.726   3.987 -0.0607  0.3022 -0.1489
 1216SOL     OW 3849   4.529   2.749   2.762 -0.2003  0.4208  0.2546
 1216SOL    HW1 3850   4.497   2.781   2.847 -1.0365  0.5416 -0.0892
 1216SOL    HW2 3851   4.452   2.708   2.723  0.6754 -1.3941  0.3779
 1217SOL     OW 3852   2.733   3.501   0.586  0.0275 -0.0493 -0.1227
 1217SOL    HW1 3853   2.678   3.443   0.639  1.3561 -1.1412  0.1352
 1217SOL    HW2 3854   2.707   3.589   0.613  0.4726 -0.5539  2.2200
 1218SOL     OW 3855   4.676   4.759   2.066 -0.3735  0.4881 -0.7061
 1218SOL    HW1 3856   4.625   4.706   2.127  0.7145  0.0172 -0.1793
 1218SOL    HW2 3857   4.620   4.767   1.989 -0.4903 -1.6394 -0.8989
 1219SOL     OW 3858   1.700   2.591   1.602 -0.0545 -0.1443  0.4020
 1219SOL    HW1 3859   1.620   2.642   1.587 -0.2431 -0.5834 -0.1217
 1219SOL    HW2 3860   1.669   2.501   1.614  0.4562 -0.5742 -1.2825
 1220SOL     OW 3861   3.995   2.428   4.609 -0.3810  0.1353  0.3058
 1220SOL    HW1 3862   4.088   2.408   4.597  0.2609  0.0563  4.0210
 1220SOL    HW2 3863   3.993   2.523   4.623 -0.8867  0.1627  0.0633
 1221SOL     OW 3864   1.182   0.310   3.246  0.0684  0.1227 -0.4324
 1221SOL    HW1 3865   1.169   0.289   3.339  0.1114 -0.3356 -0.5297
 1221SOL    HW2 3866   1.208   0.403   3.246 -0.7638  0.3680 -0.0488
 1222SOL     OW 3867   2.333   1.795   3.932  0.1432 -0.1510  0.4429
 1222SOL    HW1 3868   2.276   1.778   3.857  1.0414  1.1805 -0.5738
 1222SOL    HW2 3869   2.272   1.811   4.005 -0.7438 -0.9139 -0.1047
 1223SOL     OW 3870   2.985   2.681   1.322 -0.0208 -0.0420 -0.0508
 1223SOL    HW1 3871   3.030   2.722   1.249  2.4672 -0.9401  0.8824
 1223SOL    HW2 3872   2.896   2.716   1.318  0.0013 -0.1281 -3.4851
 1224SOL     OW 3873   1.047   1.639   3.441 -0.3137 -0.1046 -0.2677
 1224SOL    HW1 3874   1.005   1.571   3.493  0.3843 -1.4467 -1.4015
 1224SOL    HW2 3875   0.975   1.691   3.406 -0.9484 -1.1335 -0.5316
 1225SOL     OW 3876   4.177   4.363   3.225  0.1908 -0.1391 -0.2390
 1225SOL    HW1 3877   4.193   4.325   3.311  0.9036  1.5985  0.4428
 1225SOL    HW2 3878   4.222   4.447   3.227  0.3119 -0.0886 -2.3603
 1226SOL     OW 3879   3.536   1.812   4.773 -0.2409  0.0822  0.1480
 1226SOL    HW1 3880   3.520   1.804   4.867  0.0003 -1.1337  0.0996
 1226SOL    HW2 3881   3.592   1.737   4.751 -0.6895  0.0753 -1.0521
 1227SOL     OW 3882   0.765   0.423   2.834 -0.1505 -0.1782  0.0687
 1227SOL    HW1 3883   0.838   0.475   2.802  0.6818  0.1356  2.2703
 1227SOL    HW2 3884   0.687   0.467   2.800  0.6319  0.5280 -0.8571
 1228SOL     OW 3885   0.179   3.385   2.997 -0.2122  0.2156 -0.3714
 1228SOL    HW1 3886   0.090   3.351   3.000 -0.0258 -0.3881 -1.3125
 1228SOL    HW2 3887   0.231   3.320   3.044 -0.5565  1.7204  2.3598
 1229SOL     OW 3888   4.266   2.785   0.861 -0.3334 -0.3665  0.0461
 1229SOL    HW1 3889   4.266   2.705   0.809 -1.8017  0.7075 -1.6925
 1229SOL    HW2 3890   4.199   2.771   0.928 -0.0101 -0.8698  0.2752
 1230SOL     OW 3891   1.552   3.807   2.042 -0.1823 -0.0781 -0.3564
 1230SOL    HW1 3892   1.631   3.838   2.086  0.5851 -1.2027 -0.8946
 1230SOL    HW2 3893   1.574   3.718   2.012 -0.7742  0.4741 -2.6764
 1231SOL     OW 3894   4.488   2.903   4.151  0.4369 -0.0052  0.3436
 1231SOL    HW1 3895   4.469   2.812   4.130 -1.4182  0.2366  0.7633
 1231SOL    HW2 3896   4.524   2.901   4.239 -0.8134 -0.2672  0.8725
 1232SOL     OW 3897   4.143   2.439   1.315 -0.1310 -0.2526 -0.6602
 1232SOL    HW1 3898   4.236   2.424   1.301 -0.0476  0.2706 -0.7119
 1232SOL    HW2 3899   4.101   2.403   1.237 -0.0240 -0.9999 -0.3767
 1233SOL     OW 3900   3.220   4.664   1.254  0.3390 -0.2099  0.2621
 1233SOL    HW1 3901   3.137   4.676   1.300  1.0424 -0.2135  1.5947
 1233SOL    HW2 3902   3.203   4.691   1.164 -1.8008 -2.6385 -0.1711
 1234SOL     OW 3903   3.346   1.642   4.396  0.3878 -0.1873  0.1330
 1234SOL    HW1 3904   3.254   1.664   4.385  0.7730  0.6619 -1.9848
 1234SOL    HW2 3905   3.392   1.725   4.384  1.5337 -1.0231 -1.8419
 1235SOL     OW 3906   3.092   2.101   2.266  0.1202  0.2219 -0.0140
 1235SOL    HW1 3907   3.092   2.158   2.343  0.1789  0.1397  0.0484
 1235SOL    HW2 3908   3.051   2.020   2.296 -0.0146  0.2521 -0.1178
 1236SOL     OW 3909   3.219   1.621   0.940  0.3903  0.2677 -0.1548
 1236SOL    HW1 3910   3.139   1.573   0.961 -0.6759  2.2548  0.5636
 1236SOL    HW2 3911   3.214   1.700   0.994  3.4878 -0.1317  0.9004
 1237SOL     OW 3912   3.318   3.059   0.224  0.2282  0.2053  0.1584
 1237SOL    HW1 3913   3.308   3.154   0.214 -0.2113  0.3267  1.5969
 1237SOL    HW2 3914   3.318   3.045   0.318  1.8210 -1.0766  0.0022
 1238SOL     OW 3915   3.111   3.336   3.345  0.0685 -0.1079 -0.1731
 1238SOL    HW1 3916   3.028   3.311   3.304  0.9375  0.1701 -2.2149
 1238SOL    HW2 3917   3.177   3.310   3.282  1.5564 -0.1552  1.3380
 1239SOL     OW 3918   2.649   4.604   3.481  0.4341  0.1174 -0.7999
 1239SOL    HW1 3919   2.631   4.568   3.568 -1.0797  1.0379 -0.6891
 1239SOL    HW2 3920   2.563   4.604   3.437  0.4393  2.9587 -0.9908
 1240SOL     OW 3921   4.180   1.231   3.751  0.4436 -0.3591 -0.0721
 1240SOL    HW1 3922   4.276   1.235   3.758  0.4950 -0.4454 -0.6324
 1240SOL    HW2 3923   4.154   1.322   3.737  0.6757 -0.5758 -2.3447
 1241SOL     OW 3924   1.803   4.635   1.931 -0.0125 -0.7233 -0.2347
 1241SOL    HW1 3925   1.747   4.629   1.854  1.7366  2.4462 -1.9624
 1241SOL    HW2 3926   1.887   4.598   1.902  0.6270  0.3903  0.1656
 1242SOL     OW 3927   1.423   0.297   2.497 -0.0862 -0.2900  0.1244
 1242SOL    HW1 3928   1.400   0.218   2.547  0.7454  0.6519  2.1207
 1242SOL    HW2 3929   1.517   0.309   2.513 -0.0531  0.7413 -0.7066
 1243SOL     OW 3930   0.820   3.007   4.419 -0.1053 -0.0967  0.2190
 1243SOL    HW1 3931   0.769   2.987   4.498  1.1924 -0.8968  0.8740
 1243SOL    HW2 3932   0.795   2.939   4.357  0.1946 -0.5159  0.5539
 1244SOL     OW 3933   0.971   2.558   3.531 -0.1274 -1.0333 -0.3217
 1244SOL    HW1 3934   1.065   2.549   3.547 -0.0766 -1.2796 -0.7618
 1244SOL    HW2 3935   0.962   2.643   3.487 -0.1177 -0.9919 -0.2446
 1245SOL     OW 3936   2.425   1.059   2.225  0.1938  0.5042 -0.0871
 1245SOL    HW1 3937   2.441   1.141   2.272 -0.3460  0.1921  0.6489
 1245SOL    HW2 3938   2.385   1.087   2.142 -0.8157  0.9317  0.5385
 1246SOL     OW 3939   0.296   0.076   1.434 -0.3147 -0.2213  0.8609
 1246SOL    HW1 3940   0.233   0.141   1.404  1.9851  0.7645 -2.4361
 1246SOL    HW2 3941   0.376   0.126   1.453  0.8953 -1.8235  0.2543
 1247SOL     OW 3942   0.607   3.803   3.569 -0.2682 -0.5366  0.2475
 1247SOL    HW1 3943   0.662   3.844   3.502 -1.4376 -0.6082 -0.7834
 1247SOL    HW2 3944   0.640   3.713   3.573  0.8572 -0.1218  0.9499
 1248SOL     OW 3945   1.332   4.666   1.951  0.5017  0.4783  0.1905
 1248SOL    HW1 3946   1.403   4.667   2.016  0.7479 -1.7708  0.0570
 1248SOL    HW2 3947   1.307   4.574   1.946  0.5941  0.5294 -3.0251
 1249SOL     OW 3948   2.833   1.325   2.684  0.1414  0.1957 -0.5221
 1249SOL    HW1 3949   2.917   1.329   2.729  0.8650 -4.3603 -0.9606
 1249SOL    HW2 3950   2.770   1.358   2.749  1.7397 -1.1323  1.8897
 1250SOL     OW 3951   0.963   3.102   1.343 -0.7281  0.3181  0.6962
 1250SOL    HW1 3952   1.039   3.131   1.293  0.1232 -0.3725  1.5458
 1250SOL    HW2 3953   1.000   3.047   1.412 -1.7771  1.7127  2.4732
 1251SOL     OW 3954   1.494   3.822   4.063  0.5083 -0.0833  0.7563
 1251SOL    HW1 3955   1.569   3.840   4.120  1.7574 -0.0882 -0.7954
 1251SOL    HW2 3956   1.513   3.872   3.983 -0.2942 -1.4141 -0.3081
 1252SOL     OW 3957   2.569   4.809   3.873 -0.1569 -0.2604 -0.7751
 1252SOL    HW1 3958   2.604   4.889   3.912 -0.5950  0.1854 -1.2794
 1252SOL    HW2 3959   2.474   4.823   3.871 -0.0888  0.1350 -2.8280
 1253SOL     OW 3960   4.389   3.766   2.809  0.7860  0.3925 -0.0958
 1253SOL    HW1 3961   4.476   3.761   2.770  0.7813  0.0730 -0.0702
 1253SOL    HW2 3962   4.336   3.705   2.757  0.3353  1.2793 -0.7188
 1254SOL     OW 3963   4.205   3.631   4.249 -0.1248 -0.1180 -0.4027
 1254SOL    HW1 3964   4.279   3.592   4.295 -0.2205  1.8214  1.5517
 1254SOL    HW2 3965   4.182   3.707   4.302 -1.7296  0.9344 -2.4933
 1255SOL     OW 3966   2.867   1.707   1.083  0.1438  0.1413 -0.4589
 1255SOL    HW1 3967   2.900   1.617   1.088 -3.3809 -1.2946 -0.5415
 1255SOL    HW2 3968   2.880   1.733   0.992 -1.8415 -1.6525 -1.3214
 1256SOL     OW 3969   1.364   1.919   3.244  0.1306  0.4780 -0.2675
 1256SOL    HW1 3970   1.293   1.982   3.233 -1.3171 -0.9478  0.4301
 1256SOL    HW2 3971   1.320   1.834   3.242  1.8890 -0.4676 -0.2007
 1257SOL     OW 3972   1.259   3.598   0.878  0.0091  0.3559 -0.1902
 1257SOL    HW1 3973   1.225   3.567   0.962  0.7549  0.0623  0.0114
 1257SOL    HW2 3974   1.200   3.562   0.813  0.4618 -0.9246  0.0885
 1258SOL     OW 3975   0.010   1.293   3.000 -0.3252  0.0589 -0.1337
 1258SOL    HW1 3976  -0.029   1.292   2.912  1.7667  2.7626 -1.2649
 1258SOL    HW2 3977  -0.061   1.321   3.058 -1.1175  0.8307 -1.4278
 1259SOL     OW 3978   2.235   1.583   2.178  0.1210 -0.5007 -0.5467
 1259SOL    HW1 3979   2.163   1.525   2.151 -0.0540 -0.3268 -0.4569
 1259SOL    HW2 3980   2.203   1.625   2.257  0.0003  0.1716 -0.9432
 1260SOL     OW 3981   2.032   4.143   2.656 -0.0998  0.1604 -0.1652
 1260SOL    HW1 3982   2.033   4.070   2.595  0.2662 -1.0560  1.2539
 1260SOL    HW2 3983   1.939   4.154   2.680 -0.1129 -0.0874 -0.1014
 1261SOL     OW 3984   2.532   4.316   4.256  0.7448 -0.8583  0.4553
 1261SOL    HW1 3985   2.437   4.310   4.245  0.8145 -0.0915 -0.8570
 1261SOL    HW2 3986   2.564   4.228   4.237  0.3754 -0.8523 -0.2338
 1262SOL     OW 3987   3.557   0.837   2.337 -0.0865  0.5137 -0.2512
 1262SOL    HW1 3988   3.543   0.931   2.347  2.8566  1.1868 -1.3020
 1262SOL    HW2 3989   3.633   0.818   2.391  0.1846 -0.9669 -1.0861
 1263SOL     OW 3990   3.245   2.183   4.003  0.2647 -0.7876 -0.3963
 1263SOL    HW1 3991   3.251   2.185   3.908 -2.2052  2.3986 -0.6432
 1263SOL    HW2 3992   3.266   2.271   4.031  0.2691 -1.4657  1.9682
 1264SOL     OW 3993   0.884   4.727   2.749  0.0788  0.0523  0.2330
 1264SOL    HW1 3994   0.861   4.816   2.719  0.1991 -0.1215 -0.3770
 1264SOL    HW2 3995   0.866   4.671   2.674  0.0106 -0.4466  0.6162
 1265SOL     OW 3996   4.159   4.027   1.901 -0.7832 -0.0804 -0.3206
 1265SOL    HW1 3997   4.134   4.103   1.952 -0.2492  0.0559 -0.2543
 1265SOL    HW2 3998   4.083   4.009   1.845 -1.1038  0.1824  0.0289
 1266SOL     OW 3999   4.287   0.404   3.394  0.0513  0.2477  0.0398
 1266SOL    HW1 4000   4.304   0.312   3.415  0.2921  0.5019  1.0325
 1266SOL    HW2 4001   4.359   0.429   3.337 -0.5148 -0.4171 -1.0094
 1267SOL     OW 4002   2.729   4.308   2.866  0.2275 -0.0104  0.5439
 1267SOL    HW1 4003   2.661   4.243   2.846 -0.8167  1.9855 -3.2137
 1267SOL    HW2 4004   2.811   4.267   2.838 -0.0554 -0.6520  0.6375
 1268SOL     OW 4005   3.589   2.430   1.876 -0.0864 -0.4700 -0.5983
 1268SOL    HW1 4006   3.560   2.358   1.820  3.3068 -2.2852 -0.2285
 1268SOL    HW2 4007   3.644   2.484   1.820 -0.8435  0.6928 -0.2818
 1269SOL     OW 4008   2.874   4.820   2.097 -0.1282 -0.1767 -0.2435
 1269SOL    HW1 4009   2.891   4.890   2.159 -0.0146 -0.5253  0.1226
 1269SOL    HW2 4010   2.950   4.818   2.040  1.2337 -1.8399  1.4824
 1270SOL     OW 4011   0.892   1.376   3.368  0.0797  0.2292 -0.4465
 1270SOL    HW1 4012   0.967   1.321   3.346  1.0837  1.2176  0.3749
 1270SOL    HW2 4013   0.892   1.445   3.301  0.8093  1.0596  0.3921
 1271SOL     OW 4014   2.695   0.866   0.776 -0.2086 -0.0136 -0.2470
 1271SOL    HW1 4015   2.753   0.901   0.708  1.1680 -1.1219  0.3209
 1271SOL    HW2 4016   2.672   0.778   0.745 -1.0917  0.1826 -0.1654
 1272SOL     OW 4017   1.206   3.190   1.957  0.1979 -0.8643 -0.1811
 1272SOL    HW1 4018   1.135   3.209   2.018 -0.3993  0.0260 -1.1166
 1272SOL    HW2 4019   1.211   3.268   1.902  1.8495 -0.9446 -0.1996
 1273SOL     OW 4020   3.794   4.082   1.567 -0.5943  0.2911  0.3814
 1273SOL    HW1 4021   3.728   4.147   1.544 -1.4098 -0.1894  1.2604
 1273SOL    HW2 4022   3.820   4.043   1.484 -0.5796  1.2759 -0.0853
 1274SOL     OW 4023   1.081   2.331   1.144  0.4344 -0.9978  0.7543
 1274SOL    HW1 4024   1.038   2.387   1.208  2.1132  0.7474  0.4278
 1274SOL    HW2 4025   1.023   2.333   1.068  0.0253 -0.4588  1.0717
 1275SOL     OW 4026   0.361   2.521   1.333  0.4517 -0.0472  0.0076
 1275SOL    HW1 4027   0.390   2.478   1.413  0.0039 -0.5367 -0.0881
 1275SOL    HW2 4028   0.383   2.459   1.263 -3.2923 -1.7878  0.1397
 1276SOL     OW 4029   3.153   4.554   2.658  0.3351  0.5839 -0.2902
 1276SOL    HW1 4030   3.166   4.461   2.674  0.0744 -0.0839 -3.3343
 1276SOL    HW2 4031   3.071   4.575   2.702  0.4611 -0.5922  0.5294
 1277SOL     OW 4032   2.490   2.272   2.484  0.1872 -0.2214 -0.2604
 1277SOL    HW1 4033   2.519   2.182   2.495  1.7148 -0.1030 -2.5259
 1277SOL    HW2 4034   2.571   2.322   2.471 -0.7582  0.8404 -2.7056
 1278SOL     OW 4035   4.478   3.231   2.831  0.2295  0.4775 -0.3713
 1278SOL    HW1 4036   4.564   3.255   2.796 -0.0392  1.9400 -0.0705
 1278SOL    HW2 4037   4.489   3.236   2.926  0.1845 -0.7275 -0.2888
 1279SOL     OW 4038   3.944   0.107   0.884  0.0647  0.3152 -0.3094
 1279SOL    HW1 4039   3.926   0.097   0.791 -1.7740  0.5778 -0.0289
 1279SOL    HW2 4040   4.005   0.037   0.905  0.0787 -0.0869 -1.6081
 1280SOL     OW 4041   3.953   1.723   0.592 -0.0073 -0.9831  0.0721
 1280SOL    HW1 4042   3.859   1.741   0.587  0.4314  2.0941  0.8551
 1280SOL    HW2 4043   3.964   1.670   0.671 -0.9593  0.0309  0.9186
 1281SOL     OW 4044   3.184   3.171   2.220 -0.5323 -0.5445  0.0401
 1281SOL    HW1 4045   3.259   3.187   2.276  0.0782 -0.4425 -0.7859
 1281SOL    HW2 4046   3.139   3.096   2.259 -1.6448  1.1140  2.1902
 1282SOL     OW 4047   2.698   4.669   2.438  0.0462  0.1148 -0.5026
 1282SOL    HW1 4048   2.746   4.645   2.517 -0.8902 -0.2790 -0.0374
 1282SOL    HW2 4049   2.758   4.649   2.366  0.9568  0.6033  0.1115
 1283SOL     OW 4050   0.606   2.835   2.307  0.0221  0.1590  0.4931
 1283SOL    HW1 4051   0.656   2.917   2.308  0.2984 -0.0068  1.0008
 1283SOL    HW2 4052   0.596   2.812   2.400 -0.1000 -0.3523  0.3586
 1284SOL     OW 4053   4.049   3.967   4.177 -0.4839 -0.2674 -0.9196
 1284SOL    HW1 4054   4.005   4.052   4.178  1.6387  0.9213  0.6223
 1284SOL    HW2 4055   4.060   3.947   4.084  0.7109  2.1794 -1.4071
 1285SOL     OW 4056   1.130   0.855   4.650 -0.3427 -0.4632  0.4589
 1285SOL    HW1 4057   1.071   0.899   4.711  0.5419 -0.2963  1.2143
 1285SOL    HW2 4058   1.171   0.785   4.702 -0.4988 -1.1137 -0.2811
 1286SOL     OW 4059   3.245   3.335   0.191 -0.6257  0.3664  0.2293
 1286SOL    HW1 4060   3.270   3.403   0.129  0.5908 -0.8719 -0.7135
 1286SOL    HW2 4061   3.151   3.321   0.176 -0.7227  1.2986 -0.0751
 1287SOL     OW 4062   2.392   1.892   3.643  0.1982 -0.3200 -0.1304
 1287SOL    HW1 4063   2.301   1.897   3.615  0.1590 -1.9312 -0.3779
 1287SOL    HW2 4064   2.388   1.874   3.737  0.2584 -0.2897 -0.1217
 1288SOL     OW 4065   1.211   1.890   0.705  0.1557 -0.0321  0.1929
 1288SOL    HW1 4066   1.290   1.837   0.700  1.0425  1.3186 -0.8903
 1288SOL    HW2 4067   1.148   1.844   0.648  0.9697  0.1538 -0.8880
 1289SOL     OW 4068   4.442   4.800   1.160 -0.1263  0.5136  0.3360
 1289SOL    HW1 4069   4.388   4.879   1.152 -1.7948 -0.6243 -0.4127
 1289SOL    HW2 4070   4.458   4.773   1.070 -1.7326 -1.3186  0.5216
 1290SOL     OW 4071   4.176   4.735   0.403 -0.5614 -0.2056 -0.8070
 1290SOL    HW1 4072   4.129   4.737   0.320 -1.5319  0.6727 -0.2643
 1290SOL    HW2 4073   4.121   4.786   0.463  0.1372 -0.7773  0.3631
 1291SOL     OW 4074   1.760   4.514   2.184  0.2907  0.9825  0.6122
 1291SOL    HW1 4075   1.768   4.564   2.103 -1.9373  1.8499  0.8553
 1291SOL    HW2 4076   1.734   4.426   2.155  1.6749  0.6454  0.3160
 1292SOL     OW 4077   2.162   1.740   3.711 -0.0904  0.2742 -0.5239
 1292SOL    HW1 4078   2.200   1.653   3.716  0.0025  0.3612  0.4586
 1292SOL    HW2 4079   2.089   1.738   3.774 -0.2484  0.8221 -0.6826
 1293SOL     OW 4080   2.562   1.849   2.271  0.0486 -0.0230  0.3442
 1293SOL    HW1 4081   2.611   1.835   2.190 -1.3387 -0.2807 -0.4896
 1293SOL    HW2 4082   2.567   1.765   2.317  0.4638 -0.0121  0.3248
 1294SOL     OW 4083   3.078   1.988   0.674  0.3589 -0.3826 -0.0346
 1294SOL    HW1 4084   3.159   1.942   0.654  2.0547  1.8791  1.0968
 1294SOL    HW2 4085   3.056   1.960   0.763 -0.5755 -1.5532 -0.6058
 1295SOL     OW 4086   2.056   4.394   0.899  0.6701 -0.0030  0.1018
 1295SOL    HW1 4087   1.996   4.337   0.851 -2.0476  2.6924  0.0145
 1295SOL    HW2 4088   2.049   4.366   0.990 -0.3916 -0.0313  0.0198
 1296SOL     OW 4089   3.545   1.967   2.202  0.0010 -0.3157  0.2954
 1296SOL    HW1 4090   3.509   1.904   2.140 -0.0265  0.7813 -0.8368
 1296SOL    HW2 4091   3.485   2.041   2.198  0.2700 -0.0263  1.2954
 1297SOL     OW 4092   2.558   0.853   1.837  0.1893 -0.6370 -0.2517
 1297SOL    HW1 4093   2.493   0.921   1.819  0.4070 -0.7249 -1.3927
 1297SOL    HW2 4094   2.510   0.786   1.885  0.3014  0.9810  2.3309
 1298SOL     OW 4095   2.369   3.659   4.556  0.3112  0.1340 -0.7207
 1298SOL    HW1 4096   2.460   3.629   4.550 -0.4332 -2.0757 -2.3912
 1298SOL    HW2 4097   2.325   3.617   4.482 -2.6029 -0.8985  1.4242
 1299SOL     OW 4098   0.289   2.128   0.313 -0.1502  0.5675  0.2148
 1299SOL    HW1 4099   0.260   2.125   0.222  0.0466 -0.2851  0.1736
 1299SOL    HW2 4100   0.211   2.108   0.364 -0.4993  2.0362  0.2980
 1300SOL     OW 4101   2.490   0.538   0.913  0.1682 -0.3125  0.2788
 1300SOL    HW1 4102   2.525   0.522   0.825  0.2390  0.2617  0.2021
 1300SOL    HW2 4103   2.567   0.549   0.968  0.1270  0.8951  0.1206
 1301SOL     OW 4104   1.336   2.934   0.665  0.0879 -0.1498 -0.6788
 1301SOL    HW1 4105   1.407   2.916   0.603  0.7196  2.4674 -0.8339
 1301SOL    HW2 4106   1.279   2.857   0.658  1.9986 -1.5884 -1.7864
 1302SOL     OW 4107   4.502   1.552   0.206 -0.0283 -0.3290 -0.0788
 1302SOL    HW1 4108   4.582   1.537   0.256  0.6457  0.8484 -0.7611
 1302SOL    HW2 4109   4.445   1.478   0.230  1.1613 -1.0742  0.5854
 1303SOL     OW 4110   3.017   4.563   4.605 -0.0066 -0.0829  0.1368
 1303SOL    HW1 4111   3.039   4.591   4.694  0.8027  0.6678 -0.2879
 1303SOL    HW2 4112   3.101   4.534   4.568 -0.2342  0.1552 -0.5759
 1304SOL     OW 4113   0.890   3.325   3.468  0.2944  0.2371  0.1352
 1304SOL    HW1 4114   0.900   3.280   3.552 -0.7718 -1.8483 -0.7712
 1304SOL    HW2 4115   0.960   3.291   3.413  0.3644  0.8091 -0.1444
 1305SOL     OW 4116   0.564   3.949   1.630  0.3637 -0.2328 -0.1055
 1305SOL    HW1 4117   0.543   4.041   1.643  1.9369 -0.2352  3.6151
 1305SOL    HW2 4118   0.479   3.905   1.627 -0.3874  1.2337 -1.5278
 1306SOL     OW 4119   2.985   3.442   2.925 -0.1956  0.5880  0.2712
 1306SOL    HW1 4120   2.925   3.514   2.903  1.0320  2.3932  2.3421
 1306SOL    HW2 4121   3.068   3.469   2.887 -0.3967 -1.4419 -1.7779
 1307SOL     OW 4122   0.456   2.943   1.874 -0.6223 -0.4033  0.0549
 1307SOL    HW1 4123   0.364   2.960   1.894  0.0275  2.6009  0.9408
 1307SOL    HW2 4124   0.473   2.856   1.911 -2.5957 -0.1548  1.6758
 1308SOL     OW 4125   1.365   1.164   3.562 -0.7073 -0.6075 -0.2968
 1308SOL    HW1 4126   1.286   1.129   3.520 -0.5911  0.4834 -1.4869
 1308SOL    HW2 4127   1.335   1.245   3.603 -0.3242 -0.5032 -0.2239
 1309SOL     OW 4128   0.155   3.662   3.028  0.2187 -0.1523 -0.0696
 1309SOL    HW1 4129   0.213   3.590   3.003 -0.2766 -0.1128 -1.4395
 1309SOL    HW2 4130   0.088   3.621   3.083  0.0909 -0.7049 -0.6187
 1310SOL     OW 4131   0.423   1.699   2.766 -0.1336  0.1678  0.1958
 1310SOL    HW1 4132   0.368   1.775   2.744  0.0696  0.1125 -0.5220
 1310SOL    HW2 4133   0.392   1.672   2.853 -0.2200  1.0591  0.4534
 1311SOL     OW 4134   3.233   0.092   2.372 -0.0389 -0.4966  0.2087
 1311SOL    HW1 4135   3.246   0.007   2.330 -2.1331 -0.1748 -1.2739
 1311SOL    HW2 4136   3.161   0.077   2.434 -3.3096  0.8934 -2.9232
 1312SOL     OW 4137   2.108   0.176   2.828 -0.3048  0.2809 -0.0439
 1312SOL    HW1 4138   2.121   0.270   2.819 -0.7061  0.2041 -1.7131
 1312SOL    HW2 4139   2.181   0.137   2.779 -0.7602 -0.2675 -0.2966
 1313SOL     OW 4140   3.851   3.459   3.952  0.0226 -0.2363  0.3891
 1313SOL    HW1 4141   3.762   3.465   3.986  0.3702  1.2594  1.1120
 1313SOL    HW2 4142   3.850   3.381   3.896 -1.6402 -0.4344  0.6425
 1314SOL     OW 4143   0.600   3.647   0.486 -0.4036 -0.0430 -0.5500
 1314SOL    HW1 4144   0.608   3.638   0.391  2.6433 -0.6497 -0.3188
 1314SOL    HW2 4145   0.620   3.559   0.520  0.5953  0.6348  0.7006
 1315SOL     OW 4146   0.108   2.138   0.786  0.3670  0.5030 -0.2790
 1315SOL    HW1 4147   0.045   2.166   0.853  0.9819  2.4511 -0.4561
 1315SOL    HW2 4148   0.162   2.072   0.829 -1.4533 -0.8610  0.0299
 1316SOL     OW 4149   1.309   1.520   0.571 -0.2760 -0.3978 -0.4071
 1316SOL    HW1 4150   1.355   1.569   0.640 -1.9521  0.2186  0.3175
 1316SOL    HW2 4151   1.316   1.429   0.599 -0.1553 -0.2410  0.0985
 1317SOL     OW 4152   2.544   2.163   4.395  0.0645  0.3034  0.1774
 1317SOL    HW1 4153   2.502   2.083   4.427  0.1045  0.9240  1.8524
 1317SOL    HW2 4154   2.624   2.170   4.447 -0.4909  2.0156  0.8442
 1318SOL     OW 4155   3.238   4.280   2.768 -0.0885  0.4976  0.5296
 1318SOL    HW1 4156   3.292   4.267   2.690 -0.5650 -0.1131  0.3025
 1318SOL    HW2 4157   3.298   4.264   2.841  0.7248  2.3877  0.3398
 1319SOL     OW 4158   2.251   4.263   1.642  0.5284 -0.2003  0.0712
 1319SOL    HW1 4159   2.325   4.207   1.620  0.5206  0.6035 -2.2358
 1319SOL    HW2 4160   2.278   4.351   1.614 -1.1035  0.1756 -0.4150
 1320SOL     OW 4161   2.109   1.671   2.394 -0.1677 -0.5515  0.5314
 1320SOL    HW1 4162   2.126   1.642   2.484 -0.8917 -0.0536  0.8528
 1320SOL    HW2 4163   2.013   1.674   2.389 -0.1481 -1.6312 -0.6209
 1321SOL     OW 4164   0.351   3.211   1.118 -0.0011  0.8854 -0.3082
 1321SOL    HW1 4165   0.296   3.290   1.118 -1.1397  0.1335  0.9601
 1321SOL    HW2 4166   0.384   3.204   1.207 -1.1031 -0.8472  0.0044
 1322SOL     OW 4167   3.931   3.234   1.175 -0.3009  0.3419  0.2567
 1322SOL    HW1 4168   3.998   3.302   1.169  2.2335 -2.0635 -1.2228
 1322SOL    HW2 4169   3.977   3.158   1.210 -1.9832 -1.7157 -1.6839
 1323SOL     OW 4170   3.941   1.256   2.862 -0.0594  0.3358  0.1224
 1323SOL    HW1 4171   3.951   1.342   2.821  0.0531  0.4031  0.2911
 1323SOL    HW2 4172   3.946   1.273   2.956  0.7791  0.0450  0.1418
 1324SOL     OW 4173   4.745   2.008   1.626 -0.1089 -0.1083  0.0484
 1324SOL    HW1 4174   4.809   2.044   1.564 -1.6954 -1.0483 -2.2727
 1324SOL    HW2 4175   4.679   2.077   1.635 -1.1606 -0.8821 -1.3529
 1325SOL     OW 4176   2.262   0.990   0.463  0.4093  0.3796 -0.0081
 1325SOL    HW1 4177   2.223   0.998   0.550  0.2397  0.5682 -0.1007
 1325SOL    HW2 4178   2.354   0.966   0.480  0.5000  0.8904  0.2330
 1326SOL     OW 4179   3.943   3.744   0.988  0.1187  0.0102 -0.4466
 1326SOL    HW1 4180   3.994   3.825   0.993 -1.3444  0.9708 -0.4967
 1326SOL    HW2 4181   3.926   3.732   0.894 -0.8535  0.4311 -0.3347
 1327SOL     OW 4182   3.378   2.645   0.225  0.4599  0.6424 -0.1386
 1327SOL    HW1 4183   3.421   2.658   0.310  0.5377  0.1210 -0.0944
 1327SOL    HW2 4184   3.450   2.637   0.163  0.4201  0.1445 -0.1211
 1328SOL     OW 4185   4.412   2.385   3.536  0.0715 -0.1275  0.1689
 1328SOL    HW1 4186   4.394   2.437   3.458  0.0658  0.8354  0.7938
 1328SOL    HW2 4187   4.431   2.297   3.503 -0.7873  0.0517 -0.8452
 1329SOL     OW 4188   0.429   1.337   0.142  0.2026  0.3386 -0.3555
 1329SOL    HW1 4189   0.364   1.390   0.097 -0.0690 -0.6328 -1.1283
 1329SOL    HW2 4190   0.388   1.251   0.153  1.1201 -0.1113 -0.3064
 1330SOL     OW 4191   3.423   4.497   4.144 -0.0784 -0.8359 -0.6174
 1330SOL    HW1 4192   3.337   4.533   4.123 -0.6766 -1.6159  0.4337
 1330SOL    HW2 4193   3.483   4.545   4.086 -0.9668  1.0567 -0.0621
 1331SOL     OW 4194   3.730   1.184   3.577 -0.1940  0.1794  0.7282
 1331SOL    HW1 4195   3.811   1.153   3.616  0.5080  1.1764  0.0961
 1331SOL    HW2 4196   3.679   1.104   3.561  0.2328 -0.3713  2.0273
 1332SOL     OW 4197   0.990   4.661   4.066  0.0845  0.3875  0.4246
 1332SOL    HW1 4198   0.900   4.645   4.037  0.3368 -1.9369  0.7331
 1332SOL    HW2 4199   1.028   4.574   4.073  3.2822  1.3539 -2.3823
 1333SOL     OW 4200   3.753   3.976   4.329 -0.3378 -0.3112  0.1247
 1333SOL    HW1 4201   3.728   4.068   4.328  0.7810  0.0274 -1.1043
 1333SOL    HW2 4202   3.751   3.950   4.236  0.7112 -1.1084  0.3018
 1334SOL     OW 4203   0.698   4.591   0.107 -0.0177 -0.3914 -0.1384
 1334SOL    HW1 4204   0.747   4.670   0.129 -0.6745 -0.2488  0.8440
 1334SOL    HW2 4205   0.765   4.528   0.078  0.5202  0.4778 -0.8258
 1335SOL     OW 4206   2.945   1.639   2.585 -0.2180  0.6179  0.1499
 1335SOL    HW1 4207   2.964   1.574   2.653  2.1462  1.5913  0.5279
 1335SOL    HW2 4208   2.959   1.592   2.503 -0.2622  0.1825  0.3867
 1336SOL     OW 4209   0.851   1.906   0.503  0.0054 -0.2643  0.3625
 1336SOL    HW1 4210   0.854   1.942   0.592 -0.3336 -0.1577  0.3302
 1336SOL    HW2 4211   0.941   1.915   0.472 -0.2465  1.4691  0.0136
 1337SOL     OW 4212   4.362   1.136   3.437 -0.4311 -0.4953 -0.3014
 1337SOL    HW1 4213   4.267   1.148   3.437 -0.3934 -0.1239  0.3797
 1337SOL    HW2 4214   4.396   1.210   3.386 -0.4669 -0.2358  0.0511
 1338SOL     OW 4215   0.376   0.447   0.063  0.0052 -0.2775  0.6428
 1338SOL    HW1 4216   0.405   0.500   0.137  0.5092 -1.1293  1.0650
 1338SOL    HW2 4217   0.325   0.377   0.102 -0.2120 -0.4054  0.1320
 1339SOL     OW 4218   3.051   4.633   0.576  0.1038 -0.1585 -0.5049
 1339SOL    HW1 4219   3.113   4.567   0.606  0.8513  0.7867  0.0675
 1339SOL    HW2 4220   3.014   4.596   0.496  1.0472 -0.9524 -0.5914
 1340SOL     OW 4221   2.960   0.725   4.383 -0.2906 -0.0826 -0.4964
 1340SOL    HW1 4222   3.026   0.657   4.376  1.0025  0.8891  1.5309
 1340SOL    HW2 4223   2.887   0.684   4.429 -0.1952 -0.5295 -0.7416
 1341SOL     OW 4224   2.563   0.549   4.721  0.3310  0.0158 -0.0823
 1341SOL    HW1 4225   2.517   0.589   4.647  1.0843  1.4251  0.1723
 1341SOL    HW2 4226   2.545   0.456   4.713 -1.5268  0.3856 -0.7008
 1342SOL     OW 4227   1.379   3.357   0.129  0.6270 -0.1566  0.2034
 1342SOL    HW1 4228   1.418   3.269   0.119  0.2414 -0.3115  0.0581
 1342SOL    HW2 4229   1.319   3.348   0.203 -0.9278 -0.5577 -1.0583
 1343SOL     OW 4230   2.679   2.815   4.655  0.3567 -0.4104  0.5700
 1343SOL    HW1 4231   2.614   2.849   4.717 -0.9260 -0.8016 -0.5031
 1343SOL    HW2 4232   2.663   2.721   4.653  0.5965 -0.4409 -0.0943
 1344SOL     OW 4233   0.937   4.522   3.659  0.0166  0.5642 -0.6115
 1344SOL    HW1 4234   0.950   4.465   3.584 -1.0120 -0.7125  0.1371
 1344SOL    HW2 4235   0.974   4.474   3.733 -0.8135  0.8576  0.0234
 1345SOL     OW 4236   3.229   0.295   0.337 -0.7558 -0.1045 -0.1812
 1345SOL    HW1 4237   3.282   0.262   0.265 -1.2542  0.2336 -0.7156
 1345SOL    HW2 4238   3.210   0.218   0.390  0.5703 -0.1658  0.2333
 1346SOL     OW 4239   1.051   0.973   1.231  0.0419 -0.0298  0.1042
 1346SOL    HW1 4240   1.031   0.932   1.146  0.5374  0.4031 -0.2286
 1346SOL    HW2 4241   1.112   0.912   1.273 -3.1512 -2.2456  1.8772
 1347SOL     OW 4242   0.819   0.647   0.282  0.3915  0.2936  0.0904
 1347SOL    HW1 4243   0.760   0.580   0.315  2.0866 -1.3408 -0.0585
 1347SOL    HW2 4244   0.764   0.725   0.274 -1.3684 -0.7366  1.3851
 1348SOL     OW 4245   2.243   1.848   2.577  0.9701  0.0930 -0.6990
 1348SOL    HW1 4246   2.236   1.826   2.484  2.9729 -0.4729 -0.7610
 1348SOL    HW2 4247   2.319   1.906   2.583  0.0801  1.2135  0.4421
 1349SOL     OW 4248   3.829   1.636   0.192 -0.1639  0.6344  0.1373
 1349SOL    HW1 4249   3.783   1.557   0.166 -0.4352  0.7696  0.2089
 1349SOL    HW2 4250   3.850   1.623   0.284  2.2351 -0.5619 -0.4918
 1350SOL     OW 4251   1.438   4.069   0.055 -0.6456 -0.8231  0.4014
 1350SOL    HW1 4252   1.365   4.007   0.058 -1.4409  0.0933  0.6766
 1350SOL    HW2 4253   1.408   4.138  -0.004 -0.8494  0.5885  2.0844
 1351SOL     OW 4254   3.194   4.374   4.023  0.2689  0.0235  0.2012
 1351SOL    HW1 4255   3.242   4.325   3.957  0.2766 -0.0081  0.2309
 1351SOL    HW2 4256   3.102   4.357   4.003  0.2710  0.0232  0.1917
 1352SOL     OW 4257   1.811   3.129   1.763 -0.4669  0.3578  0.1470
 1352SOL    HW1 4258   1.884   3.113   1.823  0.4404 -1.2353 -1.3112
 1352SOL    HW2 4259   1.841   3.098   1.678 -1.5494  2.9238 -1.3093
 1353SOL     OW 4260   1.671   0.652   1.614  0.2045 -0.0025  0.0543
 1353SOL    HW1 4261   1.616   0.605   1.552  0.7141  0.5823 -0.8638
 1353SOL    HW2 4262   1.612   0.717   1.653  0.1153  0.3029 -0.5734
 1354SOL     OW 4263   1.925   0.928   3.603 -0.2916  0.0517  0.1256
 1354SOL    HW1 4264   2.012   0.964   3.616  0.2990 -1.0160 -0.6673
 1354SOL    HW2 4265   1.865   0.998   3.629  0.7953  0.6696  1.0164
 1355SOL     OW 4266   3.050   0.870   3.229  0.2441 -0.0948 -0.1670
 1355SOL    HW1 4267   3.013   0.936   3.171  2.9893  1.5711 -0.2093
 1355SOL    HW2 4268   2.996   0.792   3.215 -1.3240  1.2661 -2.2967
 1356SOL     OW 4269   0.149   0.741   2.119  0.2112 -0.3185  0.1432
 1356SOL    HW1 4270   0.239   0.721   2.093  0.0085  0.2566 -1.0668
 1356SOL    HW2 4271   0.147   0.837   2.128 -0.1791 -0.3597  0.5629
 1357SOL     OW 4272   3.662   0.162   1.729  0.2412  0.4425  0.5858
 1357SOL    HW1 4273   3.571   0.166   1.700 -0.2358 -0.1457  1.9359
 1357SOL    HW2 4274   3.705   0.233   1.681 -0.7236  0.1850 -0.7159
 1358SOL     OW 4275   1.828   3.631   0.034  0.1894  0.2874  0.1112
 1358SOL    HW1 4276   1.796   3.567   0.098  1.8360 -1.0745 -0.3621
 1358SOL    HW2 4277   1.832   3.583  -0.048  2.2219  0.7217 -0.0978
 1359SOL     OW 4278   4.415   1.292   1.190 -0.6900 -0.4212  0.4634
 1359SOL    HW1 4279   4.407   1.387   1.180  0.0250 -0.3245  0.6993
 1359SOL    HW2 4280   4.451   1.280   1.278  3.4073 -0.6220 -1.0133
 1360SOL     OW 4281   1.007   2.980   2.025  0.2640  0.4167 -0.1211
 1360SOL    HW1 4282   0.954   3.059   2.040  0.2662  0.3680  0.1575
 1360SOL    HW2 4283   1.097   3.009   2.037  0.1634 -0.2813  3.2964
 1361SOL     OW 4284   3.925   4.631   3.688  0.0346  0.4896 -0.3356
 1361SOL    HW1 4285   4.013   4.645   3.655  0.6706 -1.9330  0.1304
 1361SOL    HW2 4286   3.935   4.634   3.784 -0.5170  0.7788 -0.2812
 1362SOL     OW 4287   3.165   0.194   4.057  0.1299 -0.2650 -0.0410
 1362SOL    HW1 4288   3.097   0.161   4.116  1.0229 -1.5486  0.3111
 1362SOL    HW2 4289   3.130   0.276   4.023 -0.7546  0.0958  1.6471
 1363SOL     OW 4290   1.088   4.725   3.251 -0.1183 -0.4607  0.2185
 1363SOL    HW1 4291   1.151   4.705   3.321 -0.3714 -0.3508  0.4825
 1363SOL    HW2 4292   1.040   4.644   3.238  0.6851 -0.8132 -0.6218
 1364SOL     OW 4293   1.150   4.092   0.391  0.0617 -0.0245 -0.5428
 1364SOL    HW1 4294   1.238   4.057   0.377  0.6713  1.5525 -0.8531
 1364SOL    HW2 4295   1.151   4.123   0.482 -0.3947 -0.5745 -0.3448
 1365SOL     OW 4296   1.299   2.764   4.325  0.3405  0.3966 -0.4567
 1365SOL    HW1 4297   1.242   2.827   4.369 -1.2946 -2.1115  1.2812
 1365SOL    HW2 4298   1.334   2.710   4.397  2.6589  0.0535 -1.7506
 1366SOL     OW 4299   1.394   0.378   0.020  0.6369 -0.3621 -0.6552
 1366SOL    HW1 4300   1.457   0.417   0.080 -1.0373 -0.5268  1.3039
 1366SOL    HW2 4301   1.409   0.283   0.028 -0.9724 -0.4971  1.1657
 1367SOL     OW 4302   4.110   1.745   1.467 -0.1833 -0.1532  0.0832
 1367SOL    HW1 4303   4.183   1.804   1.485 -0.2173 -0.1779  0.3133
 1367SOL    HW2 4304   4.141   1.660   1.499 -0.9599  0.1672  1.8152
 1368SOL     OW 4305   0.511   4.497   1.949 -0.3578 -0.1196 -0.0613
 1368SOL    HW1 4306   0.576   4.539   1.893  0.6071 -0.7206  0.5774
 1368SOL    HW2 4307   0.541   4.513   2.039 -0.8680 -0.7392  0.2362
 1369SOL     OW 4308   1.642   0.006   0.319 -0.0596 -0.0599 -0.4034
 1369SOL    HW1 4309   1.724  -0.031   0.285  1.7811  2.2418  1.2249
 1369SOL    HW2 4310   1.620  -0.049   0.394  2.4511  1.6492  1.7738
 1370SOL     OW 4311   1.404   3.669   0.212 -0.0991 -0.4665 -0.6248
 1370SOL    HW1 4312   1.432   3.729   0.281 -2.4976  0.3835 -0.2699
 1370SOL    HW2 4313   1.414   3.582   0.250 -0.2156 -0.0640  0.3457
 1371SOL     OW 4314   0.380   2.063   4.680 -0.3849 -0.7392  0.0635
 1371SOL    HW1 4315   0.317   2.006   4.724 -1.5130  0.2007 -0.2889
 1371SOL    HW2 4316   0.440   2.003   4.637  0.1234 -1.6765  1.9816
 1372SOL     OW 4317   3.925   1.911   0.845 -0.3289 -0.3298 -0.3233
 1372SOL    HW1 4318   3.873   1.831   0.841  0.2429 -0.7329  0.1796
 1372SOL    HW2 4319   3.899   1.960   0.767 -0.9049 -0.8638 -0.4764
 1373SOL     OW 4320   4.651   3.981   4.428 -0.2553  0.1659  0.5683
 1373SOL    HW1 4321   4.633   3.911   4.365 -0.5008  0.9578 -0.2599
 1373SOL    HW2 4322   4.573   3.984   4.483  0.1429 -0.8282  1.2245
 1374SOL     OW 4323   2.574   0.649   3.775 -0.3949 -0.7691  0.1101
 1374SOL    HW1 4324   2.565   0.555   3.793 -2.8953 -0.5034  0.7495
 1374SOL    HW2 4325   2.520   0.663   3.697 -0.2930  0.1636  0.2027
 1375SOL     OW 4326   3.704   2.612   4.032 -0.0086 -0.2596 -0.0401
 1375SOL    HW1 4327   3.670   2.583   4.116  0.0798  0.6309  0.3153
 1375SOL    HW2 4328   3.741   2.533   3.992 -0.7611 -0.8426  0.4033
 1376SOL     OW 4329   1.499   1.216   1.503  0.3517 -0.1469 -0.0763
 1376SOL    HW1 4330   1.407   1.220   1.528  0.0876  0.7106 -1.1050
 1376SOL    HW2 4331   1.500   1.247   1.412  1.4954 -1.2987 -0.4967
 1377SOL     OW 4332   2.930   3.499   4.692  0.2565  0.4288 -0.1765
 1377SOL    HW1 4333   2.969   3.585   4.681  1.9606 -0.3585 -0.7542
 1377SOL    HW2 4334   2.957   3.450   4.614 -0.5097 -0.6856  0.2234
 1378SOL     OW 4335   0.639   2.100   2.571  0.0814  0.1842  0.0237
 1378SOL    HW1 4336   0.569   2.057   2.620 -0.6119  1.3826  0.1154
 1378SOL    HW2 4337   0.669   2.034   2.509  0.4454 -1.1151  1.5183
 1379SOL     OW 4338   1.544   3.146   0.101 -0.4671 -0.1180  0.7351
 1379SOL    HW1 4339   1.530   3.065   0.052 -1.8009  0.5232  0.0149
 1379SOL    HW2 4340   1.628   3.179   0.070 -0.1374 -0.9670  0.6962
 1380SOL     OW 4341   3.519   3.257   1.340  0.1903  0.6748 -0.1464
 1380SOL    HW1 4342   3.564   3.173   1.335 -0.5001  0.1065  1.9964
 1380SOL    HW2 4343   3.426   3.234   1.335 -0.0103  1.7379 -3.5616
 1381SOL     OW 4344   3.007   0.959   2.522 -0.1000  0.2453 -0.2878
 1381SOL    HW1 4345   3.027   1.052   2.539 -1.0549  0.3846  0.1514
 1381SOL    HW2 4346   3.013   0.917   2.608  1.4121 -0.3258 -0.6581
 1382SOL     OW 4347   3.231   1.615   0.120 -0.1868 -0.2771  0.3066
 1382SOL    HW1 4348   3.226   1.672   0.197 -0.7332 -0.6047  0.5169
 1382SOL    HW2 4349   3.248   1.675   0.047  0.9092 -0.0192  0.7550
 1383SOL     OW 4350   0.195   3.212   1.509 -0.1199  0.0021  0.3045
 1383SOL    HW1 4351   0.193   3.217   1.605  1.6144  0.0596  0.3558
 1383SOL    HW2 4352   0.140   3.136   1.488 -0.5094 -0.0220  1.3343
 1384SOL     OW 4353   1.133   4.538   1.032 -0.2897  0.6182 -0.8286
 1384SOL    HW1 4354   1.141   4.628   1.062 -1.3879  0.4507  0.0702
 1384SOL    HW2 4355   1.182   4.486   1.096 -1.7942  0.3565  0.1648
 1385SOL     OW 4356   3.872   4.083   0.013 -0.0976  0.3319 -0.2162
 1385SOL    HW1 4357   3.914   4.138   0.079 -1.4945  1.0256  0.1282
 1385SOL    HW2 4358   3.799   4.042   0.059 -0.6817  0.2984 -1.1525
 1386SOL     OW 4359   2.740   1.276   2.414  0.3308  0.0419 -0.2601
 1386SOL    HW1 4360   2.724   1.182   2.422 -4.1800  0.7021  1.3726
 1386SOL    HW2 4361   2.766   1.304   2.502  0.3805  0.4878 -0.4098
 1387SOL     OW 4362   3.213   0.025   3.153 -0.3179 -0.2429  0.7865
 1387SOL    HW1 4363   3.117   0.026   3.160 -0.4709 -0.3391 -0.9772
 1387SOL    HW2 4364   3.243   0.031   3.244 -1.9698  1.3263  1.2864
 1388SOL     OW 4365   0.815   4.359   4.690  0.3645  0.1633  0.6753
 1388SOL    HW1 4366   0.734   4.380   4.643 -0.5210 -0.4924  1.8391
 1388SOL    HW2 4367   0.854   4.288   4.640  0.4433  0.7489 -0.1177
 1389SOL     OW 4368   2.071   2.687   2.497  0.0132  0.2285 -0.7370
 1389SOL    HW1 4369   2.074   2.667   2.403 -1.3520 -4.3305 -0.0503
 1389SOL    HW2 4370   1.992   2.739   2.508 -0.6928 -0.5428 -1.9695
 1390SOL     OW 4371   3.499   3.902   4.099 -0.0037 -0.1346  0.0189
 1390SOL    HW1 4372   3.478   3.809   4.087 -0.8263  0.0376  0.0866
 1390SOL    HW2 4373   3.525   3.932   4.012 -0.2109 -0.3048 -0.1025
 1391SOL     OW 4374   2.934   4.030   0.836 -0.3568 -0.1284 -0.0934
 1391SOL    HW1 4375   3.023   4.043   0.869 -1.0689 -0.5020  2.1733
 1391SOL    HW2 4376   2.924   3.935   0.831 -0.4930 -0.0844 -0.7793
 1392SOL     OW 4377   1.779   1.743   0.251 -0.5626  0.0149 -0.5030
 1392SOL    HW1 4378   1.703   1.770   0.304 -0.4123 -0.8603  0.1826
 1392SOL    HW2 4379   1.808   1.824   0.209 -1.8843  0.3670 -0.8011
 1393SOL     OW 4380   4.542   2.719   1.240  0.6382  0.6044  0.3227
 1393SOL    HW1 4381   4.555   2.655   1.310  1.5319 -0.0603 -0.4150
 1393SOL    HW2 4382   4.527   2.666   1.161 -2.5054  1.3183  0.2983
 1394SOL     OW 4383   1.457   2.991   4.315 -0.5158 -0.2902 -0.2934
 1394SOL    HW1 4384   1.399   2.916   4.304  1.0187 -1.4525 -0.7902
 1394SOL    HW2 4385   1.465   3.029   4.228 -1.9898  1.0568  0.1033
 1395SOL     OW 4386   0.475   1.712   0.677 -0.2226 -0.4275 -0.5327
 1395SOL    HW1 4387   0.409   1.698   0.610 -0.3900 -0.5979 -0.3357
 1395SOL    HW2 4388   0.558   1.709   0.631 -0.2270 -2.1814 -0.5090
 1396SOL     OW 4389   1.914   1.191   0.840  0.2530  0.4998 -0.3069
 1396SOL    HW1 4390   1.875   1.110   0.870  0.2936  0.9502  1.0233
 1396SOL    HW2 4391   1.991   1.203   0.896 -0.1266  1.7845 -0.0280
 1397SOL     OW 4392   1.739   1.463   3.284 -0.3094  0.2388 -0.2872
 1397SOL    HW1 4393   1.735   1.557   3.302 -0.1537  0.1990 -0.0375
 1397SOL    HW2 4394   1.682   1.423   3.349  0.3744  0.0806  0.2195
 1398SOL     OW 4395   0.355   4.573   4.328 -0.6560  0.6276  0.1175
 1398SOL    HW1 4396   0.291   4.643   4.344  0.1683  2.4517 -3.5453
 1398SOL    HW2 4397   0.436   4.606   4.366 -0.6090  0.9999 -0.2955
 1399SOL     OW 4398   1.551   2.861   3.710  0.4886 -0.2289  0.2095
 1399SOL    HW1 4399   1.545   2.767   3.696 -1.4091 -0.4529  2.0115
 1399SOL    HW2 4400   1.608   2.870   3.787  3.3836  0.3996 -1.8223
 1400SOL     OW 4401   3.668   2.133   0.070 -0.3199  0.4133 -0.4115
 1400SOL    HW1 4402   3.690   2.045   0.101 -1.1852  0.3514  0.0435
 1400SOL    HW2 4403   3.750   2.167   0.034  0.1766 -0.3329  0.0002
 1401SOL     OW 4404   4.229   2.158   2.377 -0.1915  0.2749 -0.1499
 1401SOL    HW1 4405   4.174   2.142   2.454  1.1326 -0.2366  0.7265
 1401SOL    HW2 4406   4.247   2.252   2.380  1.4464 -0.0327  1.3317
 1402SOL     OW 4407   0.972   0.651   3.032 -0.0623 -0.0464 -0.1032
 1402SOL    HW1 4408   0.912   0.652   3.106  0.9167  0.4366  0.7104
 1402SOL    HW2 4409   1.045   0.707   3.059 -0.1896  1.0689 -1.8746
 1403SOL     OW 4410   3.924   1.847   3.551  0.0291  0.9061 -0.1371
 1403SOL    HW1 4411   3.904   1.852   3.645  0.4816  0.3604 -0.0014
 1403SOL    HW2 4412   3.948   1.936   3.527  1.2335  0.8114  0.5942
 1404SOL     OW 4413   1.417   2.141   4.781 -0.0226  0.5943  0.2618
 1404SOL    HW1 4414   1.382   2.085   4.711 -0.9430  0.7720  0.5793
 1404SOL    HW2 4415   1.381   2.228   4.762 -2.0219  0.2379  2.1321
 1405SOL     OW 4416   4.711   1.250   0.531 -0.3428 -0.5661  0.2635
 1405SOL    HW1 4417   4.622   1.259   0.566  0.1142 -0.4083  1.4062
 1405SOL    HW2 4418   4.705   1.286   0.443 -1.5038 -0.9170  0.1788
 1406SOL     OW 4419   0.603   3.677   4.469  0.1292  0.5121 -0.2811
 1406SOL    HW1 4420   0.528   3.637   4.424 -0.0082  0.0470  0.3425
 1406SOL    HW2 4421   0.569   3.701   4.555  0.5567  0.8026 -0.1886
 1407SOL     OW 4422   0.484   1.584   1.820  0.0354 -0.5314 -0.4131
 1407SOL    HW1 4423   0.560   1.627   1.860 -1.5049 -0.5379  2.8210
 1407SOL    HW2 4424   0.517   1.499   1.792  1.6242  0.1846 -0.8722
 1408SOL     OW 4425   2.091   4.240   2.311  0.3321 -0.0374  0.3152
 1408SOL    HW1 4426   2.009   4.274   2.348  0.1978  1.4366 -1.2445
 1408SOL    HW2 4427   2.063   4.189   2.235  0.8231 -0.0775  0.1605
 1409SOL     OW 4428   2.929   3.264   4.193  0.3556  0.6561  0.3378
 1409SOL    HW1 4429   2.910   3.180   4.236  0.7719  0.5654  0.3438
 1409SOL    HW2 4430   2.986   3.241   4.120 -0.4942  0.7851 -0.3829
 1410SOL     OW 4431   2.281   2.422   3.409  0.1161  0.2765 -0.2953
 1410SOL    HW1 4432   2.189   2.430   3.436  0.0908 -1.0578  0.1026
 1410SOL    HW2 4433   2.319   2.507   3.428 -0.8708  0.6209  0.2269
 1411SOL     OW 4434   3.990   4.153   3.162  0.4047 -0.0495  0.3297
 1411SOL    HW1 4435   3.943   4.156   3.246 -1.6500  2.3398 -0.7624
 1411SOL    HW2 4436   4.043   4.233   3.162 -1.2041  1.0734 -1.4388
 1412SOL     OW 4437   0.026   1.679   2.938  0.4847 -0.2625  0.2044
 1412SOL    HW1 4438  -0.010   1.757   2.896  0.9138 -1.2304 -2.0742
 1412SOL    HW2 4439   0.121   1.694   2.938  0.5209 -0.4918  0.4225
 1413SOL     OW 4440   0.803   1.214   1.664 -0.4072  0.4874 -0.1017
 1413SOL    HW1 4441   0.878   1.178   1.712 -0.9920  0.9168  1.1853
 1413SOL    HW2 4442   0.816   1.186   1.574  0.4218 -0.8560  0.4137
 1414SOL     OW 4443   1.971   2.320   4.398 -0.5427 -0.4283  0.5071
 1414SOL    HW1 4444   1.943   2.275   4.478 -0.3091 -2.1275 -0.3125
 1414SOL    HW2 4445   1.977   2.250   4.332  0.5789  0.7055 -0.6531
 1415SOL     OW 4446   3.900   1.063   3.144  0.2497  0.0282 -0.3349
 1415SOL    HW1 4447   3.916   0.969   3.141 -0.8186 -0.1967  0.6137
 1415SOL    HW2 4448   3.928   1.090   3.231 -0.1391  0.4545 -0.3365
 1416SOL     OW 4449   0.569   3.695   1.239 -0.6127  0.0385 -0.2859
 1416SOL    HW1 4450   0.579   3.727   1.150 -1.7509  0.9386 -0.1103
 1416SOL    HW2 4451   0.553   3.601   1.229 -4.3529  0.6157 -1.3722
 1417SOL     OW 4452   2.357   4.813   1.583 -0.0205 -0.1472 -0.4723
 1417SOL    HW1 4453   2.397   4.809   1.496 -1.1928  0.3467 -1.0402
 1417SOL    HW2 4454   2.375   4.901   1.615  1.7451 -0.7832  0.4735
 1418SOL     OW 4455   0.432   1.834   1.155  0.4729 -0.6021  0.0020
 1418SOL    HW1 4456   0.387   1.914   1.129  0.0004 -0.3881  1.4324
 1418SOL    HW2 4457   0.519   1.842   1.118  0.0077 -0.0564 -1.0133
 1419SOL     OW 4458   2.857   1.931   2.358  0.5901 -0.5472  0.0954
 1419SOL    HW1 4459   2.815   1.862   2.308 -0.3411  0.0823 -0.0216
 1419SOL    HW2 4460   2.841   1.908   2.450 -0.3203 -0.1527  0.0516
 1420SOL     OW 4461   1.126   3.503   4.387 -0.7408  0.1725 -0.4422
 1420SOL    HW1 4462   1.059   3.438   4.367 -1.0559 -0.0813  1.2912
 1420SOL    HW2 4463   1.077   3.585   4.395 -0.4164  0.5740 -2.0612
 1421SOL     OW 4464   0.726   0.163   2.770 -0.0753 -0.4930 -0.5102
 1421SOL    HW1 4465   0.681   0.192   2.690 -0.2183 -1.1896 -0.6935
 1421SOL    HW2 4466   0.766   0.242   2.805  0.8774 -0.3355 -1.8438
 1422SOL     OW 4467   2.102   1.617   1.315 -0.0394  0.3151  0.8041
 1422SOL    HW1 4468   2.033   1.569   1.360  1.0756 -1.6772  0.5010
 1422SOL    HW2 4469   2.172   1.625   1.379 -0.5837  2.6405  1.2285
 1423SOL     OW 4470   3.480   0.815   1.492 -0.3990  0.2234  0.7271
 1423SOL    HW1 4471   3.420   0.847   1.559 -0.5260 -1.6566  1.5715
 1423SOL    HW2 4472   3.551   0.773   1.540  0.8958  1.1479 -0.2954
 1424SOL     OW 4473   3.065   1.474   2.370  0.0702  0.0545  0.3341
 1424SOL    HW1 4474   3.159   1.489   2.358  0.3971 -1.1748  1.1945
 1424SOL    HW2 4475   3.035   1.446   2.284  0.9520 -1.6822  0.5567
 1425SOL     OW 4476   3.494   3.721   4.430 -0.0741 -0.2570  0.4559
 1425SOL    HW1 4477   3.457   3.754   4.512 -1.1037  1.4983 -0.6616
 1425SOL    HW2 4478   3.579   3.765   4.422  1.3556 -2.5268  1.8652
 1426SOL     OW 4479   4.189   0.662   1.547 -0.5265  0.0255  0.0218
 1426SOL    HW1 4480   4.278   0.642   1.521 -0.7343 -4.0560  1.7206
 1426SOL    HW2 4481   4.137   0.654   1.467  0.3012 -0.0890 -0.5088
 1427SOL     OW 4482   4.348   0.505   0.183 -0.1803  0.3671  0.1843
 1427SOL    HW1 4483   4.401   0.483   0.107  0.7092 -1.7021  1.3291
 1427SOL    HW2 4484   4.303   0.424   0.206 -0.7278  1.0380  1.6333
 1428SOL     OW 4485   3.619   1.054   1.710  0.0220 -0.0754  0.3381
 1428SOL    HW1 4486   3.657   1.134   1.747 -0.4811  0.0513  0.5967
 1428SOL    HW2 4487   3.629   0.989   1.780 -1.5228  0.3346  0.9800
 1429SOL     OW 4488   0.789   3.534   4.339  0.0121 -0.6064  0.0381
 1429SOL    HW1 4489   0.880   3.563   4.327 -0.8063  1.9502 -0.6040
 1429SOL    HW2 4490   0.749   3.600   4.395 -1.5011 -1.6520  0.2630
 1430SOL     OW 4491   2.915   4.415   0.469 -0.0254 -0.2047 -0.4791
 1430SOL    HW1 4492   2.945   4.350   0.532  1.0879  1.3324  0.6604
 1430SOL    HW2 4493   2.832   4.380   0.435 -2.0446 -0.0332  3.6818
 1431SOL     OW 4494   4.408   0.748   1.090  0.4525  0.0036  0.3329
 1431SOL    HW1 4495   4.337   0.711   1.038  0.0041 -0.2386  1.0896
 1431SOL    HW2 4496   4.484   0.748   1.032  0.0923 -0.7244 -0.1475
 1432SOL     OW 4497   3.841   0.167   3.608  0.3028  0.1233  0.0951
 1432SOL    HW1 4498   3.925   0.125   3.592  0.7422 -0.0249  2.5057
 1432SOL    HW2 4499   3.816   0.203   3.523  2.4102 -0.4921 -0.8485
 1433SOL     OW 4500   4.499   3.063   1.990  0.1428  0.0737  0.0113
 1433SOL    HW1 4501   4.519   2.971   1.970  1.9961  0.5311 -0.4981
 1433SOL    HW2 4502   4.405   3.065   2.004  0.1010 -1.9722  0.3814
 1434SOL     OW 4503   0.652   2.912   4.616 -0.2163  0.1594 -0.2579
 1434SOL    HW1 4504   0.559   2.932   4.629 -0.3049 -0.4300  0.0305
 1434SOL    HW2 4505   0.695   2.951   4.692 -0.3106 -0.1814 -0.0298
 1435SOL     OW 4506   0.069   0.686   4.329 -0.1898 -0.1422  0.2789
 1435SOL    HW1 4507  -0.012   0.636   4.339 -0.1467 -0.1474  0.6185
 1435SOL    HW2 4508   0.138   0.627   4.357 -0.0849 -0.0729  0.1698
 1436SOL     OW 4509   1.435   0.412   3.682 -0.2137  0.3268 -0.5446
 1436SOL    HW1 4510   1.392   0.454   3.756  0.1542 -0.9846  0.4641
 1436SOL    HW2 4511   1.502   0.474   3.654 -0.0139  0.6429  0.5773
 1437SOL     OW 4512   0.742   4.114   3.709 -0.4188 -0.2047 -0.3167
 1437SOL    HW1 4513   0.647   4.113   3.701 -0.4981  1.9348 -0.1883
 1437SOL    HW2 4514   0.759   4.165   3.789  0.8072 -2.9490  1.3253
 1438SOL     OW 4515   3.169   0.546   3.594 -0.2799 -0.1199  0.3698
 1438SOL    HW1 4516   3.122   0.628   3.610 -0.8089 -0.7799  2.3928
 1438SOL    HW2 4517   3.170   0.538   3.498 -0.0862  2.3026  0.1076
 1439SOL     OW 4518   1.086   3.765   3.222  0.3890  0.1264  0.3728
 1439SOL    HW1 4519   1.041   3.736   3.142  0.0460  1.2595  0.1426
 1439SOL    HW2 4520   1.149   3.695   3.239 -1.7886 -1.8329  1.0421
 1440SOL     OW 4521   1.935   4.011   3.177  0.7567 -0.0860  0.3278
 1440SOL    HW1 4522   1.986   3.984   3.100  0.6543  0.2281  0.1480
 1440SOL    HW2 4523   1.919   4.104   3.164 -0.0772 -0.2267  0.2477
 1441SOL     OW 4524   2.524   3.367   0.697  0.2855 -0.1745  0.2255
 1441SOL    HW1 4525   2.479   3.312   0.761 -0.4247  2.4266  2.1528
 1441SOL    HW2 4526   2.456   3.425   0.663  1.3029  0.7424 -0.3275
 1442SOL     OW 4527   0.576   0.944   1.326  0.5492 -0.0264  0.5814
 1442SOL    HW1 4528   0.515   0.917   1.257  1.4960 -0.5556 -0.0751
 1442SOL    HW2 4529   0.584   0.866   1.382  0.6234  0.0455  0.6706
 1443SOL     OW 4530   3.436   2.765   3.511 -0.2767  0.0918  0.1993
 1443SOL    HW1 4531   3.459   2.787   3.420  1.0501 -4.5715 -0.8754
 1443SOL    HW2 4532   3.341   2.762   3.511 -0.3861  2.1065 -0.4048
 1444SOL     OW 4533   0.297   0.393   1.430 -0.1903  0.2231 -0.2155
 1444SOL    HW1 4534   0.330   0.400   1.341  0.9215  2.0425  0.2872
 1444SOL    HW2 4535   0.210   0.356   1.421  0.5691 -1.2800 -1.8966
 1445SOL     OW 4536   1.603   3.331   2.374  0.9622  0.2027  0.3088
 1445SOL    HW1 4537   1.687   3.314   2.418  0.5259 -1.9818  0.4302
 1445SOL    HW2 4538   1.547   3.366   2.443  0.8455 -1.4194  1.0896
 1446SOL     OW 4539   0.840   4.500   2.931  0.1298  0.8527  0.0019
 1446SOL    HW1 4540   0.850   4.564   2.861 -2.1558  0.6044 -0.6151
 1446SOL    HW2 4541   0.801   4.424   2.889 -0.4249  0.3516  1.3822
 1447SOL     OW 4542   0.762   2.349   4.109 -0.3245 -0.7632  1.1489
 1447SOL    HW1 4543   0.710   2.269   4.108 -1.1356 -0.2660 -0.8511
 1447SOL    HW2 4544   0.699   2.419   4.124 -0.6121 -0.0229 -2.5702
 1448SOL     OW 4545   1.636   0.960   1.431  0.0595 -0.6017 -0.0305
 1448SOL    HW1 4546   1.696   0.925   1.496  0.1564 -0.2159  0.0927
 1448SOL    HW2 4547   1.616   1.049   1.463  0.4214 -0.2615 -0.7302
 1449SOL     OW 4548   2.201   3.033   0.208  0.1241  0.5203 -0.1000
 1449SOL    HW1 4549   2.236   3.114   0.173  1.0985 -0.5077 -1.6622
 1449SOL    HW2 4550   2.115   3.056   0.242  0.6951  2.3307  0.1814
 1450SOL     OW 4551   0.619   0.144   3.794 -0.5127  0.0260 -0.6572
 1450SOL    HW1 4552   0.670   0.152   3.714 -2.0169  0.1044 -1.6675
 1450SOL    HW2 4553   0.564   0.222   3.796 -0.4757  0.0427  0.4819
 1451SOL     OW 4554   4.301   0.430   4.560  0.5805  0.4446  0.4156
 1451SOL    HW1 4555   4.295   0.512   4.609  0.1458  1.5139 -1.3193
 1451SOL    HW2 4556   4.212   0.396   4.559  0.6422  0.2762  0.5989
 1452SOL     OW 4557   3.331   3.846   0.766 -0.0202 -0.2130  0.6025
 1452SOL    HW1 4558   3.382   3.765   0.774  0.3861  0.0971  1.1884
 1452SOL    HW2 4559   3.276   3.831   0.689  1.0714 -0.4877 -0.1562
 1453SOL     OW 4560   2.331   3.188   4.032  0.3271  0.0842  0.0781
 1453SOL    HW1 4561   2.366   3.267   3.990 -0.2211  0.6185  0.6107
 1453SOL    HW2 4562   2.409   3.140   4.061  0.6477  1.1681  1.0772
 1454SOL     OW 4563   2.911   3.751   0.756  0.2543 -0.1415  0.0059
 1454SOL    HW1 4564   2.830   3.761   0.707  0.1017  1.4977  0.5279
 1454SOL    HW2 4565   2.980   3.774   0.693  0.1992  0.0294  0.0081
 1455SOL     OW 4566   3.464   4.259   1.691 -0.7310 -0.4583 -0.3607
 1455SOL    HW1 4567   3.381   4.218   1.669 -0.7349 -0.2347 -0.7851
 1455SOL    HW2 4568   3.523   4.235   1.619 -0.5142 -0.3671 -0.2164
 1456SOL     OW 4569   1.238   2.157   2.617 -0.2601  0.4672  0.9458
 1456SOL    HW1 4570   1.152   2.139   2.578  0.2443  0.6978 -0.3373
 1456SOL    HW2 4571   1.269   2.234   2.570  0.7917  0.1700  1.1396
 1457SOL     OW 4572   1.017   1.984   1.807  0.3004 -0.5961 -0.2273
 1457SOL    HW1 4573   0.981   1.947   1.727 -1.4832  1.0338 -0.2380
 1457SOL    HW2 4574   0.941   1.998   1.863  1.1002  1.3587  0.4502
 1458SOL     OW 4575   3.833   3.694   2.588  0.1424 -0.1138  0.4122
 1458SOL    HW1 4576   3.793   3.651   2.512  0.4030 -0.4738  0.4770
 1458SOL    HW2 4577   3.860   3.780   2.556  1.1155 -0.6164 -0.1636
 1459SOL     OW 4578   1.750   0.087   2.023 -0.3245 -0.0066  0.4075
 1459SOL    HW1 4579   1.695   0.081   2.102 -1.3073 -0.9578 -0.3215
 1459SOL    HW2 4580   1.741   0.001   1.981  1.5859 -0.1309  0.1536
 1460SOL     OW 4581   0.586   3.904   0.362  0.0792 -0.0250  0.2767
 1460SOL    HW1 4582   0.519   3.846   0.399 -0.8676  1.3405  0.7783
 1460SOL    HW2 4583   0.655   3.906   0.428 -0.0348 -0.2937  0.4081
 1461SOL     OW 4584   1.434   3.445   3.409 -0.2067  0.0918 -0.2658
 1461SOL    HW1 4585   1.448   3.385   3.482 -0.4132  0.2173 -0.1225
 1461SOL    HW2 4586   1.466   3.530   3.440  1.3419 -0.2055 -0.9353
 1462SOL     OW 4587   0.898   1.717   3.692  0.2619 -0.6003 -0.1642
 1462SOL    HW1 4588   0.958   1.775   3.645  1.3971 -1.6318 -0.0288
 1462SOL    HW2 4589   0.937   1.630   3.684 -1.1486 -1.2820  0.0588
 1463SOL     OW 4590   3.571   1.486   4.633 -0.7120  0.7051 -0.2227
 1463SOL    HW1 4591   3.582   1.452   4.722  0.8602  0.3849 -0.5118
 1463SOL    HW2 4592   3.624   1.565   4.630 -1.4052  1.1722 -0.6558
 1464SOL     OW 4593   0.563   2.534   0.211 -0.1914  0.2835 -0.7154
 1464SOL    HW1 4594   0.472   2.521   0.235  0.0324  0.5851  0.3788
 1464SOL    HW2 4595   0.588   2.454   0.166 -0.8596 -0.0045 -0.5897
 1465SOL     OW 4596   0.715   2.311   1.056 -0.6995  0.0006 -0.0945
 1465SOL    HW1 4597   0.724   2.299   0.962  0.6517 -0.4125  0.0712
 1465SOL    HW2 4598   0.774   2.246   1.094 -1.3686  0.0377  1.0422
 1466SOL     OW 4599   1.150   2.129   2.100  0.3369 -0.3419  0.3595
 1466SOL    HW1 4600   1.160   2.203   2.160  1.7798  0.2495 -0.5248
 1466SOL    HW2 4601   1.056   2.114   2.095 -0.3086  3.1376 -1.3360
 1467SOL     OW 4602   2.841   1.945   1.835 -0.0777 -0.3557  0.1454
 1467SOL    HW1 4603   2.885   1.860   1.843 -0.2507 -0.3569  1.2223
 1467SOL    HW2 4604   2.882   1.999   1.902  0.4144  0.5935 -0.8915
 1468SOL     OW 4605   0.892   4.245   3.519 -0.4257  0.1567 -0.2769
 1468SOL    HW1 4606   0.856   4.183   3.583  1.2340  1.3616  1.9949
 1468SOL    HW2 4607   0.954   4.193   3.468  0.1749 -0.3425  0.9102
 1469SOL     OW 4608   3.087   3.557   4.053  0.0560 -0.3080  0.4849
 1469SOL    HW1 4609   3.115   3.629   3.997  0.2411 -0.1186  0.8178
 1469SOL    HW2 4610   3.138   3.568   4.134  0.6240 -1.2407  0.2626
 1470SOL     OW 4611   4.542   1.879   1.075 -0.0269  0.6508 -0.1864
 1470SOL    HW1 4612   4.458   1.872   1.030 -0.2104  1.9793 -0.0968
 1470SOL    HW2 4613   4.606   1.846   1.012 -0.6869 -1.5541  0.1859
 1471SOL     OW 4614   1.400   3.585   4.001  0.2496 -0.3389  0.0129
 1471SOL    HW1 4615   1.444   3.670   4.012  1.9875 -1.4133  2.3386
 1471SOL    HW2 4616   1.307   3.606   4.005  0.6102  1.5725 -0.5577
 1472SOL     OW 4617   3.626   1.710   1.049 -0.0678  0.7963 -0.0210
 1472SOL    HW1 4618   3.566   1.722   0.975  0.8525  0.1964 -0.9134
 1472SOL    HW2 4619   3.585   1.755   1.122 -1.2277  1.0373 -0.7967
 1473SOL     OW 4620   4.387   4.704   1.406  0.0027 -0.1327  0.0105
 1473SOL    HW1 4621   4.416   4.613   1.416  0.2248  0.0733  1.4572
 1473SOL    HW2 4622   4.411   4.727   1.316 -1.8903 -2.1299 -1.0999
 1474SOL     OW 4623   2.492   4.621   0.192 -0.0908 -0.1386  0.1562
 1474SOL    HW1 4624   2.514   4.654   0.279  0.3575  3.1458 -1.0326
 1474SOL    HW2 4625   2.575   4.591   0.155 -0.3339 -1.8321  0.9090
 1475SOL     OW 4626   3.358   2.126   4.281  0.1728  0.1879  0.0136
 1475SOL    HW1 4627   3.345   2.148   4.189  1.3194  1.2777  0.0725
 1475SOL    HW2 4628   3.317   2.198   4.329  0.7769  0.3455  0.3076
 1476SOL     OW 4629   1.853   0.300   3.073  0.0495  0.0392  0.5480
 1476SOL    HW1 4630   1.875   0.218   3.117 -0.1080 -0.6059 -0.5140
 1476SOL    HW2 4631   1.929   0.318   3.018 -0.3912 -0.0317 -0.0975
 1477SOL     OW 4632   3.888   2.620   4.393 -0.1332  0.0609  0.4689
 1477SOL    HW1 4633   3.868   2.662   4.477 -0.3010  0.8569  0.0339
 1477SOL    HW2 4634   3.813   2.562   4.378  0.0864 -0.3846  1.0586
 1478SOL     OW 4635   2.986   3.051   4.332 -0.0436  0.4207 -0.1409
 1478SOL    HW1 4636   3.077   3.050   4.302 -0.9052 -0.5559 -3.0521
 1478SOL    HW2 4637   2.983   2.984   4.401  0.8848 -1.8065 -2.1374
 1479SOL     OW 4638   3.319   3.554   0.022  0.3214 -0.5023 -0.5092
 1479SOL    HW1 4639   3.371   3.509  -0.045  1.5373  1.6867 -1.1456
 1479SOL    HW2 4640   3.374   3.628   0.049 -1.0623 -0.0709  1.3397
 1480SOL     OW 4641   0.024   2.601   2.571  0.1412  0.0360 -0.0238
 1480SOL    HW1 4642   0.013   2.507   2.589 -0.0238 -0.2959 -1.7566
 1480SOL    HW2 4643   0.082   2.604   2.495 -1.1085  1.2991 -0.9506
 1481SOL     OW 4644   0.040   0.436   2.422 -0.0210  0.5773  0.2671
 1481SOL    HW1 4645   0.090   0.430   2.340 -0.5104 -1.0110  0.0442
 1481SOL    HW2 4646   0.007   0.525   2.423  0.4272  0.7847 -1.0213
 1482SOL     OW 4647   2.007   3.907   2.924  0.8511  0.9462  0.4471
 1482SOL    HW1 4648   1.923   3.863   2.916  1.0460  0.6319  0.1013
 1482SOL    HW2 4649   2.051   3.891   2.840  1.9095 -0.2634  1.1876
 1483SOL     OW 4650   3.946   0.690   1.342 -0.3437  0.1190  0.6218
 1483SOL    HW1 4651   3.860   0.708   1.304  0.1016  1.2128  0.0860
 1483SOL    HW2 4652   3.933   0.700   1.436 -0.9872 -0.5582  0.6138
 1484SOL     OW 4653   1.610   4.310   4.244  0.3397 -0.5001  0.6162
 1484SOL    HW1 4654   1.601   4.405   4.246 -0.2929 -0.5382  0.0309
 1484SOL    HW2 4655   1.560   4.279   4.319  0.7857 -0.3551  0.9736
 1485SOL     OW 4656   2.383   2.502   3.807 -0.2961 -0.3139  0.9094
 1485SOL    HW1 4657   2.294   2.516   3.841  0.3241  1.7221  1.9072
 1485SOL    HW2 4658   2.382   2.542   3.720  0.6338  3.8903  2.5601
 1486SOL     OW 4659   3.117   1.207   3.800  0.1534 -0.5339  0.0655
 1486SOL    HW1 4660   3.089   1.191   3.710  0.5088 -0.6226 -0.0331
 1486SOL    HW2 4661   3.143   1.121   3.834  2.6652 -0.1684 -0.6768
 1487SOL     OW 4662   2.153   3.179   1.767  0.2938  0.4458  0.4238
 1487SOL    HW1 4663   2.116   3.117   1.704  1.3850  0.0065  0.1962
 1487SOL    HW2 4664   2.097   3.256   1.759  0.2149  0.2841 -0.8534
 1488SOL     OW 4665   0.157   3.018   3.265  0.0615 -0.4344 -0.0111
 1488SOL    HW1 4666   0.250   3.025   3.288  0.6378  0.4693 -2.3012
 1488SOL    HW2 4667   0.116   3.092   3.310  0.1778 -1.5455  2.0166
 1489SOL     OW 4668   4.434   4.001   4.587 -0.3811 -0.3676  0.7753
 1489SOL    HW1 4669   4.365   4.065   4.571 -0.4097 -0.3659  0.8999
 1489SOL    HW2 4670   4.394   3.939   4.648 -0.0351  0.0344  1.4223
 1490SOL     OW 4671   3.665   2.759   2.365  0.1452  0.1578  0.1723
 1490SOL    HW1 4672   3.744   2.778   2.415 -0.5606  1.1237  0.9613
 1490SOL    HW2 4673   3.598   2.743   2.431 -0.8052  1.4531 -0.4174
 1491SOL     OW 4674   0.251   3.081   2.526  0.2827  0.0794 -0.3607
 1491SOL    HW1 4675   0.298   3.087   2.610 -0.8375  0.5759  0.2549
 1491SOL    HW2 4676   0.194   3.004   2.537 -1.9305  1.7257  0.4647
 1492SOL     OW 4677   1.145   1.289   3.253 -0.3613 -0.0882 -0.8628
 1492SOL    HW1 4678   1.226   1.250   3.220  0.6164  2.0570 -1.1563
 1492SOL    HW2 4679   1.106   1.332   3.176 -0.5977  0.8121 -0.2614
 1493SOL     OW 4680   3.415   0.331   1.639  0.0762  0.5353  0.0035
 1493SOL    HW1 4681   3.470   0.406   1.662  0.1896  0.4417  0.0420
 1493SOL    HW2 4682   3.325   0.361   1.653  0.0559  1.0419 -1.0677
 1494SOL     OW 4683   3.093   1.085   4.116  0.0853 -0.2631  0.3902
 1494SOL    HW1 4684   3.086   1.151   4.185 -0.6379  2.6102 -2.2178
 1494SOL    HW2 4685   3.011   1.035   4.122  0.1391 -0.2292  1.6961
 1495SOL     OW 4686   0.421   2.434   2.777 -0.4311 -0.2894 -0.4105
 1495SOL    HW1 4687   0.403   2.395   2.692  0.0338  1.9665 -1.6387
 1495SOL    HW2 4688   0.371   2.516   2.777 -1.4817 -0.8382  2.0752
 1496SOL     OW 4689   2.512   0.548   3.290 -0.3262  0.0035 -0.8320
 1496SOL    HW1 4690   2.438   0.499   3.254 -0.3292 -0.6950  0.0809
 1496SOL    HW2 4691   2.539   0.606   3.219 -2.5680  1.2271 -0.7638
 1497SOL     OW 4692   0.529   3.470   3.645 -0.3662  0.6315  0.1503
 1497SOL    HW1 4693   0.604   3.503   3.596  0.0246  0.2408  0.4682
 1497SOL    HW2 4694   0.460   3.535   3.632 -0.1540  0.7019 -0.6183
 1498SOL     OW 4695   4.636   4.564   4.588  0.6363  0.6310  0.6869
 1498SOL    HW1 4696   4.703   4.564   4.656  0.2592  2.4867  1.1111
 1498SOL    HW2 4697   4.581   4.640   4.609 -0.3739  0.3556 -0.8367
 1499SOL     OW 4698   3.344   1.391   2.009  0.2374  0.5653  0.2922
 1499SOL    HW1 4699   3.282   1.323   2.038  1.5095 -0.1568  1.4592
 1499SOL    HW2 4700   3.327   1.401   1.916  0.2015 -1.5997  0.0080
 1500SOL     OW 4701   3.325   3.138   1.709 -0.3262 -0.4350 -0.1045
 1500SOL    HW1 4702   3.337   3.220   1.661  1.4804 -0.8432 -0.4040
 1500SOL    HW2 4703   3.285   3.164   1.792  3.1241  1.2396  1.1985
 1501SOL     OW 4704   1.405   3.108   3.197  0.0062  0.1019 -0.3252
 1501SOL    HW1 4705   1.351   3.128   3.273  0.0208  0.5158 -0.4244
 1501SOL    HW2 4706   1.447   3.191   3.174  1.9745 -0.5242  0.7381
 1502SOL     OW 4707   1.496   2.347   3.655  0.5588 -0.2716 -0.0571
 1502SOL    HW1 4708   1.472   2.274   3.599  1.5034 -0.0432 -0.7853
 1502SOL    HW2 4709   1.556   2.309   3.720  0.6508 -0.2487 -0.1279
 1503SOL     OW 4710   0.810   2.039   3.245 -0.8068 -0.1489  0.0406
 1503SOL    HW1 4711   0.839   2.100   3.176 -1.5605  0.8231  0.5587
 1503SOL    HW2 4712   0.799   1.955   3.199  0.7755 -0.0564 -0.5796
 1504SOL     OW 4713   0.892   1.916   1.588  0.0364 -0.2020 -0.4536
 1504SOL    HW1 4714   0.849   1.984   1.536  0.8486 -1.1540 -2.4672
 1504SOL    HW2 4715   0.824   1.850   1.601 -0.1911  0.0702 -0.2623
 1505SOL     OW 4716   1.077   1.852   0.956  0.3189  0.3196  0.4535
 1505SOL    HW1 4717   1.112   1.897   1.033  2.5904 -2.3279  1.1395
 1505SOL    HW2 4718   1.143   1.867   0.888 -0.0817 -0.0045 -0.0113
 1506SOL     OW 4719   4.694   1.627   1.269  0.2539 -0.3926  0.8322
 1506SOL    HW1 4720   4.731   1.582   1.193 -0.2770 -0.3209  0.5247
 1506SOL    HW2 4721   4.761   1.619   1.336  1.3941  0.8585 -0.1037
 1507SOL     OW 4722   4.789   2.756   1.580  0.6191 -0.2893 -0.1954
 1507SOL    HW1 4723   4.743   2.810   1.644  0.2052 -0.8617 -0.0044
 1507SOL    HW2 4724   4.778   2.666   1.611  1.4129 -0.4826 -0.4350
 1508SOL     OW 4725   4.260   2.779   4.351 -0.0119  0.2650  0.4159
 1508SOL    HW1 4726   4.238   2.867   4.382 -1.6481  0.0038  0.0715
 1508SOL    HW2 4727   4.181   2.748   4.307  0.0456 -1.8683  1.6367
 1509SOL     OW 4728   2.750   3.314   2.288  0.9762 -0.1149  0.2623
 1509SOL    HW1 4729   2.715   3.235   2.329 -0.2608 -0.5066 -1.4465
 1509SOL    HW2 4730   2.842   3.317   2.316  0.3926 -0.7159  2.4372
 1510SOL     OW 4731   4.652   3.248   3.541  0.0400 -0.0785 -0.0018
 1510SOL    HW1 4732   4.645   3.312   3.612 -1.5138  0.4028 -0.5452
 1510SOL    HW2 4733   4.739   3.210   3.552  0.2061  0.6552  1.5832
 1511SOL     OW 4734   1.917   0.502   1.286  0.5303  0.2126 -0.7369
 1511SOL    HW1 4735   1.975   0.520   1.360 -0.4706  0.0273  0.1099
 1511SOL    HW2 4736   1.976   0.469   1.218  1.1101 -2.9475  1.1181
 1512SOL     OW 4737   4.012   3.531   3.542  0.1104  0.1368  0.1600
 1512SOL    HW1 4738   4.036   3.615   3.503 -2.0269  0.2091 -1.1389
 1512SOL    HW2 4739   4.096   3.486   3.556  1.1289  1.3178 -1.8158
 1513SOL     OW 4740   4.290   1.728   2.486  0.4775 -0.0029  0.2824
 1513SOL    HW1 4741   4.221   1.755   2.425  1.1057 -0.8296 -0.8373
 1513SOL    HW2 4742   4.294   1.633   2.476  2.0536  0.0702  0.0091
 1514SOL     OW 4743   2.876   2.144   1.100  0.0821 -0.3943  0.1394
 1514SOL    HW1 4744   2.957   2.195   1.101  1.0437 -1.6830 -2.4438
 1514SOL    HW2 4745   2.885   2.083   1.174  1.4623 -0.4588 -0.0499
 1515SOL     OW 4746   1.282   2.520   3.833 -0.2610 -0.0295 -0.2627
 1515SOL    HW1 4747   1.364   2.528   3.882  0.8003 -0.9783 -1.7678
 1515SOL    HW2 4748   1.271   2.425   3.821 -2.1984  0.0127  0.8478
 1516SOL     OW 4749   2.868   3.732   4.518  0.2378 -0.3240  0.1823
 1516SOL    HW1 4750   2.950   3.778   4.496  0.1327 -0.5519 -0.6892
 1516SOL    HW2 4751   2.856   3.750   4.611  0.6955  0.6414  0.0689
 1517SOL     OW 4752   0.996   3.932   0.230  0.3805  0.3006  0.0474
 1517SOL    HW1 4753   0.940   3.989   0.178  0.4453  0.3390  0.0191
 1517SOL    HW2 4754   1.043   3.992   0.289  1.8292  0.4896 -1.2352
 1518SOL     OW 4755   1.881   4.708   0.272 -0.2340  0.7940  0.1632
 1518SOL    HW1 4756   1.885   4.660   0.354 -1.5741 -0.6109 -0.5373
 1518SOL    HW2 4757   1.970   4.740   0.258  0.2557  0.1417  1.6055
 1519SOL     OW 4758   3.457   3.582   0.878 -0.1760 -0.0703 -0.0530
 1519SOL    HW1 4759   3.377   3.529   0.871 -0.0806 -0.1776 -0.3519
 1519SOL    HW2 4760   3.443   3.637   0.956  0.7435 -2.2519  1.7475
 1520SOL     OW 4761   2.656   3.883   4.737  0.1446 -0.3320  0.3389
 1520SOL    HW1 4762   2.565   3.863   4.758  0.7033 -0.5754  2.7261
 1520SOL    HW2 4763   2.659   3.979   4.733 -0.2232 -0.3267  0.1684
 1521SOL     OW 4764   1.629   3.095   1.260  0.6253 -0.5656 -0.4455
 1521SOL    HW1 4765   1.637   3.073   1.353  1.3495 -2.8660 -0.9689
 1521SOL    HW2 4766   1.717   3.121   1.234 -0.0083  2.1474 -0.0864
 1522SOL     OW 4767   4.299   1.353   2.705  0.0329  0.3528 -0.3684
 1522SOL    HW1 4768   4.319   1.401   2.785 -0.2489  0.0929 -0.1347
 1522SOL    HW2 4769   4.266   1.268   2.736 -0.9113  0.5673 -0.7274
 1523SOL     OW 4770   3.473   2.699   1.201  0.4571 -0.0672 -0.6643
 1523SOL    HW1 4771   3.474   2.604   1.189 -1.3394 -0.0023 -1.9158
 1523SOL    HW2 4772   3.439   2.711   1.290  1.3380 -0.5878 -0.2462
 1524SOL     OW 4773   4.629   0.028   0.543 -0.5490 -0.0699 -0.1731
 1524SOL    HW1 4774   4.582  -0.013   0.471  0.9868 -1.7638 -0.2816
 1524SOL    HW2 4775   4.632  -0.039   0.611  0.2094  0.6157  0.4970
 1525SOL     OW 4776   1.265   2.486   3.357  0.3838 -0.4043  0.0679
 1525SOL    HW1 4777   1.234   2.541   3.286 -1.2554 -0.7164  0.4928
 1525SOL    HW2 4778   1.279   2.546   3.430  2.1873 -0.0651 -0.4920
 1526SOL     OW 4779   0.606   3.052   0.256 -0.0884  0.1232  0.1409
 1526SOL    HW1 4780   0.565   3.105   0.188 -1.5403 -0.0299  0.8666
 1526SOL    HW2 4781   0.544   3.052   0.329  1.2993  0.0607  1.3889
 1527SOL     OW 4782   4.189   1.517   1.563  0.2976  0.6035 -0.5438
 1527SOL    HW1 4783   4.124   1.470   1.510 -0.8711  1.0048  0.4950
 1527SOL    HW2 4784   4.229   1.449   1.617 -0.3586  0.5804 -0.0829
 1528SOL     OW 4785   4.538   4.568   0.568 -0.2848  0.1335 -0.4383
 1528SOL    HW1 4786   4.473   4.498   0.566 -1.2870  1.0408 -0.8132
 1528SOL    HW2 4787   4.491   4.644   0.602  0.3689  1.0015 -1.4018
 1529SOL     OW 4788   0.791   4.135   0.573 -0.0249 -0.6540 -0.5706
 1529SOL    HW1 4789   0.836   4.053   0.556  0.7911 -0.4520  0.5202
 1529SOL    HW2 4790   0.766   4.167   0.486 -0.0723 -1.8840 -1.0253
 1530SOL     OW 4791   2.571   3.096   4.138  0.1044 -0.3597 -0.4529
 1530SOL    HW1 4792   2.642   3.113   4.076  1.9395 -0.8445  1.4290
 1530SOL    HW2 4793   2.613   3.051   4.211 -2.0860 -0.2955  0.9236
 1531SOL     OW 4794   2.195   3.075   2.012 -0.5374  0.0274  0.1407
 1531SOL    HW1 4795   2.156   3.104   2.094 -0.0849  1.2379 -0.0544
 1531SOL    HW2 4796   2.173   3.143   1.949  0.0219 -0.3646 -0.4941
 1532SOL     OW 4797   3.815   1.408   3.776  0.0430  0.1835 -0.6125
 1532SOL    HW1 4798   3.826   1.426   3.683  1.1821 -1.0277 -0.7401
 1532SOL    HW2 4799   3.784   1.317   3.780 -1.8335  0.7946  0.1432
 1533SOL     OW 4800   3.221   4.665   4.076  0.3158 -0.4840  0.0103
 1533SOL    HW1 4801   3.170   4.587   4.099 -1.5120  0.1213 -1.7473
 1533SOL    HW2 4802   3.185   4.735   4.131  0.0693 -0.3035 -0.3785
 1534SOL     OW 4803   0.483   1.000   3.132 -0.5544 -0.0376  0.1365
 1534SOL    HW1 4804   0.469   1.088   3.169 -3.2086 -0.0147 -0.7112
 1534SOL    HW2 4805   0.486   0.943   3.208  0.6023  0.6815  0.6678
 1535SOL     OW 4806   4.367   1.140   0.968  0.0199  0.3020  0.2453
 1535SOL    HW1 4807   4.372   1.195   1.046 -2.4871  1.6167 -0.4356
 1535SOL    HW2 4808   4.283   1.094   0.976 -0.7422  1.1662 -2.0583
 1536SOL     OW 4809   3.706   4.206   0.320  0.3901  0.1284 -0.0050
 1536SOL    HW1 4810   3.799   4.185   0.311  0.1496 -1.0949  0.2246
 1536SOL    HW2 4811   3.676   4.152   0.392 -0.7973 -0.5287 -0.9539
 1537SOL     OW 4812   1.632   4.199   0.205  0.3947 -0.0882  0.2617
 1537SOL    HW1 4813   1.681   4.260   0.150 -0.1146  1.1452  1.1420
 1537SOL    HW2 4814   1.594   4.136   0.143  1.4829  0.0604 -0.5991
 1538SOL     OW 4815   1.586   1.567   4.578  0.1097  0.5129  0.5729
 1538SOL    HW1 4816   1.531   1.561   4.500 -0.8494  0.3224  1.2542
 1538SOL    HW2 4817   1.595   1.661   4.594 -0.8037  0.5268  1.0079
 1539SOL     OW 4818   2.164   1.147   0.266  0.0029  0.0864  0.3666
 1539SOL    HW1 4819   2.196   1.230   0.302 -0.1614  0.1204  0.4374
 1539SOL    HW2 4820   2.200   1.080   0.324 -0.8218  0.1821  1.0145
 1540SOL     OW 4821   4.081   0.671   4.697 -0.0950  0.0959  0.2905
 1540SOL    HW1 4822   4.022   0.691   4.769 -1.4495  0.2531 -0.8287
 1540SOL    HW2 4823   4.025   0.633   4.629  0.8846  1.2278 -1.2272
 1541SOL     OW 4824   2.983   2.230   4.119 -0.6364  0.2278 -0.1458
 1541SOL    HW1 4825   3.055   2.178   4.084 -0.1430 -0.2432  1.5006
 1541SOL    HW2 4826   2.936   2.261   4.041  0.7470 -0.2751 -1.2173
 1542SOL     OW 4827   1.710   1.740   3.274  0.7073 -0.6090 -0.0392
 1542SOL    HW1 4828   1.651   1.791   3.329 -0.1475 -1.9507  0.3404
 1542SOL    HW2 4829   1.715   1.789   3.192 -0.4753 -0.1581  0.1367
 1543SOL     OW 4830   3.829   2.136   1.399  0.4594 -0.2426  0.4612
 1543SOL    HW1 4831   3.857   2.065   1.457 -1.3507 -0.0360  1.6570
 1543SOL    HW2 4832   3.743   2.162   1.432  0.3470  1.3988 -0.9733
 1544SOL     OW 4833   4.040   3.550   3.171 -0.1977 -0.2384 -0.1283
 1544SOL    HW1 4834   4.100   3.615   3.136 -0.4414  0.7587  1.2228
 1544SOL    HW2 4835   4.049   3.558   3.266  0.3880 -2.7571  0.1163
 1545SOL     OW 4836   2.948   0.861   0.624 -0.2625 -0.1693 -0.0449
 1545SOL    HW1 4837   3.024   0.842   0.570  0.5139  1.2708  0.4967
 1545SOL    HW2 4838   2.958   0.804   0.700  1.1913  1.1354  0.8043
 1546SOL     OW 4839   1.556   4.720   0.579  0.1515 -0.0533  0.3496
 1546SOL    HW1 4840   1.599   4.800   0.609  0.1434 -0.0182  0.2690
 1546SOL    HW2 4841   1.476   4.714   0.631 -0.0368  0.1925  0.0978
 1547SOL     OW 4842   4.444   2.135   3.430 -0.1026 -0.3531 -0.3191
 1547SOL    HW1 4843   4.383   2.066   3.405 -0.5406  0.6213 -2.0539
 1547SOL    HW2 4844   4.458   2.185   3.350  0.9216  1.0314  0.6860
 1548SOL     OW 4845   1.026   0.644   0.100 -0.2781 -0.0734  0.7186
 1548SOL    HW1 4846   0.966   0.665   0.028 -0.1642  0.8478  0.8735
 1548SOL    HW2 4847   0.971   0.649   0.178 -0.3532 -0.8617  0.7266
 1549SOL     OW 4848   3.741   4.175   2.975  0.2918  0.4829  0.1625
 1549SOL    HW1 4849   3.828   4.141   2.993  0.5900  1.8037  1.3987
 1549SOL    HW2 4850   3.752   4.270   2.974 -0.9952  0.6487 -0.4398
 1550SOL     OW 4851   3.105   4.176   4.495 -0.1407  0.4711 -0.1030
 1550SOL    HW1 4852   3.052   4.252   4.471 -1.9197 -0.7156 -0.1312
 1550SOL    HW2 4853   3.126   4.134   4.411 -0.1549  0.2938 -0.0179
 1551SOL     OW 4854   0.928   4.193   1.909 -0.1238  0.5418 -0.3181
 1551SOL    HW1 4855   0.869   4.141   1.855  0.4837  0.9920 -1.4448
 1551SOL    HW2 4856   0.873   4.261   1.946 -0.8924 -0.7440  1.0283
 1552SOL     OW 4857   4.214   1.661   0.214  0.1262 -0.2764  0.6935
 1552SOL    HW1 4858   4.198   1.601   0.287  2.0650  0.2804  1.6698
 1552SOL    HW2 4859   4.308   1.653   0.196 -0.2799 -0.3490 -1.7545
 1553SOL     OW 4860   3.713   2.895   1.606 -0.4931  0.0907 -0.2398
 1553SOL    HW1 4861   3.647   2.942   1.657 -3.2475 -3.0778 -0.5111
 1553SOL    HW2 4862   3.694   2.917   1.515 -0.0227  0.5084 -0.2396
 1554SOL     OW 4863   4.493   3.315   1.156  0.1793  0.0206  0.5965
 1554SOL    HW1 4864   4.522   3.406   1.162  0.4522  0.0216 -0.4229
 1554SOL    HW2 4865   4.502   3.294   1.063  0.2220 -1.0811  0.8374
 1555SOL     OW 4866   0.392   1.359   1.298  0.0227  0.0234 -0.1578
 1555SOL    HW1 4867   0.451   1.434   1.303  2.4849 -1.7003 -1.1846
 1555SOL    HW2 4868   0.311   1.393   1.259  1.0147  2.1311 -0.4626
 1556SOL     OW 4869   4.201   1.931   0.902  0.1829  0.3671 -0.2986
 1556SOL    HW1 4870   4.250   1.865   0.852 -0.4645 -0.6946  0.4230
 1556SOL    HW2 4871   4.111   1.923   0.871 -0.0637  0.2853  0.4176
 1557SOL     OW 4872   0.319   1.386   0.827  0.4867  0.0041  0.1571
 1557SOL    HW1 4873   0.344   1.340   0.747  0.0555 -2.1930  1.2046
 1557SOL    HW2 4874   0.392   1.370   0.887  1.5090  2.8605 -0.1380
 1558SOL     OW 4875   3.551   3.017   1.818 -0.1004  0.9487  0.4122
 1558SOL    HW1 4876   3.474   2.974   1.856 -0.2890 -0.5895 -1.5041
 1558SOL    HW2 4877   3.515   3.082   1.758  0.0569  0.4156 -0.2800
 1559SOL     OW 4878   3.950   4.718   2.822  0.8824  0.4088  0.2174
 1559SOL    HW1 4879   3.934   4.634   2.780  3.1037  1.3245 -2.8565
 1559SOL    HW2 4880   3.892   4.779   2.775  0.1169  0.8372  1.6437
 1560SOL     OW 4881   3.504   3.457   4.673  0.2246 -0.8741 -0.5888
 1560SOL    HW1 4882   3.580   3.512   4.652  0.1108  0.0814  1.2704
 1560SOL    HW2 4883   3.531   3.408   4.750 -0.8739 -0.8543 -0.1824
 1561SOL     OW 4884   4.500   2.201   2.502 -0.0704  0.0275  0.1671
 1561SOL    HW1 4885   4.448   2.181   2.424 -3.1523  0.9153  1.8239
 1561SOL    HW2 4886   4.532   2.116   2.532  2.2871 -0.2184 -2.6393
 1562SOL     OW 4887   4.761   4.375   2.050 -0.0755  0.8504 -0.4191
 1562SOL    HW1 4888   4.820   4.417   2.113 -0.9553  1.1859  0.2109
 1562SOL    HW2 4889   4.769   4.428   1.971 -0.4759  1.6692  0.0714
 1563SOL     OW 4890   3.573   1.043   0.957 -0.9433 -0.2748 -0.3143
 1563SOL    HW1 4891   3.524   0.982   1.013 -2.0217 -0.0696 -1.0018
 1563SOL    HW2 4892   3.519   1.122   0.955  0.3355  0.6543  0.3868
 1564SOL     OW 4893   1.776   1.638   2.848 -0.0442  0.5163 -0.5405
 1564SOL    HW1 4894   1.725   1.597   2.918 -0.7814  2.9398  0.4806
 1564SOL    HW2 4895   1.856   1.668   2.892 -0.9808  3.0114 -0.3681
 1565SOL     OW 4896   1.204   3.937   0.029 -0.1222 -0.3747  0.5233
 1565SOL    HW1 4897   1.115   3.946   0.063 -0.9870 -1.2115 -1.3838
 1565SOL    HW2 4898   1.208   3.846  -0.000  1.5888 -0.5239  1.1308
 1566SOL     OW 4899   2.705   0.038   3.566 -0.2131 -0.1793 -0.3705
 1566SOL    HW1 4900   2.633   0.036   3.629 -0.5344 -1.5906 -0.7566
 1566SOL    HW2 4901   2.695  -0.043   3.515  0.1780  0.8094 -2.0879
 1567SOL     OW 4902   2.783   0.789   3.906  0.4404 -0.3468  0.4945
 1567SOL    HW1 4903   2.802   0.872   3.863  0.2337  0.8592  2.5892
 1567SOL    HW2 4904   2.724   0.743   3.845  0.0061  1.3302 -0.4125
 1568SOL     OW 4905   0.308   3.662   2.103 -0.4326 -0.2232  0.0409
 1568SOL    HW1 4906   0.401   3.682   2.090 -0.7788  1.8986  0.4905
 1568SOL    HW2 4907   0.276   3.642   2.016  0.4060 -0.8162 -0.1476
 1569SOL     OW 4908   4.100   0.896   2.916  0.0996 -0.0081 -0.4641
 1569SOL    HW1 4909   4.138   0.808   2.921  0.5243  0.1823 -0.3153
 1569SOL    HW2 4910   4.010   0.881   2.886 -0.3799 -0.6335  1.2015
 1570SOL     OW 4911   4.183   0.297   0.214  0.5141 -0.0747 -0.2329
 1570SOL    HW1 4912   4.101   0.344   0.204 -0.3933 -1.4584  0.3753
 1570SOL    HW2 4913   4.158   0.205   0.221  1.8570 -0.3566  2.5202
 1571SOL     OW 4914   0.169   3.876   1.060 -0.1360  0.1370 -0.5830
 1571SOL    HW1 4915   0.210   3.913   1.138 -0.4570  1.5906 -1.0687
 1571SOL    HW2 4916   0.217   3.915   0.987 -0.7936 -0.0608 -1.1264
 1572SOL     OW 4917   1.220   0.767   3.484 -0.4633  0.0826 -0.2276
 1572SOL    HW1 4918   1.179   0.853   3.488 -1.1617 -0.2415 -0.2571
 1572SOL    HW2 4919   1.314   0.785   3.480 -0.5539  0.8207  0.6681
 1573SOL     OW 4920   3.440   4.792   4.537 -0.3185 -0.2863 -0.0087
 1573SOL    HW1 4921   3.450   4.760   4.627  1.1972  1.7175  0.6111
 1573SOL    HW2 4922   3.515   4.755   4.491 -0.2353 -0.0514 -0.0584
 1574SOL     OW 4923   1.805   0.980   2.072 -0.1670  0.6617 -0.4977
 1574SOL    HW1 4924   1.783   0.898   2.117 -0.5260 -0.3049 -2.3381
 1574SOL    HW2 4925   1.734   1.040   2.096 -1.2929 -0.3752 -1.1067
 1575SOL     OW 4926   3.617   3.720   3.704  0.3895  0.2448  0.0082
 1575SOL    HW1 4927   3.559   3.667   3.759  0.6351 -1.4984 -1.3083
 1575SOL    HW2 4928   3.647   3.790   3.761 -1.4554  0.0568  1.2922
 1576SOL     OW 4929   2.496   2.637   1.054 -0.4228  0.1833 -0.0250
 1576SOL    HW1 4930   2.455   2.563   1.009 -0.1490 -1.3180  2.0445
 1576SOL    HW2 4931   2.507   2.607   1.144  1.2755  2.1391  0.5003
 1577SOL     OW 4932   0.026   3.046   4.775  0.0796  0.0520 -0.2591
 1577SOL    HW1 4933   0.095   3.046   4.842  1.6033 -1.6009 -1.7193
 1577SOL    HW2 4934   0.008   2.953   4.760 -1.6465  0.4451 -0.7606
 1578SOL     OW 4935   1.818   2.584   0.927 -0.1949 -0.8433  0.8176
 1578SOL    HW1 4936   1.744   2.565   0.986 -0.1825  1.0081  1.5047
 1578SOL    HW2 4937   1.863   2.657   0.969 -0.5999  1.0693 -1.8323
 1579SOL     OW 4938   4.718   3.338   3.041  1.1368  0.0757  0.7408
 1579SOL    HW1 4939   4.687   3.427   3.057 -1.5722 -0.7238  0.3273
 1579SOL    HW2 4940   4.706   3.292   3.124 -0.4957 -0.6864  0.1203
 1580SOL     OW 4941   3.853   0.481   1.134 -0.6839  0.4143 -0.2797
 1580SOL    HW1 4942   3.891   0.531   1.206 -2.2382  1.4518 -0.1269
 1580SOL    HW2 4943   3.928   0.454   1.081  0.4905 -0.4448  1.7315
 1581SOL     OW 4944   2.591   3.725   3.712 -0.2097 -0.5413 -0.2218
 1581SOL    HW1 4945   2.685   3.742   3.716 -0.4536  1.3394 -1.1985
 1581SOL    HW2 4946   2.583   3.651   3.652  0.6723 -1.1479  0.3867
 1582SOL     OW 4947   3.609   4.319   1.453 -0.7561 -0.1352 -0.9809
 1582SOL    HW1 4948   3.647   4.401   1.487 -1.9219  0.7584 -1.7631
 1582SOL    HW2 4949   3.515   4.334   1.455 -0.9564 -1.2225 -1.7578
 1583SOL     OW 4950   4.199   1.765   1.151  0.8486  0.3053  0.0475
 1583SOL    HW1 4951   4.204   1.813   1.069  0.3415 -0.5511 -0.5044
 1583SOL    HW2 4952   4.229   1.827   1.217 -0.3059  1.5493 -0.5574
 1584SOL     OW 4953   2.549   3.044   3.352  0.0436  0.3875 -0.8974
 1584SOL    HW1 4954   2.618   3.111   3.354  0.4332 -0.0174  0.2148
 1584SOL    HW2 4955   2.468   3.094   3.362  0.3166  0.7293 -0.2715
 1585SOL     OW 4956   0.471   0.786   3.279  0.1516  0.0330  0.5949
 1585SOL    HW1 4957   0.452   0.765   3.370 -1.5541  2.2753  0.8547
 1585SOL    HW2 4958   0.407   0.736   3.229 -0.6967  0.7989  0.8692
 1586SOL     OW 4959   2.866   3.691   3.771 -0.1892 -0.5099 -0.4193
 1586SOL    HW1 4960   2.918   3.766   3.744 -1.7750  0.8880  0.1874
 1586SOL    HW2 4961   2.904   3.664   3.855 -0.5106  0.6227  0.1237
 1587SOL     OW 4962   2.463   0.545   1.305 -0.0955 -0.1878  0.4027
 1587SOL    HW1 4963   2.444   0.638   1.290 -0.0379 -0.2391  0.0212
 1587SOL    HW2 4964   2.557   0.536   1.289 -0.3011 -0.5349 -0.7032
 1588SOL     OW 4965   3.569   3.106   3.268  0.2914 -0.1159  0.4526
 1588SOL    HW1 4966   3.635   3.144   3.209 -1.0704  1.1173 -0.3541
 1588SOL    HW2 4967   3.497   3.083   3.210 -0.6712  0.1763  1.5171
 1589SOL     OW 4968   4.104   0.233   2.852 -0.1947  0.4229  0.7385
 1589SOL    HW1 4969   4.042   0.226   2.926 -1.1029  1.3882  0.0971
 1589SOL    HW2 4970   4.176   0.285   2.887 -0.3169  0.3343  1.1378
 1590SOL     OW 4971   3.352   1.647   1.624 -0.4055 -0.2923 -0.4375
 1590SOL    HW1 4972   3.432   1.688   1.657 -0.4200 -0.1698 -0.5531
 1590SOL    HW2 4973   3.344   1.565   1.674 -0.7964  0.2138  0.3430
 1591SOL     OW 4974   3.386   4.683   2.635 -0.0539  0.3262 -1.2414
 1591SOL    HW1 4975   3.304   4.646   2.668 -0.0713  0.6853 -0.8612
 1591SOL    HW2 4976   3.410   4.748   2.702  0.1593  0.7342 -1.7126
 1592SOL     OW 4977   4.414   0.161   3.568  0.1816  0.2668  0.1924
 1592SOL    HW1 4978   4.482   0.135   3.631 -0.2596  0.7316  0.8798
 1592SOL    HW2 4979   4.462   0.180   3.488  0.5671 -2.3956 -0.3039
 1593SOL     OW 4980   1.784   0.112   4.571  0.0630 -0.4723 -0.1605
 1593SOL    HW1 4981   1.846   0.185   4.562 -1.2221  0.6055 -0.6009
 1593SOL    HW2 4982   1.796   0.082   4.661 -0.9461  1.8083  0.8316
 1594SOL     OW 4983   3.570   0.913   3.250  0.5052  0.1324 -0.0717
 1594SOL    HW1 4984   3.495   0.963   3.281 -1.3811 -1.7209 -1.3512
 1594SOL    HW2 4985   3.556   0.904   3.156  2.0595 -0.7567 -0.2625
 1595SOL     OW 4986   0.130   2.613   2.310 -0.0632  0.0815 -0.6866
 1595SOL    HW1 4987   0.169   2.700   2.312 -1.8948  0.9400  0.7726
 1595SOL    HW2 4988   0.092   2.605   2.222 -0.5153  1.0633 -0.5881
 1596SOL     OW 4989   0.541   4.391   0.697  0.1935  0.1601  0.0035
 1596SOL    HW1 4990   0.587   4.355   0.773 -1.5285 -0.8233  0.6475
 1596SOL    HW2 4991   0.458   4.423   0.733 -1.0417 -1.1283 -1.5648
 1597SOL     OW 4992   2.533   3.756   3.976 -0.3942  0.1553 -0.7846
 1597SOL    HW1 4993   2.544   3.732   3.884 -0.0686 -0.6335 -0.5443
 1597SOL    HW2 4994   2.438   3.762   3.988 -0.4282  1.3248 -1.4282
 1598SOL     OW 4995   3.453   3.607   2.823 -0.0927 -0.3300 -0.0469
 1598SOL    HW1 4996   3.488   3.623   2.911 -4.2520  1.7127  1.5071
 1598SOL    HW2 4997   3.468   3.689   2.776  0.4812 -0.7582 -0.6148
 1599SOL     OW 4998   0.879   3.004   4.094 -0.2870  0.4283  0.2397
 1599SOL    HW1 4999   0.948   3.028   4.156 -1.5651  0.4399  1.7359
 1599SOL    HW2 5000   0.895   3.059   4.018  1.8761 -0.2334  0.1370
 1600SOL     OW 5001   1.305   4.697   4.105 -0.4147 -0.0332  0.4241
 1600SOL    HW1 5002   1.291   4.612   4.146  0.3150 -2.8934 -4.4406
 1600SOL    HW2 5003   1.240   4.701   4.035  1.2080  2.2100 -1.1224
 1601SOL     OW 5004   1.315   2.063   0.387 -0.3045  0.3120 -0.3876
 1601SOL    HW1 5005   1.224   2.088   0.403 -0.3328  0.2917 -0.5108
 1601SOL    HW2 5006   1.361   2.146   0.375 -0.0031  0.3994  1.2063
 1602SOL     OW 5007   1.334   0.823   1.425  0.3238 -0.5988 -0.1830
 1602SOL    HW1 5008   1.427   0.808   1.440  0.6515  0.2607 -1.2675
 1602SOL    HW2 5009   1.328   0.847   1.333 -0.6294  2.0502  0.4828
 1603SOL     OW 5010   4.703   0.016   3.353 -0.2666  0.2539 -0.2122
 1603SOL    HW1 5011   4.688   0.109   3.340  1.4729  0.7376  0.8572
 1603SOL    HW2 5012   4.629  -0.014   3.405 -1.7602  0.6095 -2.0415
 1604SOL     OW 5013   0.452   2.309   1.156 -0.1287 -0.1417 -0.4249
 1604SOL    HW1 5014   0.388   2.286   1.088  0.6187  1.4409 -1.7231
 1604SOL    HW2 5015   0.535   2.315   1.109  0.6180 -0.1184  0.8649
 1605SOL     OW 5016   4.513   4.808   4.624 -0.0031  0.2117  0.1419
 1605SOL    HW1 5017   4.556   4.885   4.661 -0.5243  0.4810  0.1902
 1605SOL    HW2 5018   4.458   4.842   4.554 -2.1379  0.2171  1.7314
 1606SOL     OW 5019   0.522   3.555   3.965 -0.3655  0.1580 -0.5794
 1606SOL    HW1 5020   0.484   3.642   3.964 -0.5442  0.1295  0.8580
 1606SOL    HW2 5021   0.546   3.537   3.874  1.7981  2.6150 -0.5925
 1607SOL     OW 5022   4.115   3.578   0.622 -0.0060 -0.5016 -0.2675
 1607SOL    HW1 5023   4.147   3.549   0.708 -0.1481 -2.1682 -0.7604
 1607SOL    HW2 5024   4.190   3.565   0.563 -1.1597 -3.4781 -1.2276
 1608SOL     OW 5025   2.712   0.170   2.866  0.1648  0.7486 -0.1846
 1608SOL    HW1 5026   2.687   0.125   2.786 -1.9036  0.8851  0.3272
 1608SOL    HW2 5027   2.743   0.100   2.924 -0.8122  0.2744 -0.2121
 1609SOL     OW 5028   3.963   1.421   0.937 -0.4421 -0.0336  0.4615
 1609SOL    HW1 5029   4.028   1.420   1.007 -0.0645 -1.0221  0.1073
 1609SOL    HW2 5030   3.890   1.471   0.973  1.1686  2.6671  0.2676
 1610SOL     OW 5031   2.437   2.229   1.270 -0.6930 -0.1968  0.3240
 1610SOL    HW1 5032   2.379   2.198   1.201  0.2963  2.2215 -1.7504
 1610SOL    HW2 5033   2.387   2.299   1.313  0.3116  1.4095 -1.0109
 1611SOL     OW 5034   3.942   3.185   3.517 -0.4246  0.3209 -0.1393
 1611SOL    HW1 5035   4.037   3.187   3.507 -0.5606  1.4848 -1.4715
 1611SOL    HW2 5036   3.928   3.196   3.611  0.7416  2.8464 -0.1828
 1612SOL     OW 5037   0.126   2.877   1.837  0.1309 -0.7159 -0.2054
 1612SOL    HW1 5038   0.038   2.896   1.806  0.7914  0.2579 -1.6234
 1612SOL    HW2 5039   0.148   2.950   1.895  0.3090 -0.4989 -0.5411
 1613SOL     OW 5040   2.282   0.428   3.992  0.1526 -0.4404  0.3215
 1613SOL    HW1 5041   2.298   0.509   4.040  1.1234 -0.4431  0.0105
 1613SOL    HW2 5042   2.341   0.432   3.917 -0.2816 -1.1225 -0.0699
 1614SOL     OW 5043   2.695   2.588   1.560 -0.3781  0.2003 -0.9549
 1614SOL    HW1 5044   2.715   2.495   1.571 -1.6013 -0.0849 -1.0168
 1614SOL    HW2 5045   2.729   2.629   1.640 -0.6089 -0.4352 -0.5222
 1615SOL     OW 5046   3.289   1.532   2.883  0.3858 -0.5926 -0.0474
 1615SOL    HW1 5047   3.373   1.490   2.901  1.2085  0.2398 -1.7093
 1615SOL    HW2 5048   3.303   1.624   2.903 -0.6545 -0.6817  1.2084
 1616SOL     OW 5049   4.782   4.004   3.698  0.4877 -0.3216  0.6095
 1616SOL    HW1 5050   4.705   4.060   3.684 -0.1788 -1.0129  1.3396
 1616SOL    HW2 5051   4.816   3.987   3.611 -0.5727 -0.5101  0.2143
 1617SOL     OW 5052   0.557   0.549   0.601 -0.1264  0.2214  0.2013
 1617SOL    HW1 5053   0.559   0.645   0.604  1.6903  0.2073  0.9682
 1617SOL    HW2 5054   0.553   0.522   0.692 -2.1014 -0.4805 -0.0483
 1618SOL     OW 5055   0.606   2.572   4.111  0.0291 -0.1702  0.1575
 1618SOL    HW1 5056   0.539   2.561   4.043  0.5894  0.6086 -0.5343
 1618SOL    HW2 5057   0.560   2.555   4.193 -0.4433 -2.0879 -0.4480
 1619SOL     OW 5058   3.450   3.192   4.215 -0.6535  0.5546  0.9930
 1619SOL    HW1 5059   3.465   3.286   4.230 -3.1588  1.2149 -0.0896
 1619SOL    HW2 5060   3.490   3.176   4.129 -0.4608  0.6768  1.0568
 1620SOL     OW 5061   0.515   1.908   1.834 -0.0001 -0.5805  0.4419
 1620SOL    HW1 5062   0.573   1.945   1.767  1.0704 -2.2769  0.3487
 1620SOL    HW2 5063   0.453   1.854   1.785  2.4626 -4.0702  0.7856
 1621SOL     OW 5064   2.555   0.157   1.895  0.4596  0.3382  0.4333
 1621SOL    HW1 5065   2.637   0.133   1.852  0.2172  0.5018 -0.1229
 1621SOL    HW2 5066   2.500   0.079   1.886  0.7970 -0.0237  1.4228
 1622SOL     OW 5067   1.177   4.159   2.028  0.1837  0.1311  0.2614
 1622SOL    HW1 5068   1.102   4.146   1.970  0.4545  0.1079 -0.0901
 1622SOL    HW2 5069   1.240   4.092   2.001  1.4327  1.8155 -1.2971
 1623SOL     OW 5070   3.161   0.855   1.325  0.4313  0.0389 -0.1884
 1623SOL    HW1 5071   3.162   0.777   1.380 -0.0919  2.1878  3.1750
 1623SOL    HW2 5072   3.070   0.867   1.301  0.5969 -0.6629 -1.2129
 1624SOL     OW 5073   2.464   4.266   0.959  0.0970  0.1343  0.2885
 1624SOL    HW1 5074   2.484   4.232   0.872  0.8148  0.3049  0.3790
 1624SOL    HW2 5075   2.467   4.361   0.948  2.7602  0.2101  1.0248
 1625SOL     OW 5076   1.000   4.335   2.634  0.5750  0.7085  0.4325
 1625SOL    HW1 5077   0.969   4.407   2.578 -0.1664 -1.2341 -1.8214
 1625SOL    HW2 5078   0.921   4.292   2.665  1.0084  1.0220  2.0794
 1626SOL     OW 5079   4.357   0.682   4.687 -0.4861 -0.3290  0.1427
 1626SOL    HW1 5080   4.269   0.717   4.707 -0.2479  1.0836 -1.1003
 1626SOL    HW2 5081   4.414   0.726   4.750 -0.8613 -2.9221  2.4888
 1627SOL     OW 5082   1.392   4.212   1.774  0.2438  0.4728  0.6513
 1627SOL    HW1 5083   1.407   4.147   1.842 -0.1369  0.0590  0.3476
 1627SOL    HW2 5084   1.348   4.163   1.704 -0.2331  1.1057  0.5068
 1628SOL     OW 5085   2.410   2.516   0.109  0.3410 -0.3774 -0.0803
 1628SOL    HW1 5086   2.343   2.581   0.128  0.4869 -0.3964  0.5188
 1628SOL    HW2 5087   2.454   2.549   0.030  1.8973  1.4536  1.4306
 1629SOL     OW 5088   0.390   0.534   3.086  0.2184  0.0293  0.9788
 1629SOL    HW1 5089   0.432   0.528   3.000  1.5405 -1.2457  1.6536
 1629SOL    HW2 5090   0.297   0.522   3.069  0.1334  2.2437 -0.5067
 1630SOL     OW 5091   3.532   0.644   2.604  0.1382  0.1299 -0.2042
 1630SOL    HW1 5092   3.609   0.701   2.598 -0.1220  0.4722 -0.3565
 1630SOL    HW2 5093   3.527   0.602   2.518  1.3225 -1.4525  0.4424
 1631SOL     OW 5094   3.325   2.191   2.166  0.2936 -0.4900 -0.6740
 1631SOL    HW1 5095   3.263   2.127   2.201  0.0081 -1.6917 -3.1133
 1631SOL    HW2 5096   3.270   2.264   2.137  0.0849 -1.0207 -1.7006
 1632SOL     OW 5097   1.549   3.534   0.808  0.0949  0.1138 -0.4058
 1632SOL    HW1 5098   1.627   3.546   0.862  0.1544 -0.9658 -0.2237
 1632SOL    HW2 5099   1.477   3.570   0.861  0.3168  0.1265 -0.1126
 1633SOL     OW 5100   2.204   0.575   0.196 -0.2179 -0.0204  0.1360
 1633SOL    HW1 5101   2.204   0.502   0.258  0.7518 -0.7051 -0.6291
 1633SOL    HW2 5102   2.112   0.591   0.177 -0.4495 -0.9192  0.4692
 1634SOL     OW 5103   0.586   1.501   2.978 -0.3085  0.2726 -0.0127
 1634SOL    HW1 5104   0.523   1.445   2.934 -1.0390  0.3555  0.8992
 1634SOL    HW2 5105   0.662   1.502   2.920 -0.8413 -0.4682 -0.7424
 1635SOL     OW 5106   3.721   0.842   1.862 -0.1165 -0.4597 -0.2799
 1635SOL    HW1 5107   3.753   0.791   1.788 -0.8619 -1.0288 -0.2295
 1635SOL    HW2 5108   3.673   0.779   1.916  0.4591 -0.0701  0.7286
 1636SOL     OW 5109   1.622   3.311   4.080 -0.0684 -0.4163  0.0358
 1636SOL    HW1 5110   1.586   3.232   4.039 -0.5227  0.7788 -2.0321
 1636SOL    HW2 5111   1.547   3.351   4.125 -0.4765  0.0908 -1.0451
 1637SOL     OW 5112   0.256   2.392   4.092 -0.6488 -0.8774 -0.3624
 1637SOL    HW1 5113   0.330   2.409   4.033 -0.7726 -2.1113 -0.8996
 1637SOL    HW2 5114   0.179   2.412   4.038 -0.7320  0.1332  0.1067
 1638SOL     OW 5115   4.120   3.273   0.697  0.7087 -0.1417  0.1293
 1638SOL    HW1 5116   4.033   3.268   0.737 -0.2978  1.6733 -1.6602
 1638SOL    HW2 5117   4.180   3.283   0.771 -0.5890 -1.2837  1.3884
 1639SOL     OW 5118   1.344   0.138   4.465  0.2172  0.2716 -0.0242
 1639SOL    HW1 5119   1.346   0.116   4.372 -0.9734 -1.4377  0.3106
 1639SOL    HW2 5120   1.253   0.160   4.483  0.3571  0.2036  0.8106
 1640SOL     OW 5121   4.362   4.617   1.708 -0.1404  0.1195  0.5376
 1640SOL    HW1 5122   4.385   4.585   1.621  2.5750  2.6245  0.1758
 1640SOL    HW2 5123   4.266   4.608   1.713 -0.4933  0.5503 -3.0077
 1641SOL     OW 5124   2.409   4.499   2.970  0.1937  0.2429  0.3165
 1641SOL    HW1 5125   2.388   4.419   2.923 -1.2784 -0.2191  1.6646
 1641SOL    HW2 5126   2.394   4.569   2.907 -0.1926 -0.4422 -0.3669
 1642SOL     OW 5127   1.724   0.313   4.752 -0.2234 -0.1125  0.0123
 1642SOL    HW1 5128   1.722   0.240   4.814  0.9991 -0.5031 -0.3725
 1642SOL    HW2 5129   1.695   0.274   4.669  3.0172 -0.9445 -0.8803
 1643SOL     OW 5130   2.859   3.215   2.996 -0.1608  0.1762 -0.1892
 1643SOL    HW1 5131   2.902   3.297   2.975  1.5572 -0.4169  0.8296
 1643SOL    HW2 5132   2.811   3.232   3.077 -0.5239  0.4009 -0.4502
 1644SOL     OW 5133   0.294   2.767   4.294  0.0884 -0.0296 -0.0815
 1644SOL    HW1 5134   0.347   2.708   4.347 -0.5761  1.0827  1.8962
 1644SOL    HW2 5135   0.347   2.846   4.285  0.5878 -0.5317 -1.9306
 1645SOL     OW 5136   3.760   3.760   1.477  0.2457 -0.1235  0.8078
 1645SOL    HW1 5137   3.784   3.846   1.441 -2.9489  0.7991  0.5394
 1645SOL    HW2 5138   3.762   3.702   1.401  1.6295 -0.1155  0.8257
 1646SOL     OW 5139   1.329   3.004   2.088  0.3232 -0.0287  0.1533
 1646SOL    HW1 5140   1.361   3.071   2.148 -3.1930  0.6421  1.5628
 1646SOL    HW2 5141   1.290   3.054   2.016  0.9491 -0.6996 -0.6587
 1647SOL     OW 5142   0.836   3.429   0.517 -0.3852  0.0274 -0.2474
 1647SOL    HW1 5143   0.887   3.506   0.490  0.2675 -0.2244  0.2550
 1647SOL    HW2 5144   0.836   3.433   0.613 -0.7581 -0.3381 -0.2308
 1648SOL     OW 5145   4.362   1.312   0.246  0.5760  0.0718  0.0614
 1648SOL    HW1 5146   4.399   1.291   0.331  0.2177 -1.5514 -0.1447
 1648SOL    HW2 5147   4.268   1.296   0.255  0.4084  0.7468 -0.3891
 1649SOL     OW 5148   1.739   1.721   0.712 -0.0606  0.2399  0.0056
 1649SOL    HW1 5149   1.802   1.747   0.645  0.6614  0.6509  0.8174
 1649SOL    HW2 5150   1.793   1.697   0.788 -0.7242 -2.4018 -0.2455
 1650SOL     OW 5151   2.953   1.164   1.028 -0.1388  0.5793 -0.2959
 1650SOL    HW1 5152   3.008   1.221   1.081  0.9855  1.5796 -2.4344
 1650SOL    HW2 5153   3.011   1.131   0.959 -1.2691 -1.5404 -0.3268
 1651SOL     OW 5154   1.098   2.228   4.054 -0.1367 -0.1093 -0.1180
 1651SOL    HW1 5155   1.041   2.263   3.985 -0.1262  1.9783  0.8410
 1651SOL    HW2 5156   1.185   2.259   4.030  0.1360 -0.8070 -0.0405
 1652SOL     OW 5157   1.573   2.051   2.549 -0.0489 -0.1307  0.2495
 1652SOL    HW1 5158   1.485   2.056   2.586 -0.4668 -0.2605 -0.7012
 1652SOL    HW2 5159   1.631   2.049   2.625 -0.8284  0.5853  0.8822
 1653SOL     OW 5160   1.803   4.562   2.612  0.9915  0.2704 -0.7494
 1653SOL    HW1 5161   1.856   4.620   2.558  0.5224  2.2583  0.7702
 1653SOL    HW2 5162   1.863   4.495   2.642  1.5863 -0.0184 -2.4959
 1654SOL     OW 5163   3.592   3.431   4.041 -0.2625  0.3901  0.0755
 1654SOL    HW1 5164   3.534   3.459   4.113 -1.2531 -0.0055 -0.5494
 1654SOL    HW2 5165   3.561   3.480   3.965  0.9713  1.0265 -0.0471
 1655SOL     OW 5166   0.318   2.625   2.541  0.2522 -0.0447 -0.6763
 1655SOL    HW1 5167   0.348   2.557   2.480 -1.6450  0.1331 -1.8834
 1655SOL    HW2 5168   0.254   2.676   2.491 -1.0785  0.3831  1.3338
 1656SOL     OW 5169   3.566   0.474   0.127 -0.1829  0.1492  0.4338
 1656SOL    HW1 5170   3.570   0.502   0.036  1.7412 -1.3709 -0.0127
 1656SOL    HW2 5171   3.590   0.381   0.125 -1.2537 -0.2341  2.3823
 1657SOL     OW 5172   4.160   1.721   2.860  0.0435 -0.2201  0.4250
 1657SOL    HW1 5173   4.191   1.699   2.948  1.1099 -1.0348 -0.1304
 1657SOL    HW2 5174   4.237   1.757   2.816 -0.8383  1.5368  0.2564
 1658SOL     OW 5175   1.018   0.186   1.738  0.2935  0.1986 -0.4782
 1658SOL    HW1 5176   0.974   0.117   1.788 -1.5891  1.3831 -0.3917
 1658SOL    HW2 5177   1.049   0.248   1.805  0.7264  0.1430 -0.6242
 1659SOL     OW 5178   4.187   4.108   1.389 -0.0133 -0.3533 -0.5553
 1659SOL    HW1 5179   4.132   4.136   1.316 -0.4325  0.6965  0.1458
 1659SOL    HW2 5180   4.127   4.065   1.449 -0.2569  1.4465  0.5606
 1660SOL     OW 5181   0.249   0.214   0.122 -0.3967  0.1033  0.2965
 1660SOL    HW1 5182   0.255   0.205   0.218 -0.5487  1.9133  0.5152
 1660SOL    HW2 5183   0.159   0.190   0.102 -0.4317 -0.0735  0.6530
 1661SOL     OW 5184   1.497   2.681   3.103  0.0686  0.7718 -0.0851
 1661SOL    HW1 5185   1.472   2.612   3.042 -0.1143  0.9152 -0.1726
 1661SOL    HW2 5186   1.540   2.747   3.047  2.1451 -0.1888  0.2576
 1662SOL     OW 5187   3.142   0.209   1.143 -0.6764  0.1173  0.4848
 1662SOL    HW1 5188   3.233   0.210   1.171 -0.8883 -0.7484  1.2359
 1662SOL    HW2 5189   3.097   0.153   1.207 -1.3551 -1.1984 -1.0699
 1663SOL     OW 5190   1.837   3.457   4.650  0.4427  0.1478 -0.0361
 1663SOL    HW1 5191   1.754   3.432   4.610 -0.3647  1.8575  0.4921
 1663SOL    HW2 5192   1.903   3.439   4.583 -0.6194  0.8221 -1.2849
 1664SOL     OW 5193   2.445   4.061   2.177  0.3700 -0.0167 -0.3233
 1664SOL    HW1 5194   2.433   4.057   2.082 -1.2742 -1.1407 -0.1227
 1664SOL    HW2 5195   2.475   3.973   2.201 -0.3100 -0.0861  0.3085
 1665SOL     OW 5196   3.013   2.902   4.022 -0.1120  0.6248 -0.5872
 1665SOL    HW1 5197   3.075   2.974   4.007  3.3046 -0.9379  3.6355
 1665SOL    HW2 5198   3.055   2.826   3.981 -1.0476  0.1332 -0.6451
 1666SOL     OW 5199   1.472   1.247   3.223  0.3849 -0.8662 -0.2644
 1666SOL    HW1 5200   1.480   1.283   3.311 -0.3296  1.4209 -1.0638
 1666SOL    HW2 5201   1.562   1.226   3.198  0.7890 -0.0308  0.4248
 1667SOL     OW 5202   2.424   1.697   1.221  0.6943 -0.2902  0.8728
 1667SOL    HW1 5203   2.383   1.768   1.271  0.9234  2.2571 -2.2888
 1667SOL    HW2 5204   2.361   1.677   1.152  1.4350 -1.9571  0.6329
 1668SOL     OW 5205   1.194   1.540   4.601 -0.4296  0.7656 -0.1370
 1668SOL    HW1 5206   1.245   1.571   4.526 -0.4965 -0.2100 -0.6073
 1668SOL    HW2 5207   1.112   1.588   4.596 -0.8114  0.0400 -1.2618
 1669SOL     OW 5208   0.523   1.071   1.854  0.2136 -0.2756 -0.0439
 1669SOL    HW1 5209   0.572   1.008   1.801  0.7608  0.9103 -0.9967
 1669SOL    HW2 5210   0.432   1.062   1.824  0.4003 -0.1584 -0.6589
 1670SOL     OW 5211   3.473   4.352   4.383 -0.5368  0.1117  0.2762
 1670SOL    HW1 5212   3.404   4.286   4.389 -0.3565 -0.0905  0.1370
 1670SOL    HW2 5213   3.458   4.395   4.298 -1.5277  1.2328  0.9822
 1671SOL     OW 5214   3.035   0.799   3.590  0.0230 -0.8061  0.0681
 1671SOL    HW1 5215   3.056   0.815   3.498  1.4872  0.1660  0.5424
 1671SOL    HW2 5216   2.944   0.829   3.599  0.7525  1.7347 -0.4576
 1672SOL     OW 5217   4.416   3.428   2.547 -0.3828  0.0827  0.3594
 1672SOL    HW1 5218   4.442   3.370   2.476 -1.9322 -0.1230 -0.0700
 1672SOL    HW2 5219   4.347   3.380   2.593 -0.3880  0.8102  1.1302
 1673SOL     OW 5220   3.193   0.908   4.461 -0.4783 -0.3535  0.1621
 1673SOL    HW1 5221   3.183   0.862   4.545 -2.3781  0.1792  0.2838
 1673SOL    HW2 5222   3.175   0.841   4.395 -1.2064 -0.2725  0.2695
 1674SOL     OW 5223   0.979   2.550   1.299  0.7236 -0.2367 -1.1286
 1674SOL    HW1 5224   0.969   2.583   1.388  1.2382  0.5166 -1.3410
 1674SOL    HW2 5225   0.899   2.576   1.254  0.3460 -0.8473 -0.8282
 1675SOL     OW 5226   2.083   0.976   2.957 -0.0425  0.2004 -0.3392
 1675SOL    HW1 5227   2.118   0.915   3.022 -1.0370 -0.2185 -0.1899
 1675SOL    HW2 5228   2.017   0.925   2.910  0.0919  0.7516 -1.1343
 1676SOL     OW 5229   4.480   0.690   4.415  0.5703  0.1928 -0.3426
 1676SOL    HW1 5230   4.518   0.639   4.487 -3.4205 -1.3903  0.9121
 1676SOL    HW2 5231   4.443   0.767   4.457 -2.2669 -1.0035 -0.4309
 1677SOL     OW 5232   0.782   3.579   3.545 -0.5472 -0.6890 -0.6230
 1677SOL    HW1 5233   0.805   3.487   3.534  2.2355 -0.4434  2.0216
 1677SOL    HW2 5234   0.834   3.625   3.480  1.6247 -0.7160  0.9842
 1678SOL     OW 5235   2.310   1.482   4.804 -0.4065 -0.0925 -0.0028
 1678SOL    HW1 5236   2.246   1.548   4.778 -0.3836  0.4917  1.3358
 1678SOL    HW2 5237   2.317   1.424   4.728 -2.5562 -0.2152 -0.1933
 1679SOL     OW 5238   3.811   2.112   1.931  0.0182 -0.2594 -0.6498
 1679SOL    HW1 5239   3.779   2.178   1.993  1.0005  0.8109 -1.2423
 1679SOL    HW2 5240   3.759   2.126   1.852  1.4448  1.0456 -1.3909
 1680SOL     OW 5241   4.535   4.664   2.907  0.4581  0.3754  0.5247
 1680SOL    HW1 5242   4.618   4.712   2.904  0.8628 -0.1290  2.3047
 1680SOL    HW2 5243   4.557   4.580   2.948 -1.0643  0.5720  1.8379
 1681SOL     OW 5244   1.926   0.424   2.575  0.4633 -0.0401 -0.3706
 1681SOL    HW1 5245   1.924   0.462   2.663  1.5639 -0.8645  0.0324
 1681SOL    HW2 5246   1.855   0.360   2.574  0.3292  0.1047 -0.1524
 1682SOL     OW 5247   3.982   0.374   0.481 -0.4817 -0.1293 -0.3894
 1682SOL    HW1 5248   4.001   0.450   0.425 -0.1861  0.4162  0.4469
 1682SOL    HW2 5249   3.951   0.412   0.563  0.2154 -0.9058  0.2405
 1683SOL     OW 5250   1.675   4.269   2.049  0.3824 -0.3127  0.0697
 1683SOL    HW1 5251   1.686   4.242   1.958 -1.6260 -1.7174  0.1948
 1683SOL    HW2 5252   1.636   4.194   2.092 -0.1747  0.8789  1.7487
 1684SOL     OW 5253   4.161   1.160   1.759 -0.2818 -0.6757  0.0615
 1684SOL    HW1 5254   4.080   1.109   1.756  0.6469 -2.3345  1.3958
 1684SOL    HW2 5255   4.175   1.189   1.668 -2.2624 -0.4801 -0.2123
 1685SOL     OW 5256   3.990   1.438   0.664  0.3213 -0.9327 -0.6985
 1685SOL    HW1 5257   3.982   1.348   0.632 -0.4871 -0.7785 -0.9681
 1685SOL    HW2 5258   3.965   1.434   0.756 -2.0830 -0.6404 -1.2628
 1686SOL     OW 5259   2.266   2.197   3.262  0.1126 -0.5885 -0.0408
 1686SOL    HW1 5260   2.272   2.262   3.331  0.0420  0.3198 -0.8656
 1686SOL    HW2 5261   2.351   2.200   3.218 -0.9229  1.3966 -2.1686
 1687SOL     OW 5262   2.770   3.384   2.022  0.3061  0.2326 -0.1492
 1687SOL    HW1 5263   2.752   3.367   2.114 -1.8026 -0.5937 -0.6618
 1687SOL    HW2 5264   2.752   3.301   1.978 -0.0020  0.9690 -1.4631
 1688SOL     OW 5265   2.163   0.641   3.383  0.2015  0.0638  1.0995
 1688SOL    HW1 5266   2.174   0.546   3.374  0.2220 -0.0336  1.9979
 1688SOL    HW2 5267   2.077   0.651   3.423  0.9786  0.2898  2.8419
 1689SOL     OW 5268   2.144   4.547   3.606  0.3214  0.5445  0.7345
 1689SOL    HW1 5269   2.107   4.539   3.518  1.0776  1.1665  0.3495
 1689SOL    HW2 5270   2.227   4.500   3.602  1.9052  3.1827  0.1597
 1690SOL     OW 5271   0.809   1.817   3.928 -0.0814 -0.4941 -0.4666
 1690SOL    HW1 5272   0.795   1.906   3.895 -0.8970 -0.4688 -0.0872
 1690SOL    HW2 5273   0.812   1.763   3.849  0.2334 -0.1539 -0.6913
 1691SOL     OW 5274   4.562   2.164   4.785 -0.8372 -0.0258  0.1760
 1691SOL    HW1 5275   4.635   2.114   4.820  0.3098  0.2660 -1.6642
 1691SOL    HW2 5276   4.526   2.210   4.861  0.4889 -0.6713  1.2390
 1692SOL     OW 5277   3.708   0.856   4.307 -0.3314  0.2991  0.6047
 1692SOL    HW1 5278   3.689   0.762   4.320  0.7141  0.2441  1.8763
 1692SOL    HW2 5279   3.705   0.893   4.395  2.1341  0.8997  0.4863
 1693SOL     OW 5280   1.824   1.220   1.378  0.0423  0.3781 -0.6173
 1693SOL    HW1 5281   1.875   1.141   1.360 -0.9750 -0.4188 -0.0844
 1693SOL    HW2 5282   1.735   1.198   1.350 -0.7993  0.4302  1.8234
 1694SOL     OW 5283   2.193   2.416   2.686 -0.1313 -0.0611 -0.1791
 1694SOL    HW1 5284   2.220   2.324   2.682 -0.4166 -0.3748  2.6755
 1694SOL    HW2 5285   2.110   2.414   2.734 -0.4821  1.6565 -0.6421
 1695SOL     OW 5286   0.967   0.048   2.167 -0.5431 -0.0620  0.1827
 1695SOL    HW1 5287   0.970   0.006   2.253  0.1785 -1.7389 -0.6129
 1695SOL    HW2 5288   0.913  -0.012   2.114  0.4746  0.0201 -0.9802
 1696SOL     OW 5289   2.411   3.627   0.548  0.2368  0.1479  0.4820
 1696SOL    HW1 5290   2.486   3.671   0.588 -0.2550  1.2041  0.2804
 1696SOL    HW2 5291   2.335   3.673   0.583 -0.3186 -0.8287  0.5905
 1697SOL     OW 5292   4.530   3.502   2.192  0.3905  0.1245  0.3346
 1697SOL    HW1 5293   4.533   3.445   2.269  0.9067 -1.0657 -0.5367
 1697SOL    HW2 5294   4.543   3.443   2.118 -1.1102  1.0829 -0.7585
 1698SOL     OW 5295   3.352   0.171   3.840 -0.3872  0.5282 -0.3695
 1698SOL    HW1 5296   3.300   0.208   3.769 -1.2288  1.5097  0.7254
 1698SOL    HW2 5297   3.288   0.149   3.908  0.3095 -1.1247 -0.1935
 1699SOL     OW 5298   1.487   1.994   2.998  0.2686 -0.1606 -0.0655
 1699SOL    HW1 5299   1.430   1.955   2.932  1.0511  0.6281 -1.2455
 1699SOL    HW2 5300   1.433   2.000   3.077 -0.7818 -0.8231 -0.7179
 1700SOL     OW 5301   2.576   0.911   0.170 -0.6858  0.0026  0.2522
 1700SOL    HW1 5302   2.518   0.835   0.159 -1.5384  0.3120  2.1369
 1700SOL    HW2 5303   2.613   0.900   0.258  0.8937  0.6523 -0.3013
 1701SOL     OW 5304   1.607   4.223   3.963 -0.0105 -0.2515  0.0427
 1701SOL    HW1 5305   1.591   4.283   4.037 -0.6733 -0.5113  0.1138
 1701SOL    HW2 5306   1.686   4.258   3.922 -0.8494  1.2024 -0.4387
 1702SOL     OW 5307   2.767   0.883   0.375 -0.4088 -0.0112 -0.4719
 1702SOL    HW1 5308   2.815   0.833   0.308  0.0334  1.1771 -1.0799
 1702SOL    HW2 5309   2.822   0.877   0.453 -0.6265 -0.9049 -0.3736
 1703SOL     OW 5310   3.154   3.378   3.838 -0.2122 -0.0670  1.1153
 1703SOL    HW1 5311   3.107   3.435   3.899  0.1968  1.7031 -0.1563
 1703SOL    HW2 5312   3.145   3.421   3.753  1.7845 -0.8792  0.4416
 1704SOL     OW 5313   0.859   2.010   2.153  0.4048 -0.2087 -0.2741
 1704SOL    HW1 5314   0.824   2.072   2.089  0.4817 -0.5542 -0.6560
 1704SOL    HW2 5315   0.904   1.944   2.100  0.0087 -0.7926  0.1015
 1705SOL     OW 5316   1.946   4.141   0.825 -0.8647  0.4855 -0.6773
 1705SOL    HW1 5317   1.867   4.184   0.792 -1.1024  0.2244 -0.4556
 1705SOL    HW2 5318   1.913   4.072   0.883 -0.4453  1.2380  0.4818
 1706SOL     OW 5319   1.983   0.239   2.017  0.4990  0.3971  0.2349
 1706SOL    HW1 5320   1.896   0.203   2.001  0.0571  1.5176 -0.0152
 1706SOL    HW2 5321   2.043   0.174   1.981 -0.2819  0.1694 -0.7193
 1707SOL     OW 5322   0.493   0.823   0.532 -0.1013  0.0281  0.3275
 1707SOL    HW1 5323   0.405   0.859   0.531 -0.5527 -1.0600 -1.1256
 1707SOL    HW2 5324   0.527   0.838   0.444  0.1918 -1.8690  0.0782
 1708SOL     OW 5325   4.490   3.624   4.617 -0.1375  0.1403 -0.3175
 1708SOL    HW1 5326   4.535   3.559   4.670  0.5131 -0.0613 -1.1007
 1708SOL    HW2 5327   4.465   3.578   4.537 -2.2224  0.1074  0.2904
 1709SOL     OW 5328   1.198   2.180   1.396 -0.0392  0.0792  0.0474
 1709SOL    HW1 5329   1.123   2.206   1.449 -0.5179  0.1888 -0.6716
 1709SOL    HW2 5330   1.262   2.250   1.409 -0.3494  0.3559  0.0804
 1710SOL     OW 5331   0.667   4.217   3.979 -0.1974  0.0025  0.3211
 1710SOL    HW1 5332   0.704   4.143   4.029  0.9215  0.7293  0.6035
 1710SOL    HW2 5333   0.691   4.294   4.030 -1.0103  0.6009 -0.1872
 1711SOL     OW 5334   3.813   2.716   1.149 -0.1114  0.5749  0.3936
 1711SOL    HW1 5335   3.744   2.695   1.212 -0.7665  1.3059 -0.0581
 1711SOL    HW2 5336   3.812   2.812   1.144  1.3007  0.6293  0.7717
 1712SOL     OW 5337   3.150   3.689   0.582  0.0117  0.1224  0.0836
 1712SOL    HW1 5338   3.192   3.606   0.558 -0.3884  0.0564 -0.4023
 1712SOL    HW2 5339   3.159   3.744   0.505  1.4650  1.0243  0.8524
 1713SOL     OW 5340   2.223   4.600   4.132 -0.5831  0.3281 -0.4390
 1713SOL    HW1 5341   2.300   4.656   4.135 -0.8662  0.7271 -0.3836
 1713SOL    HW2 5342   2.216   4.572   4.041 -0.0349 -0.1954 -0.3198
 1714SOL     OW 5343   0.503   2.382   3.459 -0.2028 -0.1833 -0.0741
 1714SOL    HW1 5344   0.549   2.463   3.480  2.0848 -0.9213 -1.8117
 1714SOL    HW2 5345   0.461   2.400   3.375 -0.2103 -0.6092 -0.1627
 1715SOL     OW 5346   0.226   0.969   0.458  0.0712  0.1563  0.3150
 1715SOL    HW1 5347   0.264   0.979   0.370 -1.0203 -2.3790 -0.5457
 1715SOL    HW2 5348   0.132   0.974   0.444 -0.1019  0.9155  1.5826
 1716SOL     OW 5349   4.494   4.165   0.425 -0.1476 -0.5192  0.1061
 1716SOL    HW1 5350   4.573   4.146   0.374  0.7746  0.8896  0.9378
 1716SOL    HW2 5351   4.422   4.145   0.365  0.8559 -0.9428 -1.0061
 1717SOL     OW 5352   0.669   3.737   0.985 -0.1548 -0.5705  0.1083
 1717SOL    HW1 5353   0.619   3.751   0.905 -0.1931  2.6204  0.5212
 1717SOL    HW2 5354   0.744   3.683   0.959  0.4510  1.3003 -2.3963
 1718SOL     OW 5355   3.538   0.547   1.730  0.2819  0.3331  0.2006
 1718SOL    HW1 5356   3.481   0.594   1.791  0.9442 -0.0590  1.1408
 1718SOL    HW2 5357   3.583   0.616   1.682 -2.4812  0.7207 -2.1127
 1719SOL     OW 5358   1.236   2.294   4.292 -1.0618  0.2103 -0.0881
 1719SOL    HW1 5359   1.244   2.385   4.321 -2.6223  0.0621  0.9397
 1719SOL    HW2 5360   1.158   2.293   4.237 -1.3413 -0.5997  0.3149
 1720SOL     OW 5361   3.696   2.672   2.774  0.1443  0.1578  0.1685
 1720SOL    HW1 5362   3.750   2.592   2.771 -0.6729 -0.4428  0.9261
 1720SOL    HW2 5363   3.741   2.729   2.836 -0.0907 -0.3473  0.8103
 1721SOL     OW 5364   0.350   2.941   1.032  0.1467  0.1633  0.4983
 1721SOL    HW1 5365   0.307   3.018   1.070 -1.9336 -0.8828  0.4580
 1721SOL    HW2 5366   0.332   2.871   1.095 -1.5304 -1.1361 -1.2827
 1722SOL     OW 5367   1.172   4.420   1.300  1.0821 -0.2891 -0.1092
 1722SOL    HW1 5368   1.138   4.509   1.314  2.3918 -0.0245  1.8543
 1722SOL    HW2 5369   1.112   4.363   1.348 -0.0116 -0.5780 -1.7298
 1723SOL     OW 5370   3.260   3.348   0.726  0.3938  0.0425  0.1420
 1723SOL    HW1 5371   3.181   3.398   0.748 -0.0747  0.2093 -1.7151
 1723SOL    HW2 5372   3.272   3.363   0.632  0.9527 -2.3315 -0.2310
 1724SOL     OW 5373   2.269   1.089   1.995 -0.0901 -0.4323 -0.2396
 1724SOL    HW1 5374   2.231   1.150   1.932  3.4374  1.3593 -0.8557
 1724SOL    HW2 5375   2.282   1.008   1.946  0.2012  0.1047 -1.0714
 1725SOL     OW 5376   0.455   3.041   3.732  0.2356  0.1999  0.3493
 1725SOL    HW1 5377   0.543   3.011   3.710  0.6216 -1.0723  3.2420
 1725SOL    HW2 5378   0.397   2.971   3.702  0.5420 -0.4408  1.2009
 1726SOL     OW 5379   2.737   2.940   3.677  0.1150  0.4012  0.4727
 1726SOL    HW1 5380   2.710   3.030   3.657  2.0634  1.1916  1.1893
 1726SOL    HW2 5381   2.766   2.905   3.593  0.3365  0.8201  0.3669
 1727SOL     OW 5382   1.637   3.825   3.375  0.0047 -0.0189  0.5739
 1727SOL    HW1 5383   1.705   3.856   3.435  1.5564 -1.1595 -0.5049
 1727SOL    HW2 5384   1.582   3.768   3.429  0.9375 -0.4533  1.1078
 1728SOL     OW 5385   4.791   4.665   1.256  0.1794 -0.1031  0.3546
 1728SOL    HW1 5386   4.844   4.619   1.321  0.0077 -2.5545 -1.0775
 1728SOL    HW2 5387   4.721   4.603   1.234 -0.4243  1.0780 -1.3125
 1729SOL     OW 5388   4.018   0.192   3.162 -0.3736  0.5064 -0.0756
 1729SOL    HW1 5389   4.072   0.116   3.182 -0.1441  0.8828  0.7986
 1729SOL    HW2 5390   3.934   0.174   3.206 -0.0090  1.1512  0.9394
 1730SOL     OW 5391   2.895   4.563   1.362 -0.1061 -0.3030  0.4232
 1730SOL    HW1 5392   2.799   4.556   1.361 -0.2901 -1.3801  4.8579
 1730SOL    HW2 5393   2.926   4.473   1.357  0.7970  0.0460 -1.1517
 1731SOL     OW 5394   2.563   1.526   0.445  0.2917  0.3069  0.2213
 1731SOL    HW1 5395   2.597   1.439   0.465  0.3311  0.0463 -0.9107
 1731SOL    HW2 5396   2.468   1.516   0.448  0.2898  0.0931 -0.4052
 1732SOL     OW 5397   0.602   0.980   4.782 -0.2764 -0.1401  0.1658
 1732SOL    HW1 5398   0.598   0.955   4.875 -2.5612 -1.2245 -0.1512
 1732SOL    HW2 5399   0.575   0.901   4.735 -0.0987  0.6783 -1.3664
 1733SOL     OW 5400   3.874   1.538   2.300  0.2752  0.1642  0.0354
 1733SOL    HW1 5401   3.860   1.465   2.360  0.5924  0.2445  0.2148
 1733SOL    HW2 5402   3.820   1.518   2.224 -0.2852  0.1608  0.4348
 1734SOL     OW 5403   2.909   3.949   1.418  0.6037 -0.2596 -0.2190
 1734SOL    HW1 5404   2.874   3.966   1.505 -0.4679 -1.4653 -0.3825
 1734SOL    HW2 5405   2.984   3.891   1.432 -0.5152 -1.7669 -0.1477
 1735SOL     OW 5406   1.950   2.970   2.232 -0.0535 -0.8520 -0.2208
 1735SOL    HW1 5407   1.873   2.994   2.283 -0.8934 -1.8789 -0.9429
 1735SOL    HW2 5408   1.914   2.928   2.154  1.2282 -0.3574 -1.0970
 1736SOL     OW 5409   3.230   1.395   1.720 -0.7217 -0.3075 -0.6153
 1736SOL    HW1 5410   3.267   1.311   1.693 -2.1253 -1.0767 -0.2663
 1736SOL    HW2 5411   3.187   1.429   1.642  0.2283  0.3147 -0.8749
 1737SOL     OW 5412   2.260   3.920   1.946 -0.3388 -0.0796 -0.1625
 1737SOL    HW1 5413   2.210   3.908   1.865 -0.1868 -1.3993 -0.0744
 1737SOL    HW2 5414   2.243   4.011   1.971 -0.1332  0.4550 -1.8499
 1738SOL     OW 5415   0.571   1.444   0.488 -0.2201  0.7889  0.1685
 1738SOL    HW1 5416   0.614   1.529   0.500  1.5908  0.0050 -0.2938
 1738SOL    HW2 5417   0.601   1.391   0.563 -1.0499  0.4490  0.2695
 1739SOL     OW 5418   2.383   4.239   2.386  0.3775  0.4300 -0.2198
 1739SOL    HW1 5419   2.298   4.277   2.365 -0.5351 -1.0125  0.7741
 1739SOL    HW2 5420   2.414   4.204   2.302 -0.0456  0.8334 -0.5563
 1740SOL     OW 5421   0.040   3.678   2.614  0.8585 -0.8054  0.0791
 1740SOL    HW1 5422   0.106   3.723   2.666  0.9397  0.3905 -1.0103
 1740SOL    HW2 5423   0.082   3.595   2.589  1.5190 -0.5579  0.3422
 1741SOL     OW 5424   1.737   3.186   1.020 -0.5543  0.7466  0.1136
 1741SOL    HW1 5425   1.790   3.138   0.957 -0.4643 -0.0640  0.7784
 1741SOL    HW2 5426   1.660   3.130   1.034 -1.5557  1.8661 -0.7678
 1742SOL     OW 5427   3.445   1.991   3.766 -0.2997 -0.3183 -0.4950
 1742SOL    HW1 5428   3.362   1.951   3.792  0.5029 -0.4770  2.1102
 1742SOL    HW2 5429   3.497   1.992   3.846  0.7234  3.5761 -1.0098
 1743SOL     OW 5430   3.564   2.020   2.660 -0.2009 -0.0470 -0.0529
 1743SOL    HW1 5431   3.544   1.926   2.668  1.5203 -0.4197  0.2795
 1743SOL    HW2 5432   3.613   2.027   2.579  0.6498  0.3750  0.4898
 1744SOL     OW 5433   1.546   3.455   1.508  0.7480  0.4003  0.1290
 1744SOL    HW1 5434   1.582   3.429   1.593 -1.4769 -1.6471  0.5886
 1744SOL    HW2 5435   1.462   3.408   1.504  0.5437  0.8744 -2.9735
 1745SOL     OW 5436   0.981   2.424   4.255  0.0195 -0.0149  0.1869
 1745SOL    HW1 5437   1.041   2.477   4.201  1.3817 -1.8323 -0.1894
 1745SOL    HW2 5438   0.929   2.375   4.192  0.3296 -0.7702  0.5040
 1746SOL     OW 5439   2.070   1.977   4.741 -0.2136 -0.1751  0.3301
 1746SOL    HW1 5440   2.136   2.037   4.778 -0.1303  0.0577 -0.1923
 1746SOL    HW2 5441   2.004   2.035   4.703 -0.3912 -0.4129  0.2784
 1747SOL     OW 5442   0.607   1.656   0.910 -0.7641  0.5335  0.3830
 1747SOL    HW1 5443   0.690   1.626   0.873  0.1687 -1.2320  3.4591
 1747SOL    HW2 5444   0.545   1.652   0.838  1.2666 -0.6596 -1.4077
 1748SOL     OW 5445   2.890   4.269   3.419 -0.2863 -0.4114  0.2556
 1748SOL    HW1 5446   2.908   4.186   3.375  0.1103 -0.4463  0.4762
 1748SOL    HW2 5447   2.927   4.336   3.362 -1.1118 -0.3310 -0.2091
 1749SOL     OW 5448   0.084   1.178   0.714  0.7382  0.0381 -0.2679
 1749SOL    HW1 5449   0.155   1.118   0.693  1.1901  0.5068 -0.0810
 1749SOL    HW2 5450   0.027   1.175   0.637  2.1368  1.3712 -1.4179
 1750SOL     OW 5451   4.666   0.490   4.819  0.3239  0.0068 -0.2617
 1750SOL    HW1 5452   4.716   0.439   4.882  0.3971 -0.4884 -0.7052
 1750SOL    HW2 5453   4.676   0.581   4.847  1.6162 -0.0570 -0.4261
 1751SOL     OW 5454   1.357   2.458   1.469  0.1666  0.4571 -0.3086
 1751SOL    HW1 5455   1.400   2.543   1.484 -2.6457  2.0292 -0.3681
 1751SOL    HW2 5456   1.287   2.456   1.534 -0.8136 -1.0979 -1.3737
 1752SOL     OW 5457   2.248   3.091   2.641  0.5138  0.5217  0.2749
 1752SOL    HW1 5458   2.321   3.031   2.658  0.5187  0.7681  1.1633
 1752SOL    HW2 5459   2.261   3.119   2.550  0.3816 -0.9859 -0.2257
 1753SOL     OW 5460   3.870   4.718   0.344 -0.1119  0.3749 -0.0822
 1753SOL    HW1 5461   3.870   4.754   0.255 -0.4844 -1.5822 -0.9176
 1753SOL    HW2 5462   3.854   4.625   0.332  0.5075 -0.0451  2.0137
 1754SOL     OW 5463   4.724   0.198   4.205 -0.5653  0.0230 -0.2348
 1754SOL    HW1 5464   4.682   0.131   4.259 -1.7582 -0.0684 -1.2231
 1754SOL    HW2 5465   4.749   0.267   4.267  0.0562 -1.0105  0.6996
 1755SOL     OW 5466   4.561   1.849   1.798 -0.0583 -0.0840  0.0702
 1755SOL    HW1 5467   4.650   1.836   1.830  0.8379  1.4123 -1.5922
 1755SOL    HW2 5468   4.532   1.929   1.842  0.1446  0.4520 -0.7494
 1756SOL     OW 5469   0.176   4.127   2.884 -0.1200 -0.1454 -0.7215
 1756SOL    HW1 5470   0.097   4.074   2.897 -0.1777 -0.1740 -1.1716
 1756SOL    HW2 5471   0.246   4.073   2.920 -0.3316 -0.0208 -0.1091
 1757SOL     OW 5472   2.830   2.255   3.874 -0.0414  0.0252 -0.4110
 1757SOL    HW1 5473   2.748   2.305   3.875 -0.5999 -0.8777 -0.2117
 1757SOL    HW2 5474   2.818   2.191   3.804  0.1375 -0.6732  0.1843
 1758SOL     OW 5475   4.511   1.755   3.339  0.2188  0.1506  0.4501
 1758SOL    HW1 5476   4.499   1.742   3.433  0.7289  0.5514  0.5728
 1758SOL    HW2 5477   4.606   1.760   3.327  0.2647 -1.8736 -0.3582
 1759SOL     OW 5478   3.236   1.213   3.082 -0.4497  0.2227  0.2834
 1759SOL    HW1 5479   3.245   1.130   3.037 -1.9486  0.7057 -1.0036
 1759SOL    HW2 5480   3.316   1.262   3.060 -1.1665  0.4774 -1.9848
 1760SOL     OW 5481   0.564   4.123   1.270 -0.1497  0.1609  0.1602
 1760SOL    HW1 5482   0.590   4.037   1.301  0.5730  0.8330  1.4951
 1760SOL    HW2 5483   0.562   4.115   1.175  2.2621 -0.6910  0.1274
 1761SOL     OW 5484   1.244   3.433   2.124  0.0941 -0.1339 -0.3596
 1761SOL    HW1 5485   1.291   3.350   2.124 -2.7731 -1.9270  1.6839
 1761SOL    HW2 5486   1.237   3.456   2.217 -1.3293  1.0615 -0.7382
 1762SOL     OW 5487   3.220   2.580   0.576 -0.3527  0.2667  0.4595
 1762SOL    HW1 5488   3.157   2.606   0.644  0.7115  1.9483  0.8849
 1762SOL    HW2 5489   3.298   2.554   0.625  0.2356  0.9593 -0.0932
 1763SOL     OW 5490   2.810   1.040   3.425 -0.1641  0.3175 -0.1113
 1763SOL    HW1 5491   2.775   1.050   3.336 -2.6600  1.8240  0.9139
 1763SOL    HW2 5492   2.768   0.960   3.458 -0.7309  0.7701  0.2921
 1764SOL     OW 5493   2.675   1.809   1.265 -0.1239 -0.1570  0.2038
 1764SOL    HW1 5494   2.603   1.753   1.235  0.1655  0.5399 -1.9646
 1764SOL    HW2 5495   2.748   1.786   1.208  0.4835  1.2704  0.3737
 1765SOL     OW 5496   4.291   2.971   3.725 -0.6062 -0.0522  0.2865
 1765SOL    HW1 5497   4.378   2.987   3.762 -0.6679  0.1257  0.3506
 1765SOL    HW2 5498   4.241   3.050   3.744 -0.9142 -0.3275  0.6312
 1766SOL     OW 5499   4.800   2.361   0.469 -0.0635 -0.3360  0.5898
 1766SOL    HW1 5500   4.763   2.379   0.555  1.4175  0.7197  1.0366
 1766SOL    HW2 5501   4.871   2.299   0.485 -0.8467 -1.4726 -0.1210
 1767SOL     OW 5502   1.802   3.807   4.653  0.4409  0.2656  0.4698
 1767SOL    HW1 5503   1.718   3.852   4.653 -0.1879 -0.8518  0.8510
 1767SOL    HW2 5504   1.806   3.765   4.739  1.7910  1.0032  0.8018
 1768SOL     OW 5505   1.131   3.911   1.230  0.4895 -0.0038 -0.0107
 1768SOL    HW1 5506   1.087   3.994   1.252  0.8101  0.6075 -1.5374
 1768SOL    HW2 5507   1.059   3.849   1.219  0.1908  0.2656  0.3710
 1769SOL     OW 5508   4.480   2.354   2.733 -0.3774 -0.3463  0.1162
 1769SOL    HW1 5509   4.398   2.403   2.740  0.0201  0.1802  1.2832
 1769SOL    HW2 5510   4.471   2.305   2.651 -1.4427  0.4634 -0.2826
 1770SOL     OW 5511   0.465   0.534   2.844 -0.1354 -0.1942  0.1436
 1770SOL    HW1 5512   0.458   0.613   2.791  1.9379  0.4823  0.7927
 1770SOL    HW2 5513   0.454   0.462   2.782  0.8131  0.5832 -0.9673
 1771SOL     OW 5514   2.347   3.580   1.529 -0.2594 -0.1097  0.3677
 1771SOL    HW1 5515   2.369   3.510   1.590  0.5088  0.6481  0.9796
 1771SOL    HW2 5516   2.365   3.661   1.577  0.1916  0.5031 -0.7900
 1772SOL     OW 5517   1.723   2.870   3.911 -0.7900  0.3765 -0.2333
 1772SOL    HW1 5518   1.798   2.919   3.879 -0.4250  0.5010  0.7818
 1772SOL    HW2 5519   1.760   2.799   3.964 -1.3640  0.0423 -0.2587
 1773SOL     OW 5520   2.182   0.583   4.336 -0.1388 -0.6589  0.5392
 1773SOL    HW1 5521   2.180   0.678   4.346  1.1371 -0.5911  0.3355
 1773SOL    HW2 5522   2.094   0.560   4.306 -0.0715  0.6260 -0.7913
 1774SOL     OW 5523   2.604   0.164   0.628  0.7529  0.1836  0.2475
 1774SOL    HW1 5524   2.677   0.102   0.623  0.0580 -0.6506  0.1783
 1774SOL    HW2 5525   2.619   0.211   0.710  1.1484 -0.2658  0.4444
 1775SOL     OW 5526   4.775   4.217   3.416 -0.0268 -0.4927 -0.4316
 1775SOL    HW1 5527   4.803   4.126   3.421  0.7968 -0.4337 -2.7864
 1775SOL    HW2 5528   4.679   4.213   3.425 -0.0068 -1.5940 -0.6254
 1776SOL     OW 5529   4.491   0.841   0.070 -0.0910 -0.0331 -0.0318
 1776SOL    HW1 5530   4.477   0.802   0.156  0.2948  0.9489  0.5010
 1776SOL    HW2 5531   4.432   0.916   0.067  0.4262  0.3730 -0.3199
 1777SOL     OW 5532   4.396   0.665   2.021 -0.5064  0.5390 -0.1320
 1777SOL    HW1 5533   4.448   0.641   2.098 -1.2638 -1.5232 -0.2036
 1777SOL    HW2 5534   4.316   0.702   2.057 -0.4884  0.4064  0.0471
 1778SOL     OW 5535   0.516   4.183   1.781 -0.0387 -0.0739  0.3142
 1778SOL    HW1 5536   0.494   4.101   1.825 -2.1145 -0.7108 -1.6876
 1778SOL    HW2 5537   0.444   4.242   1.803  0.5462  0.6557  0.3257
 1779SOL     OW 5538   2.850   4.042   2.221 -0.9214 -0.9775  0.0943
 1779SOL    HW1 5539   2.900   4.082   2.292 -1.7386  0.7458 -0.2453
 1779SOL    HW2 5540   2.823   3.957   2.255 -1.7566  0.0180  2.0594
 1780SOL     OW 5541   4.756   0.240   3.077 -0.6529 -0.1631  0.2686
 1780SOL    HW1 5542   4.718   0.271   3.159  0.4159  1.7016  0.1061
 1780SOL    HW2 5543   4.841   0.204   3.102 -0.7958 -0.6123  0.1144
 1781SOL     OW 5544   0.082   3.020   0.658 -0.3136  0.2434 -0.4621
 1781SOL    HW1 5545   0.165   3.068   0.668  0.6917 -1.4075 -0.4285
 1781SOL    HW2 5546   0.035   3.037   0.739 -0.2573  1.6080 -0.6813
 1782SOL     OW 5547   0.888   0.190   4.342 -0.2584 -0.1089  0.1709
 1782SOL    HW1 5548   0.868   0.277   4.308 -0.0009 -0.1862 -0.1797
 1782SOL    HW2 5549   0.979   0.196   4.372 -0.6262  0.1040  1.3226
 1783SOL     OW 5550   3.005   0.658   0.824  0.2415 -0.3342 -0.4676
 1783SOL    HW1 5551   2.954   0.579   0.807 -0.6746  0.3974 -1.2535
 1783SOL    HW2 5552   3.089   0.643   0.781 -1.1990  0.5372 -3.8729
 1784SOL     OW 5553   2.449   2.562   3.223 -0.1150 -0.4226  0.0642
 1784SOL    HW1 5554   2.543   2.564   3.243 -0.4966  1.4963  1.8982
 1784SOL    HW2 5555   2.425   2.470   3.233  1.0763 -0.5651  2.1064
 1785SOL     OW 5556   1.350   0.562   1.830 -0.1742 -0.8530  0.1413
 1785SOL    HW1 5557   1.423   0.537   1.886  0.4769  0.3634 -0.1467
 1785SOL    HW2 5558   1.356   0.503   1.755 -0.2798 -1.6260  0.7313
 1786SOL     OW 5559   2.122   0.591   0.495 -0.0082 -0.0799 -0.7600
 1786SOL    HW1 5560   2.070   0.534   0.552 -1.0460  0.6245 -0.9705
 1786SOL    HW2 5561   2.197   0.537   0.469  0.7542 -0.2756  1.6283
 1787SOL     OW 5562   2.124   3.546   1.303 -0.2952  0.6245 -0.0121
 1787SOL    HW1 5563   2.191   3.559   1.370  0.0969  1.6034 -0.5785
 1787SOL    HW2 5564   2.048   3.595   1.336  0.0315  1.4473 -0.4731
 1788SOL     OW 5565   3.317   3.423   0.471  0.7249 -0.4980  0.4117
 1788SOL    HW1 5566   3.271   3.394   0.393 -1.4076  0.0253  1.4083
 1788SOL    HW2 5567   3.339   3.514   0.453  0.2606 -0.3857  0.4031
 1789SOL     OW 5568   4.150   0.890   1.880  0.4391  0.4154  0.1474
 1789SOL    HW1 5569   4.092   0.823   1.842  0.0151  0.9726 -0.1946
 1789SOL    HW2 5570   4.137   0.882   1.974 -0.9490  1.1911  0.0452
 1790SOL     OW 5571   0.478   0.499   2.169 -0.2361 -0.3716  0.3440
 1790SOL    HW1 5572   0.503   0.490   2.077  0.1468 -0.5117  0.4608
 1790SOL    HW2 5573   0.559   0.486   2.217  0.0372  1.8980  0.6179
 1791SOL     OW 5574   0.899   2.375   3.722 -0.0227 -0.2626  0.3797
 1791SOL    HW1 5575   0.960   2.301   3.718 -2.2876 -2.2189 -1.0633
 1791SOL    HW2 5576   0.909   2.419   3.638 -1.0811 -1.0673 -0.1901
 1792SOL     OW 5577   4.003   2.687   2.828 -0.6283  0.1164  0.5019
 1792SOL    HW1 5578   4.074   2.662   2.769  1.2594 -0.5198  2.9123
 1792SOL    HW2 5579   3.940   2.614   2.822  0.1650 -0.5622  0.2636
 1793SOL     OW 5580   2.787   3.750   1.706  0.0685  0.0265 -0.2967
 1793SOL    HW1 5581   2.714   3.783   1.759  0.7414  0.6360  0.2926
 1793SOL    HW2 5582   2.863   3.801   1.737  0.5598  0.1012 -1.5676
 1794SOL     OW 5583   0.700   2.638   1.940 -0.4049 -0.4329  0.3827
 1794SOL    HW1 5584   0.614   2.623   1.902 -0.5494 -1.7682  1.1897
 1794SOL    HW2 5585   0.690   2.718   1.991 -1.0476 -0.3385  0.1173
 1795SOL     OW 5586   3.346   3.206   3.785  0.7297  0.4841  0.8145
 1795SOL    HW1 5587   3.274   3.260   3.818  0.1596 -0.8105  1.7903
 1795SOL    HW2 5588   3.309   3.162   3.708  0.8654  0.7368  0.6067
 1796SOL     OW 5589   1.995   3.060   1.579  0.0656  0.1803  0.2677
 1796SOL    HW1 5590   1.987   3.099   1.492 -1.7075  0.2445  0.4296
 1796SOL    HW2 5591   2.021   2.969   1.562  3.2170  1.0382 -0.1415
 1797SOL     OW 5592   4.517   1.532   1.651 -0.2713 -0.0625  0.1370
 1797SOL    HW1 5593   4.571   1.603   1.618  0.8394 -1.3001 -0.8399
 1797SOL    HW2 5594   4.431   1.571   1.664  0.4539  1.5947  0.2381
 1798SOL     OW 5595   0.715   3.810   2.675  0.4695 -0.6029 -0.1986
 1798SOL    HW1 5596   0.729   3.718   2.653  0.8793 -0.4556 -0.5643
 1798SOL    HW2 5597   0.803   3.849   2.674  0.2183 -0.0105 -0.9524
 1799SOL     OW 5598   2.371   1.890   1.420  0.7128 -0.1194  0.4094
 1799SOL    HW1 5599   2.460   1.924   1.414  1.2541 -1.3023  1.4020
 1799SOL    HW2 5600   2.316   1.968   1.421  1.6403  0.6247 -1.1800
 1800SOL     OW 5601   3.003   3.491   1.925 -0.1381  0.1902  0.4444
 1800SOL    HW1 5602   2.932   3.430   1.947 -0.1481 -0.3853 -1.0194
 1800SOL    HW2 5603   3.016   3.543   2.004 -0.8851 -0.9825  1.3742
 1801SOL     OW 5604   0.330   4.792   0.879 -0.5723  0.0765  0.3120
 1801SOL    HW1 5605   0.399   4.727   0.884  0.2160  0.9423  1.3079
 1801SOL    HW2 5606   0.275   4.775   0.955 -1.0925 -0.2060 -0.1212
 1802SOL     OW 5607   0.936   2.895   3.735  0.2003  0.3026  0.5765
 1802SOL    HW1 5608   0.851   2.860   3.761  0.0759 -0.1860 -0.4717
 1802SOL    HW2 5609   1.000   2.839   3.779  0.1067 -3.2278 -3.1981
 1803SOL     OW 5610   4.489   2.174   2.962 -0.7897  0.1075 -0.2739
 1803SOL    HW1 5611   4.481   2.236   2.889 -0.2287  0.8866  0.3104
 1803SOL    HW2 5612   4.421   2.109   2.945  0.4598 -0.7455 -2.4533
 1804SOL     OW 5613   0.375   1.556   2.148 -0.7701 -0.0319  0.1479
 1804SOL    HW1 5614   0.434   1.526   2.079  0.8460 -0.5772  1.6955
 1804SOL    HW2 5615   0.296   1.584   2.101  1.0006  1.5809 -2.0998
 1805SOL     OW 5616   3.599   0.597   4.294 -0.5213 -0.5131 -0.1067
 1805SOL    HW1 5617   3.612   0.556   4.208 -0.5724 -1.7481  0.4633
 1805SOL    HW2 5618   3.644   0.540   4.355 -1.6707 -0.4098  0.8671
 1806SOL     OW 5619   4.736   3.969   2.893  0.0822 -0.1630  0.1752
 1806SOL    HW1 5620   4.725   3.976   2.988 -3.3605  1.0324 -0.1611
 1806SOL    HW2 5621   4.704   3.882   2.871 -2.0744  0.6244 -0.0792
 1807SOL     OW 5622   4.564   0.489   4.566  0.2196 -0.7562 -0.0877
 1807SOL    HW1 5623   4.478   0.447   4.569 -0.9134  1.4750  1.2195
 1807SOL    HW2 5624   4.595   0.487   4.656  0.4490  0.5342 -0.1227
 1808SOL     OW 5625   2.067   1.379   2.155 -0.6705  0.1538 -0.4811
 1808SOL    HW1 5626   2.064   1.329   2.237  1.1941  0.3817 -0.2170
 1808SOL    HW2 5627   2.064   1.312   2.086  1.6621 -0.4025 -0.1330
 1809SOL     OW 5628   2.342   3.938   3.809  0.3411 -0.2689 -0.2258
 1809SOL    HW1 5629   2.392   3.885   3.747 -1.3909 -0.5822 -1.4071
 1809SOL    HW2 5630   2.259   3.955   3.765 -0.5585  0.3643  1.6172
 1810SOL     OW 5631   0.243   0.077   2.236  0.2049 -0.0742 -0.0666
 1810SOL    HW1 5632   0.149   0.097   2.237 -0.3837 -2.5502  0.1399
 1810SOL    HW2 5633   0.275   0.119   2.156 -1.7832 -1.7910 -1.8837
 1811SOL     OW 5634   4.503   4.218   2.914 -0.1577 -0.1485 -0.4497
 1811SOL    HW1 5635   4.490   4.193   2.823 -2.1974 -0.3647 -0.1408
 1811SOL    HW2 5636   4.479   4.141   2.964 -2.7609  1.0811  0.3665
 1812SOL     OW 5637   1.567   1.015   3.950  0.4095  0.1150 -0.1605
 1812SOL    HW1 5638   1.598   0.990   4.037  0.3853 -0.3492 -0.2844
 1812SOL    HW2 5639   1.519   0.939   3.919 -2.6649  1.4698  0.8408
 1813SOL     OW 5640   4.167   2.721   3.949 -0.0549 -0.2695 -0.0311
 1813SOL    HW1 5641   4.141   2.709   4.040  0.1279 -1.0591 -0.0724
 1813SOL    HW2 5642   4.097   2.774   3.910 -1.3735 -1.9171 -0.0162
 1814SOL     OW 5643   0.151   3.229   1.780  0.5309 -0.0766 -0.3875
 1814SOL    HW1 5644   0.180   3.175   1.853  0.1968 -0.3648 -0.4661
 1814SOL    HW2 5645   0.176   3.318   1.805 -0.1973 -0.0797  0.4008
 1815SOL     OW 5646   1.115   2.631   0.981 -0.4012  0.8655 -0.0522
 1815SOL    HW1 5647   1.088   2.541   0.965  4.5545 -1.0949  0.9452
 1815SOL    HW2 5648   1.157   2.658   0.899 -0.6768  1.7887  0.0987
 1816SOL     OW 5649   0.886   1.508   4.596 -0.5924  0.2388  0.2280
 1816SOL    HW1 5650   0.922   1.575   4.538 -0.1989 -0.0203  0.1637
 1816SOL    HW2 5651   0.792   1.509   4.581 -0.5895  0.7865  0.2392
 1817SOL     OW 5652   2.108   3.254   3.706 -0.1276  0.1915  0.3203
 1817SOL    HW1 5653   2.140   3.165   3.721 -0.4897 -0.3258 -1.6740
 1817SOL    HW2 5654   2.177   3.296   3.655 -0.1958  0.8775  0.7913
 1818SOL     OW 5655   1.590   0.275   0.446 -0.1403  0.2990 -0.5522
 1818SOL    HW1 5656   1.501   0.239   0.446 -0.2687  0.6015 -1.3492
 1818SOL    HW2 5657   1.640   0.215   0.390  0.1993  0.0507  0.0064
 1819SOL     OW 5658   3.586   1.618   3.002  0.2011  0.0437  0.0170
 1819SOL    HW1 5659   3.577   1.673   3.080  1.3033  0.2024  0.0484
 1819SOL    HW2 5660   3.630   1.675   2.938  1.9805 -0.9853  0.2707
 1820SOL     OW 5661   1.922   3.018   3.830 -0.9002 -0.4381  0.2339
 1820SOL    HW1 5662   1.903   3.078   3.901 -0.5106 -1.5723  1.3373
 1820SOL    HW2 5663   2.014   3.035   3.808 -1.0306 -0.0632 -0.0135
 1821SOL     OW 5664   3.769   0.015   2.672  0.1440 -0.8074  0.0349
 1821SOL    HW1 5665   3.826   0.080   2.632  0.9777 -2.1096 -1.0032
 1821SOL    HW2 5666   3.730  -0.032   2.598 -2.6839  0.2960  0.6904
 1822SOL     OW 5667   0.605   0.343   4.367  0.2108 -0.0008 -0.2302
 1822SOL    HW1 5668   0.633   0.309   4.452 -0.4628  0.2484  0.1021
 1822SOL    HW2 5669   0.679   0.396   4.337  0.1741  0.5092  0.5491
 1823SOL     OW 5670   4.014   3.275   1.916 -0.3059  0.0452  0.1782
 1823SOL    HW1 5671   4.029   3.194   1.965 -0.2959  0.4169  0.7884
 1823SOL    HW2 5672   4.088   3.280   1.855  0.9058  0.7236  1.6406
 1824SOL     OW 5673   1.867   3.873   2.626  0.1764  0.4066 -0.8970
 1824SOL    HW1 5674   1.946   3.908   2.587  0.5950  0.7057  0.1802
 1824SOL    HW2 5675   1.825   3.948   2.667  0.2621 -0.0531  0.0674
 1825SOL     OW 5676   4.331   0.626   3.141  0.2237  0.1251 -0.3510
 1825SOL    HW1 5677   4.390   0.560   3.105  1.0831 -0.1437  1.4255
 1825SOL    HW2 5678   4.264   0.638   3.074  0.9708 -1.3301 -1.4094
 1826SOL     OW 5679   1.641   3.569   2.744  0.0440 -0.4699 -0.2977
 1826SOL    HW1 5680   1.689   3.574   2.661  1.2914 -0.8361  0.3770
 1826SOL    HW2 5681   1.709   3.571   2.811 -0.7984 -2.0032  0.6655
 1827SOL     OW 5682   2.969   1.717   1.821 -0.3104 -0.2810  0.1043
 1827SOL    HW1 5683   3.005   1.725   1.733 -0.0053 -0.1656  0.2371
 1827SOL    HW2 5684   2.908   1.644   1.816  1.8294 -2.1987  0.4744
 1828SOL     OW 5685   2.787   2.149   2.185  0.2989 -0.3230 -0.4999
 1828SOL    HW1 5686   2.705   2.106   2.162  0.0995  0.0033 -0.3915
 1828SOL    HW2 5687   2.830   2.088   2.245 -1.5281  1.0661  2.4778
 1829SOL     OW 5688   3.512   2.076   4.637 -0.1885  0.2370 -0.3630
 1829SOL    HW1 5689   3.552   2.002   4.683 -0.8719  0.8407  1.2950
 1829SOL    HW2 5690   3.515   2.148   4.700 -0.7946  1.2356 -1.4296
 1830SOL     OW 5691   0.910   2.424   2.302  0.1970 -0.1496  0.1130
 1830SOL    HW1 5692   0.942   2.339   2.331 -0.9684 -0.6882 -0.0907
 1830SOL    HW2 5693   0.905   2.417   2.207 -1.3363 -0.4368  0.1749
 1831SOL     OW 5694   0.821   0.328   2.053  0.3586  0.1222  0.2277
 1831SOL    HW1 5695   0.785   0.244   2.080  2.5100 -1.3497 -1.1815
 1831SOL    HW2 5696   0.768   0.353   1.977  0.3542 -0.4883  0.0251
 1832SOL     OW 5697   3.607   3.591   3.085  0.2498 -0.4085 -0.3305
 1832SOL    HW1 5698   3.658   3.600   3.165 -0.5414  0.9878  0.0488
 1832SOL    HW2 5699   3.645   3.515   3.041 -0.5951 -2.5375  2.3191
 1833SOL     OW 5700   1.448   0.092   1.897 -0.0121  0.2550 -0.2792
 1833SOL    HW1 5701   1.463  -0.003   1.897  0.2235  0.2844 -1.1621
 1833SOL    HW2 5702   1.356   0.102   1.921 -0.2052 -0.2284 -0.8104
 1834SOL     OW 5703   1.915   2.063   2.049  0.2778  0.1685 -0.0932
 1834SOL    HW1 5704   1.932   2.080   1.957  0.2218  2.1651  0.2247
 1834SOL    HW2 5705   1.955   2.137   2.095 -1.1095  0.0624  1.3533
 1835SOL     OW 5706   0.240   0.171   0.386  0.0036 -0.4949  0.3026
 1835SOL    HW1 5707   0.156   0.215   0.398 -0.3488 -0.5535 -1.6317
 1835SOL    HW2 5708   0.266   0.144   0.474 -0.1985  2.7105  1.4496
 1836SOL     OW 5709   2.005   2.088   4.242 -0.2076  0.2383 -0.4280
 1836SOL    HW1 5710   1.925   2.057   4.198 -0.6820  1.3911 -0.3995
 1836SOL    HW2 5711   2.074   2.029   4.210 -0.6430  0.6582 -2.2435
 1837SOL     OW 5712   3.487   0.136   0.908 -0.5349 -0.1538 -0.0640
 1837SOL    HW1 5713   3.433   0.067   0.870  1.0490 -0.6948 -1.4630
 1837SOL    HW2 5714   3.512   0.191   0.833  0.1726  0.5602  0.6747
 1838SOL     OW 5715   2.280   3.897   1.531 -0.1093 -0.8144 -0.0585
 1838SOL    HW1 5716   2.197   3.934   1.560  0.5491 -0.6100  1.6689
 1838SOL    HW2 5717   2.344   3.965   1.551  0.3999 -0.6190 -2.1541
 1839SOL     OW 5718   4.062   1.422   4.633  0.2509  0.2291 -0.1052
 1839SOL    HW1 5719   4.053   1.473   4.714  0.5148  0.4837 -0.2321
 1839SOL    HW2 5720   4.141   1.458   4.592  0.3488 -0.1788 -0.2733
 1840SOL     OW 5721   0.689   3.283   3.254 -0.2599 -0.2308  0.0044
 1840SOL    HW1 5722   0.604   3.310   3.289  0.3885  2.3642 -0.2869
 1840SOL    HW2 5723   0.750   3.297   3.326 -0.1467 -3.4297  0.7143
 1841SOL     OW 5724   3.216   0.732   2.874 -0.2634 -0.0075  0.2610
 1841SOL    HW1 5725   3.255   0.797   2.931  1.9011  1.0466 -2.2210
 1841SOL    HW2 5726   3.267   0.652   2.889  0.1356  0.1969 -0.0023
 1842SOL     OW 5727   2.804   3.548   2.599 -0.1737 -0.0043 -0.0842
 1842SOL    HW1 5728   2.792   3.557   2.694 -0.7128 -0.4693 -0.1050
 1842SOL    HW2 5729   2.719   3.520   2.567  0.4832 -1.6865 -0.4713
 1843SOL     OW 5730   0.183   3.415   0.788 -0.4834 -0.0894 -0.2877
 1843SOL    HW1 5731   0.218   3.326   0.775  1.7696  0.3293  2.0142
 1843SOL    HW2 5732   0.246   3.456   0.848 -1.9460  2.7889 -0.5847
 1844SOL     OW 5733   1.202   0.058   2.433 -0.3018  0.5448  0.5114
 1844SOL    HW1 5734   1.162   0.102   2.508 -1.2653 -0.2502  0.4690
 1844SOL    HW2 5735   1.225  -0.029   2.466  1.0022  0.8255  0.4056
 1845SOL     OW 5736   2.374   2.010   4.153 -0.1491 -0.1631 -0.1843
 1845SOL    HW1 5737   2.302   1.948   4.140 -1.2725  0.7603  1.2110
 1845SOL    HW2 5738   2.424   1.973   4.227 -1.0819  0.7595  0.9472
 1846SOL     OW 5739   3.485   1.798   0.239 -0.0298 -0.5345 -0.2174
 1846SOL    HW1 5740   3.499   1.734   0.309  0.3602 -1.5635 -1.2028
 1846SOL    HW2 5741   3.393   1.823   0.248  0.2410  0.0534  1.2144
 1847SOL     OW 5742   2.276   0.659   3.077 -0.2784 -0.6905  0.7182
 1847SOL    HW1 5743   2.234   0.611   3.148 -1.5479 -0.9983 -0.1962
 1847SOL    HW2 5744   2.256   0.751   3.095 -0.1036 -0.7175  1.0591
 1848SOL     OW 5745   3.172   0.283   2.970 -0.2047  0.2925 -0.4368
 1848SOL    HW1 5746   3.175   0.232   3.051  2.7479  1.1070  0.0647
 1848SOL    HW2 5747   3.153   0.219   2.902  3.3334 -1.6498  0.1789
 1849SOL     OW 5748   2.497   3.171   0.449 -0.1532  0.4479 -0.1443
 1849SOL    HW1 5749   2.571   3.203   0.500  2.3514 -1.2971 -2.3715
 1849SOL    HW2 5750   2.484   3.238   0.382 -0.8300  0.8946  0.4221
 1850SOL     OW 5751   3.549   0.618   2.138  0.0641 -0.4893 -0.4810
 1850SOL    HW1 5752   3.483   0.653   2.079  0.5665  0.8539 -0.2846
 1850SOL    HW2 5753   3.550   0.680   2.212  1.4939 -0.5043 -0.4634
 1851SOL     OW 5754   4.543   2.550   1.455 -0.2241 -0.1829 -0.5473
 1851SOL    HW1 5755   4.636   2.535   1.473 -0.5652 -0.1480  1.3879
 1851SOL    HW2 5756   4.501   2.467   1.478 -0.6915 -0.1804 -1.3619
 1852SOL     OW 5757   2.900   4.036   3.307 -0.3516 -0.3618  0.0372
 1852SOL    HW1 5758   2.913   3.969   3.375  1.3584 -0.1600 -0.0446
 1852SOL    HW2 5759   2.939   3.998   3.228  1.1661  0.9135  0.1225
 1853SOL     OW 5760   1.234   3.874   1.717  0.3401  0.0832  0.4783
 1853SOL    HW1 5761   1.142   3.878   1.690  0.0834  0.2931  1.3677
 1853SOL    HW2 5762   1.274   3.813   1.654 -0.2264  0.5728 -0.3837
 1854SOL     OW 5763   4.619   4.689   0.947 -0.5439 -0.3809  0.1287
 1854SOL    HW1 5764   4.647   4.615   1.001  1.9569 -1.4579 -2.4264
 1854SOL    HW2 5765   4.698   4.740   0.933 -1.7934  1.6635  0.0513
 1855SOL     OW 5766   0.547   3.603   1.603  0.1487 -0.0143 -0.1184
 1855SOL    HW1 5767   0.531   3.692   1.634  0.4025  0.8845 -2.4101
 1855SOL    HW2 5768   0.470   3.580   1.552 -0.8550 -1.9779  2.1138
 1856SOL     OW 5769   4.186   3.049   0.201 -0.3827 -0.0335  0.0255
 1856SOL    HW1 5770   4.230   3.058   0.286  0.0829  0.0744 -0.2190
 1856SOL    HW2 5771   4.258   3.042   0.138 -0.7267 -0.9625 -0.2799
 1857SOL     OW 5772   0.292   4.478   0.781  0.6251 -0.1781  0.2184
 1857SOL    HW1 5773   0.276   4.499   0.873  1.2526 -1.5568  0.6607
 1857SOL    HW2 5774   0.206   4.487   0.739  0.3414  0.4983  0.9167
 1858SOL     OW 5775   4.791   3.787   3.891 -0.3074  0.2205  0.5014
 1858SOL    HW1 5776   4.715   3.805   3.947 -1.3618 -0.0816 -0.7742
 1858SOL    HW2 5777   4.777   3.841   3.814  1.1207  0.6263  0.4972
 1859SOL     OW 5778   0.043   2.494   4.225  0.6892  0.1781 -0.2973
 1859SOL    HW1 5779   0.128   2.497   4.182  0.9286  1.7239  0.1950
 1859SOL    HW2 5780  -0.008   2.564   4.183 -0.0657 -0.2157 -0.0624
 1860SOL     OW 5781   2.007   1.322   4.716  0.2832 -0.1895 -0.3050
 1860SOL    HW1 5782   1.995   1.270   4.795 -0.0665 -0.6389 -0.6467
 1860SOL    HW2 5783   1.931   1.380   4.714 -0.6081 -1.3534 -1.1932
 1861SOL     OW 5784   2.823   4.805   4.501  0.2567 -0.5076  0.2993
 1861SOL    HW1 5785   2.869   4.728   4.532  2.2708  0.8416  0.8627
 1861SOL    HW2 5786   2.879   4.840   4.432  0.0804  1.1543  0.9546
 1862SOL     OW 5787   1.657   2.344   3.244  0.3071 -0.4825 -0.3869
 1862SOL    HW1 5788   1.564   2.335   3.224  0.3401  0.6310 -1.1684
 1862SOL    HW2 5789   1.686   2.256   3.265 -1.2227 -0.6317  1.2881
 1863SOL     OW 5790   3.678   4.736   1.363 -0.0481  0.1760  0.0306
 1863SOL    HW1 5791   3.649   4.827   1.375 -2.3849 -0.3967 -0.6814
 1863SOL    HW2 5792   3.652   4.715   1.273  0.4874 -1.1826  0.1799
 1864SOL     OW 5793   0.468   3.911   2.611  0.1933  0.0941  0.4779
 1864SOL    HW1 5794   0.480   3.997   2.573  1.5284 -0.2927 -0.0334
 1864SOL    HW2 5795   0.557   3.880   2.629 -0.1759 -1.6822 -0.5376
 1865SOL     OW 5796   0.400   0.836   3.586  0.2299 -0.0679  0.1726
 1865SOL    HW1 5797   0.460   0.904   3.618 -0.5386  0.1629  1.2011
 1865SOL    HW2 5798   0.315   0.881   3.579 -0.5414 -1.1339  1.8936
 1866SOL     OW 5799   1.057   4.117   3.944  0.6505  0.2129  0.0589
 1866SOL    HW1 5800   1.053   4.026   3.916  0.5054  0.9749 -2.6501
 1866SOL    HW2 5801   1.008   4.119   4.027 -1.6116 -1.7009 -1.1167
 1867SOL     OW 5802   0.844   1.909   2.929  0.4842 -0.6184 -0.5780
 1867SOL    HW1 5803   0.813   1.993   2.896  0.4226 -1.1054 -1.7989
 1867SOL    HW2 5804   0.915   1.884   2.870  1.2273 -0.9188  0.4216
 1868SOL     OW 5805   4.389   0.141   1.983  0.4461 -0.0880 -0.0036
 1868SOL    HW1 5806   4.386   0.142   2.079  1.8218  1.2761  0.0659
 1868SOL    HW2 5807   4.440   0.219   1.960  0.3212 -0.5062 -1.8416
 1869SOL     OW 5808   0.808   0.387   2.550  0.5393 -0.0542  0.3400
 1869SOL    HW1 5809   0.836   0.302   2.517  0.8757  0.0916  0.2389
 1869SOL    HW2 5810   0.870   0.407   2.621 -0.7336 -0.7798  1.7005
 1870SOL     OW 5811   2.081   2.551   3.838  0.0881  0.0194 -0.4599
 1870SOL    HW1 5812   2.038   2.634   3.820 -0.2890  0.0696  0.5920
 1870SOL    HW2 5813   2.058   2.532   3.929  1.8361 -0.2277 -0.0389
 1871SOL     OW 5814   3.145   2.814   3.573 -0.1939  0.2580  0.0135
 1871SOL    HW1 5815   3.107   2.869   3.504  4.2665  0.8280 -2.3458
 1871SOL    HW2 5816   3.093   2.733   3.569 -3.1719  2.0300 -0.5020
 1872SOL     OW 5817   4.386   2.532   4.282 -0.1005  0.2535  0.0668
 1872SOL    HW1 5818   4.391   2.513   4.188  0.5042 -0.7497  0.2816
 1872SOL    HW2 5819   4.347   2.619   4.287 -0.9766 -0.0431 -1.0850
 1873SOL     OW 5820   0.561   1.530   3.251  0.1448 -0.1830 -0.1978
 1873SOL    HW1 5821   0.521   1.512   3.166 -0.2362  0.8730 -0.2532
 1873SOL    HW2 5822   0.619   1.604   3.235  0.8412 -0.6161  0.2533
 1874SOL     OW 5823   1.325   1.156   2.517  0.3645 -0.0085 -0.8280
 1874SOL    HW1 5824   1.388   1.221   2.484 -1.8372  1.8626 -1.5922
 1874SOL    HW2 5825   1.357   1.134   2.605  2.6193  0.0531 -1.5573
 1875SOL     OW 5826   0.534   3.161   4.460  0.3919  0.5452 -0.2875
 1875SOL    HW1 5827   0.477   3.231   4.491  0.1037  1.8631 -3.3926
 1875SOL    HW2 5828   0.623   3.191   4.482  0.2188 -1.7503  5.0305
 1876SOL     OW 5829   2.242   3.446   0.796  0.1328  0.0272  0.4440
 1876SOL    HW1 5830   2.302   3.520   0.807  0.3579 -0.2978  1.5129
 1876SOL    HW2 5831   2.210   3.427   0.885 -0.0518 -1.0436  0.1671
 1877SOL     OW 5832   3.742   3.171   3.067  0.2115 -0.0686  0.1816
 1877SOL    HW1 5833   3.788   3.249   3.036 -0.3122  0.5349  0.8769
 1877SOL    HW2 5834   3.773   3.100   3.011  1.0782  0.5482 -0.1357
 1878SOL     OW 5835   2.676   0.863   3.236  0.2830  0.2196  0.5835
 1878SOL    HW1 5836   2.653   0.820   3.153  3.3424 -1.0074  0.2266
 1878SOL    HW2 5837   2.698   0.790   3.295  1.4503  1.1675  1.3686
 1879SOL     OW 5838   0.912   1.524   3.051  0.1231 -0.6373 -0.1585
 1879SOL    HW1 5839   0.865   1.463   2.995 -1.1974  0.4768 -0.3268
 1879SOL    HW2 5840   1.002   1.523   3.018 -0.3061 -1.0868 -1.3618
 1880SOL     OW 5841   4.480   4.167   1.461  0.2684 -0.0041  0.2561
 1880SOL    HW1 5842   4.502   4.151   1.552 -0.8110 -1.5743  0.2719
 1880SOL    HW2 5843   4.387   4.147   1.454  0.6261 -1.4086 -1.4800
 1881SOL     OW 5844   0.475   0.901   2.239  0.2583  0.1501 -0.1996
 1881SOL    HW1 5845   0.451   0.978   2.290 -0.4215  0.5739 -1.1260
 1881SOL    HW2 5846   0.427   0.829   2.281 -0.6188  0.5611 -0.4656
 1882SOL     OW 5847   1.254   4.558   3.722 -0.2622 -0.2849 -0.1403
 1882SOL    HW1 5848   1.193   4.488   3.745 -1.6318  1.4103  1.6949
 1882SOL    HW2 5849   1.232   4.630   3.781  1.2625  1.6256 -1.7561
 1883SOL     OW 5850   3.976   4.121   2.354  0.0682 -0.1140  0.4800
 1883SOL    HW1 5851   3.956   4.211   2.327 -1.6775 -0.3952  0.7106
 1883SOL    HW2 5852   4.070   4.113   2.341 -0.1981  0.6657 -2.8422
 1884SOL     OW 5853   0.623   0.452   1.874  0.2969  0.3795 -0.3157
 1884SOL    HW1 5854   0.659   0.531   1.834 -0.4018  1.2781  0.7702
 1884SOL    HW2 5855   0.542   0.437   1.825 -0.0739  0.9261  0.1133
 1885SOL     OW 5856   1.870   2.041   0.644  0.0735 -0.0438 -0.0417
 1885SOL    HW1 5857   1.874   2.024   0.738  0.5536 -1.5871 -0.3237
 1885SOL    HW2 5858   1.799   2.105   0.635 -1.8002 -1.8330  1.1264
 1886SOL     OW 5859   2.380   3.163   2.426 -0.0181  0.3634  0.2505
 1886SOL    HW1 5860   2.399   3.124   2.340 -0.8090 -0.5213  0.4643
 1886SOL    HW2 5861   2.462   3.155   2.474 -0.0713 -0.7893  0.1864
 1887SOL     OW 5862   3.783   0.805   4.597  0.3586 -0.1437 -0.3309
 1887SOL    HW1 5863   3.787   0.813   4.693 -1.1678  0.6728 -0.3116
 1887SOL    HW2 5864   3.867   0.766   4.573  0.7972 -0.2965  1.3358
 1888SOL     OW 5865   2.988   2.687   0.716  0.1953  0.2748 -0.0260
 1888SOL    HW1 5866   2.925   2.663   0.648  0.5118  0.0483 -0.2398
 1888SOL    HW2 5867   2.984   2.782   0.721 -0.9113  0.2119  0.6696
 1889SOL     OW 5868   2.230   3.770   0.676  0.2389 -0.0809  0.1908
 1889SOL    HW1 5869   2.278   3.765   0.759  0.9312  1.9667 -0.0335
 1889SOL    HW2 5870   2.188   3.856   0.678  0.5204  0.1307 -1.7287
 1890SOL     OW 5871   0.281   2.815   0.765  0.1108 -0.4198  0.3209
 1890SOL    HW1 5872   0.308   2.823   0.856 -1.0117  1.9149  0.5188
 1890SOL    HW2 5873   0.189   2.788   0.769  0.0021 -0.1294 -0.0917
 1891SOL     OW 5874   4.424   2.204   1.047 -0.3003 -0.5133 -0.0352
 1891SOL    HW1 5875   4.435   2.264   1.121 -0.5248  0.5042 -0.8182
 1891SOL    HW2 5876   4.494   2.140   1.059  0.9928  0.8386 -0.0853
 1892SOL     OW 5877   4.645   1.983   0.472 -0.5174  0.2085  0.5776
 1892SOL    HW1 5878   4.553   1.993   0.449 -0.5712  0.8177  1.0323
 1892SOL    HW2 5879   4.653   2.024   0.558  0.2745  0.5984  0.3285
 1893SOL     OW 5880   1.481   2.090   3.424 -0.4275  0.6579  0.1304
 1893SOL    HW1 5881   1.455   2.012   3.374 -0.6201  0.2328  0.8804
 1893SOL    HW2 5882   1.574   2.102   3.403 -0.2901 -0.0206  0.3239
 1894SOL     OW 5883   4.509   1.702   3.620 -0.2493 -1.0667 -0.2113
 1894SOL    HW1 5884   4.535   1.794   3.628 -0.3656 -1.1897  1.9928
 1894SOL    HW2 5885   4.590   1.657   3.597 -0.1934 -0.4471 -1.3287
 1895SOL     OW 5886   1.942   4.462   0.448  0.0991 -0.7095  0.1883
 1895SOL    HW1 5887   1.907   4.483   0.535 -1.9868 -1.2738 -0.4429
 1895SOL    HW2 5888   1.906   4.375   0.429  2.7987 -1.8318 -0.1395
 1896SOL     OW 5889   2.652   3.965   1.068 -0.2144 -0.3262 -0.0833
 1896SOL    HW1 5890   2.633   3.923   1.151  0.0845 -0.1153  0.0948
 1896SOL    HW2 5891   2.738   4.005   1.080  0.7313 -1.9157 -1.1250
 1897SOL     OW 5892   0.156   3.652   4.206 -0.6157 -0.4341  0.3762
 1897SOL    HW1 5893   0.206   3.696   4.137  0.3658 -1.3156  0.5078
 1897SOL    HW2 5894   0.110   3.724   4.251  0.9259  0.4733  0.5731
 1898SOL     OW 5895   3.514   1.153   4.402  0.9662  0.6218  0.5267
 1898SOL    HW1 5896   3.487   1.092   4.334  0.4676  1.3083  0.1006
 1898SOL    HW2 5897   3.543   1.097   4.474  0.6670 -0.1135  0.0849
 1899SOL     OW 5898   1.399   4.687   0.254  0.5961  0.4641 -0.1165
 1899SOL    HW1 5899   1.387   4.592   0.261  0.9974  0.4523  0.4637
 1899SOL    HW2 5900   1.494   4.699   0.250  0.5833  0.8825  0.5684
 1900SOL     OW 5901   2.043   0.844   4.304  0.1259 -0.1165  0.8891
 1900SOL    HW1 5902   2.041   0.855   4.209  0.6868 -0.4306  0.8351
 1900SOL    HW2 5903   1.967   0.894   4.336  0.1441  0.2932  0.3103
 1901SOL     OW 5904   2.304   2.500   2.375  0.4329  0.4899  0.3849
 1901SOL    HW1 5905   2.335   2.562   2.308 -0.3897 -1.5136 -2.0060
 1901SOL    HW2 5906   2.363   2.425   2.368 -1.3463 -0.9224 -0.1152
 1902SOL     OW 5907   2.135   3.546   3.124  0.1572  0.8226  0.0769
 1902SOL    HW1 5908   2.042   3.528   3.132  0.2889  0.4514  0.8497
 1902SOL    HW2 5909   2.143   3.641   3.134 -0.2478  1.0062 -1.1638
 1903SOL     OW 5910   3.115   2.532   1.512  0.0292 -0.1940  0.6477
 1903SOL    HW1 5911   3.052   2.489   1.571 -0.6916 -0.6781 -0.4423
 1903SOL    HW2 5912   3.062   2.595   1.463  0.1109 -1.4396 -1.1273
 1904SOL     OW 5913   0.847   4.165   0.088  0.2342  0.1310 -0.2297
 1904SOL    HW1 5914   0.862   4.252   0.053 -0.7783 -0.5728 -2.6233
 1904SOL    HW2 5915   0.797   4.179   0.168  0.1478  1.7209 -0.5387
 1905SOL     OW 5916   0.407   4.201   0.165  0.2660  0.4658  0.2544
 1905SOL    HW1 5917   0.320   4.173   0.193  0.4203 -0.7003 -0.3694
 1905SOL    HW2 5918   0.404   4.297   0.170 -1.2611  0.4839 -0.3693
 1906SOL     OW 5919   3.054   2.193   3.477 -0.1456  0.0476  0.0028
 1906SOL    HW1 5920   2.986   2.241   3.526 -0.7225 -0.6791 -0.0700
 1906SOL    HW2 5921   3.017   2.182   3.390 -0.2492 -0.9867  0.1665
 1907SOL     OW 5922   1.731   4.136   1.116 -0.1563  0.7118  0.2239
 1907SOL    HW1 5923   1.793   4.099   1.055 -0.4173  0.5592  0.0494
 1907SOL    HW2 5924   1.784   4.187   1.177  0.2303 -0.1723  0.6370
 1908SOL     OW 5925   3.799   4.504   0.596 -0.2704  0.5857 -0.2760
 1908SOL    HW1 5926   3.749   4.437   0.548 -0.2824  1.0682 -0.9476
 1908SOL    HW2 5927   3.854   4.454   0.656 -1.1969  0.0243  0.1231
 1909SOL     OW 5928   1.482   2.652   2.312 -0.3061 -0.1232 -0.3908
 1909SOL    HW1 5929   1.570   2.619   2.330  0.1310  1.2850  0.1864
 1909SOL    HW2 5930   1.455   2.694   2.394 -1.9048 -1.3390 -0.2584
 1910SOL     OW 5931   3.922   2.519   2.039 -0.3946 -0.6112 -0.2835
 1910SOL    HW1 5932   3.870   2.600   2.032 -0.5476 -0.7091 -0.2830
 1910SOL    HW2 5933   3.928   2.487   1.949 -2.4320 -1.9168 -0.0113
 1911SOL     OW 5934   1.369   1.862   4.330  0.4688 -0.2050 -0.2024
 1911SOL    HW1 5935   1.308   1.899   4.266  1.3020  0.3713 -0.6753
 1911SOL    HW2 5936   1.454   1.869   4.288  0.7472 -1.9711  0.0213
 1912SOL     OW 5937   1.449   0.965   3.237  0.4075 -0.0609 -0.0266
 1912SOL    HW1 5938   1.405   1.048   3.220 -0.4502 -0.5026 -0.0218
 1912SOL    HW2 5939   1.512   0.985   3.307  1.0091  0.8246 -0.7986
 1913SOL     OW 5940   3.830   0.353   4.369 -0.4039  0.1243 -0.2525
 1913SOL    HW1 5941   3.892   0.292   4.409 -0.9072 -0.0738  0.2354
 1913SOL    HW2 5942   3.757   0.298   4.340 -1.1649  0.5562  0.7754
 1914SOL     OW 5943   0.719   1.281   0.683 -0.1215  0.2162 -0.5183
 1914SOL    HW1 5944   0.808   1.287   0.718 -0.3086 -0.2160  0.0504
 1914SOL    HW2 5945   0.713   1.192   0.648 -0.0475  0.5333 -1.3633
 1915SOL     OW 5946   2.157   3.399   4.746  0.4626  0.6585  0.0480
 1915SOL    HW1 5947   2.204   3.317   4.747  0.5034  0.6828  0.1445
 1915SOL    HW2 5948   2.101   3.394   4.669  1.4572  1.1064 -0.7164
 1916SOL     OW 5949   2.658   4.014   2.546 -0.0931 -0.3443  0.1902
 1916SOL    HW1 5950   2.717   3.960   2.493  0.0934  0.3672 -0.3352
 1916SOL    HW2 5951   2.583   4.031   2.488  1.0392  2.2069 -0.6819
 1917SOL     OW 5952   1.167   3.371   4.039  0.1316  0.5170  0.0843
 1917SOL    HW1 5953   1.147   3.457   4.003 -2.3741  0.1531  0.4234
 1917SOL    HW2 5954   1.201   3.321   3.965  1.7342  1.7869 -0.0843
 1918SOL     OW 5955   0.263   0.628   4.695 -0.0467  0.5394  0.1881
 1918SOL    HW1 5956   0.308   0.578   4.763 -0.9892  0.7839  1.0327
 1918SOL    HW2 5957   0.237   0.563   4.630  1.8738  0.4593 -0.5514
 1919SOL     OW 5958   2.480   4.110   0.133  0.1098  0.2209  0.2204
 1919SOL    HW1 5959   2.473   4.118   0.038 -2.2321 -0.0106  0.3261
 1919SOL    HW2 5960   2.468   4.016   0.150  1.0200  0.1814  0.7411
 1920SOL     OW 5961   4.246   3.052   1.395 -0.2998 -0.0583  0.3866
 1920SOL    HW1 5962   4.166   3.047   1.447  0.1214 -3.5048  0.9416
 1920SOL    HW2 5963   4.223   3.106   1.320 -2.6357  0.3707  1.3271
 1921SOL     OW 5964   0.686   3.907   1.362  0.0682 -0.7087  0.2705
 1921SOL    HW1 5965   0.675   3.896   1.456  0.1220 -1.6886  0.1743
 1921SOL    HW2 5966   0.654   3.825   1.324 -0.5869 -0.0764 -0.6154
 1922SOL     OW 5967   1.998   1.201   1.898 -0.3747  0.2669  0.1964
 1922SOL    HW1 5968   1.962   1.120   1.862  2.9278 -0.5383 -1.6520
 1922SOL    HW2 5969   2.008   1.259   1.822  0.5890  1.0780  0.9068
 1923SOL     OW 5970   3.108   0.959   0.349  0.1588  0.0269  0.0818
 1923SOL    HW1 5971   3.098   1.036   0.293 -1.7399  1.5110  2.2383
 1923SOL    HW2 5972   3.065   0.888   0.301  1.4222  0.3948 -1.6885
 1924SOL     OW 5973   0.617   3.092   4.118  0.0948 -0.2588  0.3884
 1924SOL    HW1 5974   0.610   3.187   4.111  2.4244 -0.1950 -4.1490
 1924SOL    HW2 5975   0.708   3.077   4.145  0.2303 -1.1887 -0.5586
 1925SOL     OW 5976   1.104   2.039   1.179  0.4154 -0.1195  0.4488
 1925SOL    HW1 5977   1.146   2.125   1.176  0.4280 -0.1371  0.1387
 1925SOL    HW2 5978   1.107   2.014   1.272  1.4157 -0.2795  0.3831
 1926SOL     OW 5979   4.246   0.942   0.465  0.7510  0.4376  0.4442
 1926SOL    HW1 5980   4.249   0.878   0.395 -0.4694 -0.2470  0.9871
 1926SOL    HW2 5981   4.281   0.897   0.542 -3.0178 -0.7949  1.6601
 1927SOL     OW 5982   1.516   0.927   3.600  0.0643  0.3577  0.3493
 1927SOL    HW1 5983   1.446   0.993   3.603 -0.4887 -0.0881 -1.2011
 1927SOL    HW2 5984   1.586   0.969   3.550 -0.1147 -0.0431 -0.2581
 1928SOL     OW 5985   2.215   1.096   1.630 -0.1166 -0.5054 -0.1846
 1928SOL    HW1 5986   2.153   1.028   1.653 -1.2239  0.4564 -0.1962
 1928SOL    HW2 5987   2.167   1.178   1.643  0.4998  0.2111 -2.0538
 1929SOL     OW 5988   4.237   2.374   4.494  0.2855  0.1860 -0.3945
 1929SOL    HW1 5989   4.275   2.286   4.495 -0.8769 -0.3322 -0.2743
 1929SOL    HW2 5990   4.276   2.416   4.416  0.3963 -0.6387 -0.7961
 1930SOL     OW 5991   3.010   2.160   3.202 -0.3113  0.3461  0.3523
 1930SOL    HW1 5992   3.071   2.109   3.148 -0.6430 -0.7968  1.0304
 1930SOL    HW2 5993   3.032   2.251   3.182  0.7230 -0.0447 -0.4173
 1931SOL     OW 5994   4.413   3.964   2.992  0.4829  0.0555  0.3109
 1931SOL    HW1 5995   4.419   3.891   2.930 -0.7649  0.1466  0.0640
 1931SOL    HW2 5996   4.406   3.922   3.077  1.7854 -0.0756  0.3684
 1932SOL     OW 5997   1.869   0.367   4.417 -0.0292  0.2853  0.0820
 1932SOL    HW1 5998   1.894   0.428   4.347 -0.2240 -1.1757 -1.3047
 1932SOL    HW2 5999   1.803   0.310   4.377 -0.7244 -0.1037  1.7065
 1933SOL     OW 6000   3.612   3.789   2.356  0.3352  0.5221 -0.3860
 1933SOL    HW1 6001   3.681   3.843   2.319  0.0560  0.6473 -0.7415
 1933SOL    HW2 6002   3.577   3.741   2.280  0.0528  0.4421 -0.2072
 1934SOL     OW 6003   4.417   1.573   0.608  0.7722  0.5671  0.7470
 1934SOL    HW1 6004   4.338   1.553   0.558  0.1554  0.9545  1.5570
 1934SOL    HW2 6005   4.473   1.620   0.545  0.4231  0.1740  0.1316
 1935SOL     OW 6006   1.975   1.762   3.172 -0.5820 -0.4420  0.0630
 1935SOL    HW1 6007   2.010   1.851   3.181  2.5150 -1.6451  1.2948
 1935SOL    HW2 6008   1.942   1.741   3.260 -0.9185 -0.6886 -0.1196
 1936SOL     OW 6009   1.280   4.577   2.787 -0.2753  0.5586 -0.2145
 1936SOL    HW1 6010   1.375   4.570   2.772 -0.2577  1.2697 -0.4585
 1936SOL    HW2 6011   1.267   4.538   2.874  0.0270 -0.9147 -0.7955
 1937SOL     OW 6012   3.672   0.810   0.522 -0.5038  0.1859 -0.7307
 1937SOL    HW1 6013   3.631   0.758   0.453  0.7234 -1.3133 -0.3827
 1937SOL    HW2 6014   3.729   0.871   0.475 -0.3639 -0.2036 -1.0748
 1938SOL     OW 6015   4.332   1.473   2.473 -0.1642 -0.6077  0.5809
 1938SOL    HW1 6016   4.304   1.411   2.540 -1.9109 -0.9197 -0.3985
 1938SOL    HW2 6017   4.375   1.420   2.406 -2.7254 -1.0255 -0.8455
 1939SOL     OW 6018   0.950   4.745   4.700  0.8929 -0.2849  0.7861
 1939SOL    HW1 6019   0.893   4.737   4.776  0.0715  2.1529  0.5025
 1939SOL    HW2 6020   1.038   4.754   4.738  0.6096 -0.0346  1.4028
 1940SOL     OW 6021   4.077   4.647   1.734  0.4068  0.4656  0.2931
 1940SOL    HW1 6022   3.985   4.625   1.718 -0.0694  1.5948  1.3489
 1940SOL    HW2 6023   4.080   4.675   1.825  2.0872 -0.9095  0.7158
 1941SOL     OW 6024   2.024   1.595   2.975 -0.0925  0.0913  0.0829
 1941SOL    HW1 6025   2.110   1.624   2.944 -0.7057  1.5444 -0.3405
 1941SOL    HW2 6026   2.001   1.657   3.043 -0.9324 -0.1127 -0.0039
 1942SOL     OW 6027   1.078   2.472   0.411  0.1789 -0.4138  0.1051
 1942SOL    HW1 6028   1.044   2.511   0.491 -1.0342 -0.7106 -0.2451
 1942SOL    HW2 6029   1.019   2.503   0.342  3.6558  3.4956 -1.5310
 1943SOL     OW 6030   2.480   2.526   2.627  0.3066 -0.3333  0.0868
 1943SOL    HW1 6031   2.440   2.441   2.611  1.5489 -0.8226 -0.5332
 1943SOL    HW2 6032   2.531   2.513   2.707 -0.5661  0.2246  0.7518
 1944SOL     OW 6033   1.666   4.460   4.584 -0.0888  0.3145  0.1475
 1944SOL    HW1 6034   1.728   4.397   4.548  1.0663  1.0441  0.7952
 1944SOL    HW2 6035   1.694   4.544   4.549 -0.9155  0.6142  0.2010
 1945SOL     OW 6036   3.282   2.280   3.753 -0.0464  0.6445  0.1276
 1945SOL    HW1 6037   3.199   2.319   3.725  0.5055  0.9705 -1.1045
 1945SOL    HW2 6038   3.320   2.244   3.673  1.6639  1.7312  0.4097
 1946SOL     OW 6039   0.554   3.223   2.732 -0.3063 -0.5538 -0.4689
 1946SOL    HW1 6040   0.605   3.226   2.813 -1.2882 -0.8421  0.1747
 1946SOL    HW2 6041   0.603   3.279   2.672 -0.5966  1.3173  0.9390
 1947SOL     OW 6042   1.953   0.496   4.168  0.3654  0.1640 -0.0468
 1947SOL    HW1 6043   2.023   0.480   4.106  1.8825  1.1221  1.3301
 1947SOL    HW2 6044   1.873   0.474   4.121  1.5451 -0.4851 -1.8318
 1948SOL     OW 6045   4.598   3.221   0.492  0.1494  0.0439 -0.5064
 1948SOL    HW1 6046   4.628   3.180   0.411 -0.6207 -1.7884  0.0946
 1948SOL    HW2 6047   4.668   3.205   0.555 -0.9455 -2.1271  0.2448
 1949SOL     OW 6048   1.549   3.791   0.412 -0.5732  0.0321 -0.6257
 1949SOL    HW1 6049   1.586   3.771   0.499 -1.9523  1.0442  0.2379
 1949SOL    HW2 6050   1.626   3.801   0.356  0.4561  1.2180  0.9019
 1950SOL     OW 6051   4.661   4.395   1.328 -0.2493 -0.0728  0.1624
 1950SOL    HW1 6052   4.746   4.398   1.371 -0.3333 -0.0316  0.3264
 1950SOL    HW2 6053   4.616   4.321   1.370  0.1961 -0.9459 -0.8381
 1951SOL     OW 6054   1.125   3.096   1.051  0.5273 -0.5451  0.2097
 1951SOL    HW1 6055   1.151   3.154   0.979  0.5567 -0.1060  0.5685
 1951SOL    HW2 6056   1.199   3.036   1.061  0.3463 -0.8916 -0.4016
 1952SOL     OW 6057   3.237   1.743   1.323 -0.3940  0.1480  0.6628
 1952SOL    HW1 6058   3.217   1.653   1.347 -0.5026  0.5415  2.1162
 1952SOL    HW2 6059   3.286   1.778   1.398  0.9350  0.8747 -0.4861
 1953SOL     OW 6060   2.372   2.949   4.286  0.5221 -0.0624  0.1877
 1953SOL    HW1 6061   2.281   2.925   4.268  0.2280  0.7428  0.5834
 1953SOL    HW2 6062   2.415   2.943   4.201 -0.3141  1.3222 -0.3682
 1954SOL     OW 6063   2.987   2.577   0.980  0.2202  0.2472  0.0404
 1954SOL    HW1 6064   2.970   2.599   0.888 -1.2066 -1.3441 -0.1290
 1954SOL    HW2 6065   2.944   2.646   1.030 -1.3596 -0.3126 -0.4899
 1955SOL     OW 6066   0.282   3.800   0.259 -0.4214 -0.2322  0.2167
 1955SOL    HW1 6067   0.351   3.841   0.207 -0.2161 -1.6848 -0.7483
 1955SOL    HW2 6068   0.241   3.737   0.198  0.7338 -3.0508  2.1294
 1956SOL     OW 6069   3.036   1.239   2.511  0.4154 -0.4575 -0.1444
 1956SOL    HW1 6070   2.948   1.264   2.539 -0.3326 -0.3732 -2.3595
 1956SOL    HW2 6071   3.066   1.311   2.456  1.0177 -1.3610 -1.0554
 1957SOL     OW 6072   1.242   3.898   0.605 -0.1062  0.0830  0.6273
 1957SOL    HW1 6073   1.329   3.933   0.625  0.1972  0.5702 -1.3022
 1957SOL    HW2 6074   1.182   3.969   0.624 -0.0287 -0.0788  1.4813
 1958SOL     OW 6075   0.203   2.466   3.486 -0.0922 -0.7004 -0.1106
 1958SOL    HW1 6076   0.293   2.476   3.456 -0.4906  0.6131 -0.9738
 1958SOL    HW2 6077   0.158   2.545   3.453 -1.5100 -1.2502  0.4327
 1959SOL     OW 6078   1.042   2.935   0.545  0.1851 -0.2499 -0.6336
 1959SOL    HW1 6079   1.044   3.010   0.604 -0.5671 -0.1656 -0.6937
 1959SOL    HW2 6080   0.968   2.954   0.487  1.5943  0.2240 -2.3445
 1960SOL     OW 6081   2.864   4.547   0.756  0.0758  0.5897 -0.0207
 1960SOL    HW1 6082   2.928   4.565   0.686 -0.3044  0.2568 -0.4583
 1960SOL    HW2 6083   2.904   4.477   0.808 -1.0492 -1.5311 -1.8454
 1961SOL     OW 6084   1.903   0.950   2.554  0.2002  0.0935  0.2244
 1961SOL    HW1 6085   1.842   0.964   2.482  1.6639 -0.5502 -1.1841
 1961SOL    HW2 6086   1.989   0.950   2.513  1.0329 -0.9938  1.8750
 1962SOL     OW 6087   0.721   2.744   0.095 -0.1347 -0.2685  0.0535
 1962SOL    HW1 6088   0.656   2.698   0.148 -1.1701 -0.1048 -1.0305
 1962SOL    HW2 6089   0.706   2.836   0.114  0.1205 -0.2518  0.1762
 1963SOL     OW 6090   3.620   1.301   0.580 -0.0349  0.3017 -0.0354
 1963SOL    HW1 6091   3.533   1.293   0.540  0.0674 -0.1762 -0.1644
 1963SOL    HW2 6092   3.628   1.224   0.635 -0.2945  1.1122  1.1592
 1964SOL     OW 6093   0.721   0.171   4.131  0.6788 -0.3364  0.5698
 1964SOL    HW1 6094   0.762   0.165   4.218  0.8636 -1.8747  0.4204
 1964SOL    HW2 6095   0.632   0.138   4.144  0.8983 -1.1574  0.0793
 1965SOL     OW 6096   0.983   4.141   2.416  0.3606  0.0113 -0.1316
 1965SOL    HW1 6097   1.073   4.112   2.424 -0.0500 -0.9280  1.4731
 1965SOL    HW2 6098   0.966   4.189   2.497 -1.3718 -2.2004  0.9228
 1966SOL     OW 6099   4.274   2.524   2.115 -0.0179  0.0496  0.0677
 1966SOL    HW1 6100   4.367   2.517   2.093 -0.2665  1.2815 -1.5499
 1966SOL    HW2 6101   4.230   2.471   2.048 -0.5375  0.4083  0.1198
 1967SOL     OW 6102   1.406   4.412   4.560 -0.5086  1.2924 -0.7305
 1967SOL    HW1 6103   1.501   4.418   4.565 -0.3398 -0.2812 -1.5762
 1967SOL    HW2 6104   1.377   4.402   4.650  0.4608 -1.8335 -0.6522
 1968SOL     OW 6105   2.772   0.375   0.131  0.2633  0.2617 -0.7534
 1968SOL    HW1 6106   2.773   0.290   0.087  0.0858 -0.6887  0.9738
 1968SOL    HW2 6107   2.717   0.361   0.209 -0.3040  2.1456 -0.7737
 1969SOL     OW 6108   4.442   4.009   0.951  0.1108 -0.0986  0.2188
 1969SOL    HW1 6109   4.476   3.920   0.964  2.0363  0.4873 -0.6162
 1969SOL    HW2 6110   4.426   4.041   1.040 -0.5875 -1.2533  0.5316
 1970SOL     OW 6111   2.229   0.409   2.565 -0.0396 -0.0977 -0.3637
 1970SOL    HW1 6112   2.239   0.501   2.540 -2.0242  0.6248  1.2656
 1970SOL    HW2 6113   2.139   0.387   2.544  0.3660 -1.6615 -0.6060
 1971SOL     OW 6114   3.486   4.604   4.731  0.0259 -0.8601  0.2229
 1971SOL    HW1 6115   3.462   4.575   4.819  0.7649  0.0877  0.7580
 1971SOL    HW2 6116   3.582   4.603   4.731  0.0469  0.1769 -0.2046
 1972SOL     OW 6117   0.722   4.286   2.784  0.0582 -0.1496 -0.4377
 1972SOL    HW1 6118   0.649   4.316   2.729 -0.1437 -1.4658 -0.9087
 1972SOL    HW2 6119   0.683   4.222   2.843  0.6654 -0.2095 -0.0944
 1973SOL     OW 6120   0.050   1.038   0.139 -0.2173 -0.6514  0.6884
 1973SOL    HW1 6121   0.033   1.095   0.063  0.0415  1.3547  2.0558
 1973SOL    HW2 6122   0.097   0.963   0.103  0.4796  0.5520 -1.0547
 1974SOL     OW 6123   1.236   1.989   2.847 -0.0048  0.0656  0.3808
 1974SOL    HW1 6124   1.244   2.060   2.783  1.4305 -0.9799 -0.6462
 1974SOL    HW2 6125   1.157   1.942   2.819 -0.7378  0.9812  0.8284
 1975SOL     OW 6126   0.945   4.475   0.177  0.1720  0.3581  0.0805
 1975SOL    HW1 6127   1.008   4.538   0.142  2.8500 -1.4990  1.2332
 1975SOL    HW2 6128   0.998   4.400   0.203 -2.7009 -1.8503  0.0599
 1976SOL     OW 6129   4.449   2.738   3.553  0.3520 -0.1221 -0.1761
 1976SOL    HW1 6130   4.381   2.798   3.524  0.6469 -0.2846 -1.2272
 1976SOL    HW2 6131   4.516   2.795   3.592  1.1169  0.3597 -2.1145
 1977SOL     OW 6132   2.207   1.370   4.115  0.1188 -0.2648  0.1757
 1977SOL    HW1 6133   2.247   1.412   4.192 -0.6710  2.0537 -0.5791
 1977SOL    HW2 6134   2.135   1.429   4.091  0.9862 -0.3431 -2.9652
 1978SOL     OW 6135   1.106   2.685   0.679  0.2907  0.1447 -0.0228
 1978SOL    HW1 6136   1.035   2.621   0.691 -0.1245  1.0384  3.4444
 1978SOL    HW2 6137   1.074   2.743   0.610 -0.3103 -2.0239 -1.6772
 1979SOL     OW 6138   0.538   1.867   3.653 -0.1147 -0.5307  0.1206
 1979SOL    HW1 6139   0.613   1.910   3.611 -1.2804 -1.7763 -3.6023
 1979SOL    HW2 6140   0.572   1.838   3.737  1.9573  3.6234  0.9761
 1980SOL     OW 6141   1.467   2.297   1.292 -0.3048 -0.0101  1.1039
 1980SOL    HW1 6142   1.454   2.323   1.200 -0.8521  0.4705  1.3113
 1980SOL    HW2 6143   1.438   2.373   1.342  0.7131  0.0308  1.6637
 1981SOL     OW 6144   0.821   3.746   2.161  0.4724  0.9959  0.4971
 1981SOL    HW1 6145   0.803   3.708   2.247 -1.9916  1.4425  0.2559
 1981SOL    HW2 6146   0.879   3.820   2.179  3.5030 -1.3706  1.2205
 1982SOL     OW 6147   0.318   3.908   2.945  0.2303 -0.1045 -0.3893
 1982SOL    HW1 6148   0.250   3.849   2.978  0.8912 -0.7717 -0.1912
 1982SOL    HW2 6149   0.394   3.852   2.933  1.1853  0.8925  0.7895
 1983SOL     OW 6150   0.046   4.473   4.461 -0.0519 -0.0066  0.2904
 1983SOL    HW1 6151   0.083   4.554   4.426  0.9219  0.3090  1.9558
 1983SOL    HW2 6152  -0.037   4.500   4.501 -1.3834 -0.4379 -1.9939
 1984SOL     OW 6153   3.974   0.427   3.425  0.4476  0.2879 -0.1557
 1984SOL    HW1 6154   4.058   0.426   3.379  1.4878  0.0986  1.6507
 1984SOL    HW2 6155   3.935   0.342   3.405  0.7752  0.2878 -0.8315
 1985SOL     OW 6156   1.728   0.749   2.189  0.3435 -0.4360 -0.0628
 1985SOL    HW1 6157   1.676   0.669   2.182 -0.8187  0.4290 -2.2952
 1985SOL    HW2 6158   1.704   0.786   2.274 -0.7973 -1.3307  0.0232
 1986SOL     OW 6159   4.025   1.607   0.012 -0.3903  0.5580 -0.7058
 1986SOL    HW1 6160   3.953   1.613   0.074 -0.6116  0.5770 -0.9609
 1986SOL    HW2 6161   4.098   1.652   0.055 -0.3240 -0.0734 -0.1544
 1987SOL     OW 6162   3.032   1.128   4.567  0.1937  0.4776 -0.4028
 1987SOL    HW1 6163   3.114   1.079   4.572  0.2358  0.6613  1.1386
 1987SOL    HW2 6164   2.977   1.076   4.508  1.2368  0.1109 -1.0833
 1988SOL     OW 6165   3.802   2.280   0.283  0.4754 -0.3693 -0.4657
 1988SOL    HW1 6166   3.752   2.206   0.318  0.2908 -0.1152 -0.1976
 1988SOL    HW2 6167   3.773   2.286   0.192 -1.0071  0.6285  0.0366
 1989SOL     OW 6168   1.632   1.531   0.148  0.1845  0.0069 -0.1994
 1989SOL    HW1 6169   1.602   1.510   0.236  1.7928  1.2266  0.7109
 1989SOL    HW2 6170   1.708   1.588   0.162  0.8394 -0.2402 -2.3705
 1990SOL     OW 6171   1.930   0.662   0.153 -0.1699 -0.5214 -0.7124
 1990SOL    HW1 6172   1.900   0.693   0.238 -0.2957  0.4041 -1.0922
 1990SOL    HW2 6173   1.853   0.664   0.097  0.2927  0.6250 -1.3380
 1991SOL     OW 6174   3.314   0.971   2.121 -0.2895 -0.3646 -0.0668
 1991SOL    HW1 6175   3.336   0.893   2.071  3.3785 -0.5861  1.5585
 1991SOL    HW2 6176   3.328   0.946   2.212 -1.6615  1.4631  0.7060
 1992SOL     OW 6177   2.984   1.148   0.633 -0.1288 -0.3238  0.5920
 1992SOL    HW1 6178   2.972   1.053   0.637  1.2478 -0.5111  0.5881
 1992SOL    HW2 6179   3.071   1.163   0.670 -0.3824  0.9549  0.7054
 1993SOL     OW 6180   1.518   0.023   2.856  0.4074 -0.2570  0.0849
 1993SOL    HW1 6181   1.498  -0.019   2.940  1.0982  0.8003  0.8068
 1993SOL    HW2 6182   1.453   0.092   2.848 -0.1442 -0.8408 -0.6505
 1994SOL     OW 6183   1.087   1.091   3.925  0.2590 -0.2001 -0.3854
 1994SOL    HW1 6184   1.005   1.072   3.878 -0.5750 -1.2720  1.3979
 1994SOL    HW2 6185   1.112   1.007   3.963  4.1946 -0.8435 -3.7031
 1995SOL     OW 6186   0.885   4.516   1.297  0.3669  0.2135  0.0074
 1995SOL    HW1 6187   0.845   4.483   1.216  0.1449 -1.4509  0.7694
 1995SOL    HW2 6188   0.880   4.611   1.288 -3.5752  0.1596 -0.0466
 1996SOL     OW 6189   0.129   3.250   3.838 -0.2302  0.3283 -0.2168
 1996SOL    HW1 6190   0.134   3.321   3.901  0.5997  0.3007 -0.2472
 1996SOL    HW2 6191   0.183   3.180   3.875 -1.6134 -0.5766  0.1674
 1997SOL     OW 6192   3.774   4.776   4.257  0.2410 -0.1320 -0.1148
 1997SOL    HW1 6193   3.718   4.732   4.321  1.6307 -0.0391  1.2222
 1997SOL    HW2 6194   3.741   4.747   4.172 -2.9531  1.3092  0.4926
 1998SOL     OW 6195   2.314   0.335   4.786  0.1933 -0.4640  0.4180
 1998SOL    HW1 6196   2.345   0.361   4.699  2.0501  0.6511  1.3189
 1998SOL    HW2 6197   2.262   0.410   4.816 -0.1538 -0.6984  0.4025
 1999SOL     OW 6198   3.598   2.043   0.944 -0.6521  0.4321  0.3594
 1999SOL    HW1 6199   3.673   2.006   0.990 -0.3885  0.2176 -0.2397
 1999SOL    HW2 6200   3.522   2.015   0.996 -0.4319 -0.6323  0.1291
 2000SOL     OW 6201   0.542   4.780   2.471  0.1074 -0.0291  0.2956
 2000SOL    HW1 6202   0.509   4.779   2.561 -0.4035 -1.0741  0.1107
 2000SOL    HW2 6203   0.502   4.703   2.430  1.0219 -0.0568 -0.5754
 2001SOL     OW 6204   4.085   3.007   4.221  0.0097  0.3852 -0.1953
 2001SOL    HW1 6205   4.044   2.999   4.136 -1.0846 -1.9290  0.4882
 2001SOL    HW2 6206   4.013   3.018   4.282  0.6711  0.2478  0.6326
 2002SOL     OW 6207   2.558   2.571   0.395 -0.2229 -0.3863  0.1425
 2002SOL    HW1 6208   2.501   2.584   0.319  0.8728  0.5506 -0.5370
 2002SOL    HW2 6209   2.572   2.476   0.398 -0.7476 -0.4877 -0.4713
 2003SOL     OW 6210   3.383   0.424   0.516  0.4600 -0.9157  0.4086
 2003SOL    HW1 6211   3.320   0.380   0.459 -0.8650 -0.6647  1.6288
 2003SOL    HW2 6212   3.431   0.484   0.457  1.1977 -2.7458 -0.9638
 2004SOL     OW 6213   1.094   1.837   1.378 -0.5236  0.2230 -0.5778
 2004SOL    HW1 6214   1.040   1.791   1.314 -1.7892  1.5204 -0.4917
 2004SOL    HW2 6215   1.031   1.868   1.443  0.6135 -0.1522  0.7416
 2005SOL     OW 6216   2.138   1.919   1.148  0.4864  0.0611 -0.5617
 2005SOL    HW1 6217   2.133   1.857   1.222  0.8685  1.2844  0.5319
 2005SOL    HW2 6218   2.057   1.968   1.152  0.8755  0.7034 -0.4215
 2006SOL     OW 6219   3.578   3.676   0.668  0.1709  0.3753 -0.2443
 2006SOL    HW1 6220   3.669   3.659   0.693  0.2667 -0.1358 -0.9093
 2006SOL    HW2 6221   3.526   3.636   0.739  0.4518 -0.2035 -0.3555
 2007SOL     OW 6222   0.660   2.115   1.685 -0.0196  0.1915 -0.1089
 2007SOL    HW1 6223   0.587   2.091   1.628  0.1223 -0.8047  0.1102
 2007SOL    HW2 6224   0.717   2.169   1.631 -0.6136  0.4559 -0.4674
 2008SOL     OW 6225   0.610   4.379   1.395  0.0726 -0.4155  0.6574
 2008SOL    HW1 6226   0.675   4.376   1.465  1.3603 -1.1800 -0.5122
 2008SOL    HW2 6227   0.593   4.287   1.374  0.1829 -0.1982 -0.4269
 2009SOL     OW 6228   0.038   4.820   0.221  0.4720 -0.4450  0.2213
 2009SOL    HW1 6229   0.130   4.843   0.237  0.1407 -0.5674  2.5412
 2009SOL    HW2 6230   0.017   4.757   0.290 -1.4504 -0.1985 -0.1076
 2010SOL     OW 6231   2.190   0.992   3.610 -0.1057 -0.9743 -0.2931
 2010SOL    HW1 6232   2.230   0.946   3.683 -0.0970 -0.2919  0.1410
 2010SOL    HW2 6233   2.245   0.972   3.535  0.2568 -1.1555  0.0204
 2011SOL     OW 6234   0.632   4.435   4.236  0.1871  0.0377 -0.5135
 2011SOL    HW1 6235   0.718   4.403   4.263  0.5441 -0.3169 -1.9797
 2011SOL    HW2 6236   0.649   4.519   4.194 -0.4652  1.0300  1.1409
 2012SOL     OW 6237   4.572   2.980   1.276  0.0664  0.1103  0.0774
 2012SOL    HW1 6238   4.533   3.033   1.206 -0.2722 -0.0456  0.1455
 2012SOL    HW2 6239   4.541   2.891   1.259  0.5105 -0.0400  0.0521
 2013SOL     OW 6240   2.689   1.367   1.436 -0.9599  0.0483  0.5227
 2013SOL    HW1 6241   2.609   1.376   1.383 -0.7357 -0.1430  0.1489
 2013SOL    HW2 6242   2.686   1.277   1.468 -2.0527  0.6811  2.4042
 2014SOL     OW 6243   0.119   1.514   1.368  0.1379 -0.4427 -0.4613
 2014SOL    HW1 6244   0.146   1.530   1.278 -0.0361  2.5441 -0.0802
 2014SOL    HW2 6245   0.195   1.539   1.420 -0.3805 -0.3682  0.2701
 2015SOL     OW 6246   0.854   1.553   0.790 -0.9786 -0.4528  0.2108
 2015SOL    HW1 6247   0.882   1.578   0.702 -2.0939 -1.1723 -0.3769
 2015SOL    HW2 6248   0.904   1.473   0.809 -1.2685 -0.7060 -0.0774
 2016SOL     OW 6249   3.798   1.743   3.323  0.3080  0.0753  0.1167
 2016SOL    HW1 6250   3.836   1.772   3.406 -1.5031  0.6591  0.7959
 2016SOL    HW2 6251   3.718   1.697   3.349 -0.5521  0.7051 -1.3283
 2017SOL     OW 6252   0.549   4.797   0.441 -0.1921  0.0774  0.0293
 2017SOL    HW1 6253   0.489   4.729   0.473 -0.3166  0.2072  0.0707
 2017SOL    HW2 6254   0.618   4.748   0.395  1.1724 -0.2805  2.3027
 2018SOL     OW 6255   3.257   1.983   1.590  0.7190  0.4423 -0.5859
 2018SOL    HW1 6256   3.180   1.926   1.597  0.0718  1.3371 -0.3203
 2018SOL    HW2 6257   3.232   2.050   1.527  1.2853  0.7589 -0.4823
 2019SOL     OW 6258   0.085   2.027   3.081 -0.5290 -0.2411  0.3798
 2019SOL    HW1 6259   0.058   2.035   2.990  0.2088  0.9639  0.2430
 2019SOL    HW2 6260   0.006   2.044   3.131 -0.6439  0.4818 -0.0338
 2020SOL     OW 6261   1.752   0.719   3.929 -0.2351 -0.6790  0.3514
 2020SOL    HW1 6262   1.727   0.640   3.978 -2.2099  0.3962  1.1662
 2020SOL    HW2 6263   1.728   0.699   3.838  2.0805 -2.1120 -0.0394
 2021SOL     OW 6264   2.609   2.383   3.886 -0.1781 -0.4398  0.2163
 2021SOL    HW1 6265   2.533   2.438   3.868 -0.8941 -1.1132  1.1113
 2021SOL    HW2 6266   2.595   2.350   3.975  0.5533 -1.5589 -0.0623
 2022SOL     OW 6267   0.783   3.996   1.029  0.0928 -0.4139 -0.0987
 2022SOL    HW1 6268   0.701   4.039   1.003 -1.0624 -1.1669  2.0459
 2022SOL    HW2 6269   0.763   3.903   1.023  0.1391 -0.6083  2.2136
 2023SOL     OW 6270   4.340   2.457   4.732  0.2594 -0.1633  0.1621
 2023SOL    HW1 6271   4.314   2.439   4.642 -1.2830 -0.1547  0.5852
 2023SOL    HW2 6272   4.302   2.386   4.783 -0.4708  0.8264  1.0339
 2024SOL     OW 6273   2.839   0.522   3.522  0.4125 -0.1783  0.1106
 2024SOL    HW1 6274   2.749   0.489   3.512  0.3711  0.3659 -1.6819
 2024SOL    HW2 6275   2.890   0.444   3.545 -0.6113 -0.3621  1.9153
 2025SOL     OW 6276   4.561   1.520   2.719  0.0430 -0.1798 -0.2579
 2025SOL    HW1 6277   4.499   1.513   2.647  0.4208 -4.0245 -0.3892
 2025SOL    HW2 6278   4.507   1.512   2.798  0.1748 -2.8925 -0.3604
 2026SOL     OW 6279   0.112   3.446   4.528 -0.0369  0.1449  0.1279
 2026SOL    HW1 6280   0.186   3.386   4.537  0.7792  1.3652  2.0733
 2026SOL    HW2 6281   0.046   3.413   4.588 -0.3212  0.1543 -0.1748
 2027SOL     OW 6282   3.963   1.790   3.889  0.3850 -0.4211  0.1302
 2027SOL    HW1 6283   3.885   1.734   3.899  2.0531 -2.4505  3.5228
 2027SOL    HW2 6284   3.951   1.859   3.953 -0.2035  1.5131 -1.9263
 2028SOL     OW 6285   4.810   1.429   1.863  0.1529  0.2749 -0.2509
 2028SOL    HW1 6286   4.854   1.350   1.832 -0.4293 -0.1339 -0.0555
 2028SOL    HW2 6287   4.719   1.401   1.879  0.3272  0.5681  1.4032
 2029SOL     OW 6288   2.625   3.857   3.018  0.1790 -0.1335 -0.3273
 2029SOL    HW1 6289   2.648   3.888   3.105  1.9771 -0.5042 -0.6372
 2029SOL    HW2 6290   2.586   3.934   2.975 -1.1287 -0.0623  0.8992
 2030SOL     OW 6291   1.488   0.825   4.354  0.1297 -0.4777 -0.5967
 2030SOL    HW1 6292   1.415   0.789   4.304 -1.1438  0.6936  0.3417
 2030SOL    HW2 6293   1.474   0.793   4.444 -1.0433  2.2118  0.2737
 2031SOL     OW 6294   0.849   2.782   3.345 -0.3621  0.2887 -0.4424
 2031SOL    HW1 6295   0.785   2.841   3.304  0.3472 -0.3417 -2.5923
 2031SOL    HW2 6296   0.920   2.840   3.374 -1.4924  0.8991  1.2538
 2032SOL     OW 6297   1.100   0.275   0.776 -0.1111 -0.9042 -0.3094
 2032SOL    HW1 6298   1.076   0.206   0.838 -0.0183  0.4592  1.2942
 2032SOL    HW2 6299   1.068   0.355   0.815 -0.7512 -0.0524 -2.4335
 2033SOL     OW 6300   2.905   1.305   4.730 -0.2426 -0.1571  0.7462
 2033SOL    HW1 6301   2.956   1.268   4.658  0.0222  4.2045 -1.6221
 2033SOL    HW2 6302   2.816   1.275   4.713 -0.1528  0.6007 -1.3545
 2034SOL     OW 6303   1.434   2.609   1.162 -0.1195 -0.2886  0.3946
 2034SOL    HW1 6304   1.406   2.539   1.102 -0.9038 -0.7856  1.3224
 2034SOL    HW2 6305   1.355   2.661   1.176  0.2347  0.2402  0.4655
 2035SOL     OW 6306   3.379   4.499   3.193 -0.3636 -0.1632  0.1689
 2035SOL    HW1 6307   3.436   4.539   3.259  1.0389 -1.8537  0.0822
 2035SOL    HW2 6308   3.375   4.563   3.122 -0.6170  1.0269  1.2236
 2036SOL     OW 6309   2.992   0.963   2.821 -0.0037 -0.0382  0.3681
 2036SOL    HW1 6310   2.945   0.889   2.860 -1.1864  0.3587 -0.2649
 2036SOL    HW2 6311   3.035   1.006   2.895 -0.0320 -0.8389  0.8598
 2037SOL     OW 6312   1.662   2.626   0.070 -0.0323 -0.2470 -0.2178
 2037SOL    HW1 6313   1.600   2.671   0.127  1.3807  0.9547  0.4189
 2037SOL    HW2 6314   1.666   2.537   0.105 -0.5237 -0.0166  0.4444
 2038SOL     OW 6315   4.256   4.624   3.285  0.3233  0.0100 -0.2563
 2038SOL    HW1 6316   4.191   4.656   3.221  2.1640  0.7349 -1.8832
 2038SOL    HW2 6317   4.325   4.691   3.284  1.5748 -1.2091  0.6490
 2039SOL     OW 6318   2.718   2.902   2.142 -0.2153  0.6572 -0.1820
 2039SOL    HW1 6319   2.782   2.851   2.192 -1.0638 -1.0060 -0.7057
 2039SOL    HW2 6320   2.768   2.940   2.070  0.4202  0.4302  0.1327
 2040SOL     OW 6321   1.216   1.806   3.615 -0.6377 -0.5435 -0.3616
 2040SOL    HW1 6322   1.183   1.810   3.525 -0.3162 -0.7308 -0.4888
 2040SOL    HW2 6323   1.304   1.845   3.610 -1.8415  2.6005  0.4715
 2041SOL     OW 6324   4.613   1.247   2.757  0.1086 -0.1719  0.2732
 2041SOL    HW1 6325   4.580   1.199   2.681  0.0834 -0.0247  0.1905
 2041SOL    HW2 6326   4.609   1.339   2.731  1.6878 -0.2078 -0.1935
 2042SOL     OW 6327   1.782   4.011   2.382  0.3624 -0.0130  0.2039
 2042SOL    HW1 6328   1.876   4.016   2.400  0.5188  0.8586 -0.7879
 2042SOL    HW2 6329   1.748   3.952   2.449  1.6329 -0.4255  0.5034
 2043SOL     OW 6330   3.760   1.833   1.952 -0.0131 -0.5760  0.4084
 2043SOL    HW1 6331   3.692   1.846   2.018 -0.7780 -1.2728 -0.2243
 2043SOL    HW2 6332   3.785   1.922   1.926  1.4857 -0.2115  2.7837
 2044SOL     OW 6333   0.386   0.391   1.134 -0.0906  0.2741 -0.0455
 2044SOL    HW1 6334   0.439   0.436   1.069  0.2125  0.9046  0.6240
 2044SOL    HW2 6335   0.298   0.427   1.122  0.1175  0.9559  0.3799
 2045SOL     OW 6336   1.463   3.397   2.620  0.3559  0.5982 -0.0460
 2045SOL    HW1 6337   1.520   3.319   2.625 -0.6728 -0.1398  0.5757
 2045SOL    HW2 6338   1.502   3.459   2.681  1.4463  0.7659 -0.8810
 2046SOL     OW 6339   4.436   2.630   0.085  0.5126  0.1858 -0.3619
 2046SOL    HW1 6340   4.358   2.684   0.085 -1.5256 -2.5286 -0.1171
 2046SOL    HW2 6341   4.410   2.549   0.040  3.3423 -0.6525 -0.7381
 2047SOL     OW 6342   4.057   4.634   1.044 -0.3698 -0.4097 -0.4220
 2047SOL    HW1 6343   4.081   4.655   1.135  0.4788  0.4960 -0.8408
 2047SOL    HW2 6344   3.964   4.610   1.050 -0.8528  1.4232  0.4433
 2048SOL     OW 6345   3.768   4.428   2.859 -0.2743 -0.7214  0.9037
 2048SOL    HW1 6346   3.815   4.472   2.789 -0.7346 -2.5400 -0.6301
 2048SOL    HW2 6347   3.676   4.451   2.845 -0.4601 -1.7213  0.3902
 2049SOL     OW 6348   0.954   1.455   3.664  0.0663 -0.3338 -0.1278
 2049SOL    HW1 6349   0.972   1.401   3.742 -1.8324 -0.3970  0.3131
 2049SOL    HW2 6350   0.970   1.396   3.591  2.5960 -0.0693  0.1003
 2050SOL     OW 6351   4.363   4.559   2.037 -0.1576  0.7233  0.0253
 2050SOL    HW1 6352   4.430   4.597   1.981 -1.4745  2.5273 -0.4304
 2050SOL    HW2 6353   4.398   4.569   2.126  1.0210 -0.2190 -0.3085
 2051SOL     OW 6354   0.844   1.208   1.281  0.0751 -0.0836  0.0346
 2051SOL    HW1 6355   0.755   1.209   1.317 -0.6228 -1.1090 -1.5228
 2051SOL    HW2 6356   0.872   1.116   1.288  0.8682  0.1642  0.1891
 2052SOL     OW 6357   2.834   2.112   4.553 -0.4335 -0.2612 -0.3420
 2052SOL    HW1 6358   2.774   2.177   4.590  0.0055  0.0487 -0.1650
 2052SOL    HW2 6359   2.911   2.115   4.610 -0.4423 -0.9997 -0.2852
 2053SOL     OW 6360   0.873   4.582   1.570 -0.5850  0.5820 -0.3470
 2053SOL    HW1 6361   0.863   4.548   1.481 -3.1082 -0.6288  0.3083
 2053SOL    HW2 6362   0.965   4.568   1.591  0.1898  1.2957 -2.8833
 2054SOL     OW 6363   0.503   1.932   0.384  0.1354  0.2030 -0.2282
 2054SOL    HW1 6364   0.584   1.977   0.409 -0.2229  0.0993  1.1940
 2054SOL    HW2 6365   0.438   2.002   0.377  0.3737  0.3072 -1.5428
 2055SOL     OW 6366   2.631   0.407   2.041  0.3293 -0.1959  0.8105
 2055SOL    HW1 6367   2.613   0.397   2.134  2.3209 -1.1139  1.1511
 2055SOL    HW2 6368   2.630   0.318   2.007 -1.3863  0.1967 -0.3091
 2056SOL     OW 6369   1.203   4.040   2.968  0.7387  0.0783  0.1233
 2056SOL    HW1 6370   1.168   4.128   2.984  1.7250  0.1223  2.2602
 2056SOL    HW2 6371   1.222   4.039   2.874  1.0890  2.2865  0.1183
 2057SOL     OW 6372   2.761   4.272   0.218 -0.2378 -0.2697 -0.1410
 2057SOL    HW1 6373   2.705   4.280   0.295 -0.5264 -0.9479 -0.2729
 2057SOL    HW2 6374   2.772   4.362   0.187 -0.5793 -0.0514  0.3639
 2058SOL     OW 6375   0.853   3.242   3.927  0.2074 -0.2424 -0.3393
 2058SOL    HW1 6376   0.764   3.207   3.918  0.0858 -0.2825  0.8463
 2058SOL    HW2 6377   0.840   3.335   3.946  0.3832 -0.3463  0.3375
 2059SOL     OW 6378   4.128   4.054   2.942 -0.5739 -0.1005  0.8145
 2059SOL    HW1 6379   4.118   4.063   3.037 -2.1985 -2.6052  0.9664
 2059SOL    HW2 6380   4.208   4.002   2.932 -0.0793  0.6639  0.7730
 2060SOL     OW 6381   3.650   4.542   2.001  0.0241 -0.0579  0.3418
 2060SOL    HW1 6382   3.574   4.539   1.942  0.7314 -0.7691 -0.5620
 2060SOL    HW2 6383   3.612   4.561   2.087 -1.3245 -1.4864  0.1187
 2061SOL     OW 6384   0.596   4.105   0.745 -0.0184 -0.5564 -0.2055
 2061SOL    HW1 6385   0.664   4.143   0.689  0.0657 -0.2457  0.1044
 2061SOL    HW2 6386   0.599   4.011   0.726  0.5104 -0.5482 -0.1830
 2062SOL     OW 6387   3.962   0.586   2.022 -0.7189 -0.1555  0.1870
 2062SOL    HW1 6388   3.872   0.557   2.010 -0.3809 -0.5883 -1.4713
 2062SOL    HW2 6389   3.996   0.598   1.934  1.6250 -2.3458  0.6699
 2063SOL     OW 6390   2.521   0.306   4.556  0.3882  0.5226  0.3090
 2063SOL    HW1 6391   2.452   0.240   4.545  1.3654 -0.7311  1.2708
 2063SOL    HW2 6392   2.543   0.333   4.467 -2.1802  1.9152  0.0153
 2064SOL     OW 6393   2.235   2.882   2.264  0.0617  0.0045 -0.1724
 2064SOL    HW1 6394   2.139   2.889   2.266  0.0924  1.9965 -1.7822
 2064SOL    HW2 6395   2.255   2.844   2.179  0.7079  2.2414 -1.1022
 2065SOL     OW 6396   4.574   4.320   4.805 -0.6864  0.0680 -0.1398
 2065SOL    HW1 6397   4.578   4.234   4.846 -0.1753  0.3391  0.4042
 2065SOL    HW2 6398   4.666   4.349   4.802 -0.9494  1.0858  0.7679
 2066SOL     OW 6399   1.118   2.540   2.491  0.0420  0.1947 -0.0170
 2066SOL    HW1 6400   1.090   2.503   2.574  0.5290 -1.2745 -0.4705
 2066SOL    HW2 6401   1.079   2.483   2.425 -2.1719  2.5789 -0.9583
 2067SOL     OW 6402   4.563   2.654   2.269 -0.8008  0.2225  0.2940
 2067SOL    HW1 6403   4.583   2.692   2.354 -0.4918  0.2435  0.2141
 2067SOL    HW2 6404   4.480   2.694   2.244 -0.9610  0.1148  0.6436
 2068SOL     OW 6405   2.605   1.423   3.212  0.6434 -0.1045 -0.2037
 2068SOL    HW1 6406   2.544   1.470   3.269 -0.0224 -1.0799 -0.0903
 2068SOL    HW2 6407   2.692   1.453   3.239  0.2125  1.8999 -0.8947
 2069SOL     OW 6408   3.537   1.461   2.179 -0.2549 -0.4011  0.1981
 2069SOL    HW1 6409   3.608   1.505   2.133  1.0478 -0.8248  1.7033
 2069SOL    HW2 6410   3.475   1.437   2.110  0.8101  0.4188 -1.1013
 2070SOL     OW 6411   2.534   1.017   3.890 -0.3178  0.2749  0.8810
 2070SOL    HW1 6412   2.502   1.107   3.890 -0.3424  0.2972 -0.4631
 2070SOL    HW2 6413   2.617   1.021   3.842  0.3282 -0.2234  1.9251
 2071SOL     OW 6414   1.021   1.681   4.463 -0.1724  0.3023 -0.7012
 2071SOL    HW1 6415   1.062   1.642   4.385 -1.3738  0.5031 -1.4483
 2071SOL    HW2 6416   1.020   1.775   4.445 -0.1403  0.3887 -0.2746
 2072SOL     OW 6417   3.284   0.950   3.335  0.0003  0.1342  0.3181
 2072SOL    HW1 6418   3.200   0.918   3.304  0.1965  0.1912 -0.2691
 2072SOL    HW2 6419   3.272   1.044   3.348  0.5004  0.4842 -1.5589
 2073SOL     OW 6420   2.717   0.152   4.109 -0.2671  0.1388  0.2959
 2073SOL    HW1 6421   2.748   0.062   4.116 -2.3481 -1.0658 -3.1632
 2073SOL    HW2 6422   2.629   0.150   4.147 -0.1501  0.8143  0.6054
 2074SOL     OW 6423   4.271   2.433   2.420  0.2661 -0.5681  0.3351
 2074SOL    HW1 6424   4.266   2.499   2.489  1.8935 -0.5814  0.5059
 2074SOL    HW2 6425   4.290   2.483   2.340 -0.9322 -0.6150  0.0090
 2075SOL     OW 6426   2.915   2.267   1.958 -0.5133  0.2146 -0.0806
 2075SOL    HW1 6427   2.866   2.242   2.037  0.3134  0.1829  0.4324
 2075SOL    HW2 6428   2.933   2.360   1.970  1.6088 -0.2535  0.9152
 2076SOL     OW 6429   3.709   4.245   4.389 -0.7518  0.2997  1.0270
 2076SOL    HW1 6430   3.625   4.292   4.383 -1.5909 -0.8416  2.8327
 2076SOL    HW2 6431   3.727   4.240   4.483 -0.4975 -2.5425  0.9302
 2077SOL     OW 6432   3.004   0.412   3.922  0.1789  0.2380 -0.2855
 2077SOL    HW1 6433   2.920   0.378   3.954  0.2755 -0.6027 -0.9025
 2077SOL    HW2 6434   3.012   0.378   3.833  0.9789  0.6686 -0.3880
 2078SOL     OW 6435   2.083   3.219   1.092  0.5697  0.7432 -0.2497
 2078SOL    HW1 6436   2.040   3.178   1.016 -0.4061  0.8682  0.2188
 2078SOL    HW2 6437   2.069   3.313   1.080  0.7601  0.7874 -0.1220
 2079SOL     OW 6438   0.738   3.041   1.206  0.0834  0.1792 -0.1872
 2079SOL    HW1 6439   0.820   3.056   1.252  0.5016 -1.4548 -0.3503
 2079SOL    HW2 6440   0.713   3.127   1.173  0.4877  1.1589  1.8787
 2080SOL     OW 6441   3.877   3.671   4.144  0.4724 -0.1038  0.1605
 2080SOL    HW1 6442   3.878   3.606   4.073 -1.4337 -0.0121 -0.0075
 2080SOL    HW2 6443   3.969   3.680   4.170  0.9221 -2.0172 -0.5878
 2081SOL     OW 6444   3.226   4.045   4.705 -0.6958 -0.0017  0.2760
 2081SOL    HW1 6445   3.181   4.091   4.635  0.8805  0.4308 -0.5007
 2081SOL    HW2 6446   3.278   4.112   4.749 -1.3178 -0.3534  1.5890
 2082SOL     OW 6447   2.446   0.635   4.086  0.0886 -0.4517  0.2558
 2082SOL    HW1 6448   2.539   0.657   4.076  0.0239 -0.5133 -0.5209
 2082SOL    HW2 6449   2.410   0.707   4.139  0.2116  0.5358 -0.9475
 2083SOL     OW 6450   1.387   1.588   3.494 -0.2819 -0.3572  0.3037
 2083SOL    HW1 6451   1.346   1.616   3.413 -1.0980  0.1366  0.8778
 2083SOL    HW2 6452   1.416   1.670   3.536  2.0196 -0.7098 -0.4381
 2084SOL     OW 6453   3.883   2.187   0.954  0.3596 -0.8073  0.4583
 2084SOL    HW1 6454   3.884   2.094   0.932  0.7601 -0.7354  0.1696
 2084SOL    HW2 6455   3.864   2.189   1.048  2.7196 -1.2848  1.0022
 2085SOL     OW 6456   3.199   4.408   0.613 -0.4712 -0.1245  0.0670
 2085SOL    HW1 6457   3.134   4.338   0.617 -0.3341 -0.2002  1.2962
 2085SOL    HW2 6458   3.256   4.385   0.540 -1.5298 -0.3074 -0.7231
 2086SOL     OW 6459   4.215   1.251   1.516 -0.0892 -0.4639 -0.4575
 2086SOL    HW1 6460   4.148   1.197   1.475  1.0675 -2.1225 -0.2705
 2086SOL    HW2 6461   4.291   1.242   1.458  0.7163 -0.6202  0.5978
 2087SOL     OW 6462   4.740   2.548   2.107  0.8757 -0.2136 -0.0257
 2087SOL    HW1 6463   4.755   2.457   2.134  2.3587 -0.3202 -1.1144
 2087SOL    HW2 6464   4.673   2.580   2.168 -0.1227 -2.2022  0.0058
 2088SOL     OW 6465   3.944   0.618   4.446  0.7780  0.3993 -0.1606
 2088SOL    HW1 6466   4.030   0.610   4.406  0.8229 -0.3256  0.0560
 2088SOL    HW2 6467   3.903   0.532   4.432  0.9313 -0.0077  1.6378
 2089SOL     OW 6468   0.199   4.400   0.435 -0.6840 -0.2958 -0.3305
 2089SOL    HW1 6469   0.244   4.336   0.490 -0.0443  0.1734 -0.2970
 2089SOL    HW2 6470   0.186   4.356   0.351  0.3437 -0.2495 -0.5195
 2090SOL     OW 6471   0.653   1.940   2.311 -0.2162 -0.1504 -0.1057
 2090SOL    HW1 6472   0.725   1.982   2.265 -0.3872 -0.5325 -0.7346
 2090SOL    HW2 6473   0.675   1.847   2.311  0.1569 -0.0794  1.2712
 2091SOL     OW 6474   1.208   1.457   3.017 -0.2400 -0.1290 -0.3724
 2091SOL    HW1 6475   1.173   1.404   2.946 -0.2477 -0.3565 -0.1992
 2091SOL    HW2 6476   1.295   1.484   2.986 -0.0138 -0.6903 -0.2386
 2092SOL     OW 6477   2.618   2.629   0.729  0.0981 -0.1622 -0.9679
 2092SOL    HW1 6478   2.532   2.602   0.695 -0.1659  2.0450 -2.1976
 2092SOL    HW2 6479   2.669   2.648   0.651  1.2909 -0.1734 -0.2023
 2093SOL     OW 6480   3.659   3.609   2.114 -0.5368 -0.5386 -0.1263
 2093SOL    HW1 6481   3.709   3.557   2.177 -0.6194 -0.0687  0.3372
 2093SOL    HW2 6482   3.695   3.585   2.029 -0.2284 -0.9724  0.1230
 2094SOL     OW 6483   0.453   3.012   0.714  0.1280 -0.2744  0.1241
 2094SOL    HW1 6484   0.398   2.940   0.746  0.2186 -0.8250 -0.8925
 2094SOL    HW2 6485   0.542   2.986   0.737  0.0781  0.0007  0.6394
 2095SOL     OW 6486   4.656   4.232   0.949 -0.1739  0.4382  0.6486
 2095SOL    HW1 6487   4.750   4.215   0.959  0.0197  0.0408 -1.4401
 2095SOL    HW2 6488   4.617   4.146   0.938 -0.6136  0.6858  0.2576
 2096SOL     OW 6489   2.036   2.207   0.515  0.0570 -0.0010  0.0068
 2096SOL    HW1 6490   1.985   2.133   0.548  2.3728 -0.3429  3.3871
 2096SOL    HW2 6491   1.979   2.283   0.528 -0.5687 -0.6403  1.1854
 2097SOL     OW 6492   2.280   4.421   2.062 -0.0203  0.3113 -0.3900
 2097SOL    HW1 6493   2.355   4.455   2.111  1.0952  1.3538 -2.6800
 2097SOL    HW2 6494   2.204   4.443   2.117  1.2533 -0.5902  1.8980
 2098SOL     OW 6495   3.424   3.643   0.367 -0.5347 -0.0791  0.0695
 2098SOL    HW1 6496   3.520   3.645   0.362 -0.4741 -0.0901  1.1591
 2098SOL    HW2 6497   3.396   3.668   0.278  0.4686 -0.0175 -0.2484
 2099SOL     OW 6498   0.622   4.532   3.649  0.8171 -0.4026 -0.3635
 2099SOL    HW1 6499   0.586   4.618   3.625 -0.7531 -0.3243  1.9294
 2099SOL    HW2 6500   0.715   4.549   3.664  0.6756  0.7419 -0.6695
 2100SOL     OW 6501   3.741   2.791   3.049  0.3783 -0.2395 -0.0149
 2100SOL    HW1 6502   3.829   2.827   3.043  0.0342  0.9057  1.3656
 2100SOL    HW2 6503   3.722   2.787   3.143 -0.3566 -2.2296 -0.1832
 2101SOL     OW 6504   2.180   2.052   3.484 -0.5074 -0.0370  0.4430
 2101SOL    HW1 6505   2.224   2.079   3.404 -1.2690  1.9763  0.6552
 2101SOL    HW2 6506   2.219   2.105   3.553 -1.9254  0.4297  0.9191
 2102SOL     OW 6507   3.201   3.581   1.259  0.2818  0.7112  0.0503
 2102SOL    HW1 6508   3.219   3.547   1.347  1.7874 -1.4435 -0.9920
 2102SOL    HW2 6509   3.178   3.504   1.208 -1.8366  2.0873 -1.2213
 2103SOL     OW 6510   2.421   1.760   4.779  0.0421  0.4371 -0.4122
 2103SOL    HW1 6511   2.329   1.783   4.766 -0.0411  0.3162 -0.0568
 2103SOL    HW2 6512   2.419   1.683   4.836  0.3784  0.7586  0.0422
 2104SOL     OW 6513   2.498   0.535   1.683  0.1581 -0.1188  0.3821
 2104SOL    HW1 6514   2.478   0.545   1.776  0.4929 -0.7644  0.5251
 2104SOL    HW2 6515   2.591   0.516   1.680  0.2781  0.5193 -0.1346
 2105SOL     OW 6516   2.398   2.558   2.943 -0.2317 -0.8195 -0.5616
 2105SOL    HW1 6517   2.414   2.464   2.945 -1.2380 -1.0096 -0.5247
 2105SOL    HW2 6518   2.395   2.583   3.036 -0.4026 -0.8373 -0.5618
 2106SOL     OW 6519   2.048   3.971   2.407  0.3723  0.1227 -0.2623
 2106SOL    HW1 6520   2.091   3.895   2.368  0.2937  0.7249 -1.5633
 2106SOL    HW2 6521   2.087   4.047   2.363 -1.6250  0.7173 -1.1589
 2107SOL     OW 6522   0.416   2.946   2.985  0.1771  0.1350 -0.3556
 2107SOL    HW1 6523   0.371   3.011   3.039 -0.2799  0.1957 -0.7977
 2107SOL    HW2 6524   0.491   2.918   3.038  0.2843  0.8985 -0.0968
 2108SOL     OW 6525   2.442   0.751   1.526  0.8492  0.2279  0.1772
 2108SOL    HW1 6526   2.497   0.760   1.448  1.3782 -0.5574  0.4391
 2108SOL    HW2 6527   2.467   0.666   1.563  0.1793  0.3198  0.8721
 2109SOL     OW 6528   2.621   3.783   3.303 -0.3891 -0.3034  0.2299
 2109SOL    HW1 6529   2.578   3.700   3.284  0.3331 -0.1382 -2.5084
 2109SOL    HW2 6530   2.713   3.759   3.319 -0.5268 -0.1813  1.2669
 2110SOL     OW 6531   0.670   2.043   4.341  0.2342  0.4304  0.1822
 2110SOL    HW1 6532   0.632   2.040   4.253  0.7879 -0.9882 -0.0311
 2110SOL    HW2 6533   0.764   2.036   4.326  0.3452  0.3944  0.8815
 2111SOL     OW 6534   2.186   4.632   1.121 -0.3857  0.0883 -0.2127
 2111SOL    HW1 6535   2.256   4.577   1.083  0.8357  0.8640  0.8562
 2111SOL    HW2 6536   2.138   4.665   1.045 -0.2103 -1.2415 -0.9320
 2112SOL     OW 6537   2.414   4.554   3.311  0.0585 -0.0740  0.0038
 2112SOL    HW1 6538   2.420   4.488   3.242  0.7537  0.5359 -0.5287
 2112SOL    HW2 6539   2.320   4.559   3.331 -0.3586  0.8596 -1.9889
 2113SOL     OW 6540   1.406   1.587   2.316  0.4033  0.2749 -0.1506
 2113SOL    HW1 6541   1.484   1.608   2.368  0.0558  0.3699  0.3384
 2113SOL    HW2 6542   1.428   1.614   2.227  1.4485 -0.9519 -0.3041
 2114SOL     OW 6543   4.640   1.736   1.550 -0.0985  0.2876 -0.1234
 2114SOL    HW1 6544   4.654   1.815   1.601 -0.5302  0.1066  0.2882
 2114SOL    HW2 6545   4.608   1.767   1.466 -1.9188  0.5031  0.6070
 2115SOL     OW 6546   3.181   1.268   0.859  0.0569  0.0833 -0.5085
 2115SOL    HW1 6547   3.219   1.199   0.914 -1.9369 -0.5155  0.1988
 2115SOL    HW2 6548   3.225   1.259   0.775 -0.2422 -2.1723 -0.4680
 2116SOL     OW 6549   0.895   0.396   0.551  0.1395  0.4226  0.0312
 2116SOL    HW1 6550   0.962   0.375   0.486 -1.2821  0.7517 -1.5886
 2116SOL    HW2 6551   0.851   0.313   0.569 -0.4287  0.5915 -0.5522
 2117SOL     OW 6552   2.474   2.277   3.076 -0.1714  0.1653  0.2274
 2117SOL    HW1 6553   2.431   2.221   3.012  1.7830  0.4645 -1.4239
 2117SOL    HW2 6554   2.558   2.235   3.093  1.1258  2.2636 -0.6692
 2118SOL     OW 6555   0.524   2.906   1.408  0.3538 -0.2218 -0.0536
 2118SOL    HW1 6556   0.503   2.947   1.492  0.8341 -0.4004  0.1544
 2118SOL    HW2 6557   0.598   2.957   1.375  1.6281 -1.5482  0.6847
 2119SOL     OW 6558   1.235   1.052   2.993  0.1571  0.2723 -0.5083
 2119SOL    HW1 6559   1.204   0.971   3.034 -0.4398  0.8423  0.1989
 2119SOL    HW2 6560   1.165   1.115   3.008 -0.2821  0.4197 -2.8110
 2120SOL     OW 6561   3.623   3.874   0.916 -0.0752 -0.3459  0.2174
 2120SOL    HW1 6562   3.653   3.798   0.867 -1.9622  0.3652 -2.2664
 2120SOL    HW2 6563   3.550   3.842   0.969 -1.0212 -0.2875 -1.0038
 2121SOL     OW 6564   1.869   3.566   4.290 -0.1620  0.3327 -0.8823
 2121SOL    HW1 6565   1.776   3.586   4.302 -0.8901 -2.5977 -1.0615
 2121SOL    HW2 6566   1.880   3.479   4.328  2.6464  0.7765 -0.4744
 2122SOL     OW 6567   0.774   0.003   2.995  0.0111 -0.1514 -0.3669
 2122SOL    HW1 6568   0.807  -0.022   2.909 -1.8149  0.2672 -1.2315
 2122SOL    HW2 6569   0.814   0.087   3.013  0.3285 -0.1951 -0.8595
 2123SOL     OW 6570   3.906   3.100   0.951  0.4436  0.1496  0.0335
 2123SOL    HW1 6571   3.916   3.151   1.031  2.8165 -0.9918  0.5664
 2123SOL    HW2 6572   3.867   3.161   0.889 -0.0680  1.5230  1.6202
 2124SOL     OW 6573   2.943   2.224   2.876 -0.8671 -0.4007 -0.0066
 2124SOL    HW1 6574   3.034   2.219   2.905 -0.8784 -1.1619 -0.0852
 2124SOL    HW2 6575   2.901   2.281   2.941  0.1534  1.9459 -1.2784
 2125SOL     OW 6576   3.013   3.360   2.301 -0.2292 -0.1372 -0.4425
 2125SOL    HW1 6577   3.059   3.432   2.345 -1.3504 -1.0054  2.3483
 2125SOL    HW2 6578   3.083   3.299   2.275  0.4343 -0.0537  1.0718
 2126SOL     OW 6579   1.981   4.101   2.070  0.0894  0.1716  0.3437
 2126SOL    HW1 6580   1.902   4.143   2.037 -0.5438  0.1853  1.7863
 2126SOL    HW2 6581   2.047   4.119   2.004 -1.0021  0.5446 -0.6819
 2127SOL     OW 6582   2.464   1.761   2.979 -0.0605  0.1557 -0.4150
 2127SOL    HW1 6583   2.507   1.738   2.897  1.3547 -1.4926  0.7242
 2127SOL    HW2 6584   2.531   1.808   3.029 -1.1401  1.8170 -0.4439
 2128SOL     OW 6585   4.291   0.949   1.281  0.1280  0.4263  0.0076
 2128SOL    HW1 6586   4.337   0.905   1.210 -0.6533 -0.6748  0.1475
 2128SOL    HW2 6587   4.257   1.029   1.243 -0.2457 -0.1325 -0.8597
 2129SOL     OW 6588   3.175   2.598   2.876 -0.1682  0.5876  0.4605
 2129SOL    HW1 6589   3.230   2.676   2.864 -1.0151  1.0529 -0.6108
 2129SOL    HW2 6590   3.220   2.529   2.827 -0.4751  0.9475 -0.3459
 2130SOL     OW 6591   1.974   3.733   4.470  0.3884 -0.1147  0.0724
 2130SOL    HW1 6592   1.899   3.774   4.512 -0.0005 -2.1123  1.5108
 2130SOL    HW2 6593   1.937   3.685   4.396  0.1330 -1.4363  1.0241
 2131SOL     OW 6594   3.561   2.925   2.843  0.3587  0.1845 -0.5471
 2131SOL    HW1 6595   3.625   2.877   2.896  0.5979  0.7954 -0.2710
 2131SOL    HW2 6596   3.614   2.971   2.777  0.0450 -0.7545 -1.4778
 2132SOL     OW 6597   1.621   2.216   2.328 -0.0368  0.5717 -0.5457
 2132SOL    HW1 6598   1.631   2.307   2.355 -1.2368  0.3841  0.6419
 2132SOL    HW2 6599   1.611   2.168   2.410 -0.3212 -0.5064 -1.1934
 2133SOL     OW 6600   2.991   3.104   1.411  0.1429 -0.2642  0.1704
 2133SOL    HW1 6601   3.060   3.093   1.346  0.0563 -0.4634  0.1115
 2133SOL    HW2 6602   3.032   3.081   1.494  0.2655  0.0319  0.1927
 2134SOL     OW 6603   4.603   2.934   3.641  0.0160  0.4519 -0.1697
 2134SOL    HW1 6604   4.579   2.950   3.732 -0.2121  1.2485 -0.3598
 2134SOL    HW2 6605   4.619   3.021   3.605 -3.1650  0.5230 -1.7811
 2135SOL     OW 6606   2.971   1.404   3.520 -0.0568 -0.2364  0.2705
 2135SOL    HW1 6607   2.987   1.313   3.544  1.0926 -0.2481 -0.4195
 2135SOL    HW2 6608   3.059   1.439   3.502 -0.4975  0.9543  0.3436
 2136SOL     OW 6609   4.744   4.163   2.689  0.2323  0.3091  0.5970
 2136SOL    HW1 6610   4.715   4.099   2.754  0.7411 -0.7275 -0.1662
 2136SOL    HW2 6611   4.663   4.197   2.650 -0.0999  1.3130  2.0752
 2137SOL     OW 6612   3.142   2.717   2.119 -0.4282 -0.2673  0.1779
 2137SOL    HW1 6613   3.078   2.736   2.188  0.5558  1.3952  0.7056
 2137SOL    HW2 6614   3.204   2.658   2.160  1.3525  2.3488  1.5614
 2138SOL     OW 6615   0.248   1.621   1.161 -0.6046  0.5761 -0.2784
 2138SOL    HW1 6616   0.254   1.595   1.069  0.1751 -3.7766  0.7973
 2138SOL    HW2 6617   0.321   1.682   1.174  1.5552 -1.5255 -1.7938
 2139SOL     OW 6618   2.399   4.606   4.481 -0.5717 -0.2640 -0.0079
 2139SOL    HW1 6619   2.365   4.641   4.563  2.1883  0.5332  0.9119
 2139SOL    HW2 6620   2.364   4.664   4.414 -0.9184  0.5673  0.8707
 2140SOL     OW 6621   4.737   0.910   1.956 -0.5652 -0.1226  0.5691
 2140SOL    HW1 6622   4.735   0.968   1.880 -1.6047 -0.7772  0.0780
 2140SOL    HW2 6623   4.789   0.957   2.021  1.1242  0.0605 -0.8420
 2141SOL     OW 6624   2.827   1.731   2.157  0.2834 -0.2158  0.0017
 2141SOL    HW1 6625   2.760   1.767   2.099  1.8884  0.6557 -1.3990
 2141SOL    HW2 6626   2.876   1.670   2.101 -0.7601 -2.6818  1.6329
 2142SOL     OW 6627   4.288   2.919   2.530 -0.2414  0.1720  0.2193
 2142SOL    HW1 6628   4.263   2.830   2.554 -0.8291  0.5580  1.1137
 2142SOL    HW2 6629   4.234   2.975   2.587  1.3845  1.0742  0.9474
 2143SOL     OW 6630   2.893   2.368   1.640  0.0962  0.1823 -0.2637
 2143SOL    HW1 6631   2.874   2.292   1.585  1.2225  0.7079 -1.4329
 2143SOL    HW2 6632   2.957   2.336   1.704 -1.6177 -0.5713  1.1570
 2144SOL     OW 6633   2.300   2.134   1.044 -0.3997 -0.2278 -0.4803
 2144SOL    HW1 6634   2.252   2.064   1.088  1.6469 -1.4287 -0.0299
 2144SOL    HW2 6635   2.246   2.156   0.968 -1.7941 -1.2872  0.1652
 2145SOL     OW 6636   2.690   0.399   3.967  0.3604  0.3449 -0.1578
 2145SOL    HW1 6637   2.697   0.322   4.023 -0.7658 -0.0638 -0.5571
 2145SOL    HW2 6638   2.627   0.374   3.899  0.7672  1.2603 -0.8898
 2146SOL     OW 6639   3.094   2.451   4.581  0.0117  0.0293  0.1380
 2146SOL    HW1 6640   3.098   2.521   4.647  0.4463 -1.3427  1.6133
 2146SOL    HW2 6641   3.015   2.471   4.531 -0.1900  1.2609  0.8975
 2147SOL     OW 6642   2.822   3.883   0.429 -0.3138 -0.3229 -0.9628
 2147SOL    HW1 6643   2.916   3.886   0.411 -0.7161  2.0176 -3.2798
 2147SOL    HW2 6644   2.784   3.840   0.352 -1.2469 -0.2732 -0.5469
 2148SOL     OW 6645   0.325   4.016   3.355 -0.1660  0.2910 -0.7477
 2148SOL    HW1 6646   0.390   3.954   3.322  2.6224  1.2735  2.3484
 2148SOL    HW2 6647   0.354   4.101   3.324  0.9698  0.9015  1.7489
 2149SOL     OW 6648   0.090   2.890   2.616  0.3205  0.4659 -0.4989
 2149SOL    HW1 6649   0.012   2.926   2.658  1.1873  1.3134  0.4575
 2149SOL    HW2 6650   0.076   2.796   2.616 -0.1405  0.5142  0.8347
 2150SOL     OW 6651   2.378   0.258   1.675  0.7165  0.2590 -0.4875
 2150SOL    HW1 6652   2.314   0.312   1.722  0.2388  0.1717 -1.0300
 2150SOL    HW2 6653   2.462   0.282   1.714  0.4709  1.1298 -0.4649
 2151SOL     OW 6654   3.572   1.589   3.372 -0.6413  0.0793 -0.3001
 2151SOL    HW1 6655   3.595   1.511   3.321 -2.3678 -1.5136  1.1767
 2151SOL    HW2 6656   3.481   1.606   3.349 -0.5927  1.0430  0.1806
 2152SOL     OW 6657   3.518   1.873   1.227 -0.6822  0.4672 -0.1388
 2152SOL    HW1 6658   3.531   1.806   1.295  0.9982 -0.3765 -1.2293
 2152SOL    HW2 6659   3.586   1.938   1.245 -0.8176  0.7043 -0.4813
 2153SOL     OW 6660   3.378   0.671   3.270  0.2755  0.0811 -0.1747
 2153SOL    HW1 6661   3.379   0.767   3.267  0.5957  0.0859  0.0168
 2153SOL    HW2 6662   3.460   0.645   3.228  0.7929 -0.0656  0.8793
 2154SOL     OW 6663   1.503   3.343   3.175 -0.5451  0.3341  0.1624
 2154SOL    HW1 6664   1.485   3.383   3.261  1.2305  1.0193  0.2546
 2154SOL    HW2 6665   1.491   3.414   3.113  0.8310  0.5710  0.1403
 2155SOL     OW 6666   1.543   1.893   0.034 -0.1487 -0.1290 -0.4980
 2155SOL    HW1 6667   1.544   1.914   0.128 -0.6706  0.6969 -0.6681
 2155SOL    HW2 6668   1.450   1.892   0.011 -0.0902 -1.5400 -0.7531
 2156SOL     OW 6669   3.579   1.482   0.773  0.1061  0.1181 -0.0354
 2156SOL    HW1 6670   3.522   1.425   0.824 -1.5355  0.0352 -1.8618
 2156SOL    HW2 6671   3.617   1.424   0.706  0.6367  0.6075 -0.1643
 2157SOL     OW 6672   2.172   3.823   4.292  0.2296  0.5523  0.2409
 2157SOL    HW1 6673   2.113   3.898   4.284 -1.7047 -0.8595  0.5784
 2157SOL    HW2 6674   2.128   3.764   4.353  1.0694 -1.4103 -0.9598
 2158SOL     OW 6675   4.527   2.850   3.028 -0.0246  0.0854  0.3684
 2158SOL    HW1 6676   4.542   2.938   3.060 -0.7403  0.0352  0.8706
 2158SOL    HW2 6677   4.592   2.796   3.072  1.2154  0.5284 -0.8519
 2159SOL     OW 6678   3.681   3.810   0.290  0.7482  0.1024 -0.0502
 2159SOL    HW1 6679   3.691   3.820   0.195  0.9333  0.7906  0.0313
 2159SOL    HW2 6680   3.762   3.847   0.326  0.8757 -0.5622  0.3629
 2160SOL     OW 6681   1.868   4.290   3.891 -0.0820 -0.3799 -0.5182
 2160SOL    HW1 6682   1.955   4.260   3.865  0.5459 -0.5667  1.5690
 2160SOL    HW2 6683   1.882   4.378   3.925 -0.8653 -0.0690 -0.9817
 2161SOL     OW 6684   3.151   0.293   3.675 -0.1858 -0.3207  0.3740
 2161SOL    HW1 6685   3.075   0.262   3.625  0.2155  0.9234 -1.0953
 2161SOL    HW2 6686   3.161   0.385   3.648  1.4584 -0.2824  1.0246
 2162SOL     OW 6687   2.754   1.758   3.377  0.0199 -0.6355 -0.0968
 2162SOL    HW1 6688   2.780   1.674   3.340 -0.4824  0.0748 -2.2362
 2162SOL    HW2 6689   2.721   1.737   3.464 -1.2739 -2.8539 -1.0264
 2163SOL     OW 6690   1.693   1.850   4.615  0.0799  0.2126  0.1924
 2163SOL    HW1 6691   1.782   1.883   4.628 -0.5880  1.7225  1.1564
 2163SOL    HW2 6692   1.643   1.883   4.690 -1.2835 -0.7104 -0.2556
 2164SOL     OW 6693   0.260   1.713   3.776 -0.4656  0.1506 -0.3484
 2164SOL    HW1 6694   0.272   1.768   3.699  0.2979  0.3691 -0.0818
 2164SOL    HW2 6695   0.176   1.670   3.762  0.3233 -0.9603 -2.0090
 2165SOL     OW 6696   2.687   1.391   3.738  0.1525 -0.5920 -0.2684
 2165SOL    HW1 6697   2.717   1.363   3.824 -0.4145 -2.2160 -0.5735
 2165SOL    HW2 6698   2.766   1.393   3.684  0.4568  0.1146  0.1810
 2166SOL     OW 6699   1.198   4.096   3.695 -0.2356 -0.3393  0.0070
 2166SOL    HW1 6700   1.209   4.122   3.603  0.9166  0.6516  0.3870
 2166SOL    HW2 6701   1.148   4.168   3.733  2.8361  1.4496  1.0368
 2167SOL     OW 6702   1.389   0.761   2.800  0.2417  0.1766 -0.5029
 2167SOL    HW1 6703   1.302   0.799   2.784 -0.6103 -0.4143  2.1791
 2167SOL    HW2 6704   1.382   0.672   2.767 -1.1680 -0.7342  1.9241
 2168SOL     OW 6705   3.349   1.238   2.372  0.0966  0.0478  0.1123
 2168SOL    HW1 6706   3.262   1.202   2.358  0.8345 -1.2856 -1.4012
 2168SOL    HW2 6707   3.398   1.168   2.413  0.3997  0.8969  1.2485
 2169SOL     OW 6708   3.952   3.880   3.221 -0.2695  0.0500 -0.0627
 2169SOL    HW1 6709   3.872   3.857   3.175 -0.1782 -0.4887  0.0401
 2169SOL    HW2 6710   3.965   3.973   3.202 -0.2852 -0.1351 -1.0424
 2170SOL     OW 6711   3.027   3.943   3.076 -0.1807 -0.1210 -0.2610
 2170SOL    HW1 6712   3.027   4.003   3.001  1.2609 -0.6206 -0.7112
 2170SOL    HW2 6713   3.031   3.856   3.036  4.4681 -0.3717  0.2309
 2171SOL     OW 6714   1.090   3.467   0.716 -0.5135 -0.3421 -0.1360
 2171SOL    HW1 6715   0.998   3.460   0.741 -0.6224 -0.8568 -0.6660
 2171SOL    HW2 6716   1.112   3.380   0.682  0.2561 -0.3222  0.2815
 2172SOL     OW 6717   0.478   3.374   1.817  0.4837  0.5761  0.0064
 2172SOL    HW1 6718   0.406   3.437   1.822 -1.2185 -1.2310 -0.4747
 2172SOL    HW2 6719   0.557   3.428   1.825 -0.8985  2.5891  1.0895
 2173SOL     OW 6720   3.388   2.404   2.728 -0.1675 -0.4263 -0.0769
 2173SOL    HW1 6721   3.350   2.347   2.661  0.1311 -0.2772 -0.3704
 2173SOL    HW2 6722   3.441   2.345   2.782 -0.3977 -0.5427  0.0293
 2174SOL     OW 6723   0.934   2.284   1.518  0.7186  0.2706 -0.2834
 2174SOL    HW1 6724   0.855   2.326   1.551  0.1881 -1.1424  0.3442
 2174SOL    HW2 6725   0.905   2.235   1.441  1.4413  1.4697 -1.3611
 2175SOL     OW 6726   0.781   2.649   2.595  0.0869  0.1655  0.0626
 2175SOL    HW1 6727   0.854   2.698   2.631  0.3717  1.1659 -1.7695
 2175SOL    HW2 6728   0.707   2.709   2.598 -0.0184  0.0695 -0.4585
 2176SOL     OW 6729   0.621   1.962   4.585  0.3531 -0.3817  0.1242
 2176SOL    HW1 6730   0.655   1.989   4.499 -1.5913  0.9481 -0.3062
 2176SOL    HW2 6731   0.689   1.906   4.622  1.1434 -1.2441 -2.4135
 2177SOL     OW 6732   0.486   0.063   1.791 -0.1550 -0.0970  0.0619
 2177SOL    HW1 6733   0.480   0.135   1.729 -0.9457  0.2482  0.5224
 2177SOL    HW2 6734   0.541  -0.002   1.748  0.7003  0.8398 -0.2972
 2178SOL     OW 6735   2.308   1.173   3.401 -0.1270  0.6999  0.0821
 2178SOL    HW1 6736   2.333   1.259   3.434  1.8117  0.8790 -1.6284
 2178SOL    HW2 6737   2.229   1.188   3.350  0.0480  1.4281  0.0149
 2179SOL     OW 6738   1.116   3.517   2.775  0.0911 -0.3688  0.7387
 2179SOL    HW1 6739   1.170   3.580   2.727  0.8842 -2.8986 -2.0074
 2179SOL    HW2 6740   1.026   3.543   2.756  0.3903  0.3282  0.2231
 2180SOL     OW 6741   3.302   2.846   2.852 -0.4286  0.0407  0.2564
 2180SOL    HW1 6742   3.257   2.895   2.783  0.5628 -0.2408 -0.6148
 2180SOL    HW2 6743   3.390   2.884   2.855 -0.0801 -0.7745  0.5142
 2181SOL     OW 6744   4.473   4.785   4.190  0.2348 -0.3254 -0.6580
 2181SOL    HW1 6745   4.434   4.830   4.265  0.1654 -0.9991 -0.2761
 2181SOL    HW2 6746   4.460   4.844   4.116 -0.9042 -0.2425 -0.4068
 2182SOL     OW 6747   1.140   3.006   2.689  0.4157 -0.1798 -0.1719
 2182SOL    HW1 6748   1.150   3.089   2.735  0.5803  0.2909 -1.0434
 2182SOL    HW2 6749   1.170   2.940   2.752  3.4145  0.6790 -0.5704
 2183SOL     OW 6750   1.784   4.248   0.435  0.2326  0.0053  0.3208
 2183SOL    HW1 6751   1.739   4.232   0.352  0.4336 -0.2467  0.2579
 2183SOL    HW2 6752   1.714   4.255   0.500  0.1083 -0.6668  0.2700
 2184SOL     OW 6753   0.623   1.308   4.319 -0.5306 -0.2485 -0.7359
 2184SOL    HW1 6754   0.602   1.244   4.387  0.1744  0.2230 -0.0532
 2184SOL    HW2 6755   0.589   1.391   4.353  2.7672  0.6818  0.7183
 2185SOL     OW 6756   4.685   4.464   2.543 -0.0215  0.2628 -0.3448
 2185SOL    HW1 6757   4.715   4.451   2.633  2.1043  0.8851 -0.9173
 2185SOL    HW2 6758   4.628   4.541   2.547 -0.9350 -0.4325  0.6352
 2186SOL     OW 6759   3.242   2.713   3.191 -0.1522  0.1542 -0.4139
 2186SOL    HW1 6760   3.327   2.676   3.213 -0.8280 -1.0515  0.2658
 2186SOL    HW2 6761   3.260   2.773   3.118  1.3064  0.1308 -0.0954
 2187SOL     OW 6762   3.588   3.027   2.422 -0.3620 -0.4428  0.0908
 2187SOL    HW1 6763   3.642   2.948   2.418 -0.5699 -0.6454  1.0406
 2187SOL    HW2 6764   3.509   3.004   2.373  0.1541 -0.3316 -0.8321
 2188SOL     OW 6765   2.850   2.985   1.924  0.3486 -0.0627  0.1466
 2188SOL    HW1 6766   2.797   3.062   1.902 -0.2933 -0.0953  1.5245
 2188SOL    HW2 6767   2.937   3.021   1.943  0.2179  0.2494  0.1653
 2189SOL     OW 6768   0.926   3.171   0.689  0.1529  0.1844  0.3421
 2189SOL    HW1 6769   0.878   3.245   0.726  0.1557 -0.2378  1.2262
 2189SOL    HW2 6770   0.869   3.096   0.704  0.5964 -0.1492  0.3777
 2190SOL     OW 6771   1.356   0.369   0.688  0.1345  0.9428  0.2849
 2190SOL    HW1 6772   1.403   0.297   0.731  0.0636  0.0988 -1.0007
 2190SOL    HW2 6773   1.266   0.361   0.719 -0.4242 -1.0177 -1.5797
 2191SOL     OW 6774   2.092   4.613   2.597 -0.4939 -0.1223 -0.9951
 2191SOL    HW1 6775   2.150   4.659   2.657 -1.4991 -0.5629  0.3729
 2191SOL    HW2 6776   2.114   4.648   2.511  2.5535 -1.0682 -0.7192
 2192SOL     OW 6777   3.419   3.745   1.073  0.5087  0.1442 -0.5220
 2192SOL    HW1 6778   3.324   3.745   1.086  0.4294 -0.7493 -0.9832
 2192SOL    HW2 6779   3.454   3.754   1.162 -0.0289 -2.1831  0.0119
 2193SOL     OW 6780   4.558   4.133   1.700 -0.0871  0.4944 -0.5332
 2193SOL    HW1 6781   4.637   4.188   1.697 -0.8659  1.6441 -0.8457
 2193SOL    HW2 6782   4.493   4.188   1.744 -0.9780 -0.0760 -1.1112
 2194SOL     OW 6783   4.370   2.143   4.600 -0.0274 -0.1019  0.3894
 2194SOL    HW1 6784   4.318   2.091   4.660  0.1340  0.3773  0.9545
 2194SOL    HW2 6785   4.452   2.160   4.647  0.1393  0.1940  0.0033
 2195SOL     OW 6786   4.699   3.999   3.167 -0.7362 -0.7588  0.2138
 2195SOL    HW1 6787   4.604   4.000   3.176 -0.8144 -0.7251 -0.5609
 2195SOL    HW2 6788   4.731   3.978   3.255 -1.4939 -1.7555  0.2758
 2196SOL     OW 6789   2.700   1.046   1.642  0.4181 -0.1026 -0.0827
 2196SOL    HW1 6790   2.687   0.959   1.679  2.3524 -0.2562  0.3288
 2196SOL    HW2 6791   2.683   1.035   1.548 -0.7147 -0.5810  0.1637
 2197SOL     OW 6792   4.135   1.163   1.106 -0.0558 -0.4328 -0.0309
 2197SOL    HW1 6793   4.053   1.132   1.068  0.0411 -0.9682  0.1862
 2197SOL    HW2 6794   4.125   1.258   1.112  0.4104 -0.1414 -2.5918
 2198SOL     OW 6795   0.818   1.091   3.779  0.0309 -0.4268 -0.2086
 2198SOL    HW1 6796   0.743   1.049   3.819  0.4236 -0.5723  0.3873
 2198SOL    HW2 6797   0.833   1.042   3.698 -0.9763  0.0842 -0.7256
 2199SOL     OW 6798   2.902   2.608   2.905  0.2383  0.0411  0.3318
 2199SOL    HW1 6799   2.876   2.658   2.982  1.1762 -0.5095  1.0386
 2199SOL    HW2 6800   2.998   2.616   2.904  0.2524 -0.2155 -0.6007
 2200SOL     OW 6801   3.915   4.414   1.285  0.2202  0.0467  0.3588
 2200SOL    HW1 6802   3.851   4.484   1.272 -0.2868 -0.5607 -0.5308
 2200SOL    HW2 6803   3.897   4.381   1.373 -0.2827  0.2864  0.3507
 2201SOL     OW 6804   1.242   2.174   1.834 -0.0369 -0.1833 -0.2624
 2201SOL    HW1 6805   1.168   2.123   1.801  1.0824 -1.7758 -0.4445
 2201SOL    HW2 6806   1.219   2.194   1.925 -0.8231 -0.4070 -0.4094
 2202SOL     OW 6807   1.741   4.106   2.725 -0.0760 -0.3077  0.6256
 2202SOL    HW1 6808   1.658   4.154   2.716  0.3848  0.1742 -1.6369
 2202SOL    HW2 6809   1.726   4.046   2.797 -2.4069 -0.2217  0.2898
 2203SOL     OW 6810   0.933   0.895   2.515 -0.1990  0.0227  0.3453
 2203SOL    HW1 6811   0.994   0.875   2.444  0.7852 -1.1112  1.4529
 2203SOL    HW2 6812   0.869   0.955   2.476  1.9253  1.7229 -0.7241
 2204SOL     OW 6813   4.071   2.899   0.467  0.0602 -0.1615  0.1237
 2204SOL    HW1 6814   4.054   2.991   0.445 -0.0116 -0.0399  0.6777
 2204SOL    HW2 6815   4.054   2.893   0.561 -1.4913 -1.1071 -0.1877
 2205SOL     OW 6816   0.834   2.080   1.115 -0.5981  0.5486 -0.0493
 2205SOL    HW1 6817   0.923   2.059   1.088 -0.0236  1.8651  0.7154
 2205SOL    HW2 6818   0.786   1.997   1.108  0.8388 -0.3321  0.1836
 2206SOL     OW 6819   2.843   2.184   0.137 -0.1990 -0.6846  0.4576
 2206SOL    HW1 6820   2.937   2.197   0.122  0.2576 -1.7500  2.0971
 2206SOL    HW2 6821   2.813   2.265   0.178 -0.0034 -0.3226 -0.1143
 2207SOL     OW 6822   4.586   3.669   2.645  0.3213  0.0771  0.0357
 2207SOL    HW1 6823   4.680   3.669   2.629  0.2732 -0.4206 -0.2758
 2207SOL    HW2 6824   4.558   3.580   2.624 -0.3569  0.4511 -0.6830
 2208SOL     OW 6825   0.406   3.993   3.652  0.2396  0.4080  0.0621
 2208SOL    HW1 6826   0.467   3.948   3.594  1.7335  0.7515  1.3304
 2208SOL    HW2 6827   0.411   4.085   3.625 -0.9613  0.2208 -0.8906
 2209SOL     OW 6828   2.424   4.713   1.855 -0.3115 -0.8098  0.1174
 2209SOL    HW1 6829   2.493   4.649   1.839  0.9604  0.3928  0.5907
 2209SOL    HW2 6830   2.402   4.748   1.768  0.3412 -0.5606  0.0428
 2210SOL     OW 6831   0.275   1.921   2.676 -1.0647 -0.3049 -0.0668
 2210SOL    HW1 6832   0.236   1.994   2.724 -0.2609  0.2574 -0.2509
 2210SOL    HW2 6833   0.229   1.921   2.592 -0.2948  0.7311 -0.5144
 2211SOL     OW 6834   4.300   0.173   0.548 -0.0463  0.7568 -0.8128
 2211SOL    HW1 6835   4.365   0.102   0.539  1.1524  1.5166  1.2371
 2211SOL    HW2 6836   4.245   0.164   0.470  0.4887 -1.9759 -0.9964
 2212SOL     OW 6837   1.791   2.828   3.387 -0.1841 -0.1740  0.5338
 2212SOL    HW1 6838   1.835   2.750   3.424 -2.0813 -0.9218  1.3237
 2212SOL    HW2 6839   1.709   2.794   3.351 -1.9543  1.6932  2.5703
 2213SOL     OW 6840   2.573   4.821   4.588 -0.7523 -0.0276 -0.3516
 2213SOL    HW1 6841   2.511   4.849   4.521  0.1466  0.0928 -1.1489
 2213SOL    HW2 6842   2.659   4.826   4.546 -0.1027  0.6090  0.9726
 2214SOL     OW 6843   4.144   4.770   4.301 -0.3048 -0.2052  0.0278
 2214SOL    HW1 6844   4.164   4.763   4.208 -1.6442 -0.0215 -0.2960
 2214SOL    HW2 6845   4.131   4.680   4.330  3.1349 -0.5727  0.8050
 2215SOL     OW 6846   0.697   3.085   2.254  0.1187 -0.1472 -0.2093
 2215SOL    HW1 6847   0.748   3.120   2.327  1.8575 -1.0940 -0.9245
 2215SOL    HW2 6848   0.607   3.114   2.272  0.7009  0.6579  1.6536
 2216SOL     OW 6849   0.590   1.282   4.744 -0.1421  0.3659 -0.3455
 2216SOL    HW1 6850   0.540   1.303   4.822  0.1502 -0.3839  0.0563
 2216SOL    HW2 6851   0.542   1.211   4.703  0.1600  0.1802 -0.3844
 2217SOL     OW 6852   2.755   2.817   3.437 -0.0855  0.2675 -0.2716
 2217SOL    HW1 6853   2.726   2.729   3.412  2.2939 -0.5851 -0.2860
 2217SOL    HW2 6854   2.692   2.876   3.395 -1.1209 -1.3931 -1.1420
 2218SOL     OW 6855   0.458   0.393   3.763  0.1275  0.6543  0.0209
 2218SOL    HW1 6856   0.485   0.470   3.713  0.9339 -0.1459 -0.8109
 2218SOL    HW2 6857   0.504   0.401   3.846  0.8898  0.6428 -0.3903
 2219SOL     OW 6858   2.807   3.118   2.707  0.1524  0.3590 -0.4366
 2219SOL    HW1 6859   2.808   3.023   2.720 -1.2281  0.4676  0.7154
 2219SOL    HW2 6860   2.793   3.154   2.794  0.7894  1.6490 -0.8390
 2220SOL     OW 6861   1.011   2.409   0.879 -0.0649  1.1873 -0.1624
 2220SOL    HW1 6862   0.966   2.443   0.802 -1.4934  0.1438  0.1678
 2220SOL    HW2 6863   1.055   2.330   0.848 -1.4775  0.1971  0.2683
 2221SOL     OW 6864   1.257   1.394   3.622  0.1708  0.1635 -0.5696
 2221SOL    HW1 6865   1.311   1.461   3.580  0.0587  0.0581 -0.8856
 2221SOL    HW2 6866   1.207   1.441   3.689  3.1343 -0.2272  2.1496
 2222SOL     OW 6867   0.168   4.292   1.058  1.0024 -0.3566 -0.2458
 2222SOL    HW1 6868   0.230   4.365   1.059  0.2946  0.2663  0.0055
 2222SOL    HW2 6869   0.191   4.238   1.133  0.7067  0.3487  0.3670
 2223SOL     OW 6870   1.818   3.565   2.941 -0.3855  0.2028 -0.0345
 2223SOL    HW1 6871   1.817   3.623   3.017  1.6605  1.1648 -0.6511
 2223SOL    HW2 6872   1.807   3.477   2.977 -2.4469  0.8376  1.0373
 2224SOL     OW 6873   1.749   3.650   0.942 -0.2001  0.2211  0.4452
 2224SOL    HW1 6874   1.751   3.737   0.980 -0.8834  0.7917 -0.7926
 2224SOL    HW2 6875   1.828   3.646   0.887 -1.3307  0.9138 -1.2875
 2225SOL     OW 6876   2.494   0.380   3.770  0.2684  0.4914 -0.4039
 2225SOL    HW1 6877   2.544   0.383   3.688 -0.4813  3.3978 -0.8843
 2225SOL    HW2 6878   2.419   0.323   3.751  2.1319 -2.1539 -0.3529
 2226SOL     OW 6879   0.835   0.458   4.277 -0.2759 -0.2626 -0.2387
 2226SOL    HW1 6880   0.837   0.483   4.185 -0.0570 -1.3935 -0.5599
 2226SOL    HW2 6881   0.873   0.532   4.324  2.7641 -0.9797 -1.3650
 2227SOL     OW 6882   3.082   2.939   0.178 -0.1410  0.1139 -0.8271
 2227SOL    HW1 6883   3.127   2.861   0.211 -0.0390  0.4508 -0.1420
 2227SOL    HW2 6884   3.152   3.004   0.168 -0.4486  0.6234  0.1947
 2228SOL     OW 6885   2.244   2.194   4.791  0.3197  0.1735  0.3210
 2228SOL    HW1 6886   2.271   2.239   4.711  0.1228 -1.0592 -0.4665
 2228SOL    HW2 6887   2.314   2.212   4.854  0.6908  0.7971 -0.2613
 2229SOL     OW 6888   2.792   0.403   3.104  0.0404 -0.1960  0.0425
 2229SOL    HW1 6889   2.711   0.390   3.054  1.1296 -2.2556 -1.3215
 2229SOL    HW2 6890   2.858   0.424   3.038  0.7189  1.2037  1.1085
 2230SOL     OW 6891   4.340   0.001   3.017  0.7025  0.0709 -0.1536
 2230SOL    HW1 6892   4.402  -0.060   2.978 -0.4060 -1.2753  0.0775
 2230SOL    HW2 6893   4.365   0.087   2.983  1.0944 -0.7704 -2.1039
 2231SOL     OW 6894   4.574   2.558   0.680  0.2658  0.1671  0.4410
 2231SOL    HW1 6895   4.479   2.567   0.690  0.2355 -1.7707  2.9769
 2231SOL    HW2 6896   4.606   2.648   0.671 -1.7607  0.8817 -0.1765
 2232SOL     OW 6897   2.054   0.966   2.178  0.4377  0.0828 -0.2610
 2232SOL    HW1 6898   2.108   1.005   2.110 -0.2490  0.3367 -0.6636
 2232SOL    HW2 6899   1.966   0.962   2.141 -0.2227  1.3956  1.0621
 2233SOL     OW 6900   3.975   2.950   3.390  0.2458 -0.2252  0.1700
 2233SOL    HW1 6901   3.922   2.892   3.445  2.4164 -1.3716  1.1676
 2233SOL    HW2 6902   3.969   3.036   3.434  0.5542 -0.7287  1.2277
 2234SOL     OW 6903   2.209   1.227   2.877  0.7043  0.4773  0.2209
 2234SOL    HW1 6904   2.138   1.289   2.861 -0.1063 -0.7920 -1.5022
 2234SOL    HW2 6905   2.166   1.142   2.880  2.0025 -0.1977  0.5842
 2235SOL     OW 6906   2.671   2.333   1.190  0.2937  0.2940  0.4596
 2235SOL    HW1 6907   2.587   2.307   1.229  0.3474  0.5205  0.7259
 2235SOL    HW2 6908   2.706   2.399   1.249  0.5936  0.3074  0.2704
 2236SOL     OW 6909   0.922   2.859   2.382  0.1884  0.3081 -0.1430
 2236SOL    HW1 6910   0.863   2.825   2.315 -0.2433 -0.1475  0.4601
 2236SOL    HW2 6911   0.917   2.796   2.453  0.6986  0.7477  0.2957
 2237SOL     OW 6912   1.058   1.155   1.494 -0.3894  0.2046 -0.1038
 2237SOL    HW1 6913   1.122   1.203   1.440  0.6705  0.1691  1.0777
 2237SOL    HW2 6914   1.027   1.085   1.437  1.1381 -0.1864 -0.5015
 2238SOL     OW 6915   0.307   4.223   0.611  0.1670  0.7602  0.0924
 2238SOL    HW1 6916   0.400   4.224   0.635  0.0906 -2.2193  0.8616
 2238SOL    HW2 6917   0.260   4.238   0.694 -0.0224 -1.1374  0.3618
 2239SOL     OW 6918   1.193   4.054   4.308  0.3111  0.0877 -0.1711
 2239SOL    HW1 6919   1.245   4.068   4.228  1.5943  0.0142  0.6188
 2239SOL    HW2 6920   1.248   4.089   4.378 -0.1771 -1.1474  0.8540
 2240SOL     OW 6921   3.565   3.799   3.452 -0.1191 -0.2392  0.2949
 2240SOL    HW1 6922   3.548   3.785   3.545 -0.4136 -0.1584  0.2553
 2240SOL    HW2 6923   3.627   3.730   3.428  0.2726 -0.0125  0.6427
 2241SOL     OW 6924   0.431   2.677   0.587  0.1365  0.5367  0.0550
 2241SOL    HW1 6925   0.388   2.624   0.519  0.6797  1.1819 -0.8180
 2241SOL    HW2 6926   0.361   2.699   0.648 -0.6211  0.8888 -0.9118
 2242SOL     OW 6927   3.484   3.263   2.929  0.2603  0.0589  0.1861
 2242SOL    HW1 6928   3.436   3.185   2.956  2.2185 -1.4006 -0.2878
 2242SOL    HW2 6929   3.574   3.248   2.960  0.6904  2.1777  0.1387
 2243SOL     OW 6930   3.502   4.263   3.567 -0.2967 -0.4465 -0.2166
 2243SOL    HW1 6931   3.417   4.303   3.547 -0.0350 -0.0793 -0.6236
 2243SOL    HW2 6932   3.565   4.333   3.549  0.2102 -1.1584 -1.3277
 2244SOL     OW 6933   1.822   4.334   0.087 -0.3102  0.0681 -0.4150
 2244SOL    HW1 6934   1.895   4.295   0.135  1.0129  1.6636 -1.0353
 2244SOL    HW2 6935   1.823   4.290   0.002 -0.0839  0.0747 -0.4161
 2245SOL     OW 6936   0.580   0.216   1.544 -0.4165  0.1623  0.3559
 2245SOL    HW1 6937   0.630   0.280   1.492 -0.5916  0.6047  0.7319
 2245SOL    HW2 6938   0.647   0.167   1.591 -0.2847  0.1207  0.1278
 2246SOL     OW 6939   3.776   1.514   0.478 -0.4898 -0.6156 -0.5027
 2246SOL    HW1 6940   3.860   1.491   0.518  0.2351 -1.1654 -2.2610
 2246SOL    HW2 6941   3.716   1.445   0.506  0.0124 -1.0103 -0.3958
 2247SOL     OW 6942   1.607   1.020   0.567  0.2481 -0.2595 -0.3893
 2247SOL    HW1 6943   1.561   0.936   0.566 -0.4666  0.1139 -0.0636
 2247SOL    HW2 6944   1.699   0.998   0.566  0.0625 -1.0524 -0.1903
 2248SOL     OW 6945   3.031   3.506   0.821 -0.2406  0.3672 -0.2102
 2248SOL    HW1 6946   2.999   3.569   0.757 -1.0401 -0.2266 -0.4128
 2248SOL    HW2 6947   2.954   3.482   0.872 -0.0651 -0.8257 -0.4682
 2249SOL     OW 6948   1.504   0.500   1.443  0.0616 -0.1223 -0.0830
 2249SOL    HW1 6949   1.548   0.536   1.365 -0.2838  1.3014  0.3564
 2249SOL    HW2 6950   1.411   0.512   1.426 -0.0227  0.0419  0.4730
 2250SOL     OW 6951   4.243   3.662   3.021  0.1276  0.0607  0.5816
 2250SOL    HW1 6952   4.263   3.712   2.942  3.4274 -0.8774  0.6569
 2250SOL    HW2 6953   4.321   3.672   3.076 -1.1953 -1.0583  2.8002
 2251SOL     OW 6954   3.686   3.003   1.365  0.0060  0.3834 -0.2716
 2251SOL    HW1 6955   3.769   3.044   1.388 -0.3511  1.0570 -0.1414
 2251SOL    HW2 6956   3.700   2.967   1.277  0.2232  1.1058 -0.5418
 2252SOL     OW 6957   2.671   1.136   1.106 -0.3674  0.5310  0.0044
 2252SOL    HW1 6958   2.666   1.223   1.065 -2.3000  0.1206 -0.7432
 2252SOL    HW2 6959   2.760   1.107   1.089  0.1946  2.2035 -0.0763
 2253SOL     OW 6960   4.217   3.222   3.612  0.1229  0.1298 -0.3636
 2253SOL    HW1 6961   4.220   3.275   3.533  0.4047  1.3144  0.4114
 2253SOL    HW2 6962   4.259   3.277   3.679  2.4175 -1.9205  0.0118
 2254SOL     OW 6963   3.198   3.658   4.275  0.3202  0.3102 -0.0824
 2254SOL    HW1 6964   3.192   3.727   4.341 -1.1400  0.4952 -0.3707
 2254SOL    HW2 6965   3.288   3.625   4.283  0.7397  1.5605  0.7345
 2255SOL     OW 6966   2.140   2.910   3.497  0.1134  0.3954 -0.3048
 2255SOL    HW1 6967   2.166   2.821   3.477 -1.0006 -0.3256  1.2161
 2255SOL    HW2 6968   2.221   2.961   3.492  1.1439 -1.0665  0.6634
 2256SOL     OW 6969   0.453   4.457   0.174 -0.4984 -0.4271  0.1141
 2256SOL    HW1 6970   0.479   4.452   0.266  2.2900  0.2476 -0.5436
 2256SOL    HW2 6971   0.536   4.463   0.126 -1.6305 -4.0727 -2.7195
 2257SOL     OW 6972   0.290   2.086   1.097 -0.1505 -0.2291 -0.4083
 2257SOL    HW1 6973   0.205   2.053   1.068  0.1071 -1.0651 -0.2435
 2257SOL    HW2 6974   0.271   2.140   1.174 -0.4856 -0.7690 -0.1106
 2258SOL     OW 6975   4.754   3.751   1.142 -0.4455 -0.0173  0.2018
 2258SOL    HW1 6976   4.751   3.781   1.232 -0.9550 -0.1566  0.2344
 2258SOL    HW2 6977   4.818   3.808   1.099  1.3992 -1.2925  1.1383
 2259SOL     OW 6978   3.181   1.227   3.361 -0.0006  0.5625  0.3909
 2259SOL    HW1 6979   3.196   1.321   3.375  0.5735  0.6090 -0.4104
 2259SOL    HW2 6980   3.212   1.212   3.272  1.8159 -0.7801  1.1928
 2260SOL     OW 6981   4.069   3.469   2.293  0.2154  0.4022  0.0491
 2260SOL    HW1 6982   4.035   3.473   2.204 -1.2193  1.6825  0.6022
 2260SOL    HW2 6983   4.159   3.501   2.286  1.2598 -2.4867 -1.3670
 2261SOL     OW 6984   1.378   2.306   3.166 -0.6003  0.0491 -0.0025
 2261SOL    HW1 6985   1.336   2.363   3.230 -1.5838  1.4524 -1.7963
 2261SOL    HW2 6986   1.325   2.227   3.164 -0.1467 -0.3165  1.3732
 2262SOL     OW 6987   2.653   1.323   0.046 -0.3123 -0.5365  0.3358
 2262SOL    HW1 6988   2.580   1.280   0.091  0.3488 -0.4237  1.5626
 2262SOL    HW2 6989   2.722   1.327   0.112  0.6727 -0.2944 -0.6854
 2263SOL     OW 6990   3.581   2.295   4.465  0.2638  0.5590  0.0806
 2263SOL    HW1 6991   3.597   2.218   4.521 -0.5409  1.3302  1.4324
 2263SOL    HW2 6992   3.485   2.304   4.464  0.3236  1.1947 -0.5614
 2264SOL     OW 6993   0.076   2.701   3.367  0.0654 -0.3743 -0.0478
 2264SOL    HW1 6994   0.013   2.646   3.320 -1.8467  1.4359  0.2283
 2264SOL    HW2 6995   0.101   2.767   3.302  0.6967 -0.3375  0.2353
 2265SOL     OW 6996   2.893   4.691   2.760  0.3510  0.8083 -0.0084
 2265SOL    HW1 6997   2.817   4.638   2.736  2.9682 -2.8906 -1.1160
 2265SOL    HW2 6998   2.913   4.664   2.850 -0.4241  2.8888  0.8353
 2266SOL     OW 6999   4.417   2.530   0.384  0.6988  0.5083 -0.2952
 2266SOL    HW1 7000   4.345   2.582   0.350  1.3158  1.0180 -0.8462
 2266SOL    HW2 7001   4.423   2.554   0.477 -0.3042 -0.0943 -0.0667
 2267SOL     OW 7002   4.050   3.188   4.772 -0.2586 -0.2804 -0.1136
 2267SOL    HW1 7003   4.042   3.218   4.863 -0.1972  0.9686 -0.4928
 2267SOL    HW2 7004   3.996   3.110   4.767  1.4709 -1.6642  1.5386
 2268SOL     OW 7005   0.918   0.938   2.773  0.4346 -0.4000  0.4332
 2268SOL    HW1 7006   0.845   0.893   2.814  0.0894  1.3571  1.8537
 2268SOL    HW2 7007   0.916   0.910   2.682 -2.5321  0.2298  0.2280
 2269SOL     OW 7008   4.439   3.925   1.846  0.3571 -0.2560  0.4564
 2269SOL    HW1 7009   4.493   3.992   1.804  0.5384 -0.4971  0.2991
 2269SOL    HW2 7010   4.389   3.972   1.913  0.8912 -0.0618  0.7242
 2270SOL     OW 7011   3.847   2.893   2.518 -0.4675  0.5440  0.4402
 2270SOL    HW1 7012   3.930   2.900   2.565 -0.8703 -1.6270  1.5880
 2270SOL    HW2 7013   3.782   2.932   2.576 -0.1286  3.7228 -1.1305
 2271SOL     OW 7014   3.275   0.925   1.698  0.1999 -0.1453  0.3278
 2271SOL    HW1 7015   3.317   0.999   1.742 -0.0877 -1.0734  2.2518
 2271SOL    HW2 7016   3.293   0.850   1.754  0.2993 -1.5241 -1.4658
 2272SOL     OW 7017   0.035   0.774   2.551  0.1458  0.0773 -0.1322
 2272SOL    HW1 7018   0.122   0.805   2.574  0.7571 -1.8972  0.3833
 2272SOL    HW2 7019  -0.016   0.783   2.632 -0.1295  1.0917 -0.3948
 2273SOL     OW 7020   4.696   0.189   1.215 -0.0606 -0.4413  0.1145
 2273SOL    HW1 7021   4.629   0.257   1.215  1.4483  1.1430 -1.2107
 2273SOL    HW2 7022   4.660   0.121   1.158 -1.0095 -0.1307  0.3200
 2274SOL     OW 7023   3.449   4.226   4.749  0.0064  0.5601  0.2897
 2274SOL    HW1 7024   3.525   4.215   4.691 -0.7411 -0.1802 -0.5806
 2274SOL    HW2 7025   3.392   4.287   4.703  0.0826  1.1722  0.9769
 2275SOL     OW 7026   0.976   0.700   1.285  0.5227 -0.2850 -0.8236
 2275SOL    HW1 7027   0.900   0.651   1.255  1.8929 -2.6276 -0.6693
 2275SOL    HW2 7028   1.026   0.719   1.206  1.3698 -1.6194 -0.6361
 2276SOL     OW 7029   3.012   0.909   1.637  0.0135 -0.2319 -0.1067
 2276SOL    HW1 7030   3.107   0.897   1.642 -0.0295 -0.9471 -0.7090
 2276SOL    HW2 7031   2.981   0.893   1.726  0.2605 -2.1606 -0.3190
 2277SOL     OW 7032   3.371   3.030   3.085  0.6256 -0.9565 -0.3477
 2277SOL    HW1 7033   3.378   2.975   3.007  1.1335  0.9761 -1.7510
 2277SOL    HW2 7034   3.279   3.055   3.088  0.5476 -1.2630 -0.1504
 2278SOL     OW 7035   3.530   2.001   0.652 -0.2171  0.1099 -0.8191
 2278SOL    HW1 7036   3.448   1.953   0.643 -0.5129  0.5593 -0.5538
 2278SOL    HW2 7037   3.550   1.996   0.746 -0.0785  0.2315 -0.8423
 2279SOL     OW 7038   4.283   0.945   1.581  0.0657  0.0158 -0.1685
 2279SOL    HW1 7039   4.316   0.966   1.494  1.1245  1.3473  0.4918
 2279SOL    HW2 7040   4.230   0.867   1.570  1.7376 -0.9639 -1.6923
 2280SOL     OW 7041   1.759   2.547   3.811 -0.3528  0.2159  0.3424
 2280SOL    HW1 7042   1.784   2.639   3.803 -0.9360  0.3692  0.2360
 2280SOL    HW2 7043   1.684   2.537   3.752 -1.1050 -0.0173  1.3249
 2281SOL     OW 7044   3.900   2.330   4.350 -1.0311 -0.0022  0.7063
 2281SOL    HW1 7045   3.946   2.355   4.430 -1.4880  0.6566  0.7679
 2281SOL    HW2 7046   3.891   2.234   4.357  1.5086 -0.3510  0.0342
 2282SOL     OW 7047   1.682   1.255   0.113  0.0129 -0.1767  0.1611
 2282SOL    HW1 7048   1.761   1.279   0.161 -0.2465  0.4839  0.2660
 2282SOL    HW2 7049   1.615   1.317   0.143 -1.0294 -1.7669  1.3693
 2283SOL     OW 7050   1.601   1.683   2.484  0.5196  0.2244  0.8637
 2283SOL    HW1 7051   1.578   1.735   2.561  0.9070  0.8346  0.5747
 2283SOL    HW2 7052   1.642   1.745   2.424 -0.8216  0.0070 -0.3282
 2284SOL     OW 7053   0.771   2.943   0.789  0.1268 -0.0516  0.2832
 2284SOL    HW1 7054   0.806   2.919   0.874 -0.1274  0.2293  0.4689
 2284SOL    HW2 7055   0.807   2.878   0.729  1.4785  0.5934  0.3600
 2285SOL     OW 7056   1.225   2.908   0.324  0.3269 -0.2109  0.7234
 2285SOL    HW1 7057   1.174   2.950   0.255 -0.8284 -2.1096  0.3515
 2285SOL    HW2 7058   1.175   2.924   0.404 -0.1438 -0.8483  0.5726
 2286SOL     OW 7059   4.704   4.462   0.159 -0.3237 -0.7272 -0.2691
 2286SOL    HW1 7060   4.764   4.439   0.088 -0.0466  0.6532 -0.5262
 2286SOL    HW2 7061   4.756   4.518   0.217 -0.7898 -1.1644  0.5885
 2287SOL     OW 7062   1.877   2.703   4.049 -0.0291  0.2266 -0.3629
 2287SOL    HW1 7063   1.911   2.615   4.062 -0.5351  0.0898  0.0461
 2287SOL    HW2 7064   1.875   2.742   4.137 -2.5604 -0.3758 -0.0774
 2288SOL     OW 7065   4.123   0.139   3.815 -1.0119  0.3932 -0.6016
 2288SOL    HW1 7066   4.127   0.108   3.724 -2.7272 -0.1272 -0.5364
 2288SOL    HW2 7067   4.092   0.230   3.808  4.3463  2.5641 -0.8184
 2289SOL     OW 7068   2.623   4.290   3.545  0.0788  0.4090 -0.2239
 2289SOL    HW1 7069   2.651   4.255   3.630  0.8162  1.0225 -0.2063
 2289SOL    HW2 7070   2.702   4.292   3.492 -0.4006 -0.0544 -0.9678
 2290SOL     OW 7071   4.502   4.204   2.562 -0.4243  0.0342 -0.1801
 2290SOL    HW1 7072   4.419   4.159   2.577 -0.1084 -1.5169 -2.5869
 2290SOL    HW2 7073   4.477   4.287   2.523 -0.9111  1.1059  2.2115
 2291SOL     OW 7074   3.384   1.274   3.792 -0.1359  0.0243 -0.4311
 2291SOL    HW1 7075   3.415   1.221   3.865  0.3577  2.1905  1.0105
 2291SOL    HW2 7076   3.290   1.260   3.791 -0.1347 -0.1106  0.5449
 2292SOL     OW 7077   0.965   2.705   1.589 -0.0102 -0.0941 -0.4510
 2292SOL    HW1 7078   1.017   2.775   1.550  0.5225 -0.8731 -1.1775
 2292SOL    HW2 7079   0.907   2.749   1.651  0.7201  0.9138 -0.4726
 2293SOL     OW 7080   3.267   2.207   0.728  0.8541  0.1587  0.2968
 2293SOL    HW1 7081   3.186   2.182   0.684  0.9471 -0.2561  0.3553
 2293SOL    HW2 7082   3.336   2.181   0.667  1.1575 -3.0619  1.8216
 2294SOL     OW 7083   0.859   2.851   1.776 -0.4656  0.0739 -0.2580
 2294SOL    HW1 7084   0.942   2.892   1.799 -0.5829 -0.5171  1.4265
 2294SOL    HW2 7085   0.794   2.901   1.825 -0.7885 -1.0047  0.4628
 2295SOL     OW 7086   1.508   2.145   4.281 -0.3730  0.6336 -0.3774
 2295SOL    HW1 7087   1.541   2.155   4.192  0.6799  2.2783  0.1621
 2295SOL    HW2 7088   1.418   2.177   4.277  0.2557  2.4907 -0.4976
 2296SOL     OW 7089   2.236   1.534   1.079 -0.8624 -0.2404  0.0358
 2296SOL    HW1 7090   2.219   1.448   1.041  1.0310 -0.1091 -1.2822
 2296SOL    HW2 7091   2.173   1.542   1.151 -0.8638 -2.8573  0.4243
 2297SOL     OW 7092   2.209   1.452   3.299  0.5213 -0.3086  0.0695
 2297SOL    HW1 7093   2.187   1.535   3.342  0.1309 -0.9717  1.2155
 2297SOL    HW2 7094   2.236   1.476   3.211 -0.3018  0.9617  0.1500
 2298SOL     OW 7095   2.445   0.223   1.400  0.3272 -0.4937 -0.2492
 2298SOL    HW1 7096   2.408   0.259   1.481  0.2209  1.3188 -1.0577
 2298SOL    HW2 7097   2.507   0.289   1.371  1.0061 -1.5280 -1.2089
 2299SOL     OW 7098   3.135   2.437   2.375  0.1928  0.2366 -0.2863
 2299SOL    HW1 7099   3.062   2.456   2.317 -0.2125  1.4357  0.5709
 2299SOL    HW2 7100   3.112   2.354   2.417  0.5664 -0.7313 -1.8971
 2300SOL     OW 7101   3.043   3.264   2.728  0.1198 -0.5457 -0.0283
 2300SOL    HW1 7102   2.956   3.239   2.699 -0.4657  0.3440  0.8912
 2300SOL    HW2 7103   3.029   3.310   2.811  1.5167 -0.9170  0.4463
 2301SOL     OW 7104   1.536   2.256   2.923  0.1858  0.3574 -0.8948
 2301SOL    HW1 7105   1.471   2.301   2.976 -0.2170 -0.1203 -0.9788
 2301SOL    HW2 7106   1.532   2.165   2.951  0.7411  0.3000 -0.9816
 2302SOL     OW 7107   0.823   4.774   4.437 -0.7789  0.6739 -0.2738
 2302SOL    HW1 7108   0.865   4.854   4.404 -0.3429  1.2404  1.5615
 2302SOL    HW2 7109   0.861   4.761   4.523 -0.0761 -2.1216 -0.9148
 2303SOL     OW 7110   4.111   2.187   0.628 -0.0571 -0.8604  0.9400
 2303SOL    HW1 7111   4.032   2.229   0.663  0.9267 -0.3761  2.6786
 2303SOL    HW2 7112   4.183   2.225   0.678  1.5681  0.3177 -2.0433
 2304SOL     OW 7113   2.326   0.865   3.789  1.0278  0.4270 -0.6129
 2304SOL    HW1 7114   2.354   0.782   3.750 -0.4182  0.0980 -1.0074
 2304SOL    HW2 7115   2.405   0.900   3.830  1.7936 -0.8733 -0.9205
 2305SOL     OW 7116   2.467   0.205   4.158 -0.1762 -0.1239 -0.1968
 2305SOL    HW1 7117   2.372   0.209   4.147 -0.1703  0.6337 -0.0333
 2305SOL    HW2 7118   2.490   0.289   4.199  0.6160 -0.1172 -0.6351
 2306SOL     OW 7119   1.649   3.369   0.421  0.3211 -0.7212 -0.0071
 2306SOL    HW1 7120   1.630   3.368   0.327  0.9960  1.0530 -0.1888
 2306SOL    HW2 7121   1.702   3.447   0.434 -0.2348 -0.6310  1.9550
 2307SOL     OW 7122   2.235   3.550   4.340 -0.0259  0.1812 -0.3075
 2307SOL    HW1 7123   2.209   3.605   4.267  1.1650  1.5995  0.2611
 2307SOL    HW2 7124   2.280   3.475   4.300  0.2695  0.7432 -1.0418
 2308SOL     OW 7125   1.814   3.595   0.447  0.0071  0.0354  0.2484
 2308SOL    HW1 7126   1.907   3.582   0.432  0.0047  1.9565 -2.0327
 2308SOL    HW2 7127   1.809   3.681   0.491 -0.7416  1.3724 -2.2730
 2309SOL     OW 7128   2.692   1.447   2.916 -0.1084  0.0800  0.2433
 2309SOL    HW1 7129   2.693   1.487   3.003 -1.9667 -0.5843  0.6152
 2309SOL    HW2 7130   2.634   1.503   2.865 -0.9812 -0.8619  0.1548
 2310SOL     OW 7131   4.110   2.546   1.568 -0.0641 -0.1478 -0.7938
 2310SOL    HW1 7132   4.153   2.628   1.545 -0.9196  0.3518 -0.6915
 2310SOL    HW2 7133   4.117   2.492   1.489  1.0970 -0.2408 -0.6342
 2311SOL     OW 7134   0.280   1.757   3.272 -0.4735 -0.0252  0.4180
 2311SOL    HW1 7135   0.285   1.695   3.344  1.8381 -0.8066 -0.3468
 2311SOL    HW2 7136   0.371   1.781   3.254 -1.2085  3.1202  0.2483
 2312SOL     OW 7137   1.545   1.390   2.135 -0.0503  0.7768  0.0008
 2312SOL    HW1 7138   1.534   1.485   2.135  1.5587  0.9804 -0.1766
 2312SOL    HW2 7139   1.585   1.370   2.050 -1.8721 -0.2886 -0.6832
 2313SOL     OW 7140   3.101   4.444   0.234  0.1536  0.4526 -0.0386
 2313SOL    HW1 7141   3.059   4.518   0.191 -0.6071  1.4754  2.2570
 2313SOL    HW2 7142   3.042   4.422   0.306  2.5308  0.6953  2.1617
 2314SOL     OW 7143   4.537   1.180   0.757  0.4312 -0.3739  1.2041
 2314SOL    HW1 7144   4.582   1.262   0.778 -0.6102  0.9247 -1.1702
 2314SOL    HW2 7145   4.464   1.177   0.819 -0.9539  1.8741 -0.1521
 2315SOL     OW 7146   1.814   1.901   3.690 -0.6389 -0.1633 -0.3937
 2315SOL    HW1 7147   1.857   1.890   3.775 -1.8734  0.3678  0.3222
 2315SOL    HW2 7148   1.762   1.822   3.678 -1.3836  0.2721 -0.0950
 2316SOL     OW 7149   0.442   1.135   2.770 -0.6207 -0.2855 -0.2045
 2316SOL    HW1 7150   0.517   1.139   2.711  0.6827 -2.2513  1.2057
 2316SOL    HW2 7151   0.431   1.224   2.802  0.6018  0.1844 -1.0402
 2317SOL     OW 7152   1.128   2.171   0.812 -0.1464 -0.5723 -0.9931
 2317SOL    HW1 7153   1.151   2.079   0.803  0.8209 -0.5258  0.6790
 2317SOL    HW2 7154   1.209   2.218   0.792  0.7580 -0.3150  2.6514
 2318SOL     OW 7155   3.078   2.235   0.376  0.1237  0.0859 -0.4426
 2318SOL    HW1 7156   3.166   2.207   0.399 -0.0324  0.2841  0.4325
 2318SOL    HW2 7157   3.085   2.330   0.364 -0.4207  0.4951  2.0149
 2319SOL     OW 7158   0.914   4.103   4.187  0.2760 -0.1257 -0.3604
 2319SOL    HW1 7159   0.845   4.042   4.213  0.3952 -0.8978 -1.7283
 2319SOL    HW2 7160   0.955   4.129   4.269 -0.7870 -0.6730  0.3801
 2320SOL     OW 7161   2.957   0.430   2.863 -0.4008  0.6344  0.1432
 2320SOL    HW1 7162   2.949   0.390   2.777 -0.3031 -0.9625  0.8431
 2320SOL    HW2 7163   3.035   0.391   2.901 -1.0545  0.4662  1.3675
 2321SOL     OW 7164   4.356   2.952   2.229 -0.0543 -0.1795  0.0813
 2321SOL    HW1 7165   4.296   2.894   2.276 -1.4540  1.1715  0.0572
 2321SOL    HW2 7166   4.377   3.021   2.292  0.6751 -0.1015 -0.2408
 2322SOL     OW 7167   0.677   1.062   0.542  0.3518 -0.0448  0.2213
 2322SOL    HW1 7168   0.627   0.983   0.561  0.7043 -0.0778  1.0773
 2322SOL    HW2 7169   0.711   1.049   0.454  1.3613 -1.3856  0.7631
 2323SOL     OW 7170   4.727   0.940   0.362  0.5454 -0.2037  0.0634
 2323SOL    HW1 7171   4.647   0.890   0.346  1.5071 -1.7295 -0.1188
 2323SOL    HW2 7172   4.759   0.962   0.274  1.4266 -1.4146  0.0685
 2324SOL     OW 7173   0.231   4.623   1.447 -0.9337 -0.1296 -0.1321
 2324SOL    HW1 7174   0.325   4.631   1.464 -1.5315 -0.5931  4.8233
 2324SOL    HW2 7175   0.197   4.711   1.463 -1.5749 -0.5525  0.9487
 2325SOL     OW 7176   2.442   1.336   3.582  0.1276 -0.1224 -0.0044
 2325SOL    HW1 7177   2.528   1.344   3.623  1.2061 -2.4468 -1.6068
 2325SOL    HW2 7178   2.411   1.250   3.608 -1.8722  0.7333  0.6874
 2326SOL     OW 7179   4.621   1.189   3.550  0.7831 -0.2102 -0.1986
 2326SOL    HW1 7180   4.638   1.115   3.492 -1.5818 -0.3304 -0.8365
 2326SOL    HW2 7181   4.583   1.256   3.494 -0.2024  0.2271  0.9366
 2327SOL     OW 7182   1.961   1.489   4.057 -0.1428 -0.0435  0.0323
 2327SOL    HW1 7183   1.958   1.407   4.009  1.6892  0.8382 -1.7590
 2327SOL    HW2 7184   1.933   1.555   3.994 -1.0835  0.8000  1.2820
 2328SOL     OW 7185   1.416   2.664   0.821 -0.0172  0.3586  0.6389
 2328SOL    HW1 7186   1.433   2.590   0.880  0.0391 -1.5178 -1.6026
 2328SOL    HW2 7187   1.495   2.718   0.829  0.2126 -0.1081  1.8630
 2329SOL     OW 7188   0.744   4.715   3.874 -0.4131  0.0502 -0.2702
 2329SOL    HW1 7189   0.770   4.731   3.783 -1.4537  0.4681 -0.5105
 2329SOL    HW2 7190   0.714   4.800   3.906  2.7011  0.6671  1.4615
 2330SOL     OW 7191   3.798   0.420   4.706 -0.5650 -0.0717 -0.2992
 2330SOL    HW1 7192   3.733   0.353   4.685 -1.8524  0.4354  1.7645
 2330SOL    HW2 7193   3.754   0.503   4.689  0.0921  0.2794 -0.3213
 2331SOL     OW 7194   3.708   0.517   1.924  0.0939 -0.1786 -0.1143
 2331SOL    HW1 7195   3.646   0.523   1.851  1.6704 -1.1101 -1.6246
 2331SOL    HW2 7196   3.658   0.545   2.001 -1.8702  0.0861 -1.4117
 2332SOL     OW 7197   1.746   2.532   4.550 -0.1353  0.3070  0.3054
 2332SOL    HW1 7198   1.732   2.438   4.545  0.9139  0.1401  0.3227
 2332SOL    HW2 7199   1.682   2.563   4.615  1.9761 -0.9417  3.1878
 2333SOL     OW 7200   3.211   1.715   2.624 -0.5841  0.4924  0.1725
 2333SOL    HW1 7201   3.222   1.623   2.600 -0.4819  0.3491  0.7745
 2333SOL    HW2 7202   3.118   1.723   2.646 -0.4575  0.3837  0.7538
 2334SOL     OW 7203   2.790   3.315   4.498  0.4027 -0.1045  0.0418
 2334SOL    HW1 7204   2.809   3.258   4.572  1.0007  0.8528  0.6397
 2334SOL    HW2 7205   2.874   3.354   4.474 -0.0305  0.7481 -0.1674
 2335SOL     OW 7206   3.095   3.048   3.116  0.2964 -0.7171  0.5190
 2335SOL    HW1 7207   3.071   2.984   3.182 -0.2205  0.3405  1.3999
 2335SOL    HW2 7208   3.019   3.106   3.110 -0.9048 -2.3780 -3.1270
 2336SOL     OW 7209   3.686   2.917   4.241  0.2126 -0.0152 -1.0201
 2336SOL    HW1 7210   3.727   2.831   4.241 -1.0105 -0.6217 -0.3649
 2336SOL    HW2 7211   3.685   2.943   4.149  0.4497 -0.7794 -1.2463
 2337SOL     OW 7212   1.107   2.918   3.402 -0.5828  0.0089  0.7965
 2337SOL    HW1 7213   1.181   2.878   3.357 -0.9630  1.8763 -1.7453
 2337SOL    HW2 7214   1.128   2.910   3.495  1.9882 -0.9486  0.2296
 2338SOL     OW 7215   2.352   3.920   1.264  0.3994  0.7700 -0.2566
 2338SOL    HW1 7216   2.446   3.920   1.282  0.7620  0.1849 -1.9745
 2338SOL    HW2 7217   2.311   3.906   1.350  1.8008  2.3334  0.7228
 2339SOL     OW 7218   4.161   4.392   1.905  0.4522  0.0970  0.5139
 2339SOL    HW1 7219   4.199   4.446   1.975 -0.7308  1.7837 -0.0765
 2339SOL    HW2 7220   4.085   4.350   1.946 -0.2713  1.1262  0.2629
 2340SOL     OW 7221   4.178   4.652   3.573  0.3789 -0.6540 -0.0499
 2340SOL    HW1 7222   4.233   4.590   3.620 -2.4197 -4.2798 -1.1156
 2340SOL    HW2 7223   4.174   4.618   3.484 -1.6712  0.7583 -0.5635
 2341SOL     OW 7224   2.271   0.843   1.856 -0.3706 -0.5232  0.0100
 2341SOL    HW1 7225   2.202   0.866   1.794  0.2267  0.1507 -0.4295
 2341SOL    HW2 7226   2.259   0.750   1.872 -0.5596 -0.7067 -1.1053
 2342SOL     OW 7227   3.725   2.811   0.321  0.8176 -0.1123  0.7828
 2342SOL    HW1 7228   3.745   2.752   0.248  0.3503  1.1096 -0.3590
 2342SOL    HW2 7229   3.638   2.784   0.351  0.5665  0.0409  0.2039
 2343SOL     OW 7230   4.310   0.519   3.636 -0.8429 -0.1813 -0.2311
 2343SOL    HW1 7231   4.297   0.491   3.546  0.7097 -1.2142 -0.1654
 2343SOL    HW2 7232   4.405   0.527   3.646 -0.9207 -0.9979  1.5725
 2344SOL     OW 7233   2.635   1.826   1.997  0.6599  0.0269 -0.3720
 2344SOL    HW1 7234   2.554   1.781   1.973  0.6802 -1.3058  1.7560
 2344SOL    HW2 7235   2.618   1.918   1.976 -1.6490 -0.1116  0.4918
 2345SOL     OW 7236   4.212   2.782   0.028  0.0869  0.5991 -0.1165
 2345SOL    HW1 7237   4.162   2.840   0.087 -2.0706 -0.3106 -0.9378
 2345SOL    HW2 7238   4.241   2.840  -0.043 -2.6082  0.6768 -1.2692
 2346SOL     OW 7239   3.070   3.137   1.995 -0.5261 -0.3493  0.0956
 2346SOL    HW1 7240   3.130   3.075   1.953  0.7051  1.6547 -1.2561
 2346SOL    HW2 7241   3.106   3.150   2.082  0.7238  0.4087 -0.5167
 2347SOL     OW 7242   4.150   0.629   2.940  0.1020 -0.4612  0.8359
 2347SOL    HW1 7243   4.103   0.650   2.859  0.8307  0.9200  0.7458
 2347SOL    HW2 7244   4.081   0.610   3.003 -0.5359  0.2245  0.3654
 2348SOL     OW 7245   0.409   2.462   3.209 -0.7218  0.4154  0.7159
 2348SOL    HW1 7246   0.379   2.546   3.173 -0.6501 -0.7074 -2.2037
 2348SOL    HW2 7247   0.368   2.396   3.153  0.2893 -1.4867  2.1018
 2349SOL     OW 7248   2.207   3.570   2.608  0.1534  0.5601 -0.0231
 2349SOL    HW1 7249   2.191   3.661   2.633 -1.7111  0.6911 -1.4377
 2349SOL    HW2 7250   2.186   3.519   2.686  0.9384  1.3210  0.6952
 2350SOL     OW 7251   0.644   2.469   2.408 -0.1008 -0.0085 -0.5253
 2350SOL    HW1 7252   0.674   2.541   2.464 -0.2674 -1.6102  1.7337
 2350SOL    HW2 7253   0.724   2.432   2.371  0.0784  0.5343 -0.6912
 2351SOL     OW 7254   1.277   1.016   0.667 -0.2269 -0.7535  0.3896
 2351SOL    HW1 7255   1.333   1.038   0.593 -0.2235 -0.3560  0.5078
 2351SOL    HW2 7256   1.240   0.930   0.645 -1.4307  0.0140 -0.7880
 2352SOL     OW 7257   0.148   2.203   2.792  0.0019  0.0186 -0.0637
 2352SOL    HW1 7258   0.187   2.191   2.705 -2.1205  0.4890 -1.1372
 2352SOL    HW2 7259   0.058   2.230   2.775  0.0083  1.8955  2.2809
 2353SOL     OW 7260   3.377   1.002   2.517  0.3165  0.8330  0.2718
 2353SOL    HW1 7261   3.337   0.925   2.475  1.3018  0.1373  0.5791
 2353SOL    HW2 7262   3.316   1.025   2.587 -0.7392  1.2651 -0.7540
 2354SOL     OW 7263   4.212   1.594   3.136  0.2548  0.5195 -0.0944
 2354SOL    HW1 7264   4.157   1.668   3.162  1.4004  1.3316  0.0731
 2354SOL    HW2 7265   4.234   1.550   3.219 -1.4698 -0.8032 -0.2903
 2355SOL     OW 7266   0.242   2.141   3.315 -0.0378 -0.2699  0.0007
 2355SOL    HW1 7267   0.201   2.073   3.260  0.1238  0.0646 -0.5453
 2355SOL    HW2 7268   0.174   2.166   3.377 -1.0467  1.0206 -1.5539
 2356SOL     OW 7269   4.658   2.074   3.152 -0.1685 -0.1519 -0.2408
 2356SOL    HW1 7270   4.613   2.137   3.094  2.2989  1.3320 -0.6772
 2356SOL    HW2 7271   4.635   1.988   3.116 -1.6234  0.5717 -1.1641
 2357SOL     OW 7272   0.603   1.500   1.200 -0.6459  0.9539  0.6992
 2357SOL    HW1 7273   0.641   1.578   1.158 -1.4443  2.1873  2.1543
 2357SOL    HW2 7274   0.581   1.442   1.128 -1.6149  2.8271 -0.6011
 2358SOL     OW 7275   2.101   2.273   2.136  0.0189 -1.2508  0.2997
 2358SOL    HW1 7276   2.183   2.288   2.089 -0.8402 -3.1692 -1.9545
 2358SOL    HW2 7277   2.127   2.219   2.211  0.7596 -2.5136 -0.8208
 2359SOL     OW 7278   3.554   3.326   1.847  0.0866  0.4450  0.7837
 2359SOL    HW1 7279   3.538   3.335   1.753  0.3383  1.5274  0.8222
 2359SOL    HW2 7280   3.469   3.343   1.887 -0.2070 -0.8298  0.7343
 2360SOL     OW 7281   2.478   4.103   1.603  0.1849 -0.1658 -0.8942
 2360SOL    HW1 7282   2.494   4.066   1.689  1.3410  1.2671 -0.4349
 2360SOL    HW2 7283   2.557   4.155   1.585 -0.2145 -0.1097 -2.6372
 2361SOL     OW 7284   1.920   2.804   1.037  0.1842  0.2852 -0.3664
 2361SOL    HW1 7285   2.008   2.829   1.007  0.8001 -1.7802 -0.4757
 2361SOL    HW2 7286   1.913   2.842   1.124  1.2086  0.4844 -0.3537
 2362SOL     OW 7287   1.858   0.358   1.723  0.2626  0.2219  0.4578
 2362SOL    HW1 7288   1.796   0.299   1.680 -1.3687  0.6162  2.1602
 2362SOL    HW2 7289   1.943   0.314   1.713 -0.2225 -0.3149 -1.9484
 2363SOL     OW 7290   4.014   3.064   2.376 -0.1490 -0.8832  0.0642
 2363SOL    HW1 7291   3.971   3.005   2.438 -1.1992  0.1173  0.3192
 2363SOL    HW2 7292   4.027   3.145   2.425  2.7315 -1.3409  0.2428
 2364SOL     OW 7293   1.342   0.368   0.342 -0.2305 -0.3558 -0.0345
 2364SOL    HW1 7294   1.412   0.381   0.277  0.0356 -0.0236  0.3151
 2364SOL    HW2 7295   1.328   0.274   0.344  1.8495 -0.6842  1.6104
 2365SOL     OW 7296   0.263   4.417   3.412  0.0558 -0.8653 -0.0381
 2365SOL    HW1 7297   0.189   4.400   3.354 -1.9360 -1.0075  2.3614
 2365SOL    HW2 7298   0.270   4.513   3.414 -0.1556 -0.8478 -0.1707
 2366SOL     OW 7299   2.831   3.961   1.963  0.2326 -0.4278  0.1555
 2366SOL    HW1 7300   2.837   4.027   2.031  1.5314  1.1135 -1.3568
 2366SOL    HW2 7301   2.877   3.885   1.999 -0.1642 -0.0795  1.4283
 2367SOL     OW 7302   4.124   0.028   0.164 -0.1947 -0.0487  0.7280
 2367SOL    HW1 7303   4.046   0.029   0.109  0.0762  0.8666  0.3341
 2367SOL    HW2 7304   4.197   0.029   0.102  0.1144  0.5961  1.0901
 2368SOL     OW 7305   3.449   1.729   0.848  0.3221  0.0241  0.5012
 2368SOL    HW1 7306   3.479   1.664   0.784 -0.2259  0.9324 -0.7054
 2368SOL    HW2 7307   3.369   1.692   0.884  0.8457 -0.6762  0.9667
 2369SOL     OW 7308   3.416   4.379   2.449 -0.1960 -0.2770 -0.0643
 2369SOL    HW1 7309   3.372   4.453   2.407 -0.8569 -1.2864 -1.2028
 2369SOL    HW2 7310   3.387   4.302   2.400  0.6626 -1.2809  0.9369
 2370SOL     OW 7311   2.621   4.495   0.671  0.3575 -0.3407 -0.1394
 2370SOL    HW1 7312   2.707   4.519   0.707  0.0100  0.8288 -0.0468
 2370SOL    HW2 7313   2.565   4.485   0.747  0.5273 -1.6714 -0.1667
 2371SOL     OW 7314   3.226   4.116   3.847  0.6271  0.0763  0.1399
 2371SOL    HW1 7315   3.157   4.126   3.782  0.2400  1.8115  0.7442
 2371SOL    HW2 7316   3.200   4.040   3.899 -1.3064  1.1590  0.8532
 2372SOL     OW 7317   2.284   4.236   1.179 -0.1135 -0.3110 -0.0478
 2372SOL    HW1 7318   2.351   4.249   1.111  0.9356  1.0341  1.1731
 2372SOL    HW2 7319   2.295   4.145   1.207  1.4821 -0.0176  0.3747
 2373SOL     OW 7320   1.264   1.199   1.097 -0.1943 -0.9243 -0.0146
 2373SOL    HW1 7321   1.345   1.244   1.071  0.3482 -2.1710 -0.5965
 2373SOL    HW2 7322   1.277   1.108   1.067 -1.9001 -1.1017 -0.3046
 2374SOL     OW 7323   1.793   1.614   1.165  0.0619  0.2837 -0.1246
 2374SOL    HW1 7324   1.834   1.582   1.246 -1.1948  0.8277  0.7590
 2374SOL    HW2 7325   1.699   1.606   1.181 -0.2173 -0.7226 -2.0198
 2375SOL     OW 7326   0.777   1.450   1.805 -0.0287  0.5320 -0.6081
 2375SOL    HW1 7327   0.812   1.376   1.755  0.3456  0.0829  0.3081
 2375SOL    HW2 7328   0.854   1.502   1.828  0.0824 -0.4072  1.3320
 2376SOL     OW 7329   1.019   1.982   3.415  0.0227 -0.4440 -0.0236
 2376SOL    HW1 7330   0.960   2.022   3.350  1.0422  0.8489 -0.1878
 2376SOL    HW2 7331   1.091   2.044   3.423 -0.1676 -0.4593  2.5201
 2377SOL     OW 7332   1.249   0.774   1.151  0.1382  0.2387 -0.0538
 2377SOL    HW1 7333   1.343   0.760   1.137  0.6523  1.8592  1.3732
 2377SOL    HW2 7334   1.221   0.826   1.076  0.8777  1.4443  0.4574
 2378SOL     OW 7335   2.355   0.234   0.726 -0.5951  0.3693  0.1716
 2378SOL    HW1 7336   2.287   0.168   0.714  0.2153 -0.3078 -0.9454
 2378SOL    HW2 7337   2.420   0.214   0.658  0.6995  1.0123  1.1632
 2379SOL     OW 7338   1.146   2.179   4.552  0.0590 -0.5994  0.3776
 2379SOL    HW1 7339   1.172   2.233   4.627 -0.6343  0.3711 -0.0615
 2379SOL    HW2 7340   1.207   2.204   4.483 -0.0771 -0.5961  0.2585
 2380SOL     OW 7341   4.356   0.352   4.222 -0.0201 -0.2115 -0.1270
 2380SOL    HW1 7342   4.440   0.397   4.231  2.0598 -3.6037 -0.7685
 2380SOL    HW2 7343   4.365   0.300   4.142 -1.8193 -2.3983  0.9754
 2381SOL     OW 7344   1.685   1.912   1.131  0.6112  0.0629 -0.0189
 2381SOL    HW1 7345   1.695   1.944   1.041  2.1050  0.3748  0.2264
 2381SOL    HW2 7346   1.739   1.833   1.134  1.6673  0.7906  0.9438
 2382SOL     OW 7347   0.275   1.498   4.779 -0.1880 -0.0400 -0.3959
 2382SOL    HW1 7348   0.187   1.528   4.800 -0.3981 -0.8173 -0.1194
 2382SOL    HW2 7349   0.302   1.551   4.704 -0.1592  1.4823  0.6529
 2383SOL     OW 7350   0.071   1.218   1.065  0.1539 -0.1621  0.0827
 2383SOL    HW1 7351  -0.023   1.234   1.056  0.0661 -0.2388  0.8207
 2383SOL    HW2 7352   0.110   1.263   0.989 -0.4178  0.4477  0.1366
 2384SOL     OW 7353   1.689   2.162   1.832  0.0848  0.1732  0.1686
 2384SOL    HW1 7354   1.632   2.091   1.862  1.1050 -0.9775 -0.5449
 2384SOL    HW2 7355   1.688   2.225   1.904 -1.8494  0.0672  0.2955
 2385SOL     OW 7356   4.195   4.783   1.974  0.3554 -0.0331  0.6102
 2385SOL    HW1 7357   4.218   4.703   2.021  0.0299 -2.5784 -3.1324
 2385SOL    HW2 7358   4.274   4.836   1.977  1.3821 -1.5202  1.2532
 2386SOL     OW 7359   0.985   4.050   0.809  0.5444  0.2055 -0.1646
 2386SOL    HW1 7360   1.031   3.973   0.843  1.6160  0.9259  0.0495
 2386SOL    HW2 7361   0.893   4.033   0.829  0.4725 -1.9670 -1.9615
 2387SOL     OW 7362   1.461   0.197   0.880  0.1656  0.2301 -0.4647
 2387SOL    HW1 7363   1.441   0.103   0.884 -2.8205  0.7871 -0.2113
 2387SOL    HW2 7364   1.444   0.228   0.969  0.6404  1.1129 -0.6753
 2388SOL     OW 7365   2.437   3.904   4.457  0.0197  0.0357  0.0329
 2388SOL    HW1 7366   2.429   3.831   4.519 -2.1584  0.0385 -0.1442
 2388SOL    HW2 7367   2.380   3.879   4.384  0.1590  1.3916 -0.5541
 2389SOL     OW 7368   3.464   3.108   0.007  0.1916 -0.1581 -0.9150
 2389SOL    HW1 7369   3.398   3.084   0.071 -0.5588  1.1197 -1.1899
 2389SOL    HW2 7370   3.544   3.120   0.059  0.1183 -1.2443 -0.5236
 2390SOL     OW 7371   4.109   3.751   3.396  0.2089 -0.2789 -0.0824
 2390SOL    HW1 7372   4.053   3.811   3.347  1.1615 -0.5226 -1.5088
 2390SOL    HW2 7373   4.148   3.805   3.464  0.0230  0.4062 -0.5154
 2391SOL     OW 7374   3.158   0.649   2.587  0.9886  0.0427 -0.3684
 2391SOL    HW1 7375   3.205   0.715   2.537  0.7253  0.8153  0.3832
 2391SOL    HW2 7376   3.189   0.660   2.677 -0.9383  0.8955  0.2417
 2392SOL     OW 7377   1.657   1.463   2.999 -0.3008  0.0375  0.2053
 2392SOL    HW1 7378   1.677   1.492   3.088  1.1695  0.9911 -0.3940
 2392SOL    HW2 7379   1.658   1.367   3.004  0.9846  0.0666  0.9935
 2393SOL     OW 7380   4.608   0.623   0.584  0.5667 -0.5379  0.8268
 2393SOL    HW1 7381   4.621   0.718   0.586 -1.5636 -0.2039  0.6958
 2393SOL    HW2 7382   4.671   0.589   0.647  0.2037  1.1253  2.1546
 2394SOL     OW 7383   1.203   4.112   1.550  0.8745 -0.1208  0.4712
 2394SOL    HW1 7384   1.160   4.197   1.537  1.2178  0.1208  0.8811
 2394SOL    HW2 7385   1.131   4.049   1.553  0.5657  0.2450  0.8704
 2395SOL     OW 7386   1.030   3.959   2.178 -0.3294  0.5666  0.1475
 2395SOL    HW1 7387   1.046   3.887   2.116 -1.1889  0.5862 -0.1107
 2395SOL    HW2 7388   1.080   4.032   2.142  0.6377  0.0819  0.4703
 2396SOL     OW 7389   1.369   1.594   4.389  0.0412  0.8311  0.4338
 2396SOL    HW1 7390   1.312   1.544   4.331 -0.9446  0.5091  1.6260
 2396SOL    HW2 7391   1.364   1.684   4.357  1.3269  0.3262 -1.3421
 2397SOL     OW 7392   0.987   1.575   0.027 -0.1859 -0.1859 -0.1490
 2397SOL    HW1 7393   0.995   1.661  -0.015  0.0812 -0.7612 -1.2872
 2397SOL    HW2 7394   0.959   1.516  -0.042  1.2103 -1.3597  0.2280
 2398SOL     OW 7395   1.585   2.835   4.534 -0.7787 -0.1115  0.4331
 2398SOL    HW1 7396   1.547   2.748   4.520  0.7735 -0.8655  0.6472
 2398SOL    HW2 7397   1.566   2.883   4.453  0.1618 -1.3678 -0.5739
 2399SOL     OW 7398   1.151   3.844   0.945 -0.3698 -0.1524  0.1972
 2399SOL    HW1 7399   1.230   3.798   0.916 -0.6805 -1.4914  1.3556
 2399SOL    HW2 7400   1.167   3.863   1.037 -1.6579 -1.0500  0.6266
 2400SOL     OW 7401   3.453   2.747   1.881  0.6920  0.3974  0.5173
 2400SOL    HW1 7402   3.547   2.752   1.864  0.8289  1.1426  1.4474
 2400SOL    HW2 7403   3.445   2.689   1.956  0.1597 -2.0093 -1.2572
 2401SOL     OW 7404   4.793   0.150   1.885 -0.6983 -0.3602 -0.4830
 2401SOL    HW1 7405   4.725   0.216   1.884 -0.6398 -0.2786  0.5102
 2401SOL    HW2 7406   4.794   0.117   1.975  0.9455  0.0423 -0.3240
 2402SOL     OW 7407   3.761   4.460   0.233 -0.3250  0.3628  0.4964
 2402SOL    HW1 7408   3.781   4.469   0.140 -2.1305  1.5256  0.1533
 2402SOL    HW2 7409   3.743   4.366   0.245  1.6682 -0.1108  0.1182
 2403SOL     OW 7410   2.715   3.099   4.351  0.0850 -0.0664 -0.0176
 2403SOL    HW1 7411   2.738   3.187   4.382  0.9821 -0.1272 -0.4847
 2403SOL    HW2 7412   2.797   3.050   4.357  0.0139 -0.3797 -1.4335
 2404SOL     OW 7413   1.461   4.046   3.807 -0.6056 -0.5792 -0.0763
 2404SOL    HW1 7414   1.448   4.119   3.746  2.3384  1.1559  1.1561
 2404SOL    HW2 7415   1.525   4.078   3.870 -0.9900 -3.4535  1.9949
 2405SOL     OW 7416   0.626   3.005   3.204 -0.3222 -0.2288 -0.4145
 2405SOL    HW1 7417   0.674   2.987   3.123  0.9655 -0.5697  0.3909
 2405SOL    HW2 7418   0.635   3.099   3.217  0.7219 -0.3848  0.0726
 2406SOL     OW 7419   0.216   3.461   1.895  0.4792 -0.3228 -0.4635
 2406SOL    HW1 7420   0.160   3.433   1.967  0.0423 -0.1315 -0.7235
 2406SOL    HW2 7421   0.163   3.524   1.846  1.6825  1.4897  0.4750
 2407SOL     OW 7422   3.268   4.597   2.359 -0.7133 -0.4875  0.3298
 2407SOL    HW1 7423   3.192   4.562   2.311  0.1879 -1.4247 -0.4690
 2407SOL    HW2 7424   3.234   4.618   2.446 -1.5532 -2.2939  0.4691
 2408SOL     OW 7425   3.901   2.162   2.251  0.1259 -0.1337  0.1608
 2408SOL    HW1 7426   3.952   2.242   2.261 -0.3110  0.0579  0.9241
 2408SOL    HW2 7427   3.828   2.187   2.194  0.4850 -0.2285 -0.3493
 2409SOL     OW 7428   4.283   3.356   0.929  0.0761 -0.3646  0.0730
 2409SOL    HW1 7429   4.223   3.380   1.000 -0.5668  2.0422 -1.1869
 2409SOL    HW2 7430   4.328   3.438   0.907 -0.3643 -0.7997 -2.8313
 2410SOL     OW 7431   4.696   1.336   3.778  0.8050 -0.1287  0.6498
 2410SOL    HW1 7432   4.647   1.293   3.708  0.8321 -1.4740  1.4172
 2410SOL    HW2 7433   4.736   1.412   3.737 -1.2286  0.5376 -0.2078
 2411SOL     OW 7434   4.152   1.779   4.059 -0.0544 -0.0784 -0.3734
 2411SOL    HW1 7435   4.201   1.861   4.060 -0.5168  0.2036 -0.6473
 2411SOL    HW2 7436   4.133   1.763   3.966  0.6417 -0.8661 -0.3996
 2412SOL     OW 7437   1.775   4.586   1.051  0.2261 -0.1544  0.0909
 2412SOL    HW1 7438   1.692   4.619   1.086  1.2153  1.1856  1.2976
 2412SOL    HW2 7439   1.753   4.499   1.017 -1.9674  0.7212 -0.9637
 2413SOL     OW 7440   4.823   4.754   1.714  0.5483 -0.4700  0.1524
 2413SOL    HW1 7441   4.787   4.789   1.633 -0.7994 -0.4699  0.7171
 2413SOL    HW2 7442   4.827   4.829   1.773  2.9948 -0.1417 -0.3684
 2414SOL     OW 7443   0.758   3.591   2.373 -0.2500  0.6546 -0.2437
 2414SOL    HW1 7444   0.667   3.599   2.402 -0.0815  1.2058  0.1586
 2414SOL    HW2 7445   0.807   3.573   2.454 -0.1332 -0.7579 -0.6110
 2415SOL     OW 7446   2.986   1.467   0.966 -0.2869  0.3832  0.1457
 2415SOL    HW1 7447   3.048   1.409   0.921 -0.2618 -0.7311  1.5314
 2415SOL    HW2 7448   2.913   1.409   0.989 -0.5366  1.0295  1.0288
 2416SOL     OW 7449   4.755   1.762   2.118  0.5666 -0.4352  0.1386
 2416SOL    HW1 7450   4.710   1.825   2.173  1.7883  0.6573 -0.0673
 2416SOL    HW2 7451   4.767   1.807   2.035  0.5646 -1.3235 -0.3623
 2417SOL     OW 7452   4.078   4.717   3.076  0.0453 -0.5914  0.7582
 2417SOL    HW1 7453   4.161   4.763   3.060  0.7953 -2.5009 -1.3590
 2417SOL    HW2 7454   4.040   4.705   2.990 -1.7445 -1.0438  1.5749
 2418SOL     OW 7455   2.341   2.336   4.593  0.0231 -0.0167 -0.3700
 2418SOL    HW1 7456   2.268   2.398   4.587  0.1938  0.2365  0.0773
 2418SOL    HW2 7457   2.345   2.294   4.507 -0.2045  0.4728 -0.6205
 2419SOL     OW 7458   3.454   1.803   2.009 -0.1270  0.1655  0.1377
 2419SOL    HW1 7459   3.389   1.843   1.951  0.7519 -1.1968 -1.9345
 2419SOL    HW2 7460   3.408   1.730   2.051 -0.0551 -0.6892 -1.1919
 2420SOL     OW 7461   4.363   2.926   1.085 -0.1565  0.1178 -0.1083
 2420SOL    HW1 7462   4.365   2.858   1.153 -0.8355 -0.4490 -0.6477
 2420SOL    HW2 7463   4.356   2.878   1.003 -0.6642  0.8465 -0.4970
 2421SOL     OW 7464   1.951   1.529   1.749 -0.0409 -0.3035  0.2937
 2421SOL    HW1 7465   2.013   1.589   1.707 -0.9457  0.1346 -0.4606
 2421SOL    HW2 7466   1.948   1.558   1.840 -1.1220  1.3917 -0.2502
 2422SOL     OW 7467   1.676   2.836   0.855 -0.1439 -0.3424  0.2493
 2422SOL    HW1 7468   1.706   2.879   0.775  0.5346  0.5945  0.9869
 2422SOL    HW2 7469   1.754   2.795   0.892 -0.7447 -2.1335 -0.3500
 2423SOL     OW 7470   3.269   3.108   4.610 -0.1868 -0.0443  0.5177
 2423SOL    HW1 7471   3.341   3.069   4.659 -0.0216 -0.1655  0.1810
 2423SOL    HW2 7472   3.191   3.059   4.638 -0.2008  0.3616  1.1885
 2424SOL     OW 7473   2.623   4.057   4.280  0.0017 -0.6143  0.0993
 2424SOL    HW1 7474   2.693   4.078   4.342 -0.6566 -2.1045  1.3800
 2424SOL    HW2 7475   2.554   4.017   4.332 -1.6424  0.3376 -1.2183
 2425SOL     OW 7476   4.150   0.741   2.125 -0.0054  0.4897 -0.2868
 2425SOL    HW1 7477   4.114   0.782   2.203  0.2416 -1.1084  0.7346
 2425SOL    HW2 7478   4.085   0.676   2.099  0.7575 -0.3279 -0.2276
 2426SOL     OW 7479   1.987   3.355   1.954 -0.4287 -0.6430 -0.4454
 2426SOL    HW1 7480   1.983   3.434   1.900  0.2094  0.4180  0.9984
 2426SOL    HW2 7481   1.935   3.376   2.032 -0.4413 -1.7435 -0.1359
 2427SOL     OW 7482   0.044   0.793   3.963  0.4179 -0.6486 -0.1355
 2427SOL    HW1 7483   0.014   0.718   3.910  1.0010 -1.0642  0.1035
 2427SOL    HW2 7484   0.119   0.827   3.914  0.1000 -0.1523 -0.2890
 2428SOL     OW 7485   3.858   3.280   1.628  0.1885 -0.3479  0.0450
 2428SOL    HW1 7486   3.873   3.287   1.722 -0.5824 -1.1410  0.2438
 2428SOL    HW2 7487   3.913   3.348   1.590 -0.8166  1.1689  1.1848
 2429SOL     OW 7488   0.627   4.058   4.533 -0.4410  0.1514 -0.5284
 2429SOL    HW1 7489   0.597   4.129   4.591  0.2721  1.6014 -1.8577
 2429SOL    HW2 7490   0.687   4.007   4.588 -1.5260  0.1160  0.6770
 2430SOL     OW 7491   1.246   3.628   0.524 -0.3771 -0.4876  0.8094
 2430SOL    HW1 7492   1.243   3.723   0.535 -2.3720 -0.5807  1.3932
 2430SOL    HW2 7493   1.214   3.593   0.607  1.1017 -1.7302  0.9112
 2431SOL     OW 7494   1.513   1.880   4.085 -0.1597  0.2198 -0.4218
 2431SOL    HW1 7495   1.469   1.796   4.074 -1.5475  1.0099 -1.2315
 2431SOL    HW2 7496   1.486   1.931   4.009  2.2237  0.7634 -1.0016
 2432SOL     OW 7497   3.239   3.674   3.045 -0.4058  0.4602  0.4233
 2432SOL    HW1 7498   3.189   3.663   2.964  0.3234  2.4430 -0.3524
 2432SOL    HW2 7499   3.278   3.761   3.038  0.0020  0.5399  2.7442
 2433SOL     OW 7500   1.617   1.282   0.618  0.7621 -0.0360  0.0710
 2433SOL    HW1 7501   1.712   1.292   0.631  0.3851  0.8465  2.7285
 2433SOL    HW2 7502   1.606   1.190   0.593  2.3691  0.0501 -1.0939
 2434SOL     OW 7503   2.760   0.629   0.979  0.6773 -0.8150  0.1717
 2434SOL    HW1 7504   2.745   0.714   0.937  0.1580 -0.6621  0.6479
 2434SOL    HW2 7505   2.793   0.573   0.910  1.7305 -0.0232  0.0028
 2435SOL     OW 7506   4.722   2.121   0.975 -0.0649 -0.6703 -0.2538
 2435SOL    HW1 7507   4.709   2.185   1.045 -1.6537  0.4546 -1.4850
 2435SOL    HW2 7508   4.755   2.044   1.019  1.5057  0.8366  1.3673
 2436SOL     OW 7509   3.522   0.272   0.683  0.1240 -0.0317 -0.4535
 2436SOL    HW1 7510   3.520   0.217   0.605  0.1540 -1.3226  0.4206
 2436SOL    HW2 7511   3.455   0.338   0.668  1.7263  1.2307 -2.5970
 2437SOL     OW 7512   3.427   0.061   4.142  0.6527 -0.4245 -0.4402
 2437SOL    HW1 7513   3.332   0.053   4.134  0.3993  2.4634 -1.8504
 2437SOL    HW2 7514   3.462  -0.008   4.085 -0.6394 -0.6356 -1.0120
 2438SOL     OW 7515   2.209   4.345   0.663 -0.6285  0.3047 -0.3665
 2438SOL    HW1 7516   2.148   4.369   0.732 -0.5844  1.4227 -0.7022
 2438SOL    HW2 7517   2.294   4.340   0.707 -0.7296  0.1621 -0.1834
 2439SOL     OW 7518   4.026   3.749   1.911 -0.3368 -0.3941 -0.0079
 2439SOL    HW1 7519   4.070   3.786   1.988  1.4204  1.3887 -1.7559
 2439SOL    HW2 7520   3.978   3.823   1.874  1.6583 -0.2345 -2.4957
 2440SOL     OW 7521   1.736   3.824   1.220  0.7556 -0.3238  0.2828
 2440SOL    HW1 7522   1.729   3.885   1.293 -0.9312  1.2941 -1.1561
 2440SOL    HW2 7523   1.702   3.741   1.255  1.6834 -0.1021  1.8187
 2441SOL     OW 7524   2.741   0.198   1.253 -0.2575 -0.1678  0.1287
 2441SOL    HW1 7525   2.779   0.191   1.165 -0.8915  0.7897 -0.2307
 2441SOL    HW2 7526   2.740   0.292   1.271  1.6726 -0.4220  1.9692
 2442SOL     OW 7527   1.402   0.801   3.820 -0.1073  0.1446 -0.0298
 2442SOL    HW1 7528   1.472   0.814   3.755  0.5550 -0.9335  0.4445
 2442SOL    HW2 7529   1.395   0.706   3.829 -1.9921  0.2112 -0.4129
 2443SOL     OW 7530   3.288   3.965   4.288 -0.5380  0.0126 -0.6353
 2443SOL    HW1 7531   3.362   3.921   4.245  1.5488  1.3559  1.3163
 2443SOL    HW2 7532   3.287   4.053   4.250 -2.1052 -0.4075 -1.6507
 2444SOL     OW 7533   3.234   2.815   3.874 -0.9259  0.0766 -0.2791
 2444SOL    HW1 7534   3.197   2.822   3.785 -1.4142  0.2312 -0.0699
 2444SOL    HW2 7535   3.300   2.884   3.877  0.3992 -1.0962 -1.1242
 2445SOL     OW 7536   4.638   3.174   4.426 -0.1211 -0.3218 -0.2392
 2445SOL    HW1 7537   4.682   3.176   4.341  1.4949  3.4334  0.4686
 2445SOL    HW2 7538   4.582   3.252   4.426 -1.7481 -1.4160  1.3584
 2446SOL     OW 7539   0.745   2.432   3.146  0.4210  0.0802  0.1857
 2446SOL    HW1 7540   0.693   2.476   3.079  0.0644  1.3061  1.2297
 2446SOL    HW2 7541   0.681   2.381   3.197  0.7987 -1.5304 -0.8666
 2447SOL     OW 7542   3.734   1.288   1.315  0.3751  0.1475 -0.0677
 2447SOL    HW1 7543   3.699   1.318   1.231  1.0961  0.3141 -0.3151
 2447SOL    HW2 7544   3.715   1.194   1.317 -0.6825  0.3543  0.1088
 2448SOL     OW 7545   4.689   0.999   4.575 -0.4284  0.2437  0.2559
 2448SOL    HW1 7546   4.594   0.991   4.576 -0.3063 -1.6946 -0.4757
 2448SOL    HW2 7547   4.720   0.920   4.619  0.8734 -0.2248 -1.4008
 2449SOL     OW 7548   2.514   2.133   3.742  0.2181  0.3120 -0.4372
 2449SOL    HW1 7549   2.447   2.137   3.810  1.0895  0.3338  0.4456
 2449SOL    HW2 7550   2.465   2.126   3.660 -0.8614  0.6865  0.1568
 2450SOL     OW 7551   1.468   3.854   2.428 -0.7139  0.6982 -0.5278
 2450SOL    HW1 7552   1.418   3.818   2.354 -0.4117  1.4714 -1.1252
 2450SOL    HW2 7553   1.556   3.818   2.416 -0.3861  1.6802 -1.1812
 2451SOL     OW 7554   1.965   1.595   0.138  0.1242 -0.4040  0.3308
 2451SOL    HW1 7555   1.902   1.661   0.169  1.5088  0.2750  1.8410
 2451SOL    HW2 7556   1.958   1.524   0.202 -1.1570 -1.6802 -1.1317
 2452SOL     OW 7557   0.432   2.401   3.896  0.4137 -0.3559  0.1965
 2452SOL    HW1 7558   0.506   2.369   3.845 -1.0568 -0.8009 -1.7661
 2452SOL    HW2 7559   0.392   2.468   3.841 -0.8569 -0.3668  1.0714
 2453SOL     OW 7560   1.339   0.067   3.669 -0.4037  0.1614  0.5588
 2453SOL    HW1 7561   1.304   0.155   3.684 -2.5565 -0.5727  0.0866
 2453SOL    HW2 7562   1.274   0.008   3.708 -0.0255 -1.3078 -0.9381
 2454SOL     OW 7563   2.130   0.696   2.729  0.5016  0.0404 -0.4655
 2454SOL    HW1 7564   2.150   0.692   2.635  0.4140 -1.0226 -0.4537
 2454SOL    HW2 7565   2.215   0.699   2.772  0.5367  2.0207 -0.6077
 2455SOL     OW 7566   3.194   2.890   1.906 -0.5951 -0.7909 -0.1058
 2455SOL    HW1 7567   3.186   2.837   1.985  0.0832 -1.2340 -0.3256
 2455SOL    HW2 7568   3.269   2.853   1.859  0.7102  1.1282  0.3365
 2456SOL     OW 7569   2.108   4.050   3.973 -0.1617 -0.4087  0.0957
 2456SOL    HW1 7570   2.078   3.995   3.901 -1.1751 -0.8052  0.8018
 2456SOL    HW2 7571   2.132   4.133   3.931 -1.8418 -0.2185 -0.5734
 2457SOL     OW 7572   4.508   3.710   0.162  0.2119 -0.1414  0.3678
 2457SOL    HW1 7573   4.587   3.722   0.214  0.2557  1.5084 -0.0065
 2457SOL    HW2 7574   4.529   3.639   0.102  1.8704  1.0154 -0.5115
 2458SOL     OW 7575   1.348   2.375   1.018 -0.1771 -0.3333  0.1475
 2458SOL    HW1 7576   1.255   2.377   1.043 -0.4577 -1.0859 -0.7821
 2458SOL    HW2 7577   1.351   2.317   0.943  1.3418 -1.8471  1.3079
 2459SOL     OW 7578   1.063   0.066   3.528  0.1308 -0.0216  0.2711
 2459SOL    HW1 7579   1.116   0.145   3.517 -0.2319  0.1186 -0.5751
 2459SOL    HW2 7580   1.107   0.001   3.472 -1.2223  0.4274 -1.3953
 2460SOL     OW 7581   3.013   0.843   1.924  0.9514 -0.0704 -0.0169
 2460SOL    HW1 7582   3.104   0.817   1.938  0.5649 -0.9149  1.0105
 2460SOL    HW2 7583   2.968   0.762   1.900 -0.0814 -0.2543  2.2983
 2461SOL     OW 7584   4.504   0.314   0.397  0.2026 -0.6621 -0.6500
 2461SOL    HW1 7585   4.572   0.296   0.462  0.5372 -1.5590 -1.2263
 2461SOL    HW2 7586   4.426   0.334   0.448  0.7048 -0.3647  0.0222
 2462SOL     OW 7587   3.501   0.156   2.480  0.5182  0.2412 -0.1523
 2462SOL    HW1 7588   3.547   0.081   2.441 -1.4587 -2.0494  1.5455
 2462SOL    HW2 7589   3.408   0.138   2.463 -0.1127  1.4661  1.7053
 2463SOL     OW 7590   2.440   4.744   2.309 -0.0386  0.6888 -0.0779
 2463SOL    HW1 7591   2.471   4.691   2.236 -1.6883 -0.6958  0.1601
 2463SOL    HW2 7592   2.501   4.724   2.381 -0.0634 -0.1343 -0.2773
 2464SOL     OW 7593   3.399   0.956   4.252  0.1569 -0.2020 -0.3768
 2464SOL    HW1 7594   3.402   0.860   4.246 -1.5480 -0.2475 -0.9447
 2464SOL    HW2 7595   3.326   0.974   4.311  1.6739  0.7519  1.3185
 2465SOL     OW 7596   3.929   1.906   2.933 -0.3740  0.0836  0.0113
 2465SOL    HW1 7597   3.970   1.826   2.966  0.8234  0.8912  0.5381
 2465SOL    HW2 7598   3.910   1.887   2.841 -2.8213 -1.8368  0.8029
 2466SOL     OW 7599   2.650   2.361   1.789  0.1072 -0.0616 -0.6795
 2466SOL    HW1 7600   2.597   2.329   1.716  0.6882  0.5403 -1.3755
 2466SOL    HW2 7601   2.735   2.317   1.778 -0.7382 -2.5701  1.5321
 2467SOL     OW 7602   4.311   2.728   1.480  0.0802  0.1815 -0.1003
 2467SOL    HW1 7603   4.299   2.757   1.390  0.9675 -0.5278 -0.4583
 2467SOL    HW2 7604   4.390   2.674   1.478 -0.5591 -0.8342  0.8665
 2468SOL     OW 7605   2.612   0.096   2.603  0.2862  0.4252 -0.0366
 2468SOL    HW1 7606   2.627   0.011   2.563 -0.7480 -0.0460  0.5355
 2468SOL    HW2 7607   2.628   0.159   2.533  1.0961 -0.2300 -0.4555
 2469SOL     OW 7608   2.022   4.299   1.180  0.1500 -0.6149  0.1235
 2469SOL    HW1 7609   1.987   4.291   1.269  1.1786 -0.3424  0.5704
 2469SOL    HW2 7610   2.116   4.283   1.190  0.3658 -0.0124 -0.8303
 2470SOL     OW 7611   1.433   4.115   1.389 -0.1230  0.1395  0.7705
 2470SOL    HW1 7612   1.399   4.152   1.307  0.1245  1.1844  1.1234
 2470SOL    HW2 7613   1.356   4.101   1.443 -0.1464  1.0424  0.9839
 2471SOL     OW 7614   1.005   4.292   1.478  0.2945 -0.0260  0.2608
 2471SOL    HW1 7615   0.950   4.341   1.539  1.7160  0.9982  0.7749
 2471SOL    HW2 7616   0.943   4.248   1.419 -1.0498  1.2723  0.6575
 2472SOL     OW 7617   4.327   0.921   3.602  0.0425  0.0806 -0.0880
 2472SOL    HW1 7618   4.327   1.009   3.565 -1.2565 -0.3106 -1.1233
 2472SOL    HW2 7619   4.384   0.871   3.544  0.9868  0.2725  0.6493
 2473SOL     OW 7620   1.682   1.888   1.567  0.1956  0.5661 -0.0676
 2473SOL    HW1 7621   1.690   1.816   1.504 -0.5035  0.4504 -0.0237
 2473SOL    HW2 7622   1.611   1.943   1.533  0.9022  1.3988 -0.2549
 2474SOL     OW 7623   4.745   4.677   3.819  0.2710  0.7126 -0.2253
 2474SOL    HW1 7624   4.731   4.637   3.905  2.2282 -0.4396 -0.3718
 2474SOL    HW2 7625   4.759   4.602   3.760 -3.5881  1.2762 -2.2120
 2475SOL     OW 7626   3.919   3.593   0.404  0.0441  0.1508 -0.0579
 2475SOL    HW1 7627   3.981   3.567   0.472 -0.0936  0.5528  0.2226
 2475SOL    HW2 7628   3.918   3.689   0.407  1.2887  0.2659 -1.7456
 2476SOL     OW 7629   0.645   2.562   2.911  0.1625 -0.0266  0.6076
 2476SOL    HW1 7630   0.715   2.523   2.858 -0.5102 -2.0521  1.1032
 2476SOL    HW2 7631   0.565   2.532   2.870 -0.3821 -0.2741  1.8073
 2477SOL     OW 7632   4.788   1.804   3.336 -0.2292  1.0831 -0.1519
 2477SOL    HW1 7633   4.801   1.740   3.406 -2.0104 -2.3616 -2.6722
 2477SOL    HW2 7634   4.868   1.800   3.284 -0.1857  1.1795 -0.0920
 2478SOL     OW 7635   2.517   1.980   0.152 -0.3437  0.0003  0.1244
 2478SOL    HW1 7636   2.467   2.061   0.157 -0.5714 -0.1381  0.0698
 2478SOL    HW2 7637   2.555   1.970   0.240  2.4915  1.9591 -0.7387
 2479SOL     OW 7638   2.962   0.323   2.582  0.0621 -0.7135  0.3550
 2479SOL    HW1 7639   3.019   0.363   2.516  2.5909 -2.0726  1.5442
 2479SOL    HW2 7640   2.891   0.284   2.532  1.3184 -0.7919 -1.4837
 2480SOL     OW 7641   3.909   4.545   3.312 -0.1131 -0.1636  0.1012
 2480SOL    HW1 7642   3.995   4.541   3.272  0.0781  1.0738  0.3553
 2480SOL    HW2 7643   3.850   4.570   3.241 -0.1702 -0.4149  0.0591
 2481SOL     OW 7644   3.809   3.632   1.201 -0.0056 -0.2408  0.5736
 2481SOL    HW1 7645   3.844   3.638   1.113 -0.5660  0.0652  0.3701
 2481SOL    HW2 7646   3.760   3.549   1.202 -0.4383  0.0073  0.4317
 2482SOL     OW 7647   0.183   1.974   2.425 -0.1953  0.0639  0.3585
 2482SOL    HW1 7648   0.108   1.979   2.366  0.3561  2.4601 -0.2630
 2482SOL    HW2 7649   0.258   1.999   2.370  0.4693  1.4352  1.8310
 2483SOL     OW 7650   0.879   1.686   2.590 -0.2395 -0.3358 -0.3932
 2483SOL    HW1 7651   0.787   1.715   2.592 -0.2651 -0.3952  1.0812
 2483SOL    HW2 7652   0.913   1.720   2.508 -1.6401 -0.4802 -1.0688
 2484SOL     OW 7653   2.231   1.773   0.953 -0.1026  0.2715  0.0170
 2484SOL    HW1 7654   2.229   1.693   1.006  0.2861  0.2777  0.0458
 2484SOL    HW2 7655   2.202   1.842   1.013  1.6853  0.5237  0.6769
 2485SOL     OW 7656   1.656   2.315   1.592  0.2313  0.3408  0.1747
 2485SOL    HW1 7657   1.592   2.252   1.559 -0.1465  0.7080  0.2010
 2485SOL    HW2 7658   1.682   2.281   1.678 -0.1305  0.3377  0.2817
 2486SOL     OW 7659   1.538   4.444   0.531  0.1914  0.7584 -0.5276
 2486SOL    HW1 7660   1.526   4.426   0.624 -2.1666  0.4080 -0.8286
 2486SOL    HW2 7661   1.550   4.539   0.526 -1.1139  0.9728  0.0601
 2487SOL     OW 7662   3.456   4.097   0.166 -0.3190  0.0771  0.4465
 2487SOL    HW1 7663   3.465   4.153   0.089  2.8662 -1.6706 -0.6768
 2487SOL    HW2 7664   3.527   4.125   0.225 -1.6320  0.2519  2.0102
 2488SOL     OW 7665   1.426   3.062   2.885 -0.5148 -0.0918  0.1491
 2488SOL    HW1 7666   1.349   3.010   2.863 -0.0616 -0.7217  0.0146
 2488SOL    HW2 7667   1.419   3.077   2.980 -0.1578 -1.2309  0.3650
 2489SOL     OW 7668   2.870   4.066   1.170  0.0883 -0.7009 -0.1970
 2489SOL    HW1 7669   2.882   4.006   1.243 -0.6151  0.7978  1.2097
 2489SOL    HW2 7670   2.957   4.103   1.155  0.6896 -2.4949 -1.5454
 2490SOL     OW 7671   1.461   1.736   0.724  0.1966  0.2218 -0.0169
 2490SOL    HW1 7672   1.553   1.750   0.704 -0.0810  1.4792 -0.4929
 2490SOL    HW2 7673   1.457   1.738   0.819  0.6921 -0.0908  0.0152
 2491SOL     OW 7674   1.823   2.297   2.883  0.1072  0.3025 -0.1527
 2491SOL    HW1 7675   1.728   2.297   2.896  0.0659 -0.8655 -0.3629
 2491SOL    HW2 7676   1.859   2.261   2.964  0.2786 -0.4541 -0.5526
 2492SOL     OW 7677   0.824   3.260   1.749 -0.1351  0.2241  0.0705
 2492SOL    HW1 7678   0.779   3.258   1.665 -1.7040  1.7707  0.8244
 2492SOL    HW2 7679   0.776   3.199   1.804  0.8914 -0.7862 -0.1027
 2493SOL     OW 7680   1.879   1.040   0.564 -0.5751 -0.1783 -0.8639
 2493SOL    HW1 7681   1.926   1.051   0.646 -0.2372  2.7238 -1.3311
 2493SOL    HW2 7682   1.933   0.980   0.513  0.3572 -0.2718  0.1892
 2494SOL     OW 7683   0.921   1.423   2.406  0.3638  0.7490  0.1145
 2494SOL    HW1 7684   0.841   1.437   2.457  0.0836 -0.5729  0.0685
 2494SOL    HW2 7685   0.983   1.487   2.442 -0.9446  2.4102 -0.4364
 2495SOL     OW 7686   3.840   2.451   2.792 -0.5243 -0.1264 -0.0375
 2495SOL    HW1 7687   3.830   2.380   2.855 -0.1685  0.2541  0.4623
 2495SOL    HW2 7688   3.899   2.416   2.725 -0.8719 -0.5196 -0.1383
 2496SOL     OW 7689   4.622   2.125   3.637  0.1889 -0.1374 -0.3062
 2496SOL    HW1 7690   4.696   2.096   3.584 -0.0626  0.3738 -0.9595
 2496SOL    HW2 7691   4.552   2.139   3.573 -0.3924 -0.3621  0.2702
 2497SOL     OW 7692   1.258   2.769   2.538  0.2712  0.3392 -0.2502
 2497SOL    HW1 7693   1.191   2.827   2.575  0.8178  0.9030 -0.1223
 2497SOL    HW2 7694   1.213   2.724   2.467 -0.6815 -0.4357  0.7989
 2498SOL     OW 7695   3.006   1.973   0.319  0.2397 -0.0084 -0.5143
 2498SOL    HW1 7696   3.010   2.065   0.345  0.7583 -0.6655  2.0080
 2498SOL    HW2 7697   2.916   1.960   0.288 -0.3938  0.9461  0.8637
 2499SOL     OW 7698   2.788   1.652   0.765 -0.4270 -0.0806  0.0220
 2499SOL    HW1 7699   2.693   1.656   0.755 -0.2476 -1.0198 -3.1045
 2499SOL    HW2 7700   2.809   1.558   0.760  0.6704  0.0792  1.0484
 2500SOL     OW 7701   0.593   0.380   3.987 -0.2816 -0.1398 -0.6676
 2500SOL    HW1 7702   0.644   0.304   4.014  0.9173  0.5309 -0.9975
 2500SOL    HW2 7703   0.645   0.455   4.013 -1.3878  0.5838 -0.4718
 2501SOL     OW 7704   2.705   4.589   4.666 -0.0975 -0.1418 -0.4985
 2501SOL    HW1 7705   2.665   4.675   4.652 -2.3630 -1.0600  0.0118
 2501SOL    HW2 7706   2.717   4.554   4.578 -0.7288  0.0078 -0.6440
 2502SOL     OW 7707   1.449   2.471   2.732 -0.2680  0.1600  0.2403
 2502SOL    HW1 7708   1.513   2.539   2.712 -0.6382  0.9387  1.5590
 2502SOL    HW2 7709   1.501   2.393   2.747  0.3413  0.6328  0.6532
 2503SOL     OW 7710   0.545   3.392   2.292  0.0209 -0.4636  0.0595
 2503SOL    HW1 7711   0.496   3.471   2.318 -2.1532 -0.8155 -2.5112
 2503SOL    HW2 7712   0.531   3.331   2.364 -1.1537  0.3637  0.5777
 2504SOL     OW 7713   3.106   3.682   0.141 -0.0495 -0.7065  1.4741
 2504SOL    HW1 7714   3.099   3.776   0.126 -1.3315 -1.0454 -0.4637
 2504SOL    HW2 7715   3.192   3.658   0.107 -0.4907 -0.4903  0.1306
 2505SOL     OW 7716   2.208   0.383   1.861  0.3223 -0.1747  0.9151
 2505SOL    HW1 7717   2.139   0.449   1.874  0.1164 -0.1592 -0.1707
 2505SOL    HW2 7718   2.205   0.330   1.941 -1.9620 -1.0834  0.3024
 2506SOL     OW 7719   1.174   0.057   0.631  0.1610  0.1719 -0.2449
 2506SOL    HW1 7720   1.151   0.145   0.660  0.0885  0.2548 -0.5593
 2506SOL    HW2 7721   1.151   0.000   0.705 -2.9887 -0.0410 -1.2703
 2507SOL     OW 7722   2.668   2.234   4.718 -0.3032 -1.0985 -0.6957
 2507SOL    HW1 7723   2.615   2.314   4.715 -0.5888 -1.0217  2.5934
 2507SOL    HW2 7724   2.711   2.236   4.804 -0.3923 -4.4883 -0.4054
 2508SOL     OW 7725   2.022   4.283   1.468  0.3054 -0.1365 -0.5307
 2508SOL    HW1 7726   2.098   4.283   1.527  0.4189  1.6183 -0.6062
 2508SOL    HW2 7727   2.000   4.376   1.459 -0.9448 -0.5235 -1.6899
 2509SOL     OW 7728   0.307   3.118   4.003 -0.2084  0.3149 -0.4619
 2509SOL    HW1 7729   0.339   3.175   4.074  0.1256 -0.8075  0.3153
 2509SOL    HW2 7730   0.386   3.080   3.966 -0.3978  0.7446 -1.3423
 2510SOL     OW 7731   4.041   1.255   2.573 -0.3235  0.2497 -0.0660
 2510SOL    HW1 7732   4.065   1.283   2.485  0.4603  0.0478  0.0803
 2510SOL    HW2 7733   4.042   1.335   2.625 -4.9056  1.2279 -1.0293
 2511SOL     OW 7734   3.613   0.187   1.393 -0.6340 -0.0960  0.1922
 2511SOL    HW1 7735   3.696   0.228   1.368 -1.2944  0.5065 -1.1322
 2511SOL    HW2 7736   3.588   0.232   1.474 -0.0385  0.2653  0.1843
 2512SOL     OW 7737   4.315   4.189   0.185 -0.2956 -0.3682 -0.2660
 2512SOL    HW1 7738   4.362   4.118   0.141  0.5452  0.3179 -0.5193
 2512SOL    HW2 7739   4.226   4.184   0.150  0.2681 -0.0252 -1.8624
 2513SOL     OW 7740   3.417   0.347   3.300 -0.5036 -0.1349 -0.1528
 2513SOL    HW1 7741   3.349   0.317   3.239 -0.2981 -1.8053  0.3834
 2513SOL    HW2 7742   3.461   0.418   3.253 -1.6149 -0.0480 -1.1331
 2514SOL     OW 7743   2.920   4.038   0.168 -0.2134 -0.1360  0.2776
 2514SOL    HW1 7744   2.872   4.102   0.221  1.8794  2.4530 -0.7546
 2514SOL    HW2 7745   2.894   4.058   0.078  1.3695  0.1370 -0.1524
 2515SOL     OW 7746   2.983   1.136   0.118  0.0858  0.1018 -0.1219
 2515SOL    HW1 7747   2.948   1.198   0.055 -0.7541  0.2226  0.4360
 2515SOL    HW2 7748   2.935   1.055   0.100 -1.3077  0.5474  1.3281
 2516SOL     OW 7749   2.053   3.387   4.476  0.3046 -0.1632 -0.1461
 2516SOL    HW1 7750   2.069   3.293   4.461  1.1555  0.0344 -0.5285
 2516SOL    HW2 7751   2.128   3.431   4.438 -0.8005  0.7867 -1.3229
 2517SOL     OW 7752   2.452   3.656   0.968  0.2025 -0.0508  0.1507
 2517SOL    HW1 7753   2.470   3.658   1.062  1.1877 -0.1980 -0.0269
 2517SOL    HW2 7754   2.439   3.748   0.944 -0.0049 -0.0086  0.4118
 2518SOL     OW 7755   0.695   4.198   0.317 -0.3958 -0.6201 -0.3743
 2518SOL    HW1 7756   0.622   4.162   0.267 -1.0233 -1.1013  0.8481
 2518SOL    HW2 7757   0.663   4.284   0.346  0.3324  0.0813 -1.5818
 2519SOL     OW 7758   2.215   3.341   2.302  0.2822  0.4039 -0.4055
 2519SOL    HW1 7759   2.177   3.389   2.376 -0.0892  0.8333 -0.8702
 2519SOL    HW2 7760   2.278   3.281   2.343  1.1424  1.6366  0.1662
 2520SOL     OW 7761   4.713   0.052   1.478 -0.3078  0.1906  0.5798
 2520SOL    HW1 7762   4.649   0.121   1.496  0.5870  1.1430  0.2207
 2520SOL    HW2 7763   4.715   0.047   1.382  0.1062  0.1257  0.5926
 2521SOL     OW 7764   1.007   2.180   2.353 -0.5558 -0.1248 -0.0203
 2521SOL    HW1 7765   1.073   2.112   2.366 -2.4074 -1.8942  0.6427
 2521SOL    HW2 7766   0.939   2.137   2.301 -1.6478  1.3312  0.1481
 2522SOL     OW 7767   4.135   0.548   2.578 -0.1922 -0.1870 -0.3738
 2522SOL    HW1 7768   4.088   0.598   2.511 -0.1388  0.1524 -0.1637
 2522SOL    HW2 7769   4.214   0.600   2.594  0.8336 -1.3200 -1.5462
 2523SOL     OW 7770   3.581   2.348   0.902  0.2497 -0.1438 -0.5585
 2523SOL    HW1 7771   3.608   2.263   0.935 -1.8537 -0.9408 -0.7195
 2523SOL    HW2 7772   3.532   2.388   0.974  0.3095  0.4660 -0.8479
 2524SOL     OW 7773   2.724   1.185   3.154  0.3557  0.3257  0.4852
 2524SOL    HW1 7774   2.675   1.103   3.155  0.3031  0.3321 -0.8702
 2524SOL    HW2 7775   2.660   1.251   3.181 -0.2304  0.2358 -0.6147
 2525SOL     OW 7776   4.045   4.199   0.714 -0.0002 -0.9768  0.3211
 2525SOL    HW1 7777   4.140   4.211   0.710 -0.0153 -0.9296  0.1105
 2525SOL    HW2 7778   4.013   4.282   0.749 -0.0209 -0.7461 -0.2353
 2526SOL     OW 7779   2.368   0.855   4.240  0.1622 -0.1008 -0.3921
 2526SOL    HW1 7780   2.325   0.897   4.315 -0.6160 -1.1850 -0.1987
 2526SOL    HW2 7781   2.420   0.924   4.200 -0.5841  0.8744  0.2801
 2527SOL     OW 7782   1.408   3.408   3.758 -0.1539 -0.4162 -0.4165
 2527SOL    HW1 7783   1.375   3.495   3.780  1.0732  0.6207 -2.3590
 2527SOL    HW2 7784   1.490   3.400   3.808 -0.6527 -0.8118  0.3609
 2528SOL     OW 7785   4.760   3.385   0.913  0.7171 -0.0955  0.4075
 2528SOL    HW1 7786   4.697   3.411   0.846  1.2379  1.1668  0.3745
 2528SOL    HW2 7787   4.841   3.366   0.865  0.4295 -1.5505  0.4649
 2529SOL     OW 7788   1.109   1.391   1.855 -0.3056 -0.1005 -0.0380
 2529SOL    HW1 7789   1.154   1.381   1.938  0.4677  0.4192 -0.3839
 2529SOL    HW2 7790   1.107   1.303   1.818 -0.9095 -0.3850  0.6466
 2530SOL     OW 7791   4.083   1.498   3.726  0.2641  0.4527  0.1806
 2530SOL    HW1 7792   4.028   1.520   3.801  0.7537 -0.5948  0.8692
 2530SOL    HW2 7793   4.163   1.550   3.739  1.5781 -1.8329  2.0080
 2531SOL     OW 7794   3.813   2.444   3.140 -0.4433  0.1431 -0.9913
 2531SOL    HW1 7795   3.769   2.492   3.070 -0.8843  0.8056 -0.2759
 2531SOL    HW2 7796   3.835   2.510   3.205  1.8776 -0.1210 -1.4362
 2532SOL     OW 7797   3.630   4.358   1.166  0.0561 -0.5687  0.3409
 2532SOL    HW1 7798   3.645   4.302   1.243  0.7635 -2.1270 -0.8773
 2532SOL    HW2 7799   3.595   4.299   1.100  0.4129  0.5314 -0.8598
 2533SOL     OW 7800   4.710   2.101   3.889 -0.7916  0.8898 -0.1014
 2533SOL    HW1 7801   4.674   2.029   3.941 -0.0426 -0.4670 -1.3920
 2533SOL    HW2 7802   4.650   2.109   3.815 -1.0194  1.8034  0.1643
 2534SOL     OW 7803   4.049   4.328   0.019 -0.3001 -0.2829 -0.6218
 2534SOL    HW1 7804   4.088   4.295  -0.062  1.2921 -0.4137  0.1595
 2534SOL    HW2 7805   3.990   4.398  -0.010 -1.0468 -1.4419 -2.0135
 2535SOL     OW 7806   2.643   4.561   3.751 -0.0943  0.3406 -0.1472
 2535SOL    HW1 7807   2.625   4.481   3.801  0.1537 -0.7756 -1.7703
 2535SOL    HW2 7808   2.628   4.632   3.813  0.8370 -0.9891  1.7029
 2536SOL     OW 7809   2.300   1.121   4.785  0.1419 -0.3063  0.2579
 2536SOL    HW1 7810   2.221   1.161   4.748 -0.9427 -0.7118  2.0448
 2536SOL    HW2 7811   2.326   1.056   4.719 -0.9518 -0.1027 -0.4044
 2537SOL     OW 7812   1.547   4.352   3.413 -0.2322 -0.4033 -0.1874
 2537SOL    HW1 7813   1.580   4.270   3.448  0.3429 -1.0161 -2.0439
 2537SOL    HW2 7814   1.623   4.394   3.372 -0.5353  1.0315  0.6542
 2538SOL     OW 7815   2.656   0.899   2.898 -1.0290 -0.0346 -0.3631
 2538SOL    HW1 7816   2.623   0.989   2.900 -0.3216  0.2280 -0.0762
 2538SOL    HW2 7817   2.705   0.894   2.815 -0.6636 -0.0012 -0.1512
 2539SOL     OW 7818   2.301   3.121   4.713  0.2693  0.0595 -0.0171
 2539SOL    HW1 7819   2.365   3.080   4.772  1.3118  1.5661 -0.0440
 2539SOL    HW2 7820   2.347   3.127   4.629  0.6957  2.5185  0.3408
 2540SOL     OW 7821   4.753   3.279   4.671  0.1296  0.3879 -0.3652
 2540SOL    HW1 7822   4.802   3.204   4.705 -0.1608 -0.1284 -1.0549
 2540SOL    HW2 7823   4.711   3.245   4.592 -0.2880  1.1878 -0.4872
 2541SOL     OW 7824   0.281   4.191   2.255  0.7498 -0.4100  0.6696
 2541SOL    HW1 7825   0.350   4.176   2.191  0.0547 -0.1919 -0.1350
 2541SOL    HW2 7826   0.254   4.281   2.241  0.4622 -0.4188  1.1483
 2542SOL     OW 7827   2.417   3.838   0.048 -0.2219  0.0330 -0.0310
 2542SOL    HW1 7828   2.336   3.870   0.008 -0.9025  1.8542  2.5661
 2542SOL    HW2 7829   2.402   3.745   0.060 -0.1600 -0.5570 -3.3677
 2543SOL     OW 7830   2.568   1.003   0.490 -0.0311 -0.2799 -0.1419
 2543SOL    HW1 7831   2.569   0.965   0.578  0.6420  0.7783  0.3347
 2543SOL    HW2 7832   2.626   0.948   0.439 -0.1498 -0.6989  0.1719
 2544SOL     OW 7833   2.843   4.515   3.278 -0.0648 -0.7047  0.0045
 2544SOL    HW1 7834   2.791   4.514   3.358 -3.0056  0.8084 -1.7191
 2544SOL    HW2 7835   2.778   4.511   3.207  2.1954  0.8264 -2.3344
 2545SOL     OW 7836   0.307   1.287   0.441  0.1515 -0.1933 -0.0467
 2545SOL    HW1 7837   0.398   1.314   0.432  0.0802 -0.0654 -0.3914
 2545SOL    HW2 7838   0.311   1.208   0.495  0.3805  0.3872  0.8184
 2546SOL     OW 7839   1.942   3.571   2.136  0.1008 -0.2935 -0.1631
 2546SOL    HW1 7840   1.903   3.659   2.139  0.2211 -0.1886 -1.2567
 2546SOL    HW2 7841   1.867   3.512   2.136  0.0235 -0.2284  1.0052
 2547SOL     OW 7842   2.685   3.986   3.477 -0.2538  0.2245 -0.1110
 2547SOL    HW1 7843   2.618   3.920   3.459 -0.7927  0.6322  0.3763
 2547SOL    HW2 7844   2.710   4.018   3.390 -1.9084  1.2562 -0.2583
 2548SOL     OW 7845   3.317   0.117   3.490 -0.1317 -0.0183 -0.1475
 2548SOL    HW1 7846   3.387   0.182   3.498  0.4577 -0.7971  1.6112
 2548SOL    HW2 7847   3.246   0.165   3.448  1.0636  1.1069 -0.9987
 2549SOL     OW 7848   0.613   0.452   0.338 -0.3598  0.2633  0.0650
 2549SOL    HW1 7849   0.594   0.362   0.310 -1.6990  0.6861 -0.4278
 2549SOL    HW2 7850   0.586   0.455   0.430  1.3975 -0.3233  0.6458
 2550SOL     OW 7851   3.119   0.540   3.327  0.0486  0.1335 -0.0947
 2550SOL    HW1 7852   3.184   0.591   3.279 -1.0505  0.2793 -1.5084
 2550SOL    HW2 7853   3.035   0.581   3.304 -0.7981 -1.8183 -0.6543
 2551SOL     OW 7854   3.916   2.715   4.699  0.0250  0.5508 -0.6913
 2551SOL    HW1 7855   3.862   2.657   4.754  0.2845  0.2156 -0.7925
 2551SOL    HW2 7856   3.981   2.751   4.760  0.9525 -0.6014 -0.9701
 2552SOL     OW 7857   0.877   4.810   1.851 -0.4411 -0.1091 -0.1115
 2552SOL    HW1 7858   0.860   4.717   1.838 -1.2419  0.2319 -1.8195
 2552SOL    HW2 7859   0.813   4.837   1.917  0.4545 -0.9523  1.1195
 2553SOL     OW 7860   3.890   2.429   3.535 -0.1772  0.1896  0.0301
 2553SOL    HW1 7861   3.923   2.456   3.621 -0.6541 -2.6637  1.2194
 2553SOL    HW2 7862   3.814   2.376   3.554  0.2827 -1.3593 -2.0931
 2554SOL     OW 7863   1.261   2.789   1.916  0.4188  0.2533 -0.1750
 2554SOL    HW1 7864   1.281   2.871   1.961 -0.5767  0.8341 -0.7468
 2554SOL    HW2 7865   1.179   2.759   1.956 -0.3441  0.6445 -1.3921
 2555SOL     OW 7866   1.555   0.089   3.500  0.6618 -0.2810 -0.0270
 2555SOL    HW1 7867   1.594   0.173   3.525 -0.4090  0.5973 -1.2121
 2555SOL    HW2 7868   1.473   0.085   3.550  1.2151 -1.1639  0.8635
 2556SOL     OW 7869   3.437   0.194   1.179  0.3475 -0.6102 -0.4121
 2556SOL    HW1 7870   3.518   0.188   1.230 -0.0214 -0.0638  0.2426
 2556SOL    HW2 7871   3.466   0.183   1.088  0.9793 -1.8607 -0.0895
 2557SOL     OW 7872   2.653   0.683   4.354 -0.4755 -0.0120  0.1397
 2557SOL    HW1 7873   2.667   0.769   4.392  1.2069 -0.5969  0.9769
 2557SOL    HW2 7874   2.710   0.681   4.277 -1.2031 -0.0628 -0.4048
 2558SOL     OW 7875   1.642   3.147   1.535 -0.0907 -0.2481 -0.2668
 2558SOL    HW1 7876   1.679   3.165   1.621 -1.2350  0.4627  0.1108
 2558SOL    HW2 7877   1.629   3.234   1.496 -0.7485 -0.5026 -0.6344
 2559SOL     OW 7878   3.414   0.343   4.183  0.1764  0.3725 -0.0049
 2559SOL    HW1 7879   3.341   0.397   4.152 -0.2278 -0.6654 -0.9531
 2559SOL    HW2 7880   3.391   0.254   4.155  1.9632  0.0699 -0.6341
 2560SOL     OW 7881   4.384   0.995   4.559  0.1520  0.5743 -0.0812
 2560SOL    HW1 7882   4.414   0.968   4.472 -0.2033  0.0239 -0.0368
 2560SOL    HW2 7883   4.289   0.984   4.556  0.0270  1.5600  0.0367
 2561SOL     OW 7884   2.977   3.334   0.105 -0.9206  0.3198  0.1372
 2561SOL    HW1 7885   2.975   3.394   0.031 -1.4933  0.1895  0.0458
 2561SOL    HW2 7886   2.931   3.381   0.175 -0.1058  0.5774  0.5230
 2562SOL     OW 7887   3.725   3.019   2.007  0.1539  0.3375 -0.2909
 2562SOL    HW1 7888   3.667   3.014   1.931 -1.0275  1.5338  0.4912
 2562SOL    HW2 7889   3.717   3.109   2.038 -0.3021 -0.3781  1.9166
 2563SOL     OW 7890   3.883   4.724   2.415 -0.5219  0.0196  0.2662
 2563SOL    HW1 7891   3.789   4.717   2.427 -0.6385 -1.0592 -1.0812
 2563SOL    HW2 7892   3.920   4.665   2.482 -0.9484 -1.8479 -1.0694
 2564SOL     OW 7893   3.228   1.489   3.449  0.2571 -0.0677 -0.1161
 2564SOL    HW1 7894   3.255   1.580   3.446 -1.0657  0.3369 -2.7951
 2564SOL    HW2 7895   3.307   1.441   3.477  2.0431  1.5715 -2.0311
 2565SOL     OW 7896   2.849   1.692   4.114  0.3771  0.1082 -0.5229
 2565SOL    HW1 7897   2.812   1.700   4.202 -0.8230 -1.2251 -0.8727
 2565SOL    HW2 7898   2.832   1.776   4.072 -1.2957 -0.0946 -0.2943
 2566SOL     OW 7899   3.031   2.727   2.565  0.4094 -0.3765  0.7294
 2566SOL    HW1 7900   3.065   2.639   2.581 -0.1862 -1.1293 -1.6771
 2566SOL    HW2 7901   3.106   2.775   2.531 -0.0445 -1.0783 -1.4242
 2567SOL     OW 7902   4.686   2.280   1.259  0.6728  0.0506 -0.2086
 2567SOL    HW1 7903   4.715   2.369   1.240  2.0375 -0.3973 -0.2815
 2567SOL    HW2 7904   4.762   2.237   1.298 -0.4370 -0.6314  1.3376
 2568SOL     OW 7905   2.789   4.134   4.762  0.1207 -0.1196 -0.4538
 2568SOL    HW1 7906   2.761   4.187   4.688  0.3439  0.3524 -0.2039
 2568SOL    HW2 7907   2.761   4.183   4.839 -1.3151 -1.2602 -0.2064
 2569SOL     OW 7908   4.377   2.948   0.675  0.3318 -0.1789  0.8737
 2569SOL    HW1 7909   4.461   2.903   0.681  0.1371 -0.5348  0.9729
 2569SOL    HW2 7910   4.316   2.892   0.723  0.1041  0.2415  1.0823
 2570SOL     OW 7911   1.700   3.404   1.728  0.6868  0.0256  0.1482
 2570SOL    HW1 7912   1.715   3.320   1.771  0.7677  0.7195  1.5352
 2570SOL    HW2 7913   1.770   3.410   1.663 -0.0927 -1.5370 -0.9022
 2571SOL     OW 7914   3.020   4.165   2.900  0.0976  0.8581  0.3495
 2571SOL    HW1 7915   3.097   4.199   2.854 -1.3475  2.1008 -1.2930
 2571SOL    HW2 7916   3.005   4.228   2.971 -0.1095  1.2951 -0.0796
 2572SOL     OW 7917   0.928   1.270   4.333  0.3989  0.4806  0.3669
 2572SOL    HW1 7918   0.839   1.305   4.322  0.6654  0.9185 -0.4699
 2572SOL    HW2 7919   0.985   1.344   4.317  0.9217  0.7382  2.9808
 2573SOL     OW 7920   0.794   4.012   1.766 -0.2359  0.4585 -0.0692
 2573SOL    HW1 7921   0.816   3.938   1.823 -1.4375  0.2449  0.1555
 2573SOL    HW2 7922   0.710   3.987   1.726 -0.0270  1.1509 -0.9808
 2574SOL     OW 7923   2.624   2.614   4.419  0.0236 -0.2805  0.1905
 2574SOL    HW1 7924   2.531   2.635   4.426  0.6714  3.0252  0.5944
 2574SOL    HW2 7925   2.645   2.634   4.328  0.7925  1.6378  0.7333
 2575SOL     OW 7926   1.450   0.803   1.748 -0.5561  0.5463 -0.4490
 2575SOL    HW1 7927   1.465   0.845   1.832 -0.3274  0.6236 -0.5268
 2575SOL    HW2 7928   1.420   0.715   1.770 -1.2058  0.8055 -0.2853
 2576SOL     OW 7929   0.095   4.342   2.457  0.1270 -0.2810 -0.0864
 2576SOL    HW1 7930   0.130   4.418   2.411  0.7742  0.9474  2.2878
 2576SOL    HW2 7931   0.008   4.369   2.486  0.1911 -0.6029  0.4146
 2577SOL     OW 7932   4.487   0.386   1.178  0.5063  0.5619 -0.4490
 2577SOL    HW1 7933   4.532   0.469   1.196 -1.4874  1.4900  0.5652
 2577SOL    HW2 7934   4.423   0.407   1.111 -0.5641  0.0485  0.3874
 2578SOL     OW 7935   4.704   0.283   3.965  0.1489  0.7415 -0.2071
 2578SOL    HW1 7936   4.628   0.341   3.971 -0.1371  0.3172  0.4355
 2578SOL    HW2 7937   4.717   0.251   4.054  0.9395  0.6203 -0.3554
 2579SOL     OW 7938   0.057   2.083   2.118 -0.1799  0.2049  0.2110
 2579SOL    HW1 7939   0.106   2.025   2.059 -1.8413  0.1131 -1.1736
 2579SOL    HW2 7940   0.009   2.141   2.059 -1.0146  0.8943  1.5222
 2580SOL     OW 7941   4.528   2.998   2.452 -0.0647 -0.0491 -0.2805
 2580SOL    HW1 7942   4.444   2.960   2.479 -0.4072 -0.8800 -2.3065
 2580SOL    HW2 7943   4.589   2.924   2.453 -0.1947 -0.2415 -2.0355
 2581SOL     OW 7944   3.159   2.744   4.758  0.3444  0.0413  0.0770
 2581SOL    HW1 7945   3.105   2.712   4.830 -0.7141  0.7433 -0.3810
 2581SOL    HW2 7946   3.124   2.831   4.739  0.5807 -0.1539 -1.3131
 2582SOL     OW 7947   0.484   3.088   1.650 -0.1724 -0.2081  0.1786
 2582SOL    HW1 7948   0.478   3.047   1.736 -0.3953 -2.0738 -0.6621
 2582SOL    HW2 7949   0.476   3.182   1.666  1.9969 -0.3167  2.4091
 2583SOL     OW 7950   0.689   2.131   0.076  0.3630 -0.1253 -0.3661
 2583SOL    HW1 7951   0.683   2.187  -0.001  0.0306  0.4189  0.0446
 2583SOL    HW2 7952   0.742   2.056   0.048  0.7252  0.3437 -0.9566
 2584SOL     OW 7953   4.148   3.292   3.142  0.8522  0.3981 -0.1232
 2584SOL    HW1 7954   4.102   3.345   3.207 -1.2775 -1.1626 -0.2508
 2584SOL    HW2 7955   4.114   3.322   3.058  0.1488 -0.6541 -0.2319
 2585SOL     OW 7956   1.314   0.095   0.389 -0.4716 -0.0797 -0.3219
 2585SOL    HW1 7957   1.277   0.076   0.476  1.4008  1.5616  0.9160
 2585SOL    HW2 7958   1.329   0.009   0.350 -0.8087 -0.8770  1.2329
 2586SOL     OW 7959   4.559   1.816   2.992  0.4543 -0.2282  0.1617
 2586SOL    HW1 7960   4.503   1.759   2.939 -0.8692  0.0336  1.1987
 2586SOL    HW2 7961   4.497   1.875   3.036  1.6787  0.9855  0.2956
 2587SOL     OW 7962   1.421   0.325   1.138 -0.3498  0.0309  0.3424
 2587SOL    HW1 7963   1.494   0.371   1.178  0.2354  0.4886 -1.1935
 2587SOL    HW2 7964   1.395   0.381   1.065 -2.4140  0.0069  0.9942
 2588SOL     OW 7965   2.524   4.415   1.894 -0.1287  0.2291  0.6770
 2588SOL    HW1 7966   2.431   4.410   1.919 -0.8760  0.4979 -1.7798
 2588SOL    HW2 7967   2.555   4.325   1.904 -1.1315 -0.2232 -0.0785
 2589SOL     OW 7968   4.669   2.554   2.909  0.6301  0.2107 -0.1029
 2589SOL    HW1 7969   4.616   2.494   2.855  0.6845  0.4564 -0.4305
 2589SOL    HW2 7970   4.637   2.641   2.886 -0.8846  0.2541  1.8634
 2590SOL     OW 7971   4.612   3.461   0.039  0.6415  0.1402 -0.0998
 2590SOL    HW1 7972   4.644   3.468   0.129 -2.2171 -2.9796  1.3681
 2590SOL    HW2 7973   4.678   3.409  -0.006  1.8249  1.2480  0.2727
 2591SOL     OW 7974   1.628   0.129   0.676 -1.0179  0.1707 -0.1135
 2591SOL    HW1 7975   1.592   0.167   0.757  2.1237  0.3085  1.3566
 2591SOL    HW2 7976   1.625   0.201   0.613 -0.7267  1.0269  0.8236
 2592SOL     OW 7977   4.260   3.614   2.157 -0.0906  0.7621  0.3773
 2592SOL    HW1 7978   4.261   3.707   2.133  0.7687  0.9701  1.1565
 2592SOL    HW2 7979   4.346   3.582   2.129 -0.3888  0.1939  0.1040
 2593SOL     OW 7980   4.597   0.341   1.942 -0.0792  0.6661  0.1243
 2593SOL    HW1 7981   4.597   0.414   1.881  0.8834  0.3361 -0.2994
 2593SOL    HW2 7982   4.610   0.381   2.028  0.2498  1.0081 -0.0826
 2594SOL     OW 7983   2.709   3.499   1.759  0.2107  0.2802 -0.2974
 2594SOL    HW1 7984   2.741   3.590   1.753  0.0628  0.4368  0.9700
 2594SOL    HW2 7985   2.754   3.464   1.836  0.3159 -0.7557 -0.8234
 2595SOL     OW 7986   2.804   0.975   4.120  0.0738  0.4762  0.2600
 2595SOL    HW1 7987   2.743   1.036   4.079 -0.5128 -0.3618 -0.1421
 2595SOL    HW2 7988   2.793   0.893   4.071  0.9356  0.0807  0.7026
 2596SOL     OW 7989   1.310   0.491   2.342 -0.1505 -0.2135  0.2035
 2596SOL    HW1 7990   1.359   0.435   2.403 -0.5743 -1.6205 -0.7080
 2596SOL    HW2 7991   1.264   0.430   2.284 -1.0968  1.0843 -0.4734
 2597SOL     OW 7992   3.624   2.428   0.449 -0.2549 -0.0152  0.0525
 2597SOL    HW1 7993   3.622   2.354   0.510  0.3106  0.7478  1.0286
 2597SOL    HW2 7994   3.692   2.406   0.385 -1.0458 -0.9483 -0.4816
 2598SOL     OW 7995   2.144   4.735   0.194  0.0841 -0.4415  0.2359
 2598SOL    HW1 7996   2.172   4.761   0.106 -1.0524 -0.6891 -0.2245
 2598SOL    HW2 7997   2.149   4.639   0.193 -0.8312 -0.4973  0.1064
 2599SOL     OW 7998   2.910   0.234   3.531 -0.1513 -0.1467  0.1766
 2599SOL    HW1 7999   2.828   0.192   3.558  0.6236 -1.1347  1.1079
 2599SOL    HW2 8000   2.960   0.164   3.489  1.0281 -0.1232  1.4427
 2600SOL     OW 8001   4.722   3.225   1.719  0.4204 -0.2330 -0.0157
 2600SOL    HW1 8002   4.714   3.242   1.626 -0.7708 -0.2798  0.0666
 2600SOL    HW2 8003   4.809   3.257   1.742  1.6218 -2.1979 -1.5528
 2601SOL     OW 8004   4.214   3.155   1.156  0.2964  0.2410  0.5173
 2601SOL    HW1 8005   4.259   3.224   1.107 -1.5647  1.0341 -0.2096
 2601SOL    HW2 8006   4.266   3.077   1.142  1.4108  1.0939 -0.2820
 2602SOL     OW 8007   2.262   2.484   0.534 -0.0745  0.1614 -0.2652
 2602SOL    HW1 8008   2.271   2.410   0.474 -0.9903  1.4452 -2.0654
 2602SOL    HW2 8009   2.239   2.558   0.478  1.4610  1.9866  1.3880
 2603SOL     OW 8010   4.398   3.841   3.768 -0.2524 -0.2986 -0.3576
 2603SOL    HW1 8011   4.322   3.786   3.790 -1.0045  0.9797  0.3974
 2603SOL    HW2 8012   4.425   3.879   3.852  1.5344 -1.0609 -0.5384
 2604SOL     OW 8013   0.685   4.648   3.179 -0.2706 -0.5931  0.2526
 2604SOL    HW1 8014   0.706   4.683   3.092  0.2557  0.0090  0.6084
 2604SOL    HW2 8015   0.747   4.577   3.192 -0.0230 -0.3661  0.3291
 2605SOL     OW 8016   3.775   0.158   0.411 -0.3485 -0.2757  0.8687
 2605SOL    HW1 8017   3.841   0.092   0.390  0.6445  1.4110 -1.8104
 2605SOL    HW2 8018   3.816   0.214   0.476  0.0076 -0.5033  0.8454
 2606SOL     OW 8019   3.810   0.068   4.667  0.0009 -0.3173 -0.0165
 2606SOL    HW1 8020   3.727   0.117   4.672 -0.4845 -0.9765 -1.1866
 2606SOL    HW2 8021   3.844   0.089   4.580  1.1930  0.1220  0.5433
 2607SOL     OW 8022   4.095   3.643   1.382  0.0272 -0.4032  0.7422
 2607SOL    HW1 8023   4.135   3.583   1.445 -1.4449 -1.4556  0.7371
 2607SOL    HW2 8024   4.068   3.718   1.434 -1.3412 -1.3419  1.4505
 2608SOL     OW 8025   0.890   1.250   4.737  0.2305  0.2269  0.0881
 2608SOL    HW1 8026   0.901   1.332   4.689 -0.6544  0.4356  0.2258
 2608SOL    HW2 8027   0.797   1.247   4.758  0.0994 -1.1844 -0.5706
 2609SOL     OW 8028   1.126   3.861   4.091 -0.4495 -0.2655 -0.5199
 2609SOL    HW1 8029   1.207   3.908   4.075 -0.2035 -0.8733 -1.1215
 2609SOL    HW2 8030   1.098   3.890   4.178  0.3245  0.0695 -0.3735
 2610SOL     OW 8031   4.494   2.952   1.538  0.1703 -0.0234 -0.6057
 2610SOL    HW1 8032   4.404   2.971   1.510 -0.0026  0.5477  0.2901
 2610SOL    HW2 8033   4.547   2.967   1.461 -0.3769  0.7919 -0.8357
 2611SOL     OW 8034   0.881   3.893   0.558 -0.3960 -0.0600 -0.4828
 2611SOL    HW1 8035   0.907   3.821   0.500  1.2550 -1.3208  1.6726
 2611SOL    HW2 8036   0.928   3.876   0.640  0.2487  3.6352  0.0838
 2612SOL     OW 8037   1.928   4.367   4.180  0.0682 -0.0170  0.1074
 2612SOL    HW1 8038   1.836   4.344   4.167  0.6813 -2.2732 -0.5785
 2612SOL    HW2 8039   1.934   4.457   4.148 -2.3682  1.1594  2.4736
 2613SOL     OW 8040   4.042   0.335   1.816 -0.2060 -0.3184 -0.0359
 2613SOL    HW1 8041   4.014   0.288   1.895 -1.0468  0.6389  0.2591
 2613SOL    HW2 8042   4.096   0.272   1.769  0.8882 -0.6935  1.6338
 2614SOL     OW 8043   0.044   0.293   1.435  0.1701  0.2684 -0.1511
 2614SOL    HW1 8044  -0.022   0.314   1.500 -0.1370 -2.3284  0.4924
 2614SOL    HW2 8045  -0.005   0.263   1.358  0.4195 -3.0436  0.8098
 2615SOL     OW 8046   4.812   3.309   3.312 -0.1214 -0.1556  0.1317
 2615SOL    HW1 8047   4.740   3.297   3.374 -0.9218  0.7564 -0.5791
 2615SOL    HW2 8048   4.868   3.376   3.353 -0.2571 -0.0834  0.1999
 2616SOL     OW 8049   0.489   2.190   2.880  0.0763 -0.3565  0.2257
 2616SOL    HW1 8050   0.438   2.188   2.961  1.3605  1.5012  1.1677
 2616SOL    HW2 8051   0.465   2.273   2.839 -1.2458 -1.6625 -1.8565
 2617SOL     OW 8052   2.770   3.586   2.239 -0.4323 -0.2085 -0.3665
 2617SOL    HW1 8053   2.736   3.566   2.151  0.0661  1.5665 -1.0102
 2617SOL    HW2 8054   2.777   3.501   2.282 -2.9639 -0.9176 -1.1812
 2618SOL     OW 8055   3.264   1.171   0.056  0.1547 -0.3901  0.2531
 2618SOL    HW1 8056   3.280   1.091   0.006 -0.0448  0.5806 -1.4311
 2618SOL    HW2 8057   3.172   1.166   0.080  0.0352 -0.4814 -0.2116
 2619SOL     OW 8058   1.859   0.903   0.942 -0.6210 -0.3266 -0.4473
 2619SOL    HW1 8059   1.818   0.878   1.025  2.2618  0.5356  1.3768
 2619SOL    HW2 8060   1.889   0.820   0.904  0.4452 -0.5391  0.7911
 2620SOL     OW 8061   0.770   3.063   0.019 -0.0123 -0.5740 -0.1913
 2620SOL    HW1 8062   0.843   3.124   0.005  0.0671 -0.5067  0.4834
 2620SOL    HW2 8063   0.731   3.091   0.102 -0.5185 -0.9009 -0.3148
 2621SOL     OW 8064   2.573   2.019   2.492  0.1983  0.2787 -0.2682
 2621SOL    HW1 8065   2.550   1.984   2.406  0.0408  0.8111 -0.4487
 2621SOL    HW2 8066   2.637   1.958   2.528 -0.3952 -0.4235 -0.3955
 2622SOL     OW 8067   4.796   2.953   1.093 -0.2132 -0.3982  0.1442
 2622SOL    HW1 8068   4.755   2.971   1.177 -1.2956 -0.4071 -0.3634
 2622SOL    HW2 8069   4.760   3.019   1.034  2.1380  0.9749  0.1163
 2623SOL     OW 8070   0.427   1.125   0.976 -0.5832  0.5931 -0.5858
 2623SOL    HW1 8071   0.353   1.064   0.971  0.8347 -1.2348 -0.3521
 2623SOL    HW2 8072   0.503   1.073   0.950  0.7359  2.2376 -0.2163
 2624SOL     OW 8073   3.728   0.165   1.991  0.5930 -0.2704 -0.6864
 2624SOL    HW1 8074   3.823   0.175   1.993  0.3538  3.1619  0.7238
 2624SOL    HW2 8075   3.707   0.156   1.899  2.1588  1.7096 -1.3125
 2625SOL     OW 8076   2.387   3.308   4.326  0.1890 -0.5193  0.1384
 2625SOL    HW1 8077   2.344   3.245   4.269  1.1304 -1.3212  0.2852
 2625SOL    HW2 8078   2.440   3.255   4.385  1.4653  0.4278 -0.1048
 2626SOL     OW 8079   3.388   4.192   2.267  0.6385  0.2279 -0.4982
 2626SOL    HW1 8080   3.311   4.144   2.238 -0.9254  2.3542 -0.0845
 2626SOL    HW2 8081   3.440   4.129   2.316 -2.5623 -0.4692  2.2654
 2627SOL     OW 8082   2.532   1.078   4.190 -0.0388 -0.0674 -0.2794
 2627SOL    HW1 8083   2.610   1.124   4.221  0.1624 -0.4578 -0.1932
 2627SOL    HW2 8084   2.534   1.089   4.095  0.0195  0.0787 -0.2622
 2628SOL     OW 8085   4.802   3.516   3.852  0.3232 -0.1084  0.2395
 2628SOL    HW1 8086   4.794   3.609   3.871 -0.3001 -0.4908  2.1121
 2628SOL    HW2 8087   4.792   3.473   3.938  1.2758 -1.8591 -0.4728
 2629SOL     OW 8088   4.646   2.138   0.703  0.0475  0.3632 -0.5950
 2629SOL    HW1 8089   4.660   2.111   0.794  0.1094 -1.5581 -1.1389
 2629SOL    HW2 8090   4.700   2.216   0.693  0.8558  0.0104  0.7319
 2630SOL     OW 8091   4.094   3.828   4.418 -0.0696  0.0968 -0.0591
 2630SOL    HW1 8092   4.040   3.888   4.470 -1.4945 -0.4048 -0.9157
 2630SOL    HW2 8093   4.096   3.866   4.330  1.1153  0.1724 -0.0253
 2631SOL     OW 8094   4.455   1.348   2.238  0.3409  0.0157 -0.7366
 2631SOL    HW1 8095   4.486   1.301   2.161 -0.1497 -1.0497 -0.3089
 2631SOL    HW2 8096   4.467   1.440   2.217  0.6951 -0.2784 -1.8751
 2632SOL     OW 8097   2.431   0.741   0.453  0.3928 -0.9915  0.0234
 2632SOL    HW1 8098   2.479   0.715   0.374  0.3645 -1.8804  0.2944
 2632SOL    HW2 8099   2.339   0.734   0.428  0.3837  0.0203 -0.2715
 2633SOL     OW 8100   2.326   4.086   2.615 -0.5557 -0.4129  0.3222
 2633SOL    HW1 8101   2.364   4.145   2.551 -0.3724  0.1198  0.9073
 2633SOL    HW2 8102   2.231   4.100   2.608 -0.5517 -0.5378  0.0067
 2634SOL     OW 8103   4.244   0.984   2.509  0.5915  0.1745  0.0269
 2634SOL    HW1 8104   4.249   1.033   2.428  0.0469 -0.9143 -0.6963
 2634SOL    HW2 8105   4.187   1.036   2.566 -0.2426  0.2356 -0.8389
 2635SOL     OW 8106   2.268   3.165   0.599  0.3664  0.6241 -0.4671
 2635SOL    HW1 8107   2.346   3.173   0.543  0.3640 -0.2784 -0.6158
 2635SOL    HW2 8108   2.303   3.160   0.688  0.3631  2.2333 -0.3399
 2636SOL     OW 8109   2.561   4.069   1.892 -0.3729 -0.0594  0.2863
 2636SOL    HW1 8110   2.653   4.077   1.917  0.1782 -0.4412 -1.4534
 2636SOL    HW2 8111   2.537   3.980   1.918  0.1423 -0.4000 -0.3528
 2637SOL     OW 8112   1.191   1.237   0.385  0.0132 -0.0254  0.0663
 2637SOL    HW1 8113   1.119   1.235   0.322  0.9099  0.7304 -1.0088
 2637SOL    HW2 8114   1.148   1.234   0.471 -1.3110  0.7477 -0.5475
 2638SOL     OW 8115   3.363   0.984   0.460  0.1635 -0.1031 -0.1686
 2638SOL    HW1 8116   3.426   1.014   0.394  0.2108 -2.0502 -1.0902
 2638SOL    HW2 8117   3.287   0.956   0.409 -1.1321  1.3548  0.8745
 2639SOL     OW 8118   0.561   2.797   0.979  0.1357 -0.2254  0.6700
 2639SOL    HW1 8119   0.493   2.863   0.968  0.4091 -0.1103 -0.4160
 2639SOL    HW2 8120   0.628   2.840   1.031 -0.2935 -0.1060  1.1383
 2640SOL     OW 8121   0.033   1.710   0.668  0.1128  0.0249  0.2176
 2640SOL    HW1 8122   0.093   1.784   0.664  1.5063 -0.8598  2.4951
 2640SOL    HW2 8123   0.066   1.649   0.601 -0.6784  1.1440 -1.2382
 2641SOL     OW 8124   0.286   0.040   4.666  0.8972  0.2671  0.3833
 2641SOL    HW1 8125   0.295   0.113   4.604 -0.0441  0.1612  0.1044
 2641SOL    HW2 8126   0.251   0.080   4.746 -1.0029 -0.0518 -0.2354
 2642SOL     OW 8127   2.773   2.824   2.727 -0.1557 -0.1319 -0.2521
 2642SOL    HW1 8128   2.769   2.781   2.812 -1.9229 -2.6191 -1.4520
 2642SOL    HW2 8129   2.852   2.789   2.686  0.8808  1.3225  0.4221
 2643SOL     OW 8130   2.374   2.782   2.498  0.1385 -0.1452 -0.4660
 2643SOL    HW1 8131   2.419   2.827   2.570  0.7934 -1.3484 -0.0993
 2643SOL    HW2 8132   2.337   2.852   2.446  1.4549  0.8462 -0.1269
 2644SOL     OW 8133   2.499   4.176   0.669 -0.1424 -0.0205 -0.0623
 2644SOL    HW1 8134   2.528   4.201   0.581  2.6197 -1.7366  0.2775
 2644SOL    HW2 8135   2.568   4.119   0.703 -2.3360 -1.5094  2.2677
 2645SOL     OW 8136   0.305   1.508   2.601  0.2918  0.6164  0.2211
 2645SOL    HW1 8137   0.219   1.466   2.593  0.0434  1.0386  0.6358
 2645SOL    HW2 8138   0.296   1.590   2.553  0.7071  0.3061 -0.3926
 2646SOL     OW 8139   4.800   0.700   0.154 -0.1314 -0.2826 -1.1710
 2646SOL    HW1 8140   4.793   0.609   0.184  0.5425  0.7294  2.5178
 2646SOL    HW2 8141   4.747   0.750   0.216  1.6265  2.1238 -1.4804
 2647SOL     OW 8142   3.976   0.523   0.760 -0.4181  0.2706  0.4166
 2647SOL    HW1 8143   3.987   0.609   0.720 -1.0831  0.5516  0.8371
 2647SOL    HW2 8144   3.894   0.489   0.725 -0.5277  0.1172  0.8105
 2648SOL     OW 8145   0.957   0.991   4.819  0.1080 -0.2075 -0.3492
 2648SOL    HW1 8146   0.914   1.065   4.775  2.9368  2.0136  0.2999
 2648SOL    HW2 8147   0.967   1.019   4.910  0.2444 -1.9014  0.1921
 2649SOL     OW 8148   3.343   1.038   1.371 -0.1384 -0.0268  0.1620
 2649SOL    HW1 8149   3.255   1.001   1.361  0.1199 -1.7160  3.0480
 2649SOL    HW2 8150   3.402   0.963   1.367  1.0459  0.8710  0.0457
 2650SOL     OW 8151   1.215   0.943   2.750 -0.0772  0.3848 -0.8767
 2650SOL    HW1 8152   1.241   0.994   2.827  0.3684 -0.8680 -0.1598
 2650SOL    HW2 8153   1.120   0.949   2.749  0.0041  2.2026 -1.5276
 2651SOL     OW 8154   2.346   3.336   2.742 -0.0696  0.2029  0.4285
 2651SOL    HW1 8155   2.298   3.402   2.793  0.3546  0.8964 -0.0507
 2651SOL    HW2 8156   2.278   3.284   2.700 -0.4127  0.3144  0.8376
 2652SOL     OW 8157   2.825   3.820   2.391 -0.0015 -0.0308 -0.2636
 2652SOL    HW1 8158   2.775   3.740   2.374 -0.3480  0.5494 -2.1999
 2652SOL    HW2 8159   2.908   3.789   2.428 -0.4200 -1.2360 -0.3022
 2653SOL     OW 8160   2.419   3.601   3.261  0.1447  0.2410  0.4676
 2653SOL    HW1 8161   2.417   3.566   3.172 -0.8125 -1.4390  1.1017
 2653SOL    HW2 8162   2.337   3.650   3.269 -0.5840 -1.0192  0.9318
 2654SOL     OW 8163   4.351   1.757   2.036 -0.2781  0.4617  0.3113
 2654SOL    HW1 8164   4.347   1.798   1.950  1.1325  0.7024  0.3299
 2654SOL    HW2 8165   4.342   1.830   2.097  2.3066  0.8243  0.3450
 2655SOL     OW 8166   2.748   2.832   1.497 -0.5590  0.3353  0.2839
 2655SOL    HW1 8167   2.825   2.851   1.551  0.3212 -2.4617  0.1437
 2655SOL    HW2 8168   2.731   2.739   1.510 -1.6182  0.0274 -2.6145
 2656SOL     OW 8169   1.560   3.060   1.911  0.3096 -0.4442  0.0561
 2656SOL    HW1 8170   1.648   3.095   1.897  0.3665 -1.1889 -1.6832
 2656SOL    HW2 8171   1.571   2.965   1.906 -0.8174 -0.5142 -1.9589
 2657SOL     OW 8172   3.808   2.041   0.632  0.0709  0.1940  0.0011
 2657SOL    HW1 8173   3.714   2.023   0.627 -0.1005  0.2339  2.1570
 2657SOL    HW2 8174   3.813   2.136   0.643  0.3041  0.1000  0.7444
 2658SOL     OW 8175   0.690   1.701   0.488  0.5039  0.1987  0.8880
 2658SOL    HW1 8176   0.643   1.759   0.428 -0.3039  1.8328  2.9847
 2658SOL    HW2 8177   0.767   1.752   0.514 -0.7584  0.9043  3.5767
 2659SOL     OW 8178   1.287   4.339   4.795  0.4534  0.0222 -0.3120
 2659SOL    HW1 8179   1.215   4.320   4.735  0.0414  0.3875  0.0550
 2659SOL    HW2 8180   1.251   4.323   4.882  0.2831  1.7811 -0.0210
 2660SOL     OW 8181   2.101   2.935   0.643  0.4608 -0.7904  0.3035
 2660SOL    HW1 8182   2.135   3.009   0.592 -1.4334  0.3512  0.5871
 2660SOL    HW2 8183   2.178   2.896   0.683  1.5489  1.0554  0.1370
 2661SOL     OW 8184   4.795   4.588   0.395  0.3515  0.5486  0.1516
 2661SOL    HW1 8185   4.725   4.603   0.459 -0.9610 -0.6518 -0.9414
 2661SOL    HW2 8186   4.837   4.507   0.424  0.5589  0.6703  0.1901
 2662SOL     OW 8187   3.816   2.828   3.903 -0.4092 -0.2843  0.0826
 2662SOL    HW1 8188   3.723   2.848   3.893 -0.4972 -0.1324  1.0639
 2662SOL    HW2 8189   3.819   2.753   3.962  0.1157  0.5765  1.1982
 2663SOL     OW 8190   1.856   3.837   2.145  0.0341 -0.2667  0.2387
 2663SOL    HW1 8191   1.901   3.921   2.154  1.2797 -0.6725 -1.5075
 2663SOL    HW2 8192   1.822   3.818   2.232 -0.7633  2.2786  0.5803
 2664SOL     OW 8193   3.891   1.589   1.636  0.5394  0.5450 -0.0129
 2664SOL    HW1 8194   3.955   1.631   1.579  0.4732 -0.4958 -0.8715
 2664SOL    HW2 8195   3.811   1.584   1.583 -0.2688  1.7584  1.0130
 2665SOL     OW 8196   3.279   1.786   4.701  0.1280 -0.1305  0.2485
 2665SOL    HW1 8197   3.266   1.835   4.620 -0.3190  2.4372  1.7819
 2665SOL    HW2 8198   3.373   1.796   4.721  0.1274 -0.2997  0.3461
 2666SOL     OW 8199   3.078   4.660   3.344 -0.4040  0.2318  0.1473
 2666SOL    HW1 8200   2.985   4.643   3.355 -0.1394 -0.1461  2.0879
 2666SOL    HW2 8201   3.118   4.573   3.335 -0.0797  0.3078  0.8130
 2667SOL     OW 8202   0.430   1.922   0.116 -0.1585  0.3105 -0.4192
 2667SOL    HW1 8203   0.484   1.980   0.062 -0.3502 -0.5985 -1.6475
 2667SOL    HW2 8204   0.474   1.919   0.200  1.1615  0.3810 -1.0821
 2668SOL     OW 8205   2.247   0.361   2.153 -0.3523  0.1406  0.4881
 2668SOL    HW1 8206   2.216   0.452   2.149  0.8752  0.5608  0.0468
 2668SOL    HW2 8207   2.177   0.314   2.197 -0.1138  1.6998  2.6860
 2669SOL     OW 8208   3.378   2.263   0.006 -0.0246  0.0104 -0.1050
 2669SOL    HW1 8209   3.460   2.224   0.036  1.1157  0.8133 -2.0069
 2669SOL    HW2 8210   3.377   2.350   0.045 -1.4380 -0.9731  2.2463
 2670SOL     OW 8211   4.526   1.827   2.329 -1.1683 -0.6783 -0.2367
 2670SOL    HW1 8212   4.458   1.763   2.351 -1.4864 -0.0815  0.5629
 2670SOL    HW2 8213   4.478   1.899   2.288 -1.5599  1.1607  3.0840
 2671SOL     OW 8214   3.493   2.386   2.291  0.0928 -0.0632  0.0994
 2671SOL    HW1 8215   3.434   2.328   2.242 -0.6638  0.2543  0.6128
 2671SOL    HW2 8216   3.483   2.359   2.382  0.0229  0.6191  0.2993
 2672SOL     OW 8217   3.055   1.707   4.344  0.3026 -0.4301  0.1460
 2672SOL    HW1 8218   3.019   1.794   4.359  0.6801 -0.0739 -0.8981
 2672SOL    HW2 8219   3.083   1.708   4.252  2.3030 -0.9209  0.6931
 2673SOL     OW 8220   1.908   0.956   4.007 -0.4479 -0.3397  0.5088
 2673SOL    HW1 8221   1.847   0.883   4.007 -0.6121 -0.2559 -1.3976
 2673SOL    HW2 8222   1.991   0.918   3.978 -0.0183 -0.1292  1.4328
 2674SOL     OW 8223   0.664   0.720   4.318  0.4581  0.6886  0.2668
 2674SOL    HW1 8224   0.745   0.734   4.367  0.0202 -0.4664  1.3695
 2674SOL    HW2 8225   0.613   0.660   4.372 -1.1865  1.4601 -0.3629
 2675SOL     OW 8226   3.668   4.716   3.057 -0.2080  0.4815 -0.1378
 2675SOL    HW1 8227   3.647   4.623   3.043  0.2669  0.2279  0.7463
 2675SOL    HW2 8228   3.644   4.759   2.975  2.6373 -0.9295 -1.8443
 2676SOL     OW 8229   1.304   0.210   2.222  0.7818  0.4139  0.5580
 2676SOL    HW1 8230   1.272   0.160   2.147 -2.9907  1.8293  1.0163
 2676SOL    HW2 8231   1.272   0.162   2.299  1.1490  1.0664  1.1318
 2677SOL     OW 8232   3.726   3.601   3.335  0.3835 -0.7759  0.5680
 2677SOL    HW1 8233   3.821   3.600   3.343  0.5311  0.0446 -0.8465
 2677SOL    HW2 8234   3.698   3.515   3.368  1.6488 -1.2453  0.4512
 2678SOL     OW 8235   1.685   0.621   2.800 -0.0272  0.4502 -0.1224
 2678SOL    HW1 8236   1.612   0.660   2.849  1.0583  1.6300  0.6317
 2678SOL    HW2 8237   1.747   0.693   2.789  0.5216 -0.2412 -1.7606
 2679SOL     OW 8238   1.885   2.174   4.624  0.2987  0.3664  0.9153
 2679SOL    HW1 8239   1.790   2.171   4.613  0.2702  0.3067  1.1556
 2679SOL    HW2 8240   1.899   2.241   4.691  0.6054  2.2840 -0.9631
 2680SOL     OW 8241   2.077   4.634   2.111 -0.3490 -1.0428 -0.2624
 2680SOL    HW1 8242   2.009   4.699   2.096 -0.3366 -0.7196  0.9796
 2680SOL    HW2 8243   2.082   4.585   2.028  0.4869  1.2845 -1.6762
 2681SOL     OW 8244   3.013   0.279   4.719  0.3009  0.1826  0.6054
 2681SOL    HW1 8245   3.057   0.232   4.648  1.4881  1.7430  0.2663
 2681SOL    HW2 8246   2.922   0.248   4.715  0.6232 -0.6767 -0.7897
 2682SOL     OW 8247   4.696   4.072   0.255  0.3074 -0.1119 -0.3464
 2682SOL    HW1 8248   4.702   3.981   0.283  1.4593 -0.1713 -0.7517
 2682SOL    HW2 8249   4.656   4.068   0.168 -0.2517 -0.1651 -0.0966
 2683SOL     OW 8250   4.369   2.019   0.456  0.1915 -0.0337  0.2558
 2683SOL    HW1 8251   4.285   1.973   0.453  1.0110 -1.5743 -1.9738
 2683SOL    HW2 8252   4.347   2.109   0.434 -0.7505 -0.8609 -2.7824
 2684SOL     OW 8253   0.596   4.626   4.459 -0.2005  0.0434 -0.2494
 2684SOL    HW1 8254   0.684   4.657   4.438  1.2992 -2.6284  1.4963
 2684SOL    HW2 8255   0.576   4.664   4.544 -1.3233  1.6041 -1.1608
 2685SOL     OW 8256   1.973   3.369   0.727 -0.6150  0.0829  0.6422
 2685SOL    HW1 8257   2.068   3.382   0.725 -0.5355 -0.4864 -1.0027
 2685SOL    HW2 8258   1.937   3.458   0.731 -0.0161  0.3314  0.5701
 2686SOL     OW 8259   2.761   2.971   1.121  0.4191 -0.5509 -0.0854
 2686SOL    HW1 8260   2.675   3.003   1.147  0.6302 -1.6526  2.1694
 2686SOL    HW2 8261   2.745   2.881   1.092  0.8303 -0.8347  0.5552
 2687SOL     OW 8262   1.706   1.119   4.590  0.0795 -0.0435  0.6538
 2687SOL    HW1 8263   1.727   1.069   4.669 -1.0676 -0.2022  0.8747
 2687SOL    HW2 8264   1.633   1.175   4.616  0.2205  0.4893 -0.0811
 2688SOL     OW 8265   2.446   1.419   2.157  0.1624 -0.0799  0.6017
 2688SOL    HW1 8266   2.370   1.475   2.174  0.2922  0.0522  0.7423
 2688SOL    HW2 8267   2.470   1.384   2.243  1.1366  0.9945  0.7815
 2689SOL     OW 8268   1.944   3.466   3.766  0.0951  0.1511 -0.0601
 2689SOL    HW1 8269   2.016   3.408   3.742 -0.0336 -0.0820  0.1151
 2689SOL    HW2 8270   1.951   3.476   3.861  0.6091  1.0810 -0.1834
 2690SOL     OW 8271   4.078   3.482   1.138 -0.5739 -0.2943 -0.0231
 2690SOL    HW1 8272   4.089   3.567   1.096 -0.2986 -0.5672 -0.5219
 2690SOL    HW2 8273   4.075   3.501   1.232 -0.0111  0.2088 -0.1048
 2691SOL     OW 8274   3.106   0.495   4.395 -0.3123 -0.4803  0.6002
 2691SOL    HW1 8275   3.033   0.474   4.453 -0.0187 -0.7324  0.8792
 2691SOL    HW2 8276   3.083   0.454   4.312 -2.8135  3.2850 -0.8803
 2692SOL     OW 8277   2.462   2.026   1.735  0.0562  0.2463  0.1793
 2692SOL    HW1 8278   2.383   1.980   1.763  1.0569 -0.0083  2.8386
 2692SOL    HW2 8279   2.516   1.958   1.694 -0.5003  0.1270 -0.3671
 2693SOL     OW 8280   2.262   3.599   1.861  0.2957  0.3738 -0.8154
 2693SOL    HW1 8281   2.259   3.592   1.956  0.5635  0.4685 -0.7986
 2693SOL    HW2 8282   2.171   3.596   1.833  0.1783  1.0547 -0.5074
 2694SOL     OW 8283   3.791   1.650   0.844  0.0400 -0.2095  0.2082
 2694SOL    HW1 8284   3.748   1.576   0.802  1.3754 -1.6242  1.2113
 2694SOL    HW2 8285   3.744   1.661   0.927  1.1753 -1.4273  1.0704
 2695SOL     OW 8286   4.263   2.937   3.462  0.1532  0.1465  0.4584
 2695SOL    HW1 8287   4.170   2.920   3.445  0.0891  0.0772  0.8632
 2695SOL    HW2 8288   4.266   2.957   3.556  0.1782  2.6721 -0.0042
 2696SOL     OW 8289   1.303   4.086   4.060  0.1988 -0.4352  0.0718
 2696SOL    HW1 8290   1.369   4.052   3.999  0.2711  0.3019 -0.2687
 2696SOL    HW2 8291   1.237   4.127   4.004  0.5120  0.6847  0.4983
 2697SOL     OW 8292   3.003   4.208   0.618 -0.6320 -0.0465  0.0116
 2697SOL    HW1 8293   2.984   4.145   0.688  1.6055  1.3116  2.0083
 2697SOL    HW2 8294   3.051   4.157   0.553 -0.3954 -0.7955  0.7490
 2698SOL     OW 8295   0.689   3.059   3.624  0.0379 -0.0872 -0.1040
 2698SOL    HW1 8296   0.769   3.031   3.579  0.8506  0.2564  1.0640
 2698SOL    HW2 8297   0.715   3.138   3.671 -1.3247  0.7163 -0.6411
 2699SOL     OW 8298   2.303   1.389   0.266  0.4107 -0.3227 -0.1555
 2699SOL    HW1 8299   2.296   1.439   0.185  0.1201 -1.9995 -1.2134
 2699SOL    HW2 8300   2.373   1.325   0.249  0.5828 -0.4639  1.0352
 2700SOL     OW 8301   4.383   4.343   0.612  0.7612  0.4702 -0.2841
 2700SOL    HW1 8302   4.424   4.279   0.553 -0.7496 -0.6316 -0.1962
 2700SOL    HW2 8303   4.367   4.293   0.693  1.3408  1.5235  0.5119
 2701SOL     OW 8304   0.798   4.795   1.008 -0.1183  0.1681 -0.6662
 2701SOL    HW1 8305   0.729   4.791   1.074 -0.8359 -0.4127 -1.4373
 2701SOL    HW2 8306   0.760   4.848   0.938 -0.3227 -1.3169 -1.7041
 2702SOL     OW 8307   2.509   2.981   0.028  0.5870 -0.3794 -0.1046
 2702SOL    HW1 8308   2.551   3.067   0.031 -0.9600  0.3941  0.6180
 2702SOL    HW2 8309   2.562   2.927   0.086  1.1831  0.2726 -0.0225
 2703SOL     OW 8310   0.248   4.334   3.056 -0.3913  0.0396  0.1692
 2703SOL    HW1 8311   0.176   4.358   3.114 -0.2554  0.3033  0.2308
 2703SOL    HW2 8312   0.207   4.279   2.989 -0.9880  1.5524 -0.7711
 2704SOL     OW 8313   2.887   1.492   4.483  0.5604 -0.0057  0.4780
 2704SOL    HW1 8314   2.831   1.453   4.550  0.5678  0.1962  0.6031
 2704SOL    HW2 8315   2.957   1.536   4.532  1.5689 -1.3436  0.2850
 2705SOL     OW 8316   4.705   1.755   0.884 -0.0068  0.0641  0.4836
 2705SOL    HW1 8317   4.680   1.663   0.894 -1.1883  0.3683  0.4157
 2705SOL    HW2 8318   4.752   1.758   0.800 -1.2722 -0.2248 -0.2606
 2706SOL     OW 8319   4.232   0.005   0.907  0.3665  0.0489  0.1530
 2706SOL    HW1 8320   4.213  -0.079   0.949 -1.3777  0.0335 -0.5829
 2706SOL    HW2 8321   4.260   0.062   0.980 -1.2577 -0.3626  1.1517
 2707SOL     OW 8322   3.132   1.192   2.065  0.2255 -0.2372 -0.8036
 2707SOL    HW1 8323   3.065   1.182   2.133  0.7957  1.1853  0.0273
 2707SOL    HW2 8324   3.189   1.116   2.076  0.7956  0.3956  0.9067
 2708SOL     OW 8325   0.075   3.756   4.571  0.2026  0.5157  0.2387
 2708SOL    HW1 8326   0.143   3.766   4.638  0.7104  0.0773 -0.1983
 2708SOL    HW2 8327   0.076   3.663   4.550 -0.8881  0.4104  0.5772
 2709SOL     OW 8328   3.319   1.506   2.408 -0.3478  0.4860 -0.1398
 2709SOL    HW1 8329   3.345   1.414   2.401 -1.7907  0.0925 -0.6186
 2709SOL    HW2 8330   3.394   1.555   2.373  0.3594 -0.5067 -0.0574
 2710SOL     OW 8331   0.901   0.603   1.528 -0.1860  0.0640  0.4413
 2710SOL    HW1 8332   0.947   0.640   1.452 -0.6827 -0.2675 -0.0344
 2710SOL    HW2 8333   0.967   0.600   1.597  0.5177 -0.4129 -0.2345
 2711SOL     OW 8334   1.733   1.755   4.361  0.0622  0.1819  0.1668
 2711SOL    HW1 8335   1.718   1.780   4.452  0.2163 -0.7967  0.4695
 2711SOL    HW2 8336   1.754   1.837   4.317  0.2115  0.6301  1.0578
 2712SOL     OW 8337   3.534   0.542   4.693 -0.5583  0.6342 -0.4969
 2712SOL    HW1 8338   3.446   0.511   4.670 -0.6687 -0.9811  1.7962
 2712SOL    HW2 8339   3.529   0.637   4.683 -2.7179  0.6234  0.0358
 2713SOL     OW 8340   3.179   1.551   0.418 -0.0751 -0.1452 -0.1087
 2713SOL    HW1 8341   3.148   1.638   0.391 -0.1536 -0.2343 -0.2991
 2713SOL    HW2 8342   3.100   1.499   0.429 -0.0203 -0.2301 -0.1150
 2714SOL     OW 8343   4.019   2.444   0.328  0.0403 -0.5134 -0.3016
 2714SOL    HW1 8344   4.033   2.487   0.243 -0.2727  0.1955 -0.0022
 2714SOL    HW2 8345   3.938   2.395   0.317  0.1156 -0.5996 -0.4793
 2715SOL     OW 8346   1.221   1.782   1.895  0.0310  0.6190  0.6593
 2715SOL    HW1 8347   1.194   1.861   1.848 -0.3802  0.1743  0.1334
 2715SOL    HW2 8348   1.310   1.765   1.865 -0.2710  0.2728 -0.0585
 2716SOL     OW 8349   1.488   1.866   0.302 -0.1704 -0.1617 -0.3810
 2716SOL    HW1 8350   1.428   1.792   0.293  0.8254 -1.2709  1.5199
 2716SOL    HW2 8351   1.431   1.941   0.320 -1.1468 -0.5262 -1.7369
 2717SOL     OW 8352   0.017   1.918   3.667  0.0991 -0.0919 -0.3720
 2717SOL    HW1 8353  -0.022   1.832   3.683  0.2113  0.2447  2.0708
 2717SOL    HW2 8354   0.089   1.901   3.606 -0.5290 -1.5387 -0.7482
 2718SOL     OW 8355   0.794   2.138   1.932 -0.3466 -0.1435  0.0561
 2718SOL    HW1 8356   0.840   2.214   1.898 -0.5742  0.2951  0.7027
 2718SOL    HW2 8357   0.720   2.127   1.872 -0.5328  0.3851  0.1787
 2719SOL     OW 8358   1.723   0.527   0.970 -0.7029  0.0059  0.4530
 2719SOL    HW1 8359   1.660   0.484   0.912  0.6081 -2.9282  0.9952
 2719SOL    HW2 8360   1.788   0.565   0.912 -0.4983 -1.1239 -0.0913
 2720SOL     OW 8361   0.149   2.811   3.605 -0.0417  0.0095  0.4169
 2720SOL    HW1 8362   0.244   2.810   3.596  0.1161  2.5015  1.0693
 2720SOL    HW2 8363   0.116   2.784   3.520  1.2176 -1.3079  0.3083
 2721SOL     OW 8364   3.963   4.216   0.239 -0.1402  0.2664  0.0668
 2721SOL    HW1 8365   4.000   4.232   0.326  1.7831 -0.2930 -0.5948
 2721SOL    HW2 8366   4.017   4.269   0.180  0.2617 -1.3152 -1.0575
 2722SOL     OW 8367   1.721   1.875   3.028  0.5099 -0.1821 -0.1042
 2722SOL    HW1 8368   1.752   1.872   2.938  0.8965  0.3138  0.0086
 2722SOL    HW2 8369   1.647   1.936   3.025  0.5177 -0.1717 -0.0825
 2723SOL     OW 8370   0.985   3.872   1.605 -0.2575 -0.0595 -0.7421
 2723SOL    HW1 8371   0.928   3.929   1.657  1.6665 -0.3815  1.9436
 2723SOL    HW2 8372   0.928   3.802   1.575 -1.2491 -0.9394  2.7124
 2724SOL     OW 8373   3.741   1.187   4.820  0.2935  0.0161 -0.1856
 2724SOL    HW1 8374   3.837   1.191   4.816  0.2320  0.4191 -2.3274
 2724SOL    HW2 8375   3.718   1.112   4.765 -0.5836 -1.1751  1.7239
 2725SOL     OW 8376   0.835   0.064   1.555  0.4553  0.0168 -0.5596
 2725SOL    HW1 8377   0.892   0.126   1.601  0.5824 -0.4808 -0.0315
 2725SOL    HW2 8378   0.871  -0.022   1.576 -0.3278 -0.2912 -0.4447
 2726SOL     OW 8379   1.324   2.334   2.418 -0.6511 -0.7684 -0.0163
 2726SOL    HW1 8380   1.277   2.417   2.424  3.5763  1.9166  0.0340
 2726SOL    HW2 8381   1.338   2.321   2.324  0.7658 -0.0596  0.0808
 2727SOL     OW 8382   3.887   4.597   4.008 -0.3889  0.0238 -0.0211
 2727SOL    HW1 8383   3.938   4.517   4.021 -1.2705 -0.4488  0.6283
 2727SOL    HW2 8384   3.950   4.668   4.015  0.4030 -0.6077 -0.5733
 2728SOL     OW 8385   1.496   2.029   0.635 -0.6758 -0.0700  0.0972
 2728SOL    HW1 8386   1.492   1.985   0.550 -0.2669 -1.8122  0.9355
 2728SOL    HW2 8387   1.407   2.022   0.670 -0.6037 -0.2301  0.2452
 2729SOL     OW 8388   1.953   4.572   3.941  0.3658  0.0130 -0.2452
 2729SOL    HW1 8389   1.971   4.661   3.912  0.3588  0.8926  2.2216
 2729SOL    HW2 8390   1.860   4.559   3.922  0.5328  0.2461 -1.2683
 2730SOL     OW 8391   4.814   4.007   4.660  0.2284  0.7870 -0.2580
 2730SOL    HW1 8392   4.847   3.918   4.650  0.4113  0.7265  0.7444
 2730SOL    HW2 8393   4.782   4.031   4.573 -1.2457 -0.8151 -0.2212
 2731SOL     OW 8394   3.559   3.440   1.580  0.8675 -0.1607  0.3619
 2731SOL    HW1 8395   3.621   3.374   1.549  1.1871  1.2162 -2.1922
 2731SOL    HW2 8396   3.477   3.419   1.534  0.1614 -0.3617  1.6528
 2732SOL     OW 8397   2.473   1.186   0.182  0.1209  0.8886  0.2523
 2732SOL    HW1 8398   2.504   1.097   0.197  1.1376  0.7189 -2.3977
 2732SOL    HW2 8399   2.402   1.178   0.118  1.1938  2.0280 -1.1594
 2733SOL     OW 8400   1.689   1.458   1.839  0.1369  0.0473 -0.1861
 2733SOL    HW1 8401   1.778   1.471   1.806  0.0730 -0.3738 -0.5406
 2733SOL    HW2 8402   1.671   1.365   1.821  0.3762 -0.3986  1.7069
 2734SOL     OW 8403   0.679   0.777   2.922 -0.6291  0.6349 -0.2554
 2734SOL    HW1 8404   0.720   0.719   2.985 -0.8239  0.7423 -0.0295
 2734SOL    HW2 8405   0.632   0.841   2.975 -0.8221  0.7048 -0.5090
 2735SOL     OW 8406   2.985   1.060   2.267  0.0445 -0.3302  0.2928
 2735SOL    HW1 8407   2.918   1.005   2.226 -0.5539  0.8553 -0.3745
 2735SOL    HW2 8408   2.981   1.036   2.360  0.9902 -2.5969 -0.1859
 2736SOL     OW 8409   3.100   0.237   3.317  0.1208 -0.2642  0.2339
 2736SOL    HW1 8410   3.091   0.324   3.355 -0.3374 -0.6953  1.1403
 2736SOL    HW2 8411   3.027   0.229   3.257 -0.9427 -0.6947  1.5306
 2737SOL     OW 8412   3.317   3.939   2.899 -0.2677  0.0261 -0.0780
 2737SOL    HW1 8413   3.337   4.028   2.928  1.4127 -0.3308  0.0007
 2737SOL    HW2 8414   3.297   3.948   2.806  0.5664  0.4245 -0.2274
 2738SOL     OW 8415   0.623   3.318   0.378  0.1931 -0.4087 -1.0544
 2738SOL    HW1 8416   0.659   3.266   0.306  1.6875 -1.5965  0.4797
 2738SOL    HW2 8417   0.698   3.337   0.434 -1.1981 -1.2977  1.2830
 2739SOL     OW 8418   0.616   4.649   1.655  0.7662 -0.0313 -0.5439
 2739SOL    HW1 8419   0.700   4.625   1.616  0.6757 -0.3601 -0.5387
 2739SOL    HW2 8420   0.559   4.668   1.580  0.5938 -0.6581 -0.5698
 2740SOL     OW 8421   0.556   0.168   1.159  0.1722 -0.6102 -0.3616
 2740SOL    HW1 8422   0.498   0.242   1.141  1.0098  0.3650  0.7993
 2740SOL    HW2 8423   0.523   0.131   1.241  0.4995 -0.7398 -0.2855
 2741SOL     OW 8424   3.674   2.160   4.240  0.4819 -0.6276  0.1732
 2741SOL    HW1 8425   3.609   2.206   4.293 -2.3620 -1.3011 -2.4342
 2741SOL    HW2 8426   3.738   2.127   4.303 -0.9037  1.2815  2.7665
 2742SOL     OW 8427   2.883   0.518   4.595  0.6426 -0.1801  0.3962
 2742SOL    HW1 8428   2.929   0.453   4.648 -0.4968 -1.0246  0.3738
 2742SOL    HW2 8429   2.803   0.538   4.644  0.9278  1.1749  0.3719
 2743SOL     OW 8430   4.682   2.953   1.762  0.1562 -0.1700  0.1424
 2743SOL    HW1 8431   4.723   3.034   1.792  0.3525 -0.0028 -0.5508
 2743SOL    HW2 8432   4.620   2.981   1.694 -0.0747 -0.5589  0.1865
 2744SOL     OW 8433   4.146   3.437   2.863  0.0193 -0.0617 -0.0397
 2744SOL    HW1 8434   4.076   3.454   2.800  0.6692 -0.0214 -0.7558
 2744SOL    HW2 8435   4.167   3.523   2.899 -0.0594 -0.0290 -0.0707
 2745SOL     OW 8436   1.233   4.579   3.050 -0.1579  0.6103 -0.7589
 2745SOL    HW1 8437   1.189   4.644   3.104  1.4517 -0.3327  1.8952
 2745SOL    HW2 8438   1.321   4.573   3.086  0.2948 -1.7699 -2.0159
 2746SOL     OW 8439   0.864   1.995   0.778  0.2177 -0.2345  0.1043
 2746SOL    HW1 8440   0.938   2.044   0.812  1.1408 -1.4054 -0.1309
 2746SOL    HW2 8441   0.848   1.927   0.844  0.4588 -1.0170 -0.6168
 2747SOL     OW 8442   3.737   1.642   3.895  0.1101  0.1116  0.4092
 2747SOL    HW1 8443   3.656   1.662   3.848 -0.6359 -0.2837  1.4839
 2747SOL    HW2 8444   3.762   1.555   3.862 -0.9314 -0.5918  1.3842
 2748SOL     OW 8445   4.613   3.458   0.718 -0.0243 -0.6449  0.1243
 2748SOL    HW1 8446   4.570   3.536   0.683  1.9631 -0.2280 -1.5919
 2748SOL    HW2 8447   4.563   3.385   0.682 -1.8461 -0.2526  1.6727
 2749SOL     OW 8448   0.953   3.754   4.708  0.0028  0.2570  0.1367
 2749SOL    HW1 8449   1.008   3.712   4.775  0.5114  1.4127  0.4720
 2749SOL    HW2 8450   0.873   3.701   4.706  0.0227  0.1251  1.5868
 2750SOL     OW 8451   2.950   1.318   1.911 -0.1356  0.0758  0.0561
 2750SOL    HW1 8452   3.012   1.258   1.951 -1.5420 -1.9549 -0.6777
 2750SOL    HW2 8453   2.871   1.310   1.964 -1.2941 -0.9862 -1.7389
 2751SOL     OW 8454   4.187   0.593   4.319  0.2549  0.3858 -0.0038
 2751SOL    HW1 8455   4.270   0.614   4.361  0.8440 -0.2560 -0.8069
 2751SOL    HW2 8456   4.205   0.513   4.269 -0.6687  0.5959 -0.7040
 2752SOL     OW 8457   4.472   1.593   4.399 -0.4214 -0.4703 -0.1862
 2752SOL    HW1 8458   4.538   1.524   4.410  1.0462  0.3159 -3.1989
 2752SOL    HW2 8459   4.389   1.549   4.418  0.7216 -2.1864  1.1262
 2753SOL     OW 8460   2.429   0.125   0.087 -0.1094  0.0434 -0.2951
 2753SOL    HW1 8461   2.402   0.043   0.045 -1.7571  0.2568  0.2583
 2753SOL    HW2 8462   2.404   0.193   0.025 -0.1435  0.2050 -0.1064
 2754SOL     OW 8463   3.373   0.595   3.802 -0.0712  0.7773 -0.3041
 2754SOL    HW1 8464   3.354   0.612   3.894  1.0412  0.5807 -0.0271
 2754SOL    HW2 8465   3.288   0.571   3.764 -1.3760  4.7085 -0.2683
 2755SOL     OW 8466   4.819   0.551   3.820 -0.1288  0.2878 -0.1863
 2755SOL    HW1 8467   4.855   0.502   3.894 -0.2698  1.6712  0.8444
 2755SOL    HW2 8468   4.897   0.577   3.769  0.5953  3.6385  2.2670
 2756SOL     OW 8469   3.489   3.906   0.501  0.0997 -0.1987  0.1371
 2756SOL    HW1 8470   3.528   3.891   0.415 -1.7850 -0.9885 -0.6165
 2756SOL    HW2 8471   3.510   3.827   0.551 -0.6755 -0.7129 -0.3330
 2757SOL     OW 8472   0.843   1.179   0.240 -0.2826  0.8198  0.4739
 2757SOL    HW1 8473   0.787   1.256   0.235 -0.8745  0.4269  0.8272
 2757SOL    HW2 8474   0.782   1.105   0.237  0.0219  0.4036  2.7444
 2758SOL     OW 8475   3.523   0.728   0.760  0.3523  0.0793  0.1779
 2758SOL    HW1 8476   3.518   0.652   0.818 -1.8456 -0.0772 -0.1172
 2758SOL    HW2 8477   3.615   0.732   0.733  0.5885 -2.3228  0.4154
 2759SOL     OW 8478   0.544   2.780   2.568  0.3228  0.3052  0.3482
 2759SOL    HW1 8479   0.518   2.847   2.631  1.0125  0.6939  0.2278
 2759SOL    HW2 8480   0.462   2.736   2.544 -0.2802  1.7155 -0.2831
 2760SOL     OW 8481   2.903   3.535   0.267 -0.1256 -0.2237 -0.0007
 2760SOL    HW1 8482   2.964   3.599   0.230 -2.5708  0.3439 -3.5514
 2760SOL    HW2 8483   2.819   3.580   0.269 -0.9513 -1.6885  2.6101
 2761SOL     OW 8484   2.953   0.700   2.966 -0.1151  0.1806  1.3212
 2761SOL    HW1 8485   3.045   0.708   2.938 -0.0348  2.7744  2.0640
 2761SOL    HW2 8486   2.920   0.624   2.918  1.9839  0.1399 -0.2033
 2762SOL     OW 8487   3.137   0.938   3.836 -0.2325  0.6976  0.2539
 2762SOL    HW1 8488   3.097   0.905   3.755 -1.3129  0.9607  0.6581
 2762SOL    HW2 8489   3.150   0.861   3.890  0.2197  0.5573 -0.0461
 2763SOL     OW 8490   3.117   1.573   4.610 -0.4719 -0.3989  0.2402
 2763SOL    HW1 8491   3.171   1.511   4.561  0.0463 -0.4581  0.8756
 2763SOL    HW2 8492   3.180   1.633   4.650 -1.0139  1.9962 -2.2199
 2764SOL     OW 8493   0.718   0.449   2.310 -0.4293  0.1504 -0.0416
 2764SOL    HW1 8494   0.758   0.440   2.397 -2.6601  0.4673  1.1175
 2764SOL    HW2 8495   0.769   0.392   2.253  1.3027  0.1751  1.3924
 2765SOL     OW 8496   4.196   2.672   0.365 -0.0586  0.1825 -0.8570
 2765SOL    HW1 8497   4.127   2.606   0.360  0.4525 -0.3870 -0.4209
 2765SOL    HW2 8498   4.151   2.751   0.395 -0.5385 -0.1559 -0.6782
 2766SOL     OW 8499   4.489   4.702   3.463  0.5452  0.3997 -0.4066
 2766SOL    HW1 8500   4.484   4.611   3.493  0.5960 -0.2556 -2.2854
 2766SOL    HW2 8501   4.440   4.751   3.529  0.3029 -1.0157  0.5122
 2767SOL     OW 8502   3.856   3.742   0.743 -0.0435  0.3728 -0.2327
 2767SOL    HW1 8503   3.881   3.821   0.696  1.7570 -0.5457 -0.9434
 2767SOL    HW2 8504   3.916   3.675   0.709 -2.6295 -1.7366 -0.9601
 2768SOL     OW 8505   0.500   3.605   2.455  0.0213 -0.0890  0.1123
 2768SOL    HW1 8506   0.512   3.601   2.550 -2.9858 -2.6824  0.5624
 2768SOL    HW2 8507   0.419   3.656   2.443  0.0498 -0.2793 -1.0038
 2769SOL     OW 8508   4.146   2.376   3.411 -0.1454 -0.3850 -0.3714
 2769SOL    HW1 8509   4.177   2.416   3.492 -1.4668  0.4513 -0.2410
 2769SOL    HW2 8510   4.051   2.375   3.419 -0.2160 -3.0234 -0.6727
 2770SOL     OW 8511   4.322   0.154   1.504 -0.1734 -0.6552 -0.1076
 2770SOL    HW1 8512   4.276   0.153   1.588 -0.5315 -1.2843 -0.2966
 2770SOL    HW2 8513   4.348   0.063   1.491  1.0022 -0.3335 -0.0835
 2771SOL     OW 8514   2.028   1.834   2.127  0.5546  0.2413  0.0996
 2771SOL    HW1 8515   2.115   1.864   2.153  0.3726  0.3991  0.5225
 2771SOL    HW2 8516   1.979   1.914   2.109 -0.0892  0.2457  1.7354
 2772SOL     OW 8517   2.113   0.040   3.522 -0.6083  0.2484  0.3312
 2772SOL    HW1 8518   2.079   0.059   3.435  0.2944  1.0745  0.1436
 2772SOL    HW2 8519   2.085  -0.049   3.540 -1.6593  0.4196 -0.3873
 2773SOL     OW 8520   0.764   0.735   2.229  0.1025  0.3215  0.1006
 2773SOL    HW1 8521   0.797   0.658   2.276 -0.1042  0.5525  0.6324
 2773SOL    HW2 8522   0.672   0.715   2.211  0.2268  0.1573 -0.3749
 2774SOL     OW 8523   0.095   3.049   2.266 -0.3114  0.3538  0.1743
 2774SOL    HW1 8524   0.075   3.070   2.358 -0.0824  2.7478 -0.2582
 2774SOL    HW2 8525   0.016   3.006   2.234 -0.7772  0.3707  1.2530
 2775SOL     OW 8526   3.961   4.515   4.506 -0.5753  0.0478 -0.1874
 2775SOL    HW1 8527   3.906   4.513   4.427 -1.1373 -2.9647  0.1551
 2775SOL    HW2 8528   3.900   4.525   4.578 -0.3250  0.1499  0.0119
 2776SOL     OW 8529   3.773   1.057   1.138  0.1390  0.1755  0.0027
 2776SOL    HW1 8530   3.743   1.006   1.213 -0.3338 -0.7272 -0.7881
 2776SOL    HW2 8531   3.693   1.077   1.089  0.7126 -2.4490 -2.2467
 2777SOL     OW 8532   1.137   2.917   4.499  0.0963 -0.4029 -0.2645
 2777SOL    HW1 8533   1.052   2.874   4.484 -0.2348 -0.0469  0.5700
 2777SOL    HW2 8534   1.120   3.010   4.483  0.1347 -0.2290  0.6712
 2778SOL     OW 8535   3.327   1.856   4.168 -0.7507  0.2956 -0.1742
 2778SOL    HW1 8536   3.243   1.827   4.133 -1.1795  2.0720 -0.7482
 2778SOL    HW2 8537   3.307   1.939   4.212  0.6086  0.4633  0.1685
 2779SOL     OW 8538   2.647   1.361   0.950  0.0751 -0.7358 -0.5850
 2779SOL    HW1 8539   2.561   1.353   0.907 -0.3038 -2.9688  0.4317
 2779SOL    HW2 8540   2.708   1.377   0.878 -1.1196  0.5287 -1.3770
 2780SOL     OW 8541   4.058   2.006   2.074 -0.0982 -0.1061  0.2629
 2780SOL    HW1 8542   4.017   2.065   2.137  0.3502  2.6421 -1.8273
 2780SOL    HW2 8543   4.001   2.009   1.997  1.9826  0.9072 -1.3569
 2781SOL     OW 8544   1.856   1.491   1.391  0.4721  0.6456  1.1163
 2781SOL    HW1 8545   1.782   1.516   1.445 -1.6843 -0.2799 -1.2140
 2781SOL    HW2 8546   1.851   1.396   1.386  1.4053  0.6207  0.3127
 2782SOL     OW 8547   0.250   2.559   3.791 -0.3825  0.1152  0.3395
 2782SOL    HW1 8548   0.238   2.620   3.718  0.4953 -0.2072 -0.0803
 2782SOL    HW2 8549   0.212   2.604   3.866 -1.0020  0.5891 -0.2418
 2783SOL     OW 8550   0.293   3.030   0.065 -0.3176 -0.2372 -0.0124
 2783SOL    HW1 8551   0.322   2.990  -0.017 -0.0759 -0.7259  0.3025
 2783SOL    HW2 8552   0.301   2.959   0.129  2.3767  0.8963  1.0560
 2784SOL     OW 8553   2.776   0.698   1.847  0.3127 -0.1478  0.1627
 2784SOL    HW1 8554   2.703   0.760   1.844  0.7435  0.3765  0.2925
 2784SOL    HW2 8555   2.746   0.623   1.797  0.0553  0.4784 -0.6414
 2785SOL     OW 8556   4.346   0.144   4.011  0.4979 -0.0426 -0.3642
 2785SOL    HW1 8557   4.374   0.222   3.963  0.2295  1.1002  1.2437
 2785SOL    HW2 8558   4.262   0.121   3.972  0.3329  0.7896 -0.5216
 2786SOL     OW 8559   0.900   0.770   3.857 -0.6600  0.4098 -0.5953
 2786SOL    HW1 8560   0.989   0.795   3.881  0.0862 -2.5473  0.1075
 2786SOL    HW2 8561   0.901   0.767   3.761  0.6544 -1.5319 -0.5661
 2787SOL     OW 8562   2.396   3.745   2.454 -0.3572 -0.0450  0.1590
 2787SOL    HW1 8563   2.325   3.764   2.392  0.7261  1.5991 -0.6547
 2787SOL    HW2 8564   2.361   3.676   2.510 -1.7090 -0.9731 -1.7199
 2788SOL     OW 8565   3.437   3.434   3.396 -0.7788 -0.5655  0.2061
 2788SOL    HW1 8566   3.407   3.415   3.308 -0.5369 -1.0137  0.2150
 2788SOL    HW2 8567   3.460   3.349   3.433  1.1446 -0.2009 -0.0425
 2789SOL     OW 8568   2.177   2.313   1.684 -0.4773 -0.4726  0.5639
 2789SOL    HW1 8569   2.216   2.291   1.768  0.8333  0.5368  0.2379
 2789SOL    HW2 8570   2.097   2.361   1.707  0.4742  0.8419  1.2599
 2790SOL     OW 8571   4.272   0.166   1.114  0.0377 -0.0847 -0.2638
 2790SOL    HW1 8572   4.209   0.198   1.180 -0.0288 -0.9824  0.1299
 2790SOL    HW2 8573   4.270   0.232   1.045 -1.1696  0.0320 -0.1482
 2791SOL     OW 8574   1.950   1.366   3.109  0.0871 -0.0651 -0.5494
 2791SOL    HW1 8575   1.909   1.395   3.190  0.6611 -0.4400 -0.1129
 2791SOL    HW2 8576   1.984   1.446   3.069  0.0545  0.0895 -0.2719
 2792SOL     OW 8577   3.908   1.043   0.720 -0.0981 -0.0322  0.2789
 2792SOL    HW1 8578   3.815   1.062   0.710  0.0031  0.5387  0.3864
 2792SOL    HW2 8579   3.920   1.030   0.814 -0.1645 -0.6491  0.2088
 2793SOL     OW 8580   3.729   3.299   2.049  0.0637 -0.1030  0.3704
 2793SOL    HW1 8581   3.816   3.334   2.030  0.1582 -0.3826  0.2780
 2793SOL    HW2 8582   3.677   3.317   1.971  0.1218 -0.1967  0.3096
 2794SOL     OW 8583   0.766   1.327   3.891  0.1266  0.4617  0.1585
 2794SOL    HW1 8584   0.858   1.337   3.916  0.1585  1.7720 -0.3715
 2794SOL    HW2 8585   0.762   1.243   3.846  1.0130  0.2609  0.4383
 2795SOL     OW 8586   3.214   4.235   4.251 -0.4100  0.3845  0.8017
 2795SOL    HW1 8587   3.129   4.202   4.222 -0.6206  0.8362  0.8947
 2795SOL    HW2 8588   3.240   4.297   4.183  0.4724 -0.7227  0.0963
 2796SOL     OW 8589   4.038   1.816   3.220  0.0225 -0.0025 -0.1649
 2796SOL    HW1 8590   4.042   1.911   3.231  1.4030 -0.0459 -0.0253
 2796SOL    HW2 8591   3.955   1.790   3.260 -0.6951  1.2129 -0.8226
 2797SOL     OW 8592   0.005   1.641   0.273 -0.3928 -0.0407 -0.0013
 2797SOL    HW1 8593   0.069   1.701   0.236 -0.9735  3.0923  3.4558
 2797SOL    HW2 8594   0.056   1.585   0.332 -0.3389 -0.4073 -0.3907
 2798SOL     OW 8595   2.547   4.452   3.987  0.1926 -0.2971 -0.0253
 2798SOL    HW1 8596   2.548   4.451   4.083 -1.3526 -0.8340  0.0246
 2798SOL    HW2 8597   2.466   4.407   3.964  0.5992 -0.2832 -1.5987
 2799SOL     OW 8598   0.197   4.004   1.413 -0.3012  0.3013 -0.2396
 2799SOL    HW1 8599   0.231   3.917   1.434  0.7814  0.3318 -1.6973
 2799SOL    HW2 8600   0.107   4.003   1.446 -0.4772 -1.5449 -0.6298
 2800SOL     OW 8601   0.444   1.804   4.134 -0.0756  0.3931  0.0991
 2800SOL    HW1 8602   0.431   1.882   4.081  0.7600 -0.1597 -0.9714
 2800SOL    HW2 8603   0.480   1.740   4.073 -1.4249 -1.0802  0.7759
 2801SOL     OW 8604   3.274   0.064   0.481 -0.5254 -0.4396 -0.0236
 2801SOL    HW1 8605   3.256  -0.015   0.430 -0.8792 -0.6584  0.4371
 2801SOL    HW2 8606   3.340   0.037   0.545 -0.2284 -0.2155 -0.2306
 2802SOL     OW 8607   3.380   0.601   0.263 -0.0289 -0.9294 -0.2298
 2802SOL    HW1 8608   3.431   0.538   0.211  0.9609 -0.5842  0.2894
 2802SOL    HW2 8609   3.401   0.686   0.224 -1.2086 -0.8806 -0.8063
 2803SOL     OW 8610   2.252   1.064   4.434 -0.5058  0.2913 -0.1410
 2803SOL    HW1 8611   2.175   1.051   4.379 -1.4046  1.7668  0.7052
 2803SOL    HW2 8612   2.257   0.985   4.488 -0.8317 -0.2363 -0.8556
 2804SOL     OW 8613   0.277   0.908   2.622 -0.1295  0.7555  0.0000
 2804SOL    HW1 8614   0.316   0.973   2.681  0.0365  0.1895  0.5286
 2804SOL    HW2 8615   0.333   0.830   2.632  0.3632  0.8826 -1.4808
 2805SOL     OW 8616   1.585   0.505   2.232  0.0702  0.9468 -0.3079
 2805SOL    HW1 8617   1.497   0.509   2.270 -0.7137  0.2322 -1.9343
 2805SOL    HW2 8618   1.580   0.434   2.167  2.0857  0.3381  0.1250
 2806SOL     OW 8619   4.708   3.168   3.950  0.1091  0.0943 -0.4427
 2806SOL    HW1 8620   4.701   3.260   3.974  1.0986  0.0447  0.0859
 2806SOL    HW2 8621   4.789   3.164   3.899  1.6339 -0.9421  1.9143
 2807SOL     OW 8622   2.745   0.217   4.693 -0.5354  0.2838  0.4167
 2807SOL    HW1 8623   2.679   0.242   4.629  0.9570  0.3219 -1.1733
 2807SOL    HW2 8624   2.714   0.133   4.728 -1.0186 -0.1067 -0.9025
 2808SOL     OW 8625   2.559   3.816   2.256 -0.0384 -0.6493  0.2994
 2808SOL    HW1 8626   2.516   3.790   2.338 -0.6229  1.6234  0.7948
 2808SOL    HW2 8627   2.613   3.741   2.232 -3.1804 -3.1707  0.3768
 2809SOL     OW 8628   3.038   4.526   2.991  0.1403 -0.0204  0.0826
 2809SOL    HW1 8629   2.992   4.583   3.052  0.0729  1.2481 -1.1159
 2809SOL    HW2 8630   3.122   4.508   3.033  0.3938  1.4433  0.2253
 2810SOL     OW 8631   2.058   0.247   2.323 -0.1818 -0.2949  0.4251
 2810SOL    HW1 8632   2.018   0.239   2.236 -0.4890  2.6773  0.1776
 2810SOL    HW2 8633   2.000   0.306   2.371  0.6641 -0.8686  2.2336
 2811SOL     OW 8634   2.419   0.179   0.981 -0.7170 -0.3087  0.0194
 2811SOL    HW1 8635   2.353   0.226   1.033 -0.2563  1.3574 -0.8226
 2811SOL    HW2 8636   2.400   0.203   0.891 -0.6994 -2.1274 -0.5037
 2812SOL     OW 8637   3.549   2.010   4.017  0.2175 -0.1351 -0.8138
 2812SOL    HW1 8638   3.478   1.977   4.073 -1.4523  0.0617 -2.6700
 2812SOL    HW2 8639   3.600   2.067   4.074  0.8969 -2.7972  1.4736
 2813SOL     OW 8640   2.949   0.022   3.809  0.0951 -0.0863 -0.6330
 2813SOL    HW1 8641   3.006  -0.000   3.736 -0.6163  0.0918 -1.2590
 2813SOL    HW2 8642   2.878   0.073   3.769  1.1192  2.4760  0.5743
 2814SOL     OW 8643   4.364   1.070   0.094  0.3498  0.0714 -0.1212
 2814SOL    HW1 8644   4.379   1.156   0.133  0.0477  1.4221 -2.8263
 2814SOL    HW2 8645   4.272   1.052   0.111  0.2595  0.5497 -0.0896
 2815SOL     OW 8646   0.774   4.629   0.416 -0.1830  0.1712 -0.3378
 2815SOL    HW1 8647   0.851   4.683   0.432  1.2513 -1.5346 -1.1211
 2815SOL    HW2 8648   0.789   4.591   0.329 -0.8124 -1.9619  0.4297
 2816SOL     OW 8649   3.596   0.560   3.136  0.4493 -0.1753  0.0248
 2816SOL    HW1 8650   3.655   0.555   3.210  3.0084 -0.3911 -1.8941
 2816SOL    HW2 8651   3.640   0.619   3.074 -2.4846  1.5820 -0.6095
 2817SOL     OW 8652   4.363   3.658   2.413  0.0493  0.0244 -0.0801
 2817SOL    HW1 8653   4.336   3.640   2.323  3.0632 -0.5538 -0.9705
 2817SOL    HW2 8654   4.385   3.573   2.449  1.5532  0.4989  0.2079
 2818SOL     OW 8655   3.030   2.392   3.705  0.3365  0.0195 -0.0431
 2818SOL    HW1 8656   2.994   2.438   3.629 -2.2241 -0.2066  0.9633
 2818SOL    HW2 8657   2.956   2.379   3.763  1.9668 -1.0303  1.9250
 2819SOL     OW 8658   3.653   1.768   1.480 -0.0487 -0.0896 -0.7714
 2819SOL    HW1 8659   3.732   1.820   1.495 -0.8714  0.8163  0.6428
 2819SOL    HW2 8660   3.638   1.722   1.563  1.1661 -3.4369 -2.2384
 2820SOL     OW 8661   0.036   1.167   4.735 -0.2893 -0.0213  0.3879
 2820SOL    HW1 8662   0.053   1.257   4.708  0.3353  0.1502  1.3084
 2820SOL    HW2 8663  -0.052   1.148   4.703  0.1621  0.3805 -1.1657
 2821SOL     OW 8664   4.032   2.060   1.746  0.2853 -0.2152  0.0721
 2821SOL    HW1 8665   4.089   2.117   1.695 -0.8203 -1.1628 -2.3494
 2821SOL    HW2 8666   3.980   2.120   1.800 -2.2480  1.4803 -3.7911
 2822SOL     OW 8667   0.421   2.074   2.295 -0.1210  0.2379 -0.6414
 2822SOL    HW1 8668   0.504   2.028   2.308 -0.6472 -1.3913 -2.4575
 2822SOL    HW2 8669   0.445   2.155   2.250  0.5880  0.4579  0.1075
 2823SOL     OW 8670   0.136   2.164   0.094 -0.3920  0.6584  0.1745
 2823SOL    HW1 8671   0.129   2.135   0.003 -0.4326 -0.1461  0.4302
 2823SOL    HW2 8672   0.047   2.190   0.118 -0.2638  1.4944 -0.2085
 2824SOL     OW 8673   2.822   1.613   1.442 -0.5136 -0.1412  0.2377
 2824SOL    HW1 8674   2.775   1.532   1.426  0.0259 -0.2376 -1.0032
 2824SOL    HW2 8675   2.760   1.682   1.419 -0.9380 -0.1984  1.1963
 2825SOL     OW 8676   2.523   1.463   1.207 -0.4545 -0.1674 -0.5000
 2825SOL    HW1 8677   2.486   1.549   1.230  0.2444  0.0534 -0.1481
 2825SOL    HW2 8678   2.529   1.464   1.112 -0.2216  0.2816 -0.4845
 2826SOL     OW 8679   4.249   0.617   0.847 -0.2307 -0.3454 -0.2759
 2826SOL    HW1 8680   4.235   0.683   0.779 -2.2980  0.0670  0.4901
 2826SOL    HW2 8681   4.173   0.559   0.841 -0.5077 -0.2590  1.6868
 2827SOL     OW 8682   2.573   4.754   1.034 -0.2485  0.0763  0.8521
 2827SOL    HW1 8683   2.560   4.757   1.129 -0.6103  1.0711  0.7810
 2827SOL    HW2 8684   2.510   4.816   0.999  1.6256  1.6852  0.1567
 2828SOL     OW 8685   3.231   2.208   1.412 -0.3354  0.1336 -0.8149
 2828SOL    HW1 8686   3.164   2.257   1.366 -1.3565  2.2393  2.5342
 2828SOL    HW2 8687   3.283   2.274   1.458  1.1684 -1.6836  0.2768
 2829SOL     OW 8688   2.159   4.443   0.193 -0.4739 -0.3450 -0.0123
 2829SOL    HW1 8689   2.109   4.395   0.127 -1.3955 -0.1312  0.5074
 2829SOL    HW2 8690   2.131   4.405   0.276 -1.1683  1.0283  0.4035
 2830SOL     OW 8691   2.596   2.668   2.395 -1.0551 -0.1668  0.6471
 2830SOL    HW1 8692   2.609   2.592   2.450  0.0427  0.5845  1.4641
 2830SOL    HW2 8693   2.533   2.722   2.442  1.4494  1.4957  2.3635
 2831SOL     OW 8694   2.178   2.068   1.554 -0.4695  0.5818 -0.4459
 2831SOL    HW1 8695   2.199   2.144   1.608 -0.7169  0.0477  0.4209
 2831SOL    HW2 8696   2.083   2.063   1.554 -0.4760  0.6551 -1.0464
 2832SOL     OW 8697   4.580   3.758   0.939  0.3970 -0.0906  0.0781
 2832SOL    HW1 8698   4.624   3.744   1.023  0.4650  0.5410  0.1512
 2832SOL    HW2 8699   4.651   3.764   0.876  0.3394 -0.7338 -0.0595
 2833SOL     OW 8700   4.651   0.649   2.941  0.2041 -0.0938  0.5703
 2833SOL    HW1 8701   4.628   0.736   2.907  2.3880  1.1454  2.0221
 2833SOL    HW2 8702   4.746   0.650   2.947  0.1786 -1.9683  2.2672
 2834SOL     OW 8703   3.920   0.355   0.152  0.3939  0.6044 -0.0521
 2834SOL    HW1 8704   3.849   0.355   0.217  0.8198  0.6516  0.4149
 2834SOL    HW2 8705   3.884   0.404   0.078  1.2918  4.2057  1.6830
 2835SOL     OW 8706   1.857   1.021   4.355  0.1816 -0.7093 -0.2834
 2835SOL    HW1 8707   1.913   1.098   4.363 -0.3172 -0.3049 -0.5677
 2835SOL    HW2 8708   1.787   1.036   4.418 -0.7096 -0.2153 -1.3540
 2836SOL     OW 8709   4.172   1.117   2.781  0.1401  0.1780 -0.0839
 2836SOL    HW1 8710   4.151   1.039   2.832  2.6422  1.1855  2.7901
 2836SOL    HW2 8711   4.092   1.170   2.785  0.0182 -0.1010  2.3113
 2837SOL     OW 8712   3.837   3.244   3.769  0.4331 -0.1424  0.0131
 2837SOL    HW1 8713   3.803   3.323   3.726  0.1102  0.9406  2.0858
 2837SOL    HW2 8714   3.764   3.183   3.769 -0.3037  0.6964  0.9424
 2838SOL     OW 8715   4.023   1.012   3.783 -0.1912 -0.1372 -0.3237
 2838SOL    HW1 8716   4.006   0.981   3.694  0.1348 -0.6522 -0.2063
 2838SOL    HW2 8717   4.093   1.076   3.773  0.1574 -0.5248 -0.3854
 2839SOL     OW 8718   4.710   1.197   2.329 -0.2975 -0.1469  0.0922
 2839SOL    HW1 8719   4.687   1.281   2.370 -0.2899 -0.6459  1.1376
 2839SOL    HW2 8720   4.657   1.132   2.375 -0.4747 -0.6912 -0.8747
 2840SOL     OW 8721   0.408   4.616   4.686  0.4650  0.2845 -0.4708
 2840SOL    HW1 8722   0.333   4.675   4.678  0.0061 -0.3172 -0.6365
 2840SOL    HW2 8723   0.448   4.640   4.770 -1.5464 -1.2321  1.0350
 2841SOL     OW 8724   4.661   3.705   4.327 -0.1395 -0.2967  0.4952
 2841SOL    HW1 8725   4.707   3.703   4.411  1.0782 -1.0456 -0.1648
 2841SOL    HW2 8726   4.623   3.618   4.319 -0.1202 -0.2752  0.1841
 2842SOL     OW 8727   3.155   4.279   1.390  0.0281  0.0687  0.2806
 2842SOL    HW1 8728   3.211   4.354   1.410 -1.0854  1.1626 -0.5930
 2842SOL    HW2 8729   3.155   4.273   1.295  0.6967 -1.5314  0.3510
 2843SOL     OW 8730   1.957   2.750   4.310 -0.1612 -0.2559  0.3424
 2843SOL    HW1 8731   2.028   2.694   4.343  0.7940  0.6612 -0.1100
 2843SOL    HW2 8732   1.928   2.799   4.387 -1.4595 -1.8042  0.8936
 2844SOL     OW 8733   3.026   2.989   4.646 -0.3091  0.0820 -0.0251
 2844SOL    HW1 8734   2.954   3.046   4.672  0.2202  0.8764 -0.2612
 2844SOL    HW2 8735   2.987   2.927   4.584 -0.4590  1.5358 -1.4310
 2845SOL     OW 8736   0.971   1.305   0.768 -0.0203  0.2008 -0.1279
 2845SOL    HW1 8737   1.067   1.309   0.763  0.0701  0.3917  1.2891
 2845SOL    HW2 8738   0.953   1.249   0.844 -1.0185  0.9173  0.1841
 2846SOL     OW 8739   0.742   0.722   3.227  0.2462 -0.5862  0.1586
 2846SOL    HW1 8740   0.792   0.710   3.307 -1.2926 -3.0072  0.8649
 2846SOL    HW2 8741   0.653   0.742   3.257 -0.1695 -0.6784 -0.9713
 2847SOL     OW 8742   2.235   2.674   1.385 -0.7192  0.0706  0.3859
 2847SOL    HW1 8743   2.309   2.677   1.445  2.7324 -0.7876 -3.3501
 2847SOL    HW2 8744   2.218   2.766   1.362  0.3281  0.1908  0.0712
 2848SOL     OW 8745   0.095   1.280   0.270 -0.0137 -0.4533 -0.2446
 2848SOL    HW1 8746   0.108   1.197   0.224  0.9144 -0.1743 -0.5070
 2848SOL    HW2 8747   0.179   1.299   0.311 -0.0868  0.5475 -0.5093
 2849SOL     OW 8748   2.093   2.837   2.920 -0.1382  0.3359 -0.3890
 2849SOL    HW1 8749   2.028   2.779   2.960 -1.2695  1.2501 -0.8503
 2849SOL    HW2 8750   2.043   2.891   2.859  1.0582  1.0806 -0.7458
 2850SOL     OW 8751   4.065   2.077   3.408 -0.6942 -0.0351 -0.5328
 2850SOL    HW1 8752   4.143   2.022   3.407 -1.0574 -0.6451  1.2063
 2850SOL    HW2 8753   4.098   2.166   3.406 -0.0470 -0.2779 -1.9066
 2851SOL     OW 8754   0.995   3.291   0.297  0.0215  0.3062  0.2423
 2851SOL    HW1 8755   0.935   3.306   0.370  0.9480 -2.0899  1.6058
 2851SOL    HW2 8756   1.082   3.294   0.337  0.6494  0.5577 -1.1045
 2852SOL     OW 8757   3.929   1.764   2.430  0.4638  0.1300 -0.4703
 2852SOL    HW1 8758   3.992   1.823   2.389  0.1928 -0.3415 -1.6094
 2852SOL    HW2 8759   3.935   1.683   2.378  1.4848 -1.1937  1.5855
 2853SOL     OW 8760   4.221   4.407   1.028  0.1294  0.3506  0.1400
 2853SOL    HW1 8761   4.310   4.419   1.062  0.2339  0.2297 -0.0897
 2853SOL    HW2 8762   4.190   4.496   1.012  0.2874  0.3851  0.0219
 2854SOL     OW 8763   0.423   4.708   2.126 -0.1759  0.3956 -0.2878
 2854SOL    HW1 8764   0.352   4.744   2.178 -0.0759 -2.5936  2.2393
 2854SOL    HW2 8765   0.385   4.693   2.040 -1.4593  2.1614 -0.0836
 2855SOL     OW 8766   3.746   1.386   3.260 -0.0208  0.1355  0.3873
 2855SOL    HW1 8767   3.818   1.412   3.204 -0.3751  0.9105  0.2823
 2855SOL    HW2 8768   3.722   1.299   3.230  0.6706 -0.0068  0.2319
 2856SOL     OW 8769   1.829   4.638   1.328  0.3434 -0.2264  0.1364
 2856SOL    HW1 8770   1.815   4.628   1.233 -0.3758  0.4711  0.1575
 2856SOL    HW2 8771   1.799   4.726   1.347  1.5168  0.0424  0.8413
 2857SOL     OW 8772   3.736   3.273   4.688  0.3429 -0.2792  0.2189
 2857SOL    HW1 8773   3.809   3.211   4.687 -0.0918 -0.9596  2.8926
 2857SOL    HW2 8774   3.673   3.235   4.749 -1.7639  0.8855 -1.0966
 2858SOL     OW 8775   2.892   3.549   4.326 -0.1242 -0.5079  0.7231
 2858SOL    HW1 8776   2.979   3.511   4.338 -0.0452 -0.1074  1.4950
 2858SOL    HW2 8777   2.887   3.618   4.392 -0.3848  0.6253 -0.4419
 2859SOL     OW 8778   1.623   0.287   3.283  0.8868  0.4009  0.0114
 2859SOL    HW1 8779   1.588   0.374   3.265 -0.4266  0.0176  0.5884
 2859SOL    HW2 8780   1.679   0.268   3.208 -0.9397  0.6384 -1.5083
 2860SOL     OW 8781   0.633   0.966   1.626  0.1093  0.7039 -0.1182
 2860SOL    HW1 8782   0.714   0.941   1.582  1.3209  2.9362  0.6958
 2860SOL    HW2 8783   0.594   1.031   1.567 -1.2326 -0.4558 -0.5785
 2861SOL     OW 8784   2.564   3.166   2.876  0.2864 -0.0059  0.9168
 2861SOL    HW1 8785   2.511   3.217   2.814  0.0995 -0.2509  0.8754
 2861SOL    HW2 8786   2.579   3.226   2.949  0.8327  0.4212  0.4722
 2862SOL     OW 8787   1.422   4.389   0.284  0.1981  0.3533 -0.1629
 2862SOL    HW1 8788   1.451   4.385   0.375 -1.5142  0.6231  0.4158
 2862SOL    HW2 8789   1.484   4.332   0.237  1.1650  0.2941  1.1251
 2863SOL     OW 8790   2.766   0.816   1.460 -0.4165 -0.2384  0.8895
 2863SOL    HW1 8791   2.749   0.887   1.398 -1.7942 -0.7933  0.6044
 2863SOL    HW2 8792   2.849   0.841   1.502 -0.6191  1.2861  0.4576
 2864SOL     OW 8793   1.667   1.112   3.451 -0.4870 -0.0184 -0.1785
 2864SOL    HW1 8794   1.756   1.146   3.444 -1.2254  2.1053  0.1789
 2864SOL    HW2 8795   1.611   1.185   3.427 -2.1704 -1.1440  0.1630
 2865SOL     OW 8796   1.701   3.690   2.328  0.1286 -0.1449 -0.0559
 2865SOL    HW1 8797   1.716   3.614   2.272  2.0686  1.3152 -1.6681
 2865SOL    HW2 8798   1.753   3.673   2.406  3.4243  0.8910 -1.8414
 2866SOL     OW 8799   0.274   1.854   3.543  0.2365  1.0678 -0.0091
 2866SOL    HW1 8800   0.286   1.856   3.448  1.1185  0.3259  0.0680
 2866SOL    HW2 8801   0.363   1.864   3.578  0.1180 -0.1421  0.6966
 2867SOL     OW 8802   4.543   0.208   0.807 -0.4139 -0.1330 -0.6350
 2867SOL    HW1 8803   4.517   0.117   0.798  1.0410 -0.5067 -1.4077
 2867SOL    HW2 8804   4.595   0.226   0.728  3.7885 -0.2531  1.8029
 2868SOL     OW 8805   0.291   1.047   1.439 -0.2735  0.3905  0.2753
 2868SOL    HW1 8806   0.354   1.094   1.384  0.4098 -0.4189  0.3447
 2868SOL    HW2 8807   0.208   1.056   1.394 -0.0057  1.0217 -0.1011
 2869SOL     OW 8808   3.348   4.486   1.424  0.0619  0.4032  0.0601
 2869SOL    HW1 8809   3.296   4.538   1.363 -1.0161 -0.6978 -0.0146
 2869SOL    HW2 8810   3.392   4.550   1.479 -0.2780  1.3952 -0.7854
 2870SOL     OW 8811   4.718   2.661   4.045  0.7027 -0.3026 -0.1089
 2870SOL    HW1 8812   4.721   2.688   3.953  1.0089 -1.2799 -0.3940
 2870SOL    HW2 8813   4.640   2.606   4.051 -0.6979  1.6612  0.7756
 2871SOL     OW 8814   0.638   0.127   4.600  0.0442 -0.1243  0.2236
 2871SOL    HW1 8815   0.710   0.189   4.610  0.7707 -1.0664  1.0773
 2871SOL    HW2 8816   0.661   0.077   4.522 -0.5816  0.6977 -0.5111
 2872SOL     OW 8817   0.280   4.378   1.888  0.3487  0.1335  0.1214
 2872SOL    HW1 8818   0.364   4.403   1.926 -0.8910  1.0986  2.4358
 2872SOL    HW2 8819   0.244   4.460   1.854 -1.4613  0.7281  3.0867
 2873SOL     OW 8820   4.399   3.232   4.776  0.0100 -0.3198  0.2564
 2873SOL    HW1 8821   4.312   3.266   4.754 -0.6144 -1.7584  0.4435
 2873SOL    HW2 8822   4.443   3.306   4.820 -1.0439  0.4688  0.0233
 2874SOL     OW 8823   0.015   4.442   3.654  0.4600 -0.3703 -0.0600
 2874SOL    HW1 8824   0.055   4.479   3.576 -2.5491  4.9663  0.4155
 2874SOL    HW2 8825  -0.076   4.423   3.628 -1.1483  3.1559  2.1820
 2875SOL     OW 8826   4.653   3.882   2.469 -0.3317 -0.2817 -0.4244
 2875SOL    HW1 8827   4.609   3.830   2.537  0.6732  1.4434  1.6738
 2875SOL    HW2 8828   4.582   3.934   2.430 -0.4581  1.8638  2.3543
 2876SOL     OW 8829   0.285   2.216   4.304  0.2452  0.1269  0.0797
 2876SOL    HW1 8830   0.275   2.258   4.389 -1.5949  0.6154 -0.3433
 2876SOL    HW2 8831   0.279   2.287   4.241  0.6242 -0.3519 -0.5105
 2877SOL     OW 8832   3.529   0.336   3.543 -0.2173 -0.1265 -0.0668
 2877SOL    HW1 8833   3.506   0.346   3.450  0.1479 -0.4118 -0.1916
 2877SOL    HW2 8834   3.515   0.422   3.581  1.7805  0.6146 -0.8655
 2878SOL     OW 8835   4.523   2.891   0.281 -0.7133 -0.4005  0.2523
 2878SOL    HW1 8836   4.565   2.805   0.283  0.5659  0.2285  0.8036
 2878SOL    HW2 8837   4.537   2.922   0.191 -1.7839 -1.0365 -0.1586
 2879SOL     OW 8838   1.898   0.206   0.816  0.1256  0.1936 -0.4553
 2879SOL    HW1 8839   1.807   0.198   0.846 -0.1276  2.0757 -0.5425
 2879SOL    HW2 8840   1.944   0.136   0.861 -0.6417  1.5318  2.7651
 2880SOL     OW 8841   0.161   0.264   1.718  0.5164 -0.0960  0.2599
 2880SOL    HW1 8842   0.080   0.224   1.750  0.0322 -0.2546 -1.1043
 2880SOL    HW2 8843   0.145   0.280   1.625  1.0611  2.3626  0.5192
 2881SOL     OW 8844   4.505   4.431   3.275 -0.0415 -0.1226  0.3403
 2881SOL    HW1 8845   4.529   4.418   3.367  1.2047 -0.3010  0.0092
 2881SOL    HW2 8846   4.453   4.510   3.275 -0.7106 -0.5437  1.3045
 2882SOL     OW 8847   2.449   0.635   2.532  0.4302 -0.2700  0.3632
 2882SOL    HW1 8848   2.506   0.706   2.559  2.4692 -0.7493 -2.2774
 2882SOL    HW2 8849   2.412   0.602   2.614 -1.1306  4.0784  1.7052
 2883SOL     OW 8850   3.111   0.288   1.956 -0.2149 -0.5398 -0.3631
 2883SOL    HW1 8851   3.167   0.303   2.032 -1.4470  0.4360  0.3910
 2883SOL    HW2 8852   3.127   0.196   1.932 -0.3691 -1.1167  1.5590
 2884SOL     OW 8853   1.852   0.915   3.232  0.4996 -0.3942 -0.9362
 2884SOL    HW1 8854   1.911   0.988   3.246  0.7477 -0.3912 -1.9362
 2884SOL    HW2 8855   1.795   0.943   3.160 -1.4914  0.0564  0.7221
 2885SOL     OW 8856   1.209   0.321   3.509  0.1891  0.0326  0.5073
 2885SOL    HW1 8857   1.162   0.393   3.550 -0.3520  0.4581 -0.8137
 2885SOL    HW2 8858   1.300   0.333   3.537  0.5287  2.5290 -1.3975
 2886SOL     OW 8859   4.683   4.761   2.444  0.0725  0.1613 -0.5651
 2886SOL    HW1 8860   4.772   4.743   2.476 -0.4001  0.3173  0.9186
 2886SOL    HW2 8861   4.633   4.781   2.523 -0.9309  1.6493 -1.5305
 2887SOL     OW 8862   1.294   3.365   0.420  0.7456 -0.4751  0.5180
 2887SOL    HW1 8863   1.258   3.444   0.458 -2.6632 -3.4767  4.3611
 2887SOL    HW2 8864   1.375   3.349   0.469  0.4654 -0.2899  1.0465
 2888SOL     OW 8865   1.462   1.829   1.795 -0.6705  0.0084 -0.2718
 2888SOL    HW1 8866   1.461   1.843   1.700 -0.1531  0.1140 -0.2595
 2888SOL    HW2 8867   1.553   1.813   1.816 -0.5010  1.8662  0.4948
 2889SOL     OW 8868   1.390   0.515   2.653 -0.3933 -0.5022 -0.3612
 2889SOL    HW1 8869   1.471   0.482   2.691  0.3861 -0.9309 -2.2684
 2889SOL    HW2 8870   1.360   0.444   2.595 -1.7614 -0.0689 -0.2257
 2890SOL     OW 8871   2.283   4.739   2.795 -0.1893 -0.1685 -0.2666
 2890SOL    HW1 8872   2.319   4.828   2.792  0.2254 -0.3424 -0.5536
 2890SOL    HW2 8873   2.231   4.737   2.876  1.8180 -0.4024  1.1049
 2891SOL     OW 8874   3.978   3.142   4.012 -0.1222  0.2105  0.7017
 2891SOL    HW1 8875   3.951   3.178   3.928  0.8095 -0.4475  0.0951
 2891SOL    HW2 8876   4.074   3.152   4.012 -0.0085 -0.7898  1.2035
 2892SOL     OW 8877   3.556   0.359   2.856 -0.6706 -0.2474  0.3819
 2892SOL    HW1 8878   3.602   0.390   2.778 -0.0202 -0.6914  0.5757
 2892SOL    HW2 8879   3.602   0.401   2.929 -0.6970 -0.5454  0.5698
 2893SOL     OW 8880   0.525   0.128   3.064 -0.3112 -0.4622 -0.1516
 2893SOL    HW1 8881   0.466   0.057   3.091 -0.2073 -1.4510 -2.2556
 2893SOL    HW2 8882   0.593   0.084   3.013  0.6687  0.9959 -0.1623
 2894SOL     OW 8883   2.731   0.631   4.101 -0.3397 -0.1368 -0.5249
 2894SOL    HW1 8884   2.782   0.693   4.049 -0.2782 -0.4645 -0.8608
 2894SOL    HW2 8885   2.717   0.556   4.042  0.1718 -0.7314  0.0993
 2895SOL     OW 8886   1.532   0.878   4.806  0.1770  0.0832 -0.5394
 2895SOL    HW1 8887   1.622   0.910   4.815  0.5465 -0.8824 -0.7275
 2895SOL    HW2 8888   1.486   0.948   4.761  1.1965 -0.0246 -1.7960
 2896SOL     OW 8889   0.549   0.601   3.634  0.2813 -0.0987  0.0002
 2896SOL    HW1 8890   0.644   0.595   3.618  0.6466  0.3375  1.8296
 2896SOL    HW2 8891   0.524   0.685   3.596  0.4888 -0.4736 -1.0131
 2897SOL     OW 8892   2.132   0.082   0.665  0.1361  0.1636 -0.5055
 2897SOL    HW1 8893   2.041   0.104   0.684  0.2467 -0.8725  1.4994
 2897SOL    HW2 8894   2.128   0.025   0.588 -1.0088 -0.4292 -0.0336
 2898SOL     OW 8895   3.362   3.833   0.101 -0.0591 -0.0665 -0.1187
 2898SOL    HW1 8896   3.397   3.915   0.135 -0.2538 -0.2141  0.4556
 2898SOL    HW2 8897   3.354   3.847   0.007 -2.0101  1.3136  0.1953
 2899SOL     OW 8898   0.111   0.473   2.995 -0.2457 -0.1992  0.8748
 2899SOL    HW1 8899   0.063   0.396   3.025  1.9712 -1.3140  1.8349
 2899SOL    HW2 8900   0.138   0.451   2.906 -1.2561  0.3187  0.4296
 2900SOL     OW 8901   1.873   3.220   4.009  0.3637  0.2738  0.5859
 2900SOL    HW1 8902   1.946   3.279   4.029 -1.3872  3.2427 -0.9367
 2900SOL    HW2 8903   1.795   3.269   4.037 -1.1581 -2.0506  0.6462
 2901SOL     OW 8904   0.389   2.975   4.650 -0.0683 -0.0569  0.4856
 2901SOL    HW1 8905   0.393   3.034   4.574 -0.1914 -0.0952  0.4498
 2901SOL    HW2 8906   0.322   2.911   4.628  1.1375 -1.1559 -0.1394
 2902SOL     OW 8907   0.750   2.412   1.699  0.1851 -0.3354 -0.3021
 2902SOL    HW1 8908   0.824   2.440   1.754  0.2642 -1.6349  0.2896
 2902SOL    HW2 8909   0.676   2.463   1.730  0.5266 -0.0661  0.0765
 2903SOL     OW 8910   0.723   1.674   4.166  0.1095  0.1284  0.3437
 2903SOL    HW1 8911   0.734   1.737   4.096 -1.2427 -0.1844 -0.1865
 2903SOL    HW2 8912   0.792   1.609   4.152  0.9299  0.9859  0.3525
 2904SOL     OW 8913   0.021   1.106   3.830 -0.3896  0.1040 -0.8858
 2904SOL    HW1 8914  -0.037   1.181   3.823 -2.3711 -1.0047  1.9830
 2904SOL    HW2 8915  -0.013   1.043   3.767 -0.8405  0.3397 -0.8799
 2905SOL     OW 8916   0.081   2.605   1.910 -1.0570  0.0502 -0.3618
 2905SOL    HW1 8917   0.013   2.590   1.976 -0.5658  1.4093  0.5253
 2905SOL    HW2 8918   0.110   2.695   1.928 -0.3156  0.1371 -1.9107
 2906SOL     OW 8919   1.895   0.814   2.813 -0.2727 -0.4594  0.4381
 2906SOL    HW1 8920   1.963   0.748   2.804  0.5569  0.2798  1.1027
 2906SOL    HW2 8921   1.905   0.870   2.735  1.2181  0.8202  1.4936
 2907SOL     OW 8922   1.135   4.697   0.163  0.0100  0.5432 -0.2889
 2907SOL    HW1 8923   1.230   4.699   0.150  0.0929  1.2433  0.3507
 2907SOL    HW2 8924   1.109   4.789   0.168 -0.6990  0.3608 -0.3895
 2908SOL     OW 8925   1.073   4.782   1.147  0.1115  0.1594 -0.2897
 2908SOL    HW1 8926   1.120   4.863   1.166  0.4982 -0.6132  2.5638
 2908SOL    HW2 8927   0.990   4.810   1.108 -0.0326  1.9684  1.1939
 2909SOL     OW 8928   4.136   4.014   3.450 -0.0016 -0.2022  1.0124
 2909SOL    HW1 8929   4.066   4.042   3.391  0.7674 -1.6161 -0.6565
 2909SOL    HW2 8930   4.190   4.092   3.461 -0.1649  0.1120 -0.1923
 2910SOL     OW 8931   1.454   4.447   0.772  0.3299 -0.5306  0.0806
 2910SOL    HW1 8932   1.473   4.436   0.866 -0.5590 -3.6872 -0.0042
 2910SOL    HW2 8933   1.360   4.435   0.765  0.3739 -0.2453 -1.2336
 2911SOL     OW 8934   4.064   3.565   4.515  0.0077 -0.4643  0.2888
 2911SOL    HW1 8935   4.095   3.654   4.498  2.3192 -1.4877 -1.4784
 2911SOL    HW2 8936   3.974   3.564   4.482 -0.8290  1.6829  2.2310
 2912SOL     OW 8937   2.146   4.227   3.747 -0.0561 -0.4708  0.6564
 2912SOL    HW1 8938   2.137   4.142   3.704 -0.3825  0.7943 -2.0020
 2912SOL    HW2 8939   2.218   4.269   3.700 -1.3175  1.5194  0.4008
 2913SOL     OW 8940   3.431   2.546   2.064  0.1560 -0.1150 -0.0379
 2913SOL    HW1 8941   3.506   2.516   2.013 -0.0803  1.6218 -1.5401
 2913SOL    HW2 8942   3.459   2.538   2.155  1.7138 -0.6026 -0.5215
 2914SOL     OW 8943   0.077   3.316   0.296  0.1610  0.1663 -0.3716
 2914SOL    HW1 8944   0.056   3.364   0.376  2.3532 -0.4129  0.6175
 2914SOL    HW2 8945   0.016   3.242   0.296 -1.4620  1.4523 -0.5441
 2915SOL     OW 8946   0.778   1.876   0.034  0.4082 -0.4677 -0.0673
 2915SOL    HW1 8947   0.745   1.786   0.043  2.1269 -1.1883 -0.5592
 2915SOL    HW2 8948   0.791   1.906   0.124 -0.9395 -0.3939  0.1198
 2916SOL     OW 8949   2.518   3.055   1.251 -0.1933 -0.0954  0.3227
 2916SOL    HW1 8950   2.499   3.059   1.345 -1.6468  1.1398 -0.0002
 2916SOL    HW2 8951   2.456   3.115   1.211  0.1091 -0.9365 -1.4976
 2917SOL     OW 8952   3.775   0.207   1.075 -0.5048 -0.1888  0.5295
 2917SOL    HW1 8953   3.820   0.288   1.095  0.2770 -0.5832  0.3835
 2917SOL    HW2 8954   3.831   0.162   1.012 -2.6748  0.8208 -2.3024
 2918SOL     OW 8955   2.555   1.690   2.743  0.0302  0.0920 -0.1336
 2918SOL    HW1 8956   2.498   1.633   2.690  0.1977  0.2917 -0.5332
 2918SOL    HW2 8957   2.625   1.715   2.683  1.5236 -1.5571  0.8414
 2919SOL     OW 8958   4.550   2.620   4.585  0.6085 -0.9117  0.2642
 2919SOL    HW1 8959   4.491   2.637   4.511 -0.4043  2.3465  1.6487
 2919SOL    HW2 8960   4.493   2.582   4.652  0.9442 -1.3727  0.2899
 2920SOL     OW 8961   0.953   0.369   3.780 -0.4477 -0.1031  0.3610
 2920SOL    HW1 8962   0.900   0.338   3.707 -0.8708  1.8228 -0.1922
 2920SOL    HW2 8963   0.995   0.449   3.748  1.1808 -0.4475  1.4737
 2921SOL     OW 8964   0.452   4.602   3.324  0.3851 -0.5485  0.3182
 2921SOL    HW1 8965   0.493   4.613   3.410  1.8968 -1.8701 -0.1938
 2921SOL    HW2 8966   0.523   4.612   3.261 -0.6692  0.2090 -0.8000
 2922SOL     OW 8967   4.158   3.449   1.563  0.8801  0.2071  0.2207
 2922SOL    HW1 8968   4.175   3.359   1.594  1.1875  0.9054  2.2320
 2922SOL    HW2 8969   4.107   3.489   1.633 -2.3276  0.6231 -2.1623
 2923SOL     OW 8970   1.903   0.494   1.971 -0.6060  0.2784 -0.2069
 2923SOL    HW1 8971   1.953   0.432   2.023  1.2031  2.2655  0.5810
 2923SOL    HW2 8972   1.872   0.443   1.896 -0.2060 -1.7960  0.9688
 2924SOL     OW 8973   4.720   3.185   1.429 -0.7219 -0.3405  0.2799
 2924SOL    HW1 8974   4.631   3.194   1.397 -0.9741 -0.9638  0.7890
 2924SOL    HW2 8975   4.749   3.100   1.395 -0.0539  0.1858 -0.5077
 2925SOL     OW 8976   4.292   4.191   4.396  0.3361 -0.3231 -0.4641
 2925SOL    HW1 8977   4.282   4.150   4.310  1.9715  0.6020 -1.1441
 2925SOL    HW2 8978   4.369   4.248   4.386  0.4294 -0.0435  1.5526
 2926SOL     OW 8979   4.635   1.547   3.093 -0.2372  0.6788 -0.2642
 2926SOL    HW1 8980   4.582   1.607   3.145 -0.3109 -0.1937  0.6819
 2926SOL    HW2 8981   4.706   1.601   3.058 -0.6452  1.4357  0.0708
 2927SOL     OW 8982   0.641   0.760   4.600  0.7067  0.7259 -0.3942
 2927SOL    HW1 8983   0.569   0.785   4.542 -0.6181 -0.0863  0.8162
 2927SOL    HW2 8984   0.629   0.666   4.614  1.0612  0.8724  1.0491
 2928SOL     OW 8985   4.094   1.040   0.108 -0.1798  0.2450  0.3319
 2928SOL    HW1 8986   4.086   1.085   0.023  1.3769  0.5375  0.3089
 2928SOL    HW2 8987   4.044   0.959   0.097 -2.6978  1.7069  0.2186
 2929SOL     OW 8988   4.039   2.698   0.952 -0.0927  0.0027  0.7268
 2929SOL    HW1 8989   3.961   2.702   1.008 -1.4500 -1.8329 -0.8638
 2929SOL    HW2 8990   4.053   2.604   0.938  0.7935  0.3560 -1.1300
 2930SOL     OW 8991   3.630   0.633   1.050  0.0602 -0.1494 -0.0169
 2930SOL    HW1 8992   3.564   0.567   1.030  1.0138 -1.4204  0.8522
 2930SOL    HW2 8993   3.703   0.584   1.087  0.9629  1.3581  0.3105
 2931SOL     OW 8994   0.127   0.293   0.987  0.1250  0.0751 -0.2250
 2931SOL    HW1 8995   0.201   0.303   0.927  0.2816 -1.1960 -0.2776
 2931SOL    HW2 8996   0.143   0.209   1.030 -0.2916  0.6835  1.1746
 2932SOL     OW 8997   1.966   1.743   0.502  0.6218  0.5297  0.1293
 2932SOL    HW1 8998   1.942   1.812   0.440 -1.8086 -1.5833 -1.5106
 2932SOL    HW2 8999   2.060   1.731   0.490  0.0033 -1.7630 -5.6531
 2933SOL     OW 9000   3.311   0.099   1.810 -0.2533  0.2523 -0.0476
 2933SOL    HW1 9001   3.340   0.189   1.823 -2.1023  0.7905  0.7909
 2933SOL    HW2 9002   3.271   0.099   1.723 -1.4174  0.6270  0.4588
 2934SOL     OW 9003   2.271   0.387   2.943 -0.5154 -0.7417  0.8813
 2934SOL    HW1 9004   2.281   0.482   2.949  0.5531 -0.8875  1.5179
 2934SOL    HW2 9005   2.360   0.353   2.941 -0.8829 -1.7955  1.6667
 2935SOL     OW 9006   3.675   0.026   3.301  0.3428  0.0599 -0.3584
 2935SOL    HW1 9007   3.669  -0.006   3.211  1.1329 -1.0022 -0.0585
 2935SOL    HW2 9008   3.635  -0.043   3.354  2.3201 -0.6322  0.3311
 2936SOL     OW 9009   1.295   0.787   3.114  0.7185 -0.5634  0.1834
 2936SOL    HW1 9010   1.335   0.854   3.171  1.5941 -0.4388 -0.5483
 2936SOL    HW2 9011   1.354   0.783   3.038 -0.6296 -0.4339 -0.9064
 2937SOL     OW 9012   1.648   2.825   2.940 -0.3725 -0.0894 -0.3574
 2937SOL    HW1 9013   1.713   2.888   2.909 -0.0093  0.3788  1.2773
 2937SOL    HW2 9014   1.695   2.742   2.944  0.1642  0.2480  0.8226
 2938SOL     OW 9015   2.050   4.165   0.186  0.3280 -0.5651 -0.1010
 2938SOL    HW1 9016   2.111   4.148   0.257  1.8541 -1.5834 -1.5899
 2938SOL    HW2 9017   2.032   4.078   0.148 -0.2664 -0.0355 -1.0891
 2939SOL     OW 9018   1.870   2.644   2.961  0.0812  0.1787 -0.4173
 2939SOL    HW1 9019   1.868   2.615   2.870 -0.3617 -1.8318  0.1779
 2939SOL    HW2 9020   1.852   2.565   3.012 -0.5557  1.4233  1.3969
 2940SOL     OW 9021   1.943   2.916   4.529 -0.4998 -0.3687 -0.2063
 2940SOL    HW1 9022   1.960   2.847   4.593  0.2211 -0.2958 -0.3114
 2940SOL    HW2 9023   1.949   2.997   4.578  1.1812 -0.2417 -0.5545
 2941SOL     OW 9024   2.895   4.717   1.574  0.5117  0.0244 -0.0086
 2941SOL    HW1 9025   2.891   4.649   1.641  1.1463 -0.2992 -0.2903
 2941SOL    HW2 9026   2.884   4.671   1.492  0.6827  0.2941 -0.1849
 2942SOL     OW 9027   3.036   3.662   2.514  0.0976 -0.2331 -0.4628
 2942SOL    HW1 9028   3.101   3.593   2.510 -0.1607 -0.4587 -0.8176
 2942SOL    HW2 9029   2.953   3.617   2.532 -0.2635 -0.1523 -1.7842
 2943SOL     OW 9030   2.179   4.604   1.609 -0.5287  0.0287  0.3247
 2943SOL    HW1 9031   2.238   4.679   1.598  1.8859 -2.0737 -3.0114
 2943SOL    HW2 9032   2.136   4.595   1.524 -2.7378 -0.9020  1.4663
 2944SOL     OW 9033   4.642   1.900   4.042  0.6161 -0.3813  0.4593
 2944SOL    HW1 9034   4.583   1.850   4.097 -0.7886 -0.3494 -0.9534
 2944SOL    HW2 9035   4.695   1.834   3.997  0.3041 -0.5048  0.2706
 2945SOL     OW 9036   1.502   4.655   3.097 -0.9928 -0.0452  0.4702
 2945SOL    HW1 9037   1.449   4.724   3.137  0.3653  0.7176  1.0186
 2945SOL    HW2 9038   1.592   4.677   3.121 -0.5474 -2.3191  1.1550
 2946SOL     OW 9039   3.691   0.781   1.268  0.2517 -0.4835 -0.2765
 2946SOL    HW1 9040   3.662   0.745   1.352  2.3096 -0.1085  0.6434
 2946SOL    HW2 9041   3.641   0.731   1.203 -1.4518 -0.7279  1.1227
 2947SOL     OW 9042   2.102   3.945   3.704 -0.0668  0.4577  0.5721
 2947SOL    HW1 9043   2.088   3.852   3.718  0.5295  0.3753  0.6730
 2947SOL    HW2 9044   2.070   3.962   3.616  2.1756 -0.3845 -0.4832
 2948SOL     OW 9045   1.361   4.148   0.852  0.6941 -0.4368  0.1873
 2948SOL    HW1 9046   1.402   4.074   0.897 -2.0730 -2.7903 -0.8773
 2948SOL    HW2 9047   1.411   4.158   0.771  0.4263 -1.9300 -0.1852
 2949SOL     OW 9048   4.292   4.476   0.055  0.1933  0.0907  0.2959
 2949SOL    HW1 9049   4.231   4.405   0.076 -0.7633  1.1176  1.0870
 2949SOL    HW2 9050   4.259   4.514  -0.026  0.0939  0.3008  0.4342
 2950SOL     OW 9051   1.369   1.985   4.551 -0.3085 -0.2844 -0.3429
 2950SOL    HW1 9052   1.383   1.921   4.481  0.0877  0.3668 -0.8719
 2950SOL    HW2 9053   1.276   2.007   4.545 -0.5896 -1.2474  0.2378
 2951SOL     OW 9054   3.719   2.280   2.110  0.0762 -0.1717 -0.0504
 2951SOL    HW1 9055   3.706   2.339   2.036 -0.9730  0.0667  0.2944
 2951SOL    HW2 9056   3.662   2.316   2.179  0.7285 -0.6120  0.7402
 2952SOL     OW 9057   2.817   3.307   0.938  0.5141  0.2698 -0.3587
 2952SOL    HW1 9058   2.736   3.316   0.888  0.2073  2.2354  0.4087
 2952SOL    HW2 9059   2.788   3.289   1.027  1.0284 -1.8483 -0.5728
 2953SOL     OW 9060   4.021   3.639   4.807  0.3225  0.1603  0.2741
 2953SOL    HW1 9061   3.986   3.584   4.737 -0.6636 -0.4477  1.2095
 2953SOL    HW2 9062   3.962   3.714   4.810  1.6693  1.3369 -1.0064
 2954SOL     OW 9063   0.186   0.036   1.119  0.0892 -0.2347  0.5193
 2954SOL    HW1 9064   0.092   0.022   1.122  0.3696 -2.8600 -0.3140
 2954SOL    HW2 9065   0.209   0.063   1.208 -1.1224 -2.4305  1.5713
 2955SOL     OW 9066   1.574   0.639   3.565  0.4597 -0.2024  0.6319
 2955SOL    HW1 9067   1.606   0.632   3.475 -0.9260 -1.8905  0.2096
 2955SOL    HW2 9068   1.582   0.732   3.586  0.1189  0.3842 -1.5255
 2956SOL     OW 9069   3.069   4.645   0.029 -0.2077 -0.1183  0.1789
 2956SOL    HW1 9070   2.986   4.680   0.062  0.0265 -0.2390  0.9173
 2956SOL    HW2 9071   3.133   4.713   0.045 -0.0112 -0.3414  0.3525
 2957SOL     OW 9072   2.653   3.979   0.784  0.2920  0.2464 -0.1285
 2957SOL    HW1 9073   2.601   3.952   0.860  0.7671 -1.1252 -0.2570
 2957SOL    HW2 9074   2.717   4.040   0.819  0.0030  0.2333  0.4339
 2958SOL     OW 9075   0.847   4.007   4.704  0.6108  0.5662  0.2890
 2958SOL    HW1 9076   0.876   4.052   4.784 -0.4950 -0.5045  1.3293
 2958SOL    HW2 9077   0.892   3.922   4.707 -0.6600 -0.1149  0.6360
 2959SOL     OW 9078   1.892   2.212   3.544  0.1663 -0.2708  0.3632
 2959SOL    HW1 9079   1.971   2.187   3.495  0.7726  0.5982  0.8794
 2959SOL    HW2 9080   1.924   2.252   3.624 -0.8237 -1.3766  1.3507
 2960SOL     OW 9081   3.868   3.440   2.738 -0.0886 -0.4010  0.0512
 2960SOL    HW1 9082   3.842   3.505   2.673  1.6480 -2.2200 -2.6909
 2960SOL    HW2 9083   3.873   3.358   2.689  1.6363 -1.8584  2.4316
 2961SOL     OW 9084   2.032   0.843   0.450  0.3181  0.2718 -0.2898
 2961SOL    HW1 9085   2.117   0.888   0.450 -0.0922  1.1304 -2.2779
 2961SOL    HW2 9086   2.054   0.751   0.437  1.0610  0.0383  2.0932
 2962SOL     OW 9087   3.267   3.042   4.336 -0.0824 -0.2414 -1.0881
 2962SOL    HW1 9088   3.273   3.051   4.432  0.9549 -1.9776 -0.9532
 2962SOL    HW2 9089   3.333   3.104   4.303 -1.4798  1.4865 -0.7976
 2963SOL     OW 9090   3.091   3.914   0.366  0.5569 -0.5249 -0.0921
 2963SOL    HW1 9091   3.157   3.962   0.416  0.9217 -0.8032 -0.3075
 2963SOL    HW2 9092   3.078   3.966   0.287 -0.6591  0.3862  0.6668
 2964SOL     OW 9093   0.170   0.418   2.710  0.4513  0.0900  0.0446
 2964SOL    HW1 9094   0.265   0.417   2.707  0.4696 -1.4108  0.2765
 2964SOL    HW2 9095   0.144   0.429   2.618  0.8288  0.7508  0.0080
 2965SOL     OW 9096   0.567   3.279   0.091 -0.4144  0.2932 -0.3902
 2965SOL    HW1 9097   0.583   3.303  -0.000  0.2366  0.6633 -0.1791
 2965SOL    HW2 9098   0.472   3.291   0.102 -0.5089  0.1943 -1.0250
 2966SOL     OW 9099   0.579   2.244   2.116 -0.4918 -0.1388  1.1341
 2966SOL    HW1 9100   0.506   2.203   2.070 -1.4501  1.2802  1.3018
 2966SOL    HW2 9101   0.654   2.233   2.058 -0.7778 -1.7524  1.0225
 2967SOL     OW 9102   3.944   2.940   0.140  0.0303  0.7285 -0.5121
 2967SOL    HW1 9103   3.895   2.925   0.222  1.3814 -0.7532  0.0750
 2967SOL    HW2 9104   4.030   2.968   0.169  0.7980 -0.6411 -1.3870
 2968SOL     OW 9105   3.161   3.768   3.882  0.1986 -0.2001  0.6142
 2968SOL    HW1 9106   3.101   3.834   3.914  1.6045  1.8563 -0.7433
 2968SOL    HW2 9107   3.192   3.801   3.797 -0.5320 -3.5643 -1.1763
 2969SOL     OW 9108   3.951   1.025   2.246 -0.1318  0.0297  0.2075
 2969SOL    HW1 9109   3.920   1.064   2.164 -1.5038  0.0849  0.7408
 2969SOL    HW2 9110   3.980   1.100   2.299  0.8715 -0.0149 -0.2441
 2970SOL     OW 9111   1.966   0.622   2.267 -0.1635  0.6926 -0.1168
 2970SOL    HW1 9112   1.889   0.652   2.218  0.6993  2.1286 -0.6363
 2970SOL    HW2 9113   1.942   0.534   2.297 -1.4822  0.5533 -1.4426
 2971SOL     OW 9114   1.035   1.815   2.772 -0.3887  0.4601 -0.2056
 2971SOL    HW1 9115   1.103   1.748   2.780 -0.6472  0.3388  1.1468
 2971SOL    HW2 9116   0.971   1.777   2.712  0.3088  0.2205 -0.8107
 2972SOL     OW 9117   2.199   0.175   0.240 -0.0550  0.1692  0.2111
 2972SOL    HW1 9118   2.182   0.081   0.238 -0.1069  0.1732 -2.2759
 2972SOL    HW2 9119   2.280   0.186   0.190 -1.5869  1.6661 -2.1258
 2973SOL     OW 9120   1.630   1.082   0.856  0.2739 -0.4881 -0.5009
 2973SOL    HW1 9121   1.674   0.998   0.871  1.4024  0.1364 -0.2484
 2973SOL    HW2 9122   1.629   1.093   0.761  2.8135  0.5807 -0.4626
 2974SOL     OW 9123   4.558   1.331   4.432 -0.7264 -0.3546  0.2923
 2974SOL    HW1 9124   4.518   1.320   4.346 -0.3047 -1.8412  0.2745
 2974SOL    HW2 9125   4.501   1.282   4.491 -3.1025  3.4509  1.5778
 2975SOL     OW 9126   1.983   2.416   0.743 -0.1791  0.1485 -0.6660
 2975SOL    HW1 9127   2.046   2.453   0.805  0.9796  0.7512 -2.1203
 2975SOL    HW2 9128   1.901   2.461   0.763 -0.3502 -1.0756  1.6501
 2976SOL     OW 9129   3.294   0.851   0.699  0.1515  0.0450 -0.4175
 2976SOL    HW1 9130   3.367   0.807   0.743 -0.4871 -0.8695 -0.2706
 2976SOL    HW2 9131   3.337   0.916   0.643  0.9709  1.5638  1.8317
 2977SOL     OW 9132   0.098   0.493   1.165  0.3565  0.1395 -0.3267
 2977SOL    HW1 9133   0.018   0.544   1.178 -0.2708 -0.9139  0.0293
 2977SOL    HW2 9134   0.075   0.428   1.099  1.5397  1.1007 -1.7581
 2978SOL     OW 9135   0.632   2.726   0.400 -0.0573 -0.4837 -0.3900
 2978SOL    HW1 9136   0.602   2.658   0.340 -0.8595  0.4562 -1.0858
 2978SOL    HW2 9137   0.592   2.703   0.484 -0.6449 -0.6633 -0.7136
 2979SOL     OW 9138   2.314   0.407   0.378  0.0949  0.4925  0.4512
 2979SOL    HW1 9139   2.293   0.319   0.348  0.3407  0.1821  1.1641
 2979SOL    HW2 9140   2.401   0.425   0.344  0.7284 -0.1875  1.6242
 2980SOL     OW 9141   3.053   1.494   2.784 -0.2896 -0.0472 -0.3930
 2980SOL    HW1 9142   3.145   1.507   2.806 -0.7796  2.9192  0.3496
 2980SOL    HW2 9143   3.006   1.522   2.863 -1.8740 -3.7401  0.1646
 2981SOL     OW 9144   3.895   4.520   2.631 -0.0639 -0.3544  0.6078
 2981SOL    HW1 9145   3.810   4.486   2.603  0.4841  0.0347 -1.6847
 2981SOL    HW2 9146   3.952   4.443   2.635 -0.4208 -0.5785  1.9023
 2982SOL     OW 9147   2.416   1.204   2.651  0.5469 -0.2927 -0.0768
 2982SOL    HW1 9148   2.480   1.213   2.722  0.1891  3.2030 -0.0346
 2982SOL    HW2 9149   2.336   1.176   2.694  0.9250 -0.4653  0.5324
 2983SOL     OW 9150   2.453   2.352   0.708  0.8883  0.3608  0.1325
 2983SOL    HW1 9151   2.398   2.400   0.646 -0.2176 -0.0687  0.7451
 2983SOL    HW2 9152   2.438   2.394   0.792  2.0706  0.6853  0.2035
 2984SOL     OW 9153   2.143   3.853   1.100  0.0704  0.4557  0.5156
 2984SOL    HW1 9154   2.092   3.804   1.164  0.2400  0.7670  0.8880
 2984SOL    HW2 9155   2.233   3.846   1.130  0.2877 -0.2275 -0.2264
 2985SOL     OW 9156   1.938   3.293   0.152  0.3077  0.4773  0.5808
 2985SOL    HW1 9157   2.022   3.320   0.190  2.0696  0.2962 -2.8115
 2985SOL    HW2 9158   1.916   3.363   0.091 -2.3637  0.7519  1.7123
 2986SOL     OW 9159   0.471   2.325   0.387  0.5880 -0.6958  0.2847
 2986SOL    HW1 9160   0.398   2.269   0.360  0.0766  0.1105 -0.0303
 2986SOL    HW2 9161   0.441   2.366   0.468  0.8639 -0.6845  0.3830
 2987SOL     OW 9162   0.292   2.800   1.328  0.5781  0.8764 -0.1502
 2987SOL    HW1 9163   0.295   2.705   1.317 -2.4037  0.3549  2.2963
 2987SOL    HW2 9164   0.379   2.823   1.361  0.9064 -1.2500  0.6357
 2988SOL     OW 9165   3.531   4.805   0.584  0.2067  0.2727 -0.1827
 2988SOL    HW1 9166   3.613   4.811   0.633  0.1362  0.2184 -0.0568
 2988SOL    HW2 9167   3.557   4.768   0.500  0.4113  0.8886 -0.3994
 2989SOL     OW 9168   3.067   2.577   3.921 -0.0757  0.3762  0.4483
 2989SOL    HW1 9169   3.064   2.524   3.841 -2.3489  1.2581 -0.1269
 2989SOL    HW2 9170   3.128   2.648   3.900 -0.5453  0.5203 -0.4796
 2990SOL     OW 9171   2.134   0.189   4.024  0.1440 -0.0247  0.5296
 2990SOL    HW1 9172   2.040   0.204   4.014  0.0866  0.6442  1.9767
 2990SOL    HW2 9173   2.173   0.276   4.023  0.6354 -0.2338  1.0746
 2991SOL     OW 9174   2.817   1.384   0.726 -0.0069  0.1627  0.0990
 2991SOL    HW1 9175   2.898   1.336   0.708 -0.2816 -0.5076  0.5979
 2991SOL    HW2 9176   2.758   1.357   0.655 -0.1828 -0.2952  0.4166
 2992SOL     OW 9177   3.630   1.405   1.516  0.1077  0.5222 -0.1270
 2992SOL    HW1 9178   3.664   1.343   1.452  0.3107  0.8585 -0.3472
 2992SOL    HW2 9179   3.590   1.474   1.463  2.0324  1.8207  0.0516
 2993SOL     OW 9180   3.355   3.192   2.530 -0.2558  0.3519  0.5059
 2993SOL    HW1 9181   3.429   3.136   2.505 -0.6571  0.3364 -0.7164
 2993SOL    HW2 9182   3.395   3.265   2.577  0.5463  0.4052 -0.2419
 2994SOL     OW 9183   3.888   2.059   4.050  0.4248 -0.7944  0.3563
 2994SOL    HW1 9184   3.876   2.154   4.060  1.4017 -0.5074 -0.9970
 2994SOL    HW2 9185   3.799   2.024   4.048  0.0396  0.1609  0.2718
 2995SOL     OW 9186   3.848   4.177   3.399 -0.6070  0.4727 -0.2823
 2995SOL    HW1 9187   3.858   4.255   3.453  0.4530  0.2964 -0.2025
 2995SOL    HW2 9188   3.786   4.123   3.447  0.2043  0.3863  0.7009
 2996SOL     OW 9189   0.707   1.142   3.410 -0.2825  0.2015  0.3603
 2996SOL    HW1 9190   0.617   1.167   3.429 -0.0660  0.3011  1.3082
 2996SOL    HW2 9191   0.758   1.222   3.420  0.5012 -0.5415  3.9947
 2997SOL     OW 9192   3.340   2.760   4.145 -0.9361 -0.0915  0.4017
 2997SOL    HW1 9193   3.358   2.847   4.182 -0.8258 -0.4056  1.1121
 2997SOL    HW2 9194   3.333   2.775   4.051 -1.8980  0.8548  0.5992
 2998SOL     OW 9195   1.443   2.591   4.537 -0.7139 -0.3521  0.3952
 2998SOL    HW1 9196   1.414   2.508   4.575  0.5187 -0.8156  0.3641
 2998SOL    HW2 9197   1.500   2.565   4.464  1.4146  0.4638  1.6929
 2999SOL     OW 9198   4.110   0.043   2.437  0.4932  0.3117 -0.4869
 2999SOL    HW1 9199   4.024   0.019   2.403  0.1311 -1.1277  1.2574
 2999SOL    HW2 9200   4.091   0.096   2.515  1.2713  2.3412 -1.5860
 3000SOL     OW 9201   0.802   0.296   0.119  0.0524  0.7004  0.1117
 3000SOL    HW1 9202   0.738   0.364   0.100  0.4051  1.1534  0.5396
 3000SOL    HW2 9203   0.852   0.329   0.194  1.8833  1.1122 -1.2041
 3001SOL     OW 9204   2.635   4.329   2.448 -0.1735  0.0413 -0.3364
 3001SOL    HW1 9205   2.598   4.412   2.478 -1.5183  0.0158 -1.7509
 3001SOL    HW2 9206   2.558   4.274   2.431  0.5920 -0.7233 -1.5044
 3002SOL     OW 9207   1.703   4.795   3.306 -0.1157  0.1727  0.3870
 3002SOL    HW1 9208   1.627   4.827   3.355 -1.0697 -1.0299 -0.2618
 3002SOL    HW2 9209   1.716   4.706   3.338  1.1928  0.4374  0.6594
 3003SOL     OW 9210   2.194   3.850   2.686  0.4432 -0.4623  0.4129
 3003SOL    HW1 9211   2.242   3.845   2.768  2.3461 -2.0953 -0.7163
 3003SOL    HW2 9212   2.248   3.906   2.630 -0.1001 -0.5454 -0.2110
 3004SOL     OW 9213   4.806   0.126   2.226 -0.2779  0.4222 -0.1535
 3004SOL    HW1 9214   4.769   0.116   2.313  0.6635 -0.4727  0.1681
 3004SOL    HW2 9215   4.754   0.069   2.171 -0.1692  0.1356  0.0414
 3005SOL     OW 9216   2.842   0.189   1.737 -0.0321 -0.0005 -0.4157
 3005SOL    HW1 9217   2.836   0.102   1.778  2.5408 -0.8120 -1.5346
 3005SOL    HW2 9218   2.901   0.176   1.663 -1.5628  2.2100 -2.1457
 3006SOL     OW 9219   2.138   1.986   3.128  0.8783  0.1743  0.6072
 3006SOL    HW1 9220   2.199   1.913   3.138  2.1182  1.0214 -0.4120
 3006SOL    HW2 9221   2.186   2.062   3.162  0.5607  0.9144 -0.5300
 3007SOL     OW 9222   3.774   3.547   4.643 -0.3305 -0.3001 -0.3538
 3007SOL    HW1 9223   3.783   3.452   4.652  2.2737 -0.0297  0.9197
 3007SOL    HW2 9224   3.771   3.562   4.548  0.9203 -1.5853 -0.6347
 3008SOL     OW 9225   1.758   1.839   1.946 -0.0741 -0.1959  0.1822
 3008SOL    HW1 9226   1.803   1.913   1.988 -0.1138  0.4604 -0.8788
 3008SOL    HW2 9227   1.826   1.772   1.937  0.9126  0.9812 -1.8765
 3009SOL     OW 9228   1.753   1.946   4.135  0.1324 -0.9289  0.1826
 3009SOL    HW1 9229   1.807   1.895   4.074  1.4480 -1.7507  1.9753
 3009SOL    HW2 9230   1.664   1.914   4.120 -0.0205  0.5164 -2.9013
 3010SOL     OW 9231   4.693   0.265   2.515  0.1707 -0.0428 -0.2600
 3010SOL    HW1 9232   4.763   0.309   2.467 -0.6197  1.7341  0.1448
 3010SOL    HW2 9233   4.717   0.276   2.607  0.5400 -1.4791 -0.1716
 3011SOL     OW 9234   2.087   4.512   1.844  0.4938  0.1641  0.2318
 3011SOL    HW1 9235   2.024   4.445   1.816 -1.1601  1.9169 -0.4708
 3011SOL    HW2 9236   2.129   4.541   1.763  0.6737  0.5028  0.4459
 3012SOL     OW 9237   0.307   0.944   2.930  0.2297 -0.1473  0.6925
 3012SOL    HW1 9238   0.357   0.928   3.010 -1.7311 -1.4376  1.7412
 3012SOL    HW2 9239   0.355   1.015   2.885  2.2217 -0.4407  2.2186
 3013SOL     OW 9240   2.468   0.633   0.185  0.4994  0.1636  0.1279
 3013SOL    HW1 9241   2.499   0.581   0.111 -1.4651 -1.0373  0.0838
 3013SOL    HW2 9242   2.375   0.610   0.193  0.0936  2.0662  1.4794
 3014SOL     OW 9243   0.717   3.893   3.345 -0.4001 -0.3845 -0.2237
 3014SOL    HW1 9244   0.813   3.890   3.338 -0.3893 -0.1652 -0.1910
 3014SOL    HW2 9245   0.691   3.962   3.284 -0.5860 -0.8507 -0.6715
 3015SOL     OW 9246   4.525   1.402   1.906  0.1413 -0.0896  0.1853
 3015SOL    HW1 9247   4.524   1.437   1.817 -0.0023 -1.6799 -0.4777
 3015SOL    HW2 9248   4.496   1.474   1.961 -1.0238  0.5458 -1.2068
 3016SOL     OW 9249   0.449   3.251   2.067  0.1192  0.1142 -0.0508
 3016SOL    HW1 9250   0.473   3.315   2.134 -1.7220  1.3665 -0.5227
 3016SOL    HW2 9251   0.431   3.304   1.989 -2.0167 -0.8861 -0.3045
 3017SOL     OW 9252   3.214   1.847   1.084 -0.2470 -0.3069  0.2673
 3017SOL    HW1 9253   3.259   1.932   1.086 -1.5222  0.3867  0.9218
 3017SOL    HW2 9254   3.228   1.810   1.171  2.9740 -2.3111 -0.9002
 3018SOL     OW 9255   4.029   2.544   0.629  0.4818 -0.6376  0.3781
 3018SOL    HW1 9256   3.995   2.482   0.565 -2.9104 -1.1068  2.3987
 3018SOL    HW2 9257   3.972   2.620   0.621  2.4807  0.9480  0.2573
 3019SOL     OW 9258   3.493   2.425   1.170 -0.2999 -0.2565  0.3391
 3019SOL    HW1 9259   3.483   2.348   1.226 -2.0804 -2.4964 -2.7263
 3019SOL    HW2 9260   3.577   2.411   1.126 -1.5402 -1.6698 -1.7265
 3020SOL     OW 9261   1.206   0.592   3.243  0.0176  0.4370  0.2446
 3020SOL    HW1 9262   1.183   0.636   3.326 -1.5614  0.2725 -0.0740
 3020SOL    HW2 9263   1.248   0.660   3.191 -2.5714  1.7507 -0.3142
 3021SOL     OW 9264   0.646   0.722   3.907 -0.2539 -0.0196 -0.7562
 3021SOL    HW1 9265   0.739   0.743   3.917  0.1444 -2.1634  0.7358
 3021SOL    HW2 9266   0.642   0.657   3.837 -0.5268 -0.4435 -0.3578
 3022SOL     OW 9267   2.158   0.794   3.997  0.3636 -0.0729  0.3336
 3022SOL    HW1 9268   2.202   0.852   3.936 -0.1572 -1.7585 -1.7787
 3022SOL    HW2 9269   2.229   0.746   4.041  0.7569  1.5332  1.5391
 3023SOL     OW 9270   1.370   0.591   0.524  0.0170 -0.6504 -0.0663
 3023SOL    HW1 9271   1.352   0.566   0.433  1.2910 -2.2898  0.0899
 3023SOL    HW2 9272   1.371   0.508   0.572 -0.2790  0.1567  1.4023
 3024SOL     OW 9273   3.058   3.356   4.447  0.0561 -0.2528 -0.0153
 3024SOL    HW1 9274   3.152   3.370   4.457  0.0066  0.3767 -0.3475
 3024SOL    HW2 9275   3.051   3.290   4.378  0.2622 -0.5193  0.2193
 3025SOL     OW 9276   4.007   1.616   4.244 -0.3171 -0.6365  0.5298
 3025SOL    HW1 9277   4.047   1.678   4.183 -2.8543  0.8813  0.2728
 3025SOL    HW2 9278   3.970   1.548   4.189 -1.8127  0.2576  0.3821
 3026SOL     OW 9279   4.095   0.248   4.618  0.1251 -0.4562  0.5009
 3026SOL    HW1 9280   4.036   0.286   4.682  0.1067  0.6113 -0.1354
 3026SOL    HW2 9281   4.149   0.186   4.669 -0.8148 -0.6605  1.2700
 3027SOL     OW 9282   0.875   4.394   4.313  0.3657 -0.0912 -0.1813
 3027SOL    HW1 9283   0.901   4.330   4.380  2.8991  0.4217 -0.5745
 3027SOL    HW2 9284   0.900   4.479   4.351  2.8400  0.1378 -2.0890
 3028SOL     OW 9285   4.371   0.101   4.412 -0.3566 -0.0440 -0.2188
 3028SOL    HW1 9286   4.290   0.064   4.377 -0.9548  0.2776  0.7829
 3028SOL    HW2 9287   4.363   0.195   4.393  0.0165 -0.0796 -0.5587
 3029SOL     OW 9288   3.505   2.709   0.451  0.3819 -0.6820 -0.1206
 3029SOL    HW1 9289   3.449   2.765   0.504 -0.2815  0.5485 -2.0064
 3029SOL    HW2 9290   3.540   2.644   0.512 -1.3145 -0.1104  1.5360
 3030SOL     OW 9291   0.364   1.922   0.785 -0.8998  0.0295 -0.3440
 3030SOL    HW1 9292   0.403   1.896   0.868  0.3388  0.2786 -0.8273
 3030SOL    HW2 9293   0.403   1.862   0.721 -0.4244  1.0235 -1.0056
 3031SOL     OW 9294   4.341   3.091   4.303 -0.5905  0.4210 -0.1415
 3031SOL    HW1 9295   4.414   3.033   4.283 -0.3981  0.8974 -0.8350
 3031SOL    HW2 9296   4.264   3.048   4.264 -0.6689 -0.0107  0.4714
 3032SOL     OW 9297   2.035   3.930   3.440 -0.9828  0.3518 -0.6953
 3032SOL    HW1 9298   1.997   3.958   3.357  0.1961  3.1220 -0.4015
 3032SOL    HW2 9299   2.129   3.926   3.424 -0.7699  0.5266  0.4117
 3033SOL     OW 9300   2.915   4.410   3.675  0.3386 -0.1680  0.2866
 3033SOL    HW1 9301   2.825   4.444   3.676  1.0243  1.7886  1.5245
 3033SOL    HW2 9302   2.917   4.350   3.601 -2.0806 -0.5496  0.4440
 3034SOL     OW 9303   2.456   0.596   1.951  0.2381  0.1639 -0.4944
 3034SOL    HW1 9304   2.518   0.531   1.984  0.3318 -0.7246 -2.2871
 3034SOL    HW2 9305   2.371   0.553   1.958  0.3306 -0.3259 -1.9469
 3035SOL     OW 9306   2.558   4.713   0.444 -0.6646  0.1096 -0.3765
 3035SOL    HW1 9307   2.640   4.706   0.491 -0.9504 -0.5792  0.0486
 3035SOL    HW2 9308   2.498   4.756   0.505 -0.1844  2.1761 -1.2979
 3036SOL     OW 9309   1.663   3.986   1.448 -0.0986 -0.6027 -0.9396
 3036SOL    HW1 9310   1.579   3.995   1.402 -0.9571 -0.3907  0.5863
 3036SOL    HW2 9311   1.638   3.966   1.539  1.5026 -0.2494 -0.3919
 3037SOL     OW 9312   2.985   0.054   1.325 -0.3772  0.5167 -0.0546
 3037SOL    HW1 9313   2.904   0.101   1.307 -0.3629  0.5400 -0.0582
 3037SOL    HW2 9314   2.968   0.005   1.406 -0.1164  1.1690  0.3980
 3038SOL     OW 9315   2.372   3.915   0.905  0.2361  0.2740  0.4546
 3038SOL    HW1 9316   2.303   3.963   0.859 -0.8147  0.3223  1.9905
 3038SOL    HW2 9317   2.377   3.957   0.991  1.4147 -0.4380  0.7541
 3039SOL     OW 9318   0.446   3.232   1.357 -0.1953 -0.1801  0.4440
 3039SOL    HW1 9319   0.388   3.287   1.409 -0.9684 -0.5126 -0.0531
 3039SOL    HW2 9320   0.423   3.142   1.382 -0.5774 -0.3421 -0.4654
 3040SOL     OW 9321   2.095   1.685   4.742 -0.2152 -0.3503 -0.1242
 3040SOL    HW1 9322   2.082   1.779   4.752  0.5394 -0.2394 -0.1148
 3040SOL    HW2 9323   2.024   1.645   4.792 -0.2957  0.2123  0.2140
 3041SOL     OW 9324   2.403   3.119   0.832 -0.0487  0.3773  0.2454
 3041SOL    HW1 9325   2.497   3.099   0.834  0.2923  1.6470  3.1415
 3041SOL    HW2 9326   2.362   3.043   0.872 -0.0380  0.4800  0.4588
 3042SOL     OW 9327   4.178   2.198   0.317  0.3948  0.1551  0.8087
 3042SOL    HW1 9328   4.146   2.127   0.372  1.2351  0.4177  1.6643
 3042SOL    HW2 9329   4.120   2.271   0.336 -0.1270 -0.1303  0.3433
 3043SOL     OW 9330   3.636   1.254   4.088 -0.3000  0.0040  0.4578
 3043SOL    HW1 9331   3.690   1.307   4.028  1.0459 -3.4536 -1.6578
 3043SOL    HW2 9332   3.571   1.213   4.031 -0.1493 -1.9820  1.6503
 3044SOL     OW 9333   4.402   2.344   1.272  0.0248  0.1705  0.2569
 3044SOL    HW1 9334   4.478   2.403   1.265  0.5783 -0.6198 -0.6518
 3044SOL    HW2 9335   4.431   2.276   1.332  0.8569 -1.2693 -1.6626
 3045SOL     OW 9336   3.825   1.564   1.153 -0.5182  0.1849 -0.3345
 3045SOL    HW1 9337   3.862   1.624   1.217  1.3436  0.2701 -1.4061
 3045SOL    HW2 9338   3.754   1.613   1.111 -0.2821  0.9267  0.1204
 3046SOL     OW 9339   2.334   2.832   4.640 -0.2382 -0.3515 -0.1996
 3046SOL    HW1 9340   2.299   2.917   4.615  0.3021 -0.1417 -0.2712
 3046SOL    HW2 9341   2.413   2.853   4.689 -1.5701 -0.7293  2.2428
 3047SOL     OW 9342   1.247   1.286   0.784 -0.0538  0.2671 -0.2816
 3047SOL    HW1 9343   1.330   1.332   0.795 -0.8644  1.8805 -0.5269
 3047SOL    HW2 9344   1.271   1.197   0.760  1.6005  0.8130 -0.7816
 3048SOL     OW 9345   4.086   0.724   1.089 -0.2587 -0.6692  0.3069
 3048SOL    HW1 9346   4.102   0.732   1.183  0.6011 -1.1299  0.2115
 3048SOL    HW2 9347   4.088   0.630   1.072  1.8524 -0.5385 -0.5212
 3049SOL     OW 9348   1.482   4.432   2.201 -0.7432  0.2841  0.3022
 3049SOL    HW1 9349   1.399   4.384   2.210 -0.2967 -0.5857 -0.0960
 3049SOL    HW2 9350   1.533   4.380   2.138 -1.1853  2.5456 -2.1057
 3050SOL     OW 9351   0.052   4.025   4.309  0.0899  0.0851  0.0448
 3050SOL    HW1 9352  -0.030   4.002   4.352 -0.0373  0.6944  0.1379
 3050SOL    HW2 9353   0.120   4.006   4.375  0.0504 -0.6256 -0.1103
 3051SOL     OW 9354   2.374   2.419   0.975  0.1389  0.1545  0.2437
 3051SOL    HW1 9355   2.341   2.338   1.014  0.3289  1.0604  2.4468
 3051SOL    HW2 9356   2.296   2.464   0.942  0.0425 -0.9197 -1.0676
 3052SOL     OW 9357   2.552   3.540   3.496  0.1932 -0.0686 -0.0708
 3052SOL    HW1 9358   2.641   3.513   3.472  0.8030  0.9783  0.9100
 3052SOL    HW2 9359   2.513   3.569   3.413  1.5938  1.7003 -0.1865
 3053SOL     OW 9360   2.992   2.949   0.703  0.2272  0.4336  0.0930
 3053SOL    HW1 9361   3.020   2.973   0.791 -0.4128 -0.7365  0.6301
 3053SOL    HW2 9362   2.964   3.032   0.664 -1.7199  0.7003  1.8265
 3054SOL     OW 9363   0.278   3.805   4.743 -0.1550  0.3767  0.0206
 3054SOL    HW1 9364   0.349   3.816   4.805 -0.2961  0.7349  0.1179
 3054SOL    HW2 9365   0.307   3.849   4.664 -0.7033  1.4426  0.3989
 3055SOL     OW 9366   4.640   2.620   0.244 -0.0934  0.1314 -0.6432
 3055SOL    HW1 9367   4.554   2.619   0.201  0.0325 -0.2677 -0.8863
 3055SOL    HW2 9368   4.623   2.580   0.330 -0.1658  0.1371 -0.6544
 3056SOL     OW 9369   0.031   4.329   4.790  0.2890 -0.2683  0.0487
 3056SOL    HW1 9370   0.049   4.277   4.712  2.5947 -1.3712  1.2103
 3056SOL    HW2 9371   0.093   4.402   4.785 -1.1984  1.0216 -0.3037
 3057SOL     OW 9372   3.238   3.086   0.814  0.3223 -0.3585 -0.6787
 3057SOL    HW1 9373   3.265   3.175   0.792  1.0398 -0.6829 -1.1528
 3057SOL    HW2 9374   3.178   3.097   0.888 -2.2697  0.7820 -2.7672
 3058SOL     OW 9375   4.401   3.661   4.046 -0.2942 -0.1166 -0.0833
 3058SOL    HW1 9376   4.406   3.594   3.978  0.0260  0.5985 -0.7895
 3058SOL    HW2 9377   4.327   3.635   4.100 -0.5635 -0.7010 -0.7134
 3059SOL     OW 9378   0.702   4.316   2.414  0.0527  0.1906  0.0519
 3059SOL    HW1 9379   0.695   4.273   2.329 -0.1228 -2.4007  1.2986
 3059SOL    HW2 9380   0.616   4.302   2.454  0.0840  1.5210  0.6306
 3060SOL     OW 9381   0.827   0.993   0.766  0.3615  0.1204  0.2594
 3060SOL    HW1 9382   0.797   1.007   0.677  0.5645 -0.8292  0.0304
 3060SOL    HW2 9383   0.747   0.990   0.818  0.2881  1.7883  0.3022
 3061SOL     OW 9384   1.991   2.565   1.272 -0.4791 -0.2356  0.1354
 3061SOL    HW1 9385   1.947   2.620   1.337 -0.4373 -0.5258  0.4147
 3061SOL    HW2 9386   2.084   2.571   1.294 -0.4264 -0.0062 -0.1539
 3062SOL     OW 9387   0.573   4.494   3.924  0.2159  0.0159 -0.0584
 3062SOL    HW1 9388   0.607   4.484   3.835 -1.7722  1.0447 -1.0003
 3062SOL    HW2 9389   0.618   4.571   3.958  0.8931 -0.3034 -0.2020
 3063SOL     OW 9390   3.589   2.475   2.968  0.2671 -0.1684  0.2192
 3063SOL    HW1 9391   3.607   2.535   2.896 -2.0567 -1.1077 -1.2623
 3063SOL    HW2 9392   3.563   2.393   2.925  2.0049 -1.8637  2.1596
 3064SOL     OW 9393   4.524   0.561   2.713  0.0735  0.2876 -0.5167
 3064SOL    HW1 9394   4.542   0.580   2.805  2.0264 -2.8102 -0.0948
 3064SOL    HW2 9395   4.492   0.643   2.677 -0.9592  1.5627  2.9450
 3065SOL     OW 9396   4.771   1.949   2.837  0.2247 -0.6283 -0.1810
 3065SOL    HW1 9397   4.737   1.975   2.751 -1.5666  0.5059  0.7960
 3065SOL    HW2 9398   4.697   1.908   2.881  1.6833 -3.1262  0.1357
 3066SOL     OW 9399   0.565   4.656   0.958  0.5668  0.1204 -0.1976
 3066SOL    HW1 9400   0.655   4.650   0.925  0.6950 -0.3669  0.2305
 3066SOL    HW2 9401   0.553   4.577   1.011  0.2266  0.6897  0.5943
 3067SOL     OW 9402   0.378   3.614   3.434 -0.6989 -0.9550  0.4288
 3067SOL    HW1 9403   0.388   3.700   3.474  1.0232 -0.7190 -0.4243
 3067SOL    HW2 9404   0.284   3.609   3.413 -0.5978  1.3814 -0.9542
 3068SOL     OW 9405   4.672   1.096   1.714 -0.3806 -0.3772 -0.0907
 3068SOL    HW1 9406   4.597   1.115   1.658 -0.3256  1.9392  0.5155
 3068SOL    HW2 9407   4.748   1.103   1.656 -0.4930 -0.5055 -0.2520
 3069SOL     OW 9408   3.293   0.526   4.587  0.5794 -0.4096 -0.2289
 3069SOL    HW1 9409   3.224   0.513   4.522  0.1796  1.0083 -0.1175
 3069SOL    HW2 9410   3.249   0.514   4.671 -0.5253  3.9473  0.0406
 3070SOL     OW 9411   4.216   0.923   0.914 -0.3573 -0.3768 -0.2493
 3070SOL    HW1 9412   4.186   0.853   0.972  3.4730 -2.8502 -0.8801
 3070SOL    HW2 9413   4.139   0.946   0.862 -2.6603 -1.5347  2.3887
 3071SOL     OW 9414   2.879   0.650   2.509  0.1716 -0.4413 -0.5080
 3071SOL    HW1 9415   2.967   0.658   2.546 -0.1614  0.2936  0.1690
 3071SOL    HW2 9416   2.890   0.597   2.430  0.7330 -3.0621  1.2266
 3072SOL     OW 9417   4.420   4.363   3.896 -0.1999  0.2263 -0.0706
 3072SOL    HW1 9418   4.390   4.272   3.884 -1.8343  0.7904 -0.5249
 3072SOL    HW2 9419   4.475   4.380   3.820 -3.0196  0.7921 -2.1829
 3073SOL     OW 9420   3.085   3.819   1.846 -0.1618 -0.3352 -0.9910
 3073SOL    HW1 9421   3.130   3.888   1.896 -0.7692  1.1754 -2.4166
 3073SOL    HW2 9422   3.036   3.770   1.912  2.9675 -1.6670  0.5458
 3074SOL     OW 9423   0.064   1.055   2.158 -0.3805 -0.4176 -0.0852
 3074SOL    HW1 9424   0.027   1.103   2.232 -1.6312  0.3168 -1.1299
 3074SOL    HW2 9425   0.108   1.122   2.105  0.7798 -0.9841  0.1475
 3075SOL     OW 9426   2.505   3.281   2.056  0.1041 -0.1956 -0.1451
 3075SOL    HW1 9427   2.499   3.235   2.139 -1.3427 -0.0712 -0.1714
 3075SOL    HW2 9428   2.458   3.225   1.994 -1.7251  1.2766 -0.1775
 3076SOL     OW 9429   4.700   2.354   3.451  1.3984 -0.2141 -0.7139
 3076SOL    HW1 9430   4.727   2.364   3.360  0.5775  1.6682 -0.8002
 3076SOL    HW2 9431   4.610   2.386   3.453  1.4050 -0.2030  0.7775
 3077SOL     OW 9432   0.956   2.218   3.042 -0.1402 -0.2124 -0.0642
 3077SOL    HW1 9433   0.935   2.311   3.048  1.4470  0.2638 -1.2325
 3077SOL    HW2 9434   0.890   2.182   2.983 -0.3421  0.3043 -0.1587
 3078SOL     OW 9435   1.824   3.381   2.531  0.0313 -0.0005 -1.3165
 3078SOL    HW1 9436   1.874   3.456   2.499 -1.2036  0.8974 -1.2366
 3078SOL    HW2 9437   1.886   3.330   2.582  0.6889  1.4447 -0.6196
 3079SOL     OW 9438   3.334   2.707   0.973 -0.1571  0.2220 -0.0797
 3079SOL    HW1 9439   3.377   2.678   0.892 -1.7368 -2.2244 -0.1485
 3079SOL    HW2 9440   3.406   2.715   1.036  0.9034  0.6474 -1.2966
 3080SOL     OW 9441   4.250   2.060   4.061  0.1084 -0.0571 -0.0562
 3080SOL    HW1 9442   4.289   2.074   4.147 -0.5439  1.6064 -0.0021
 3080SOL    HW2 9443   4.177   2.121   4.057 -0.7632 -1.1226 -1.2540
 3081SOL     OW 9444   1.520   1.006   2.288  0.8046  0.3638  0.5178
 3081SOL    HW1 9445   1.513   0.929   2.345 -1.0955 -0.1507 -0.3054
 3081SOL    HW2 9446   1.520   1.080   2.347 -0.2211 -0.1977  1.2589
 3082SOL     OW 9447   4.140   1.224   2.037  0.0701  0.2149 -0.3801
 3082SOL    HW1 9448   4.044   1.222   2.040  0.0798 -1.4219 -0.2427
 3082SOL    HW2 9449   4.161   1.245   1.946 -0.4298 -0.2982 -0.6215
 3083SOL     OW 9450   1.951   0.662   0.827  0.5202  0.1711 -0.2828
 3083SOL    HW1 9451   2.031   0.715   0.828  0.1393  0.8921 -2.6663
 3083SOL    HW2 9452   1.960   0.606   0.750 -2.0867  1.7131 -1.8565
 3084SOL     OW 9453   1.098   2.737   3.925  0.0690  0.0570 -0.3615
 3084SOL    HW1 9454   1.062   2.651   3.948 -1.6821  0.2687 -2.0240
 3084SOL    HW2 9455   1.181   2.717   3.880 -0.6100 -0.8359 -1.2627
 3085SOL     OW 9456   0.192   2.214   1.816  0.3083 -0.1583  0.4429
 3085SOL    HW1 9457   0.221   2.305   1.824  0.7129 -0.1282 -1.0724
 3085SOL    HW2 9458   0.257   2.164   1.866  0.2017  0.3496  1.1083
 3086SOL     OW 9459   0.071   0.761   1.676 -0.0991 -0.3323  0.3604
 3086SOL    HW1 9460   0.018   0.825   1.628  2.5575  2.2725  0.5924
 3086SOL    HW2 9461   0.040   0.767   1.766 -0.8428 -0.4581  0.1176
 3087SOL     OW 9462   2.110   3.295   4.137 -0.0475  0.2670  0.3074
 3087SOL    HW1 9463   2.073   3.228   4.194 -1.4111  1.0269  0.3630
 3087SOL    HW2 9464   2.191   3.256   4.104 -1.3816 -1.9282 -0.6359
 3088SOL     OW 9465   1.304   0.531   3.880 -0.2334 -0.0276  0.3762
 3088SOL    HW1 9466   1.214   0.525   3.848 -0.0385 -2.2241  0.0677
 3088SOL    HW2 9467   1.296   0.541   3.975 -0.8389 -1.5185  0.5058
 3089SOL     OW 9468   4.618   3.666   1.377 -0.1090  0.1289 -0.4642
 3089SOL    HW1 9469   4.538   3.616   1.366  0.3584 -0.3472 -1.8226
 3089SOL    HW2 9470   4.597   3.731   1.444 -0.3653 -2.6496  2.3701
 3090SOL     OW 9471   2.349   2.795   0.918  0.0116 -0.5035 -0.2985
 3090SOL    HW1 9472   2.422   2.752   0.961 -0.6869 -0.4432  0.9814
 3090SOL    HW2 9473   2.348   2.758   0.829  0.8831 -1.3334  0.0287
 3091SOL     OW 9474   4.298   1.918   3.386 -0.1900 -0.3905 -0.1412
 3091SOL    HW1 9475   4.381   1.876   3.361 -0.8475 -0.8739 -1.6596
 3091SOL    HW2 9476   4.252   1.851   3.436  0.0429 -0.3746  0.0957
 3092SOL     OW 9477   1.506   0.138   0.092 -0.2405  0.0425 -0.0337
 3092SOL    HW1 9478   1.523   0.062   0.037 -2.8083 -1.3989  0.9916
 3092SOL    HW2 9479   1.534   0.112   0.179 -0.6838  0.4381  0.2347
 3093SOL     OW 9480   3.991   2.141   2.574 -0.1664 -0.3474 -0.2499
 3093SOL    HW1 9481   3.937   2.122   2.498 -1.6495  0.0143  0.6733
 3093SOL    HW2 9482   4.004   2.235   2.572  1.3365 -0.5361 -1.0161
 3094SOL     OW 9483   0.934   4.818   0.498 -0.3976 -0.1438  0.1033
 3094SOL    HW1 9484   1.022   4.810   0.535 -0.5759 -1.3956  0.2745
 3094SOL    HW2 9485   0.892   4.885   0.551  0.7300  1.1307 -0.5400
 3095SOL     OW 9486   4.354   3.063   0.428 -0.2404 -0.2017 -0.5262
 3095SOL    HW1 9487   4.343   3.031   0.518 -0.2756  2.6002  0.5846
 3095SOL    HW2 9488   4.405   2.996   0.384  0.2665 -1.4104  1.7628
 3096SOL     OW 9489   1.086   1.551   2.151  0.0514  0.0822 -0.4243
 3096SOL    HW1 9490   1.143   1.488   2.107  1.0447 -0.4053  1.4779
 3096SOL    HW2 9491   1.025   1.497   2.201 -0.8654  0.6348 -0.9144
 3097SOL     OW 9492   4.451   3.240   1.750 -0.2863  0.3407  0.2074
 3097SOL    HW1 9493   4.473   3.266   1.661 -0.5008 -1.1356 -0.2940
 3097SOL    HW2 9494   4.526   3.188   1.780 -1.1514 -0.9966  0.0889
 3098SOL     OW 9495   3.001   3.859   2.780 -0.4033 -0.4876 -0.2650
 3098SOL    HW1 9496   2.978   3.915   2.706 -1.3912 -1.2220 -0.5424
 3098SOL    HW2 9497   3.082   3.816   2.753  0.6424  1.1293  0.1534
 3099SOL     OW 9498   2.101   2.442   4.718  0.6304  0.4200 -0.2412
 3099SOL    HW1 9499   2.126   2.352   4.739 -1.5727 -0.3462 -0.6349
 3099SOL    HW2 9500   2.027   2.461   4.776  0.7285  1.8070 -0.5179
 3100SOL     OW 9501   3.503   1.843   3.172 -0.0401  0.0880  0.7450
 3100SOL    HW1 9502   3.549   1.860   3.254  0.9677  0.1193  0.1879
 3100SOL    HW2 9503   3.461   1.927   3.150  0.8231  0.4777  0.5379
 3101SOL     OW 9504   0.020   2.319   2.286  0.3871 -0.9150 -0.3184
 3101SOL    HW1 9505   0.109   2.337   2.254  0.4056 -1.8402 -0.8034
 3101SOL    HW2 9506   0.005   2.227   2.264 -0.8734 -0.6356 -0.6583
 3102SOL     OW 9507   4.246   0.739   0.289  0.4525 -0.6153  0.2051
 3102SOL    HW1 9508   4.296   0.659   0.278 -0.8931 -1.7706  1.9328
 3102SOL    HW2 9509   4.167   0.726   0.236 -1.0816 -1.7109  2.5929
 3103SOL     OW 9510   2.513   3.555   2.020 -0.5124  0.8764  0.2412
 3103SOL    HW1 9511   2.538   3.463   2.013  0.5789  0.9605  2.3284
 3103SOL    HW2 9512   2.434   3.554   2.075 -0.7049  1.1642 -0.0284
 3104SOL     OW 9513   3.434   2.606   4.774 -0.1175 -0.8882 -0.0035
 3104SOL    HW1 9514   3.344   2.620   4.804  0.1749  1.0215  0.0709
 3104SOL    HW2 9515   3.472   2.693   4.769  1.0187 -1.4315 -2.3834
 3105SOL     OW 9516   2.353   1.022   1.356 -0.0322  0.4730  0.6422
 3105SOL    HW1 9517   2.305   1.020   1.439 -1.7753 -1.7513 -0.3237
 3105SOL    HW2 9518   2.345   1.113   1.326 -1.7405  0.6883  1.6131
 3106SOL     OW 9519   3.018   1.144   3.552 -0.0452  0.3527 -0.5297
 3106SOL    HW1 9520   3.088   1.144   3.486 -0.3079  2.0760 -0.8520
 3106SOL    HW2 9521   2.937   1.135   3.501 -0.1637  0.2553 -0.3235
 3107SOL     OW 9522   4.372   3.366   0.570  0.4602  0.3319 -0.2224
 3107SOL    HW1 9523   4.302   3.318   0.613 -0.1139  1.8024  0.5834
 3107SOL    HW2 9524   4.433   3.299   0.539 -0.3991 -0.8892  0.6562
 3108SOL     OW 9525   1.065   0.905   2.228  0.9395 -0.1383  0.0250
 3108SOL    HW1 9526   1.143   0.851   2.222  1.1008  0.1988 -0.9962
 3108SOL    HW2 9527   1.097   0.990   2.258  0.5487 -0.8612  2.8318
 3109SOL     OW 9528   4.431   3.891   0.698  0.0757  0.6022  1.0403
 3109SOL    HW1 9529   4.379   3.971   0.697  1.5166  1.5891  0.7621
 3109SOL    HW2 9530   4.482   3.897   0.779  0.9510  0.5027  0.5100
 3110SOL     OW 9531   1.579   1.268   2.409 -0.2614  0.5212 -0.3160
 3110SOL    HW1 9532   1.643   1.331   2.443  0.7708 -0.6819  0.0711
 3110SOL    HW2 9533   1.565   1.294   2.318 -0.6203  1.8812  0.1032
 3111SOL     OW 9534   1.770   1.008   0.010  0.1192  0.2843  0.0002
 3111SOL    HW1 9535   1.862   1.004   0.037  0.0649 -0.6144  0.0695
 3111SOL    HW2 9536   1.732   1.075   0.067  0.5251 -0.0002  0.6244
 3112SOL     OW 9537   1.239   3.585   2.479  0.3615 -0.0651  0.6491
 3112SOL    HW1 9538   1.165   3.526   2.471  0.1300 -0.0165  2.2273
 3112SOL    HW2 9539   1.300   3.540   2.537  1.8614 -0.3493 -1.0429
 3113SOL     OW 9540   1.546   1.584   1.272 -0.6555 -0.3489  0.3254
 3113SOL    HW1 9541   1.540   1.565   1.366  0.7187  0.4158  0.5991
 3113SOL    HW2 9542   1.485   1.656   1.258 -1.2555 -0.8125  0.5220
 3114SOL     OW 9543   1.492   1.966   2.202  0.1231  0.4645 -0.0422
 3114SOL    HW1 9544   1.541   2.036   2.244  1.1423 -0.6128  0.6637
 3114SOL    HW2 9545   1.462   2.002   2.119  2.2511  1.1495 -0.5591
 3115SOL     OW 9546   2.121   0.210   3.125 -0.8899 -1.0210  0.0235
 3115SOL    HW1 9547   2.086   0.122   3.138 -2.4952 -0.7037 -1.6925
 3115SOL    HW2 9548   2.149   0.211   3.034 -1.6345  0.4584 -0.2164
 3116SOL     OW 9549   0.699   1.118   4.527  0.7457 -0.4408  0.3085
 3116SOL    HW1 9550   0.751   1.179   4.580  0.3412  1.1506 -1.0246
 3116SOL    HW2 9551   0.678   1.046   4.586  0.8919  0.9194  2.1081
 3117SOL     OW 9552   0.278   1.364   3.734 -0.2148 -0.4363 -0.4229
 3117SOL    HW1 9553   0.346   1.431   3.724  0.2834 -0.6683  1.2126
 3117SOL    HW2 9554   0.205   1.397   3.682  0.5967  0.5764 -0.9617
 3118SOL     OW 9555   1.243   1.268   1.347 -0.0206 -0.0378  0.1081
 3118SOL    HW1 9556   1.237   1.236   1.257  3.0218  0.4093 -0.3730
 3118SOL    HW2 9557   1.285   1.354   1.340 -0.6947  0.4942  1.8927
 3119SOL     OW 9558   4.786   3.281   2.481  0.0418  0.0427  0.5298
 3119SOL    HW1 9559   4.880   3.284   2.463  0.0026 -0.8064  0.1586
 3119SOL    HW2 9560   4.777   3.321   2.567  1.1436 -2.6475  2.0210
 3120SOL     OW 9561   4.748   2.386   0.753 -0.3058  0.3360 -0.2084
 3120SOL    HW1 9562   4.803   2.434   0.815 -0.5585 -0.4080  0.6040
 3120SOL    HW2 9563   4.677   2.447   0.731 -0.6339  0.3373  0.8188
 3121SOL     OW 9564   0.119   4.220   0.233 -0.1539 -0.5455  0.7755
 3121SOL    HW1 9565   0.106   4.242   0.141  1.0165 -0.4166  0.6252
 3121SOL    HW2 9566   0.047   4.161   0.254 -1.2868  0.5834  0.1918
 3122SOL     OW 9567   1.027   1.708   0.281 -0.7246  0.1400  0.2276
 3122SOL    HW1 9568   0.996   1.653   0.353 -0.9885  1.2856  1.0241
 3122SOL    HW2 9569   1.008   1.658   0.202  2.2695 -2.5548  0.9693
 3123SOL     OW 9570   1.408   3.200   2.230  0.2735 -0.3245 -0.5321
 3123SOL    HW1 9571   1.392   3.177   2.322 -2.4128  0.2515 -0.7831
 3123SOL    HW2 9572   1.496   3.237   2.230 -0.0190  0.5639  1.9992
 3124SOL     OW 9573   0.292   2.317   4.561 -0.6930 -0.4038 -0.5748
 3124SOL    HW1 9574   0.305   2.258   4.635 -0.9587 -2.1697 -1.8616
 3124SOL    HW2 9575   0.379   2.345   4.536 -0.6286  0.5719  0.6491
 3125SOL     OW 9576   3.222   0.566   0.659 -0.6215  0.2209 -0.5479
 3125SOL    HW1 9577   3.275   0.500   0.613 -0.6748  1.0977 -1.9066
 3125SOL    HW2 9578   3.277   0.644   0.658 -1.2697  0.6745 -0.4781
 3126SOL     OW 9579   0.309   4.734   0.121  0.4239  0.8253 -0.2756
 3126SOL    HW1 9580   0.338   4.651   0.161  0.0714  0.3699 -0.9367
 3126SOL    HW2 9581   0.390   4.783   0.107  0.6288  0.6307  0.2064
 3127SOL     OW 9582   3.383   0.470   1.034  0.1174 -0.0962  0.2666
 3127SOL    HW1 9583   3.367   0.376   1.040  3.1584 -0.7052  0.3491
 3127SOL    HW2 9584   3.296   0.510   1.037 -1.2191 -2.8579  0.7538
 3128SOL     OW 9585   3.812   2.769   0.588  0.3776 -1.0091 -0.3481
 3128SOL    HW1 9586   3.895   2.810   0.611 -0.3798  0.5434 -0.2904
 3128SOL    HW2 9587   3.800   2.789   0.495 -1.3601  1.4707  0.3229
 3129SOL     OW 9588   1.551   4.541   2.433  0.1142  0.2552 -0.1843
 3129SOL    HW1 9589   1.646   4.548   2.423  0.0112  2.4624 -0.0336
 3129SOL    HW2 9590   1.522   4.494   2.354  1.2524  0.0702 -0.5171
 3130SOL     OW 9591   1.542   4.480   3.690 -0.0857 -0.5510  0.0777
 3130SOL    HW1 9592   1.450   4.503   3.706  0.1454  1.5604 -1.2432
 3130SOL    HW2 9593   1.540   4.426   3.611 -0.1215  0.2553 -0.4747
 3131SOL     OW 9594   0.550   3.767   2.948  0.7765 -0.6558  0.2170
 3131SOL    HW1 9595   0.633   3.816   2.944  1.4779 -1.8241 -0.1917
 3131SOL    HW2 9596   0.527   3.767   3.041 -0.8937  3.0164 -0.0234
 3132SOL     OW 9597   4.810   0.011   0.820 -0.2402 -0.6932 -0.0671
 3132SOL    HW1 9598   4.780   0.087   0.771  0.1661  1.4519  2.7522
 3132SOL    HW2 9599   4.906   0.020   0.822 -0.1566 -1.5053 -0.0353
 3133SOL     OW 9600   4.597   3.487   0.339  0.3011  0.4758  0.1136
 3133SOL    HW1 9601   4.669   3.547   0.360  0.7739  0.0773 -0.3509
 3133SOL    HW2 9602   4.589   3.432   0.417 -0.2185  1.2069  0.5961
 3134SOL     OW 9603   0.038   2.398   3.892  0.7624  0.3267  0.1718
 3134SOL    HW1 9604   0.076   2.457   3.827  0.3343 -1.0632 -1.4291
 3134SOL    HW2 9605  -0.047   2.436   3.913  0.6539  0.4806 -0.5382
 3135SOL     OW 9606   2.754   1.829   2.605  0.4856  0.7591  0.4183
 3135SOL    HW1 9607   2.778   1.861   2.692  1.4840  0.9743  0.0804
 3135SOL    HW2 9608   2.817   1.760   2.586 -1.3324 -1.1306  0.9189
 3136SOL     OW 9609   3.334   1.727   3.460 -0.0460 -0.2521 -0.3067
 3136SOL    HW1 9610   3.407   1.722   3.521 -0.3554 -1.4770  0.0057
 3136SOL    HW2 9611   3.286   1.806   3.486  1.2793  0.7062 -0.6816
 3137SOL     OW 9612   0.453   1.836   4.386 -0.2518  0.1723  0.1457
 3137SOL    HW1 9613   0.512   1.909   4.404  3.7727 -2.5588 -0.6782
 3137SOL    HW2 9614   0.464   1.819   4.292 -0.5019 -1.9075  0.4530
 3138SOL     OW 9615   1.640   2.212   4.509  0.0283 -0.4268 -0.1187
 3138SOL    HW1 9616   1.589   2.207   4.428  0.4293 -0.5312 -0.3655
 3138SOL    HW2 9617   1.599   2.148   4.567 -1.2901  0.7992  0.3545
 3139SOL     OW 9618   0.735   1.617   0.154  0.5825  0.2414  0.1095
 3139SOL    HW1 9619   0.815   1.601   0.104  0.4517  2.6328 -1.0084
 3139SOL    HW2 9620   0.724   1.539   0.207  3.5259 -0.2858  0.1186
 3140SOL     OW 9621   1.373   0.351   1.651  0.0310 -0.3176 -0.5495
 3140SOL    HW1 9622   1.448   0.373   1.596 -0.6872  0.8723 -1.0847
 3140SOL    HW2 9623   1.350   0.262   1.627 -0.2228  0.1529 -2.1526
 3141SOL     OW 9624   3.770   2.408   1.152 -0.2073  0.0717  0.2445
 3141SOL    HW1 9625   3.791   2.438   1.241  1.7887  0.0888 -0.1876
 3141SOL    HW2 9626   3.779   2.486   1.098  0.3223 -0.2941 -0.2091
 3142SOL     OW 9627   4.204   4.569   4.633  0.4603  0.7722 -0.6307
 3142SOL    HW1 9628   4.131   4.543   4.576 -0.0022  0.2912  0.1655
 3142SOL    HW2 9629   4.268   4.608   4.573  1.0528 -1.8706 -1.8892
 3143SOL     OW 9630   1.111   0.355   2.925 -0.0263 -0.4442  0.2437
 3143SOL    HW1 9631   1.130   0.447   2.907  0.8722 -0.7217 -0.2397
 3143SOL    HW2 9632   1.108   0.350   3.021 -1.1616  0.2935  0.2672
 3144SOL     OW 9633   3.974   4.117   2.736 -0.1800  0.2430  0.2613
 3144SOL    HW1 9634   4.029   4.079   2.805  0.9420 -2.1955 -1.7994
 3144SOL    HW2 9635   4.018   4.198   2.711  0.2264  0.3745  1.3471
 3145SOL     OW 9636   1.995   2.390   3.173  0.4078  0.0542  0.1019
 3145SOL    HW1 9637   1.941   2.316   3.143  0.1258 -0.0124  0.7619
 3145SOL    HW2 9638   2.081   2.372   3.137 -0.2074  0.6349 -1.7516
 3146SOL     OW 9639   4.124   2.043   4.742  0.3485 -0.3589 -0.2825
 3146SOL    HW1 9640   4.142   1.988   4.818 -0.1189 -0.0912  0.0199
 3146SOL    HW2 9641   4.113   1.981   4.670  0.6772 -0.6176 -0.1156
 3147SOL     OW 9642   2.953   1.087   1.451 -0.0229  0.0637  0.4625
 3147SOL    HW1 9643   2.918   1.163   1.498 -2.7476 -1.0862  0.4322
 3147SOL    HW2 9644   2.980   1.026   1.520 -0.8358 -0.2319  0.5255
 3148SOL     OW 9645   1.103   4.426   4.137  0.2257  0.1165  0.3712
 3148SOL    HW1 9646   1.143   4.458   4.218  1.2104 -1.2678  0.4816
 3148SOL    HW2 9647   1.042   4.358   4.166  0.2034 -0.0295 -0.0125
 3149SOL     OW 9648   4.021   3.065   2.104  0.1083  0.1509 -0.3726
 3149SOL    HW1 9649   3.937   3.023   2.085  0.0545 -0.3048  0.8271
 3149SOL    HW2 9650   4.018   3.085   2.197  1.3543  0.0967 -0.3043
 3150SOL     OW 9651   3.746   0.535   3.383  0.0800  0.0225  0.0789
 3150SOL    HW1 9652   3.832   0.508   3.414 -0.2239 -0.0356  0.8709
 3150SOL    HW2 9653   3.687   0.519   3.456 -0.4631  0.8578 -0.1559
 3151SOL     OW 9654   2.535   2.985   1.506  0.3517 -0.5539  0.4541
 3151SOL    HW1 9655   2.601   2.916   1.504  0.8044 -0.1680  1.5136
 3151SOL    HW2 9656   2.582   3.062   1.537 -0.3651  0.0050  0.1828
 3152SOL     OW 9657   1.543   2.618   3.597  0.5599 -0.1684  0.0145
 3152SOL    HW1 9658   1.575   2.625   3.507 -0.2379  0.8803 -0.2070
 3152SOL    HW2 9659   1.488   2.540   3.597 -1.4982  1.1979 -1.0999
 3153SOL     OW 9660   1.903   4.747   1.679 -0.0917 -0.1824  0.1430
 3153SOL    HW1 9661   1.933   4.822   1.628  1.0395  1.1294  2.5583
 3153SOL    HW2 9662   1.957   4.674   1.649  0.7444  0.6141 -0.3297
 3154SOL     OW 9663   4.413   4.295   1.861 -0.1966 -0.0354  0.3365
 3154SOL    HW1 9664   4.453   4.344   1.934 -0.8614  0.0815  0.6282
 3154SOL    HW2 9665   4.337   4.347   1.836  0.0507 -0.0558 -0.4790
 3155SOL     OW 9666   3.423   3.471   2.307  0.0790 -0.7258 -0.1989
 3155SOL    HW1 9667   3.409   3.480   2.213 -0.1913 -0.0778 -0.1077
 3155SOL    HW2 9668   3.511   3.435   2.316  0.4092 -0.0673 -0.6907
 3156SOL     OW 9669   4.267   3.121   3.992  0.1188 -1.0279 -0.3536
 3156SOL    HW1 9670   4.332   3.087   4.053  1.3827 -0.6836 -1.4577
 3156SOL    HW2 9671   4.315   3.183   3.938 -0.7591 -1.8950 -2.2134
 3157SOL     OW 9672   2.169   0.663   2.453 -0.0579  0.8143  0.2235
 3157SOL    HW1 9673   2.236   0.715   2.409  1.1426 -0.6747  0.2232
 3157SOL    HW2 9674   2.096   0.661   2.391  2.0987 -2.4337 -2.6070
 3158SOL     OW 9675   1.331   2.953   1.222  0.0587 -0.0098  0.2797
 3158SOL    HW1 9676   1.296   2.865   1.210 -1.5335  0.7176 -0.8248
 3158SOL    HW2 9677   1.380   2.971   1.142 -0.2456  0.3594  0.1712
 3159SOL     OW 9678   3.133   0.503   4.820 -0.1111  0.0297  0.0962
 3159SOL    HW1 9679   3.108   0.417   4.787  1.2634 -0.9941  1.5672
 3159SOL    HW2 9680   3.141   0.491   4.915  1.5598  1.3656  0.1688
 3160SOL     OW 9681   1.899   1.289   4.469 -0.5022  0.1719 -0.0985
 3160SOL    HW1 9682   1.950   1.308   4.548 -0.5878  0.2779 -0.0673
 3160SOL    HW2 9683   1.829   1.232   4.499 -0.4532  0.0991 -0.1241
 3161SOL     OW 9684   2.149   2.925   1.059 -0.1448 -0.6572  0.2440
 3161SOL    HW1 9685   2.235   2.909   1.020 -0.3694  1.6789 -1.4224
 3161SOL    HW2 9686   2.159   3.007   1.106 -2.0714  1.2437 -2.3935
 3162SOL     OW 9687   3.033   1.461   1.511  0.3842  0.3351 -0.0897
 3162SOL    HW1 9688   2.989   1.397   1.567  0.4256 -0.7294 -1.2266
 3162SOL    HW2 9689   2.963   1.502   1.461  0.5310 -0.3859 -0.9142
 3163SOL     OW 9690   1.280   2.456   1.845  0.4814 -0.2737 -0.2804
 3163SOL    HW1 9691   1.242   2.512   1.778 -1.2845 -0.1696  0.7683
 3163SOL    HW2 9692   1.260   2.367   1.816 -1.1813 -0.2077  0.5742
 3164SOL     OW 9693   3.938   0.936   0.977  0.6282  0.1292 -0.2798
 3164SOL    HW1 9694   3.971   0.859   1.023  0.5567 -1.0863 -2.1475
 3164SOL    HW2 9695   3.861   0.963   1.027  0.7356 -0.9166  0.4794
 3165SOL     OW 9696   2.368   0.190   2.716 -0.3793 -0.2393 -0.3136
 3165SOL    HW1 9697   2.338   0.274   2.681 -0.1969  0.0197  0.1504
 3165SOL    HW2 9698   2.450   0.173   2.671 -1.0677 -0.8283 -1.4030
 3166SOL     OW 9699   3.702   1.710   4.188 -0.4610 -0.1526  0.5803
 3166SOL    HW1 9700   3.653   1.789   4.163 -1.3361 -1.2868 -1.4808
 3166SOL    HW2 9701   3.718   1.665   4.106  2.3056 -0.8784  1.4279
 3167SOL     OW 9702   2.305   3.428   3.596 -0.4277 -0.4113  0.2567
 3167SOL    HW1 9703   2.307   3.464   3.685  0.5997  0.9285 -0.2799
 3167SOL    HW2 9704   2.365   3.483   3.546  0.3304 -2.1954 -0.8888
 3168SOL     OW 9705   3.318   3.381   3.147  0.3621 -0.3448  0.1051
 3168SOL    HW1 9706   3.282   3.470   3.148 -1.1773 -0.9334  1.4550
 3168SOL    HW2 9707   3.362   3.374   3.062 -0.5683  1.2810 -0.5581
 3169SOL     OW 9708   1.231   3.623   0.007  0.5105  0.0904  0.1185
 3169SOL    HW1 9709   1.272   3.583  -0.070  2.2031  1.5340  0.1990
 3169SOL    HW2 9710   1.299   3.621   0.074  0.5255  2.5395  0.2736
 3170SOL     OW 9711   2.711   1.629   4.778  0.3665  0.0148  0.0561
 3170SOL    HW1 9712   2.806   1.622   4.782  0.4359 -0.4949 -1.5367
 3170SOL    HW2 9713   2.682   1.539   4.761 -0.2181  0.4893 -1.6341
 3171SOL     OW 9714   1.266   2.909   4.054  0.0836 -0.0180 -0.1689
 3171SOL    HW1 9715   1.190   2.874   4.006 -0.8885 -1.6191  2.3496
 3171SOL    HW2 9716   1.231   2.934   4.139  2.1656  0.5184  0.5866
 3172SOL     OW 9717   3.105   0.534   0.345  0.4829  0.2319 -0.0184
 3172SOL    HW1 9718   3.118   0.440   0.359 -1.1171  0.0445  0.3745
 3172SOL    HW2 9719   3.190   0.573   0.367  1.0285 -1.0557  0.3007
 3173SOL     OW 9720   3.787   2.686   1.756  0.3657 -0.6208  0.0728
 3173SOL    HW1 9721   3.787   2.762   1.699  0.1359 -1.3414 -0.9213
 3173SOL    HW2 9722   3.787   2.722   1.845  3.4883  0.5498 -0.2876
 3174SOL     OW 9723   2.986   3.424   0.519  0.3828  0.7283  0.2681
 3174SOL    HW1 9724   2.917   3.471   0.565  0.5214  1.1364  0.0704
 3174SOL    HW2 9725   2.981   3.457   0.429  0.3964  0.2662  0.0976
 3175SOL     OW 9726   0.386   3.358   0.499  0.1554  0.2270 -0.6704
 3175SOL    HW1 9727   0.417   3.407   0.574  2.1109 -1.5694 -0.2040
 3175SOL    HW2 9728   0.463   3.345   0.444 -0.4801 -1.3928 -1.2629
 3176SOL     OW 9729   2.629   3.945   1.334  0.2102 -0.1679  0.5892
 3176SOL    HW1 9730   2.618   4.026   1.384  1.0782  0.5146 -0.2721
 3176SOL    HW2 9731   2.710   3.907   1.367  0.8920  0.3880 -0.4033
 3177SOL     OW 9732   0.603   4.367   4.538 -0.3581  0.1689 -0.1918
 3177SOL    HW1 9733   0.604   4.455   4.501 -0.3761 -0.0559 -0.7441
 3177SOL    HW2 9734   0.521   4.363   4.587 -0.0735  0.6544  0.3282
 3178SOL     OW 9735   2.916   4.342   3.941 -0.3745  0.1044  0.1219
 3178SOL    HW1 9736   2.942   4.367   3.852  4.0165 -1.6337  0.6488
 3178SOL    HW2 9737   2.890   4.425   3.982 -0.0906  1.3621 -2.0509
 3179SOL     OW 9738   1.524   0.290   2.089  0.0963 -0.2415 -0.3872
 3179SOL    HW1 9739   1.435   0.256   2.104 -0.8312  2.0551 -0.3689
 3179SOL    HW2 9740   1.562   0.228   2.026 -1.6436 -1.0807 -0.6822
 3180SOL     OW 9741   1.029   2.165   0.433 -0.5723  0.3846 -0.4514
 3180SOL    HW1 9742   1.045   2.244   0.381 -2.1225 -0.1917 -1.8996
 3180SOL    HW2 9743   0.935   2.150   0.425 -0.5412 -0.7977  1.0258
 3181SOL     OW 9744   3.895   1.886   2.658  0.2739 -0.0496 -0.2492
 3181SOL    HW1 9745   3.881   1.836   2.577  0.2968 -0.5591  0.0586
 3181SOL    HW2 9746   3.909   1.976   2.628 -0.3961 -0.1092 -0.7707
 3182SOL     OW 9747   0.739   1.044   2.360 -0.3232 -0.2072  0.1662
 3182SOL    HW1 9748   0.729   1.129   2.316 -1.9667 -0.1453  0.6076
 3182SOL    HW2 9749   0.665   0.992   2.329 -0.6834 -0.6586  1.7105
 3183SOL     OW 9750   1.938   1.453   0.729  0.3645  0.3224 -0.1745
 3183SOL    HW1 9751   1.955   1.361   0.752 -0.3203 -0.3166 -2.0273
 3183SOL    HW2 9752   1.915   1.494   0.812 -1.4524 -1.7165  0.4356
 3184SOL     OW 9753   2.586   2.110   2.003  0.1351  0.2499 -0.2012
 3184SOL    HW1 9754   2.550   2.093   1.916 -0.8115  2.6007 -0.3445
 3184SOL    HW2 9755   2.603   2.204   2.004 -0.3382  0.3834  2.3015
 3185SOL     OW 9756   4.452   4.753   0.751  0.3477  0.0295  0.2024
 3185SOL    HW1 9757   4.366   4.784   0.780  0.6008  1.7571 -0.8042
 3185SOL    HW2 9758   4.490   4.712   0.829 -0.5626  1.0828  1.2323
 3186SOL     OW 9759   0.490   4.087   1.004  0.2191 -0.7245  0.3223
 3186SOL    HW1 9760   0.453   4.004   0.971 -2.1220 -0.4260  1.9178
 3186SOL    HW2 9761   0.506   4.139   0.925  0.3377 -2.1341 -0.6321
 3187SOL     OW 9762   1.060   3.155   0.017  0.4960  0.2603 -0.7389
 3187SOL    HW1 9763   1.077   3.215   0.090  2.8222 -0.3634 -0.6680
 3187SOL    HW2 9764   1.114   3.189  -0.055  1.0041 -1.0865 -1.0313
 3188SOL     OW 9765   3.683   1.427   0.095  0.1088 -0.2207  0.0286
 3188SOL    HW1 9766   3.588   1.429   0.112  0.2543  0.6682  0.8341
 3188SOL    HW2 9767   3.703   1.335   0.084 -0.4532 -0.6787  2.3328
 3189SOL     OW 9768   1.196   2.612   3.140  0.3160 -0.0958  0.1845
 3189SOL    HW1 9769   1.101   2.623   3.136  0.3707  0.3398 -0.0028
 3189SOL    HW2 9770   1.226   2.623   3.050  0.7303  1.6940  0.4911
 3190SOL     OW 9771   4.778   0.916   3.640 -0.1991  0.1082 -0.5531
 3190SOL    HW1 9772   4.838   0.878   3.576  0.3932 -0.0622  0.0831
 3190SOL    HW2 9773   4.693   0.913   3.598  0.2900  0.7187 -1.6300
 3191SOL     OW 9774   4.216   4.778   2.701  0.0060  0.2325 -0.1033
 3191SOL    HW1 9775   4.130   4.765   2.660 -0.1730  0.5197  0.1829
 3191SOL    HW2 9776   4.201   4.844   2.768 -0.3617 -2.3093  2.4906
 3192SOL     OW 9777   1.590   0.749   0.599 -0.2080 -0.1573  0.1206
 3192SOL    HW1 9778   1.624   0.706   0.677 -0.5010 -0.4571  0.0871
 3192SOL    HW2 9779   1.510   0.700   0.578 -1.3377  1.2722  0.8935
 3193SOL     OW 9780   2.480   0.814   1.242  0.1160  0.1144 -0.1164
 3193SOL    HW1 9781   2.507   0.858   1.162 -1.6025 -0.2322 -0.9310
 3193SOL    HW2 9782   2.419   0.876   1.284 -1.0654 -0.7713 -0.4646
 3194SOL     OW 9783   2.792   4.701   4.219  0.2373 -0.1236 -0.2843
 3194SOL    HW1 9784   2.867   4.746   4.257 -0.5863 -0.2200  1.5480
 3194SOL    HW2 9785   2.775   4.628   4.278 -2.3834  0.9124  0.3785
 3195SOL     OW 9786   1.944   2.102   1.181 -0.3113 -0.2999 -0.0825
 3195SOL    HW1 9787   2.003   2.178   1.188 -0.1038 -0.5623  1.1498
 3195SOL    HW2 9788   1.868   2.125   1.234 -0.7986 -0.4727 -0.6831
 3196SOL     OW 9789   0.465   4.198   4.718 -0.0748 -0.6787  0.3170
 3196SOL    HW1 9790   0.450   4.211   4.812  0.9561  1.9895  0.1727
 3196SOL    HW2 9791   0.393   4.245   4.676  0.4186 -0.4214 -0.2446
 3197SOL     OW 9792   4.652   4.610   4.059  0.5087 -0.0393  0.5671
 3197SOL    HW1 9793   4.676   4.532   4.109  0.8507  1.3085  2.6206
 3197SOL    HW2 9794   4.568   4.637   4.096 -0.0474  0.0940 -0.7388
 3198SOL     OW 9795   0.614   2.661   4.522 -0.0318  0.4538 -0.0988
 3198SOL    HW1 9796   0.616   2.746   4.566 -0.9691  0.4654 -0.0468
 3198SOL    HW2 9797   0.706   2.636   4.512  0.2277  1.0999  0.6032
 3199SOL     OW 9798   0.919   3.735   1.237 -0.6038  0.4286  0.0544
 3199SOL    HW1 9799   0.851   3.688   1.189 -1.2247  0.3537  0.9798
 3199SOL    HW2 9800   0.870   3.791   1.298  0.1564  0.9859  0.1614
 3200SOL     OW 9801   2.627   3.447   4.241  0.3552 -0.0334  0.5623
 3200SOL    HW1 9802   2.608   3.529   4.286  0.0394  0.4374 -0.3855
 3200SOL    HW2 9803   2.594   3.379   4.299  0.4016  0.5223  1.2524
 3201SOL     OW 9804   2.306   4.047   3.245  1.3205  0.5070 -0.4342
 3201SOL    HW1 9805   2.281   4.101   3.319  0.1916 -0.2440 -0.2415
 3201SOL    HW2 9806   2.306   4.107   3.170  1.6285  1.0859  0.0224
 3202SOL     OW 9807   1.890   3.927   1.007 -0.3420 -0.0760  0.2838
 3202SOL    HW1 9808   1.983   3.907   1.016 -0.2324  0.3821  0.2353
 3202SOL    HW2 9809   1.853   3.911   1.093 -0.2334 -0.3325  0.2844
 3203SOL     OW 9810   3.279   3.329   1.908 -0.0051 -0.1629  0.4725
 3203SOL    HW1 9811   3.240   3.283   1.982  0.0693 -2.8953 -1.0558
 3203SOL    HW2 9812   3.207   3.384   1.874 -1.5366 -2.4454 -0.1852
 3204SOL     OW 9813   1.629   0.188   3.903 -0.0148  0.9173 -0.3876
 3204SOL    HW1 9814   1.576   0.247   3.955 -1.1401 -0.6579  0.3253
 3204SOL    HW2 9815   1.600   0.201   3.813 -1.6815  0.0705 -0.0051
 3205SOL     OW 9816   2.570   0.680   3.054 -0.3374 -0.6639 -0.6202
 3205SOL    HW1 9817   2.619   0.748   3.006 -1.2392 -0.3064 -1.0568
 3205SOL    HW2 9818   2.544   0.617   2.987 -1.1840 -0.4202 -0.5275
 3206SOL     OW 9819   4.699   2.805   0.660  0.1405 -0.0073  0.0348
 3206SOL    HW1 9820   4.736   2.790   0.747 -0.0028 -0.2086  0.0614
 3206SOL    HW2 9821   4.763   2.862   0.616  0.2418  0.0453  0.2488
 3207SOL     OW 9822   3.995   4.008   3.710  0.3851  0.2582  0.2611
 3207SOL    HW1 9823   3.934   4.082   3.707 -1.5927 -1.2480  1.1497
 3207SOL    HW2 9824   4.030   4.003   3.621  2.0663  3.3305  0.5808
 3208SOL     OW 9825   1.720   0.286   3.570  0.4245  0.3780  0.1695
 3208SOL    HW1 9826   1.761   0.356   3.622 -0.5297  0.5653  0.6845
 3208SOL    HW2 9827   1.715   0.322   3.481  1.2912  0.3793  0.1107
 3209SOL     OW 9828   2.860   2.885   0.334 -0.8599  0.6195 -0.3775
 3209SOL    HW1 9829   2.836   2.971   0.368  0.8729  0.1465  2.3299
 3209SOL    HW2 9830   2.945   2.898   0.294  0.2984 -0.0994  1.7139
 3210SOL     OW 9831   4.371   0.612   3.933 -0.1493 -0.3398 -0.0674
 3210SOL    HW1 9832   4.333   0.531   3.900 -2.1184 -0.0523  1.3031
 3210SOL    HW2 9833   4.417   0.586   4.013 -2.0276  0.0258  1.1974
 3211SOL     OW 9834   0.996   3.219   2.157  0.5019  0.1859 -0.2844
 3211SOL    HW1 9835   0.996   3.165   2.237 -0.9116 -1.7054 -1.4899
 3211SOL    HW2 9836   0.935   3.289   2.176 -1.8290 -1.6594 -0.5074
 3212SOL     OW 9837   4.603   3.680   1.818  0.1427 -0.3584 -0.2997
 3212SOL    HW1 9838   4.528   3.736   1.800  0.6841 -0.0049 -1.5473
 3212SOL    HW2 9839   4.597   3.610   1.754  0.8564 -0.3517 -0.3809
 3213SOL     OW 9840   2.731   2.168   3.180  0.3335 -0.0799  0.1036
 3213SOL    HW1 9841   2.731   2.163   3.276  1.1648  0.5900  0.1519
 3213SOL    HW2 9842   2.820   2.195   3.157  1.0157 -2.9275 -1.0259
 3214SOL     OW 9843   1.892   0.277   3.935  0.4767 -0.2224 -0.2054
 3214SOL    HW1 9844   1.900   0.327   3.854  1.4337 -1.2271 -0.7640
 3214SOL    HW2 9845   1.813   0.225   3.924  0.8313 -0.6701 -0.6888
 3215SOL     OW 9846   1.806   3.771   3.171  0.2968  0.8371  0.4875
 3215SOL    HW1 9847   1.863   3.845   3.194  0.2235  0.8297  0.6942
 3215SOL    HW2 9848   1.726   3.787   3.221  0.7938 -0.1245  1.6363
 3216SOL     OW 9849   0.206   0.806   0.076  0.2828  0.2265  0.3872
 3216SOL    HW1 9850   0.235   0.748   0.006  1.2133  1.8650 -0.6350
 3216SOL    HW2 9851   0.131   0.760   0.115  0.6559 -1.4009 -0.6896
 3217SOL     OW 9852   0.826   4.816   0.146 -0.6336 -0.4272 -0.6342
 3217SOL    HW1 9853   0.914   4.841   0.176 -0.6246 -2.5896  1.4546
 3217SOL    HW2 9854   0.784   4.899   0.123  0.8683  1.0116  1.4508
 3218SOL     OW 9855   1.524   0.501   4.343  0.3798  0.0916 -0.1697
 3218SOL    HW1 9856   1.507   0.494   4.437  1.6530  2.3227  0.3059
 3218SOL    HW2 9857   1.449   0.551   4.308  0.9320  1.1385  0.0918
 3219SOL     OW 9858   2.207   3.010   3.801 -0.1306  0.4311 -0.4117
 3219SOL    HW1 9859   2.246   3.034   3.885 -0.5716 -3.3433  1.0976
 3219SOL    HW2 9860   2.282   2.999   3.742  0.1832  3.1128 -0.6322
 3220SOL     OW 9861   2.322   3.883   3.455 -0.1248  0.4343 -0.0106
 3220SOL    HW1 9862   2.380   3.807   3.445 -1.0334 -0.3135  0.2649
 3220SOL    HW2 9863   2.333   3.932   3.373  1.0623  0.4443  0.1297
 3221SOL     OW 9864   1.822   0.021   3.619  0.1069 -0.4500 -0.6884
 3221SOL    HW1 9865   1.816   0.107   3.577 -0.1976  0.2338  0.6952
 3221SOL    HW2 9866   1.731  -0.010   3.623  0.1342 -0.5165 -0.5745
 3222SOL     OW 9867   2.260   1.680   1.552  0.0258 -0.2996  0.1683
 3222SOL    HW1 9868   2.190   1.705   1.613 -3.1016 -0.3674 -3.0669
 3222SOL    HW2 9869   2.299   1.763   1.525  0.5489 -0.1894  1.1934
 3223SOL     OW 9870   2.355   0.795   2.259 -0.1762 -0.3462  0.1639
 3223SOL    HW1 9871   2.444   0.768   2.239  0.0993  0.8139 -0.2443
 3223SOL    HW2 9872   2.355   0.890   2.248 -2.1632 -0.5449 -2.8177
 3224SOL     OW 9873   4.340   0.076   2.279  0.0233  0.3318  0.5606
 3224SOL    HW1 9874   4.263   0.069   2.336 -0.4797  0.2071 -0.1293
 3224SOL    HW2 9875   4.389   0.150   2.316  0.2282 -0.3754  1.7599
 3225SOL     OW 9876   4.629   2.745   2.508 -0.3532 -0.3495  0.1958
 3225SOL    HW1 9877   4.572   2.746   2.585 -0.9229 -3.3131 -0.0852
 3225SOL    HW2 9878   4.704   2.692   2.534  0.8839  1.0260 -0.4162
 3226SOL     OW 9879   1.266   2.910   3.637 -0.0247 -0.2350  0.7759
 3226SOL    HW1 9880   1.281   3.004   3.648  1.5179 -0.5104  1.1449
 3226SOL    HW2 9881   1.348   2.869   3.663 -1.3211 -1.8406  2.5766
 3227SOL     OW 9882   4.171   1.920   0.166 -0.4095 -0.3941  0.4191
 3227SOL    HW1 9883   4.202   1.830   0.170  0.0776 -0.2848 -0.5935
 3227SOL    HW2 9884   4.111   1.928   0.240 -0.0581 -1.3920  0.8265
 3228SOL     OW 9885   3.716   4.098   4.009  0.2318 -0.2905  0.4570
 3228SOL    HW1 9886   3.713   4.007   3.980 -1.4784 -0.3979  0.8242
 3228SOL    HW2 9887   3.626   4.129   3.996  0.6783  1.1929  0.7983
 3229SOL     OW 9888   0.240   3.077   2.014 -0.2333 -0.4779 -0.2172
 3229SOL    HW1 9889   0.325   3.109   2.043 -0.3910  1.4051 -1.6309
 3229SOL    HW2 9890   0.188   3.071   2.095  2.0426 -4.8419  1.2072
 3230SOL     OW 9891   4.163   3.304   4.552  0.2052  0.3422  0.2893
 3230SOL    HW1 9892   4.149   3.398   4.558  0.0124  0.3515 -0.2696
 3230SOL    HW2 9893   4.119   3.269   4.630 -0.8894  0.5938 -0.1878
 3231SOL     OW 9894   4.428   4.427   1.504  0.1378  0.3952 -0.1163
 3231SOL    HW1 9895   4.352   4.407   1.559  0.2820 -0.6082 -0.2758
 3231SOL    HW2 9896   4.446   4.346   1.457 -0.3756  1.3947 -2.1460
 3232SOL     OW 9897   4.311   2.980   4.701 -0.3990  0.0677 -0.2159
 3232SOL    HW1 9898   4.302   3.075   4.703  1.1395  0.2756 -1.4073
 3232SOL    HW2 9899   4.368   2.963   4.626 -1.3679 -1.8611 -0.5922
 3233SOL     OW 9900   3.491   0.020   2.039  0.6491  0.4759  0.3811
 3233SOL    HW1 9901   3.459   0.033   1.950 -1.5546  1.0566  1.1942
 3233SOL    HW2 9902   3.554   0.090   2.052 -1.3540  2.4005  0.2778
 3234SOL     OW 9903   1.440   3.835   2.973 -0.3644 -0.3998  0.4936
 3234SOL    HW1 9904   1.476   3.911   3.019 -2.4034  0.6084  0.5215
 3234SOL    HW2 9905   1.372   3.872   2.916 -0.8229 -2.1244 -0.1182
 3235SOL     OW 9906   0.153   0.397   2.193  0.0364  0.2868  0.3612
 3235SOL    HW1 9907   0.104   0.452   2.132 -2.7634 -1.1181  1.2124
 3235SOL    HW2 9908   0.204   0.338   2.137  0.1309  1.1967 -0.5497
 3236SOL     OW 9909   0.533   0.677   1.437 -0.1943  0.5768  0.5381
 3236SOL    HW1 9910   0.447   0.662   1.476 -0.0281 -0.3413  0.5828
 3236SOL    HW2 9911   0.535   0.619   1.360 -0.2943  1.9279 -0.5105
 3237SOL     OW 9912   3.951   0.563   3.681  0.4228  0.4781  0.0635
 3237SOL    HW1 9913   4.004   0.504   3.627  0.2150 -0.3213  0.7218
 3237SOL    HW2 9914   3.997   0.647   3.676  0.3238  0.4764 -1.4814
 3238SOL     OW 9915   2.884   1.266   3.918 -0.2713  0.1507  0.5222
 3238SOL    HW1 9916   2.976   1.263   3.894 -0.4514  1.7209 -0.4715
 3238SOL    HW2 9917   2.881   1.327   3.992 -0.6983  1.3965 -0.4988
 3239SOL     OW 9918   1.064   0.497   0.934 -0.0913  0.2216  0.1909
 3239SOL    HW1 9919   1.012   0.441   0.992 -0.5495  0.8311  0.3825
 3239SOL    HW2 9920   1.000   0.556   0.895  0.3241  0.3188 -0.3541
 3240SOL     OW 9921   3.334   3.331   4.483 -0.2278 -0.5383 -0.0046
 3240SOL    HW1 9922   3.382   3.375   4.554 -0.1683  0.2787 -0.5295
 3240SOL    HW2 9923   3.315   3.244   4.517 -0.2414 -0.1460  1.0333
 3241SOL     OW 9924   3.162   2.804   1.150  0.1280  0.2219 -0.0422
 3241SOL    HW1 9925   3.197   2.745   1.082  1.2795  1.4919 -0.6142
 3241SOL    HW2 9926   3.237   2.860   1.173 -1.4291  2.9055 -1.1052
 3242SOL     OW 9927   1.772   4.526   3.337 -0.1902 -0.2450  0.2175
 3242SOL    HW1 9928   1.856   4.510   3.293 -0.5839  0.3355 -0.7762
 3242SOL    HW2 9929   1.790   4.511   3.430  1.3818  1.2622  0.2069
 3243SOL     OW 9930   3.999   0.175   2.026  0.2140  0.1204 -0.4806
 3243SOL    HW1 9931   4.024   0.085   2.048  0.9789  0.5733  0.5418
 3243SOL    HW2 9932   4.067   0.230   2.065  0.0223  1.1299 -1.5085
 3244SOL     OW 9933   1.532   3.852   4.727 -0.3518  0.3523 -0.4578
 3244SOL    HW1 9934   1.483   3.845   4.809 -2.7090 -1.7992 -1.9166
 3244SOL    HW2 9935   1.528   3.945   4.705 -0.1804  0.8819  1.5034
 3245SOL     OW 9936   3.617   2.851   0.754  0.2611  0.7199 -0.1147
 3245SOL    HW1 9937   3.549   2.861   0.688  0.7975 -1.5807 -1.1169
 3245SOL    HW2 9938   3.689   2.809   0.708  0.5340 -1.3231  1.9794
 3246SOL     OW 9939   2.835   0.459   2.275 -0.2312 -0.2321  0.1626
 3246SOL    HW1 9940   2.892   0.383   2.263 -0.3313 -0.1992 -0.5582
 3246SOL    HW2 9941   2.843   0.508   2.193 -1.2476 -0.1889  0.0847
 3247SOL     OW 9942   2.837   0.460   0.515 -0.5258 -0.1340  0.0282
 3247SOL    HW1 9943   2.886   0.421   0.587 -0.5882  0.3003  0.3117
 3247SOL    HW2 9944   2.905   0.497   0.458 -0.3552 -2.1745 -1.1758
 3248SOL     OW 9945   1.092   1.983   3.844 -0.4220  0.2648 -0.2779
 3248SOL    HW1 9946   1.104   1.904   3.897  1.3880  1.4336  1.1719
 3248SOL    HW2 9947   0.997   1.995   3.840 -0.7274 -1.8498 -0.3794
 3249SOL     OW 9948   3.272   1.459   1.382 -0.0800  0.4089 -0.0501
 3249SOL    HW1 9949   3.181   1.441   1.407  0.3778  0.0895  1.4825
 3249SOL    HW2 9950   3.324   1.405   1.441  1.1827  2.1677  0.5136
 3250SOL     OW 9951   2.387   4.349   3.662  0.0552 -0.2808 -0.6181
 3250SOL    HW1 9952   2.453   4.348   3.592 -0.9119 -1.5197 -1.5621
 3250SOL    HW2 9953   2.418   4.283   3.725 -0.6554 -1.4477 -1.4578
 3251SOL     OW 9954   1.271   4.415   1.925  0.1489 -0.1570 -0.1805
 3251SOL    HW1 9955   1.236   4.360   1.995  1.3201 -0.2195  0.3667
 3251SOL    HW2 9956   1.316   4.354   1.866  0.3359  0.0583 -0.2631
 3252SOL     OW 9957   1.118   0.551   3.641  0.2016  0.0755  0.2218
 3252SOL    HW1 9958   1.034   0.594   3.626 -0.0780 -0.4378  0.2804
 3252SOL    HW2 9959   1.178   0.593   3.580 -0.0793  0.5030  0.2350
 3253SOL     OW 9960   3.353   2.406   1.521 -0.6887 -0.9325  0.1886
 3253SOL    HW1 9961   3.421   2.460   1.561  0.7275 -0.1577 -2.9444
 3253SOL    HW2 9962   3.274   2.460   1.524 -0.1663 -0.1619  0.3212
 3254SOL     OW 9963   3.252   4.063   0.503  0.4372 -0.1671 -0.4324
 3254SOL    HW1 9964   3.326   4.002   0.510  0.7354  0.1766 -0.5728
 3254SOL    HW2 9965   3.292   4.147   0.481 -0.1937 -0.6200 -3.9682
 3255SOL     OW 9966   3.959   4.187   2.016 -0.3487  0.1179  0.4439
 3255SOL    HW1 9967   3.891   4.203   1.951  0.0419  0.8390  0.1994
 3255SOL    HW2 9968   3.919   4.211   2.099 -0.4730  0.3219  0.3261
 3256SOL     OW 9969   1.165   4.160   3.412  0.2824 -0.0026  0.2014
 3256SOL    HW1 9970   1.213   4.108   3.347 -0.0340 -0.6944  0.5166
 3256SOL    HW2 9971   1.201   4.248   3.403 -0.5973  0.1933 -1.7600
 3257SOL     OW 9972   2.039   2.085   3.866  0.2649 -0.2965  0.1221
 3257SOL    HW1 9973   2.078   2.055   3.783 -0.1912 -0.6081  0.0146
 3257SOL    HW2 9974   1.994   2.007   3.901  0.5050 -0.1806  0.6924
 3258SOL     OW 9975   4.479   1.787   4.197  0.1980 -0.4915  0.1933
 3258SOL    HW1 9976   4.475   1.711   4.255  0.1385 -1.3335 -0.8795
 3258SOL    HW2 9977   4.408   1.844   4.226  0.0803 -0.9611  0.8422
 3259SOL     OW 9978   4.119   1.447   1.158  0.4398  0.0646 -0.4440
 3259SOL    HW1 9979   4.180   1.516   1.184 -1.6684  1.5737  0.8779
 3259SOL    HW2 9980   4.065   1.432   1.236 -1.4091 -0.5706 -1.7640
 3260SOL     OW 9981   1.786   3.258   4.312 -0.4089 -0.3080 -0.3042
 3260SOL    HW1 9982   1.729   3.236   4.386 -0.6968 -1.3762 -0.8091
 3260SOL    HW2 9983   1.725   3.271   4.239 -0.1860  1.5507 -0.1918
 3261SOL     OW 9984   0.879   3.908   3.797 -0.0825  0.2560 -0.3258
 3261SOL    HW1 9985   0.808   3.884   3.856  1.4654 -2.1043  0.7367
 3261SOL    HW2 9986   0.843   3.978   3.743 -3.1293 -0.7077  0.2759
 3262SOL     OW 9987   2.846   3.444   1.518 -0.0645  0.5280  0.2632
 3262SOL    HW1 9988   2.783   3.451   1.589 -0.0014  0.4172  0.3296
 3262SOL    HW2 9989   2.811   3.501   1.449  0.4511  1.5192  0.7980
 3263SOL     OW 9990   0.990   1.622   1.804  0.0491  0.3542  0.3310
 3263SOL    HW1 9991   1.048   1.567   1.858  1.2882  0.6000 -0.6945
 3263SOL    HW2 9992   1.023   1.711   1.817  0.6419  0.3675 -1.1329
 3264SOL     OW 9993   1.543   4.704   4.748  0.5071 -0.1143 -0.0513
 3264SOL    HW1 9994   1.563   4.652   4.670  1.6956  1.1126 -0.6112
 3264SOL    HW2 9995   1.588   4.659   4.819  1.7347  0.2462 -0.5703
 3265SOL     OW 9996   0.574   1.832   3.292 -0.1638 -0.3272  0.5360
 3265SOL    HW1 9997   0.592   1.923   3.316 -2.7956 -0.0012  1.6081
 3265SOL    HW2 9998   0.651   1.805   3.242  1.6263  1.8192  1.9087
 3266SOL     OW 9999   0.874   1.339   0.454 -0.4275 -0.3955  0.1376
 3266SOL    HW110000   0.792   1.317   0.498 -1.2401  1.0587 -0.5786
 3266SOL    HW210001   0.859   1.316   0.362 -0.5404  1.1113 -0.2405
 3267SOL     OW10002   2.555   3.789   1.916 -0.4341  0.3600 -0.0487
 3267SOL    HW110003   2.483   3.753   1.864  0.3942  0.3336 -1.2090
 3267SOL    HW210004   2.567   3.726   1.987 -0.8201 -0.2081 -0.4802
 3268SOL     OW10005   1.501   4.276   2.759  0.0371  0.4677  0.0843
 3268SOL    HW110006   1.512   4.304   2.850  0.3595 -0.5581  0.3863
 3268SOL    HW210007   1.504   4.356   2.708  0.1105  1.0375  0.9609
 3269SOL     OW10008   2.446   4.821   3.218  0.1154  0.6095 -0.1573
 3269SOL    HW110009   2.372   4.842   3.160 -1.4000 -0.1331  1.4248
 3269SOL    HW210010   2.432   4.729   3.241  2.1221  0.1618 -0.5918
 3270SOL     OW10011   3.861   4.708   2.006 -0.3066 -0.0661 -0.1290
 3270SOL    HW110012   3.825   4.620   2.008  1.0533 -0.6567  1.7518
 3270SOL    HW210013   3.787   4.764   1.983 -1.7409 -1.4932  0.7834
 3271SOL     OW10014   1.121   4.322   2.924 -0.4274  0.8224 -0.0255
 3271SOL    HW110015   1.082   4.360   2.846 -0.5677  1.6190  0.4237
 3271SOL    HW210016   1.148   4.397   2.977  1.0460  0.3051  0.0132
 3272SOL     OW10017   4.352   1.826   0.703 -0.5090  0.1366  0.2651
 3272SOL    HW110018   4.357   1.732   0.687  2.5800  0.0609  1.0455
 3272SOL    HW210019   4.380   1.866   0.620  1.0280  0.2145  0.7874
 3273SOL     OW10020   4.560   0.689   0.303  0.1138 -0.7751 -0.0340
 3273SOL    HW110021   4.497   0.636   0.254 -2.2714  1.5664  0.2679
 3273SOL    HW210022   4.552   0.659   0.393 -0.1411 -0.8873 -0.0925
 3274SOL     OW10023   4.656   0.444   2.211  0.1794 -0.1010 -0.4537
 3274SOL    HW110024   4.691   0.360   2.242 -0.3309 -0.1306  0.0494
 3274SOL    HW210025   4.616   0.484   2.288  0.2374  0.5173 -0.7365
 3275SOL     OW10026   0.261   2.850   2.339 -0.1707  0.2833 -0.1283
 3275SOL    HW110027   0.197   2.918   2.321  0.7008  1.2578  0.3325
 3275SOL    HW210028   0.334   2.896   2.381  1.0949 -0.6762 -1.1580
 3276SOL     OW10029   3.488   4.656   3.410  0.4510  0.1465  0.0997
 3276SOL    HW110030   3.555   4.637   3.475 -0.0132  0.6826  0.7457
 3276SOL    HW210031   3.453   4.741   3.436  0.1361  0.2824 -0.7501
 3277SOL     OW10032   3.648   1.150   3.147  0.1120  0.3776 -0.0331
 3277SOL    HW110033   3.625   1.096   3.222 -3.0883  0.7003 -0.6374
 3277SOL    HW210034   3.728   1.111   3.113 -0.6871 -2.4400  1.0252
 3278SOL     OW10035   1.505   3.955   0.968  0.9785  0.0371  0.2291
 3278SOL    HW110036   1.578   3.992   1.019 -0.2454  0.8611  1.4694
 3278SOL    HW210037   1.467   3.889   1.026  0.3237  0.1019 -0.1178
 3279SOL     OW10038   0.813   2.769   4.190  0.4106  0.1549 -0.3665
 3279SOL    HW110039   0.814   2.843   4.130 -2.0221  0.3144 -0.2984
 3279SOL    HW210040   0.749   2.708   4.153  0.7405 -0.9113  0.7293
 3280SOL     OW10041   1.230   4.167   2.656  0.4706  0.0220  0.5148
 3280SOL    HW110042   1.303   4.196   2.711  1.7122  1.6528 -1.8314
 3280SOL    HW210043   1.165   4.237   2.662 -0.7688 -1.1681  2.1494
 3281SOL     OW10044   4.538   0.606   4.150  0.1229  0.0660  0.5492
 3281SOL    HW110045   4.630   0.583   4.163 -0.0386 -0.3375  0.9799
 3281SOL    HW210046   4.505   0.624   4.238 -0.3047 -0.1462  0.4324
 3282SOL     OW10047   1.196   0.076   2.018 -0.2206  0.2032 -0.4141
 3282SOL    HW110048   1.114   0.089   2.066  0.3846  0.6715  0.5239
 3282SOL    HW210049   1.196  -0.016   1.994 -1.3768  0.3679 -1.1091
 3283SOL     OW10050   3.177   0.581   1.477  0.1156  0.0561  0.1336
 3283SOL    HW110051   3.183   0.518   1.549 -0.5670 -0.3595 -0.1557
 3283SOL    HW210052   3.268   0.605   1.458  0.3955 -0.8879  0.2175
 3284SOL     OW10053   2.908   0.147   3.151 -0.4420 -0.4397 -0.2309
 3284SOL    HW110054   2.851   0.070   3.147 -0.4896 -0.4977  1.2621
 3284SOL    HW210055   2.850   0.220   3.131 -0.9021 -0.5700  0.6045
 3285SOL     OW10056   4.548   3.257   2.360  0.0662 -0.1619 -0.3276
 3285SOL    HW110057   4.634   3.271   2.399 -0.2426  0.1389  0.2700
 3285SOL    HW210058   4.527   3.166   2.380  0.3176 -0.2837 -0.6209
 3286SOL     OW10059   3.336   2.768   1.444  0.1400  0.0779  0.3766
 3286SOL    HW110060   3.317   2.838   1.506  0.6496  1.4682 -0.9895
 3286SOL    HW210061   3.259   2.710   1.449 -0.6908  1.1913  0.9047
 3287SOL     OW10062   2.477   2.952   2.697  0.1638 -0.4066 -0.2738
 3287SOL    HW110063   2.497   3.020   2.762  0.6665 -0.9911  0.1953
 3287SOL    HW210064   2.557   2.899   2.692  0.0235 -0.5508 -1.1532
 3288SOL     OW10065   4.772   2.539   1.171 -0.2394  0.5985 -0.3279
 3288SOL    HW110066   4.716   2.609   1.137 -1.1446 -0.3678 -0.8813
 3288SOL    HW210067   4.807   2.575   1.253 -1.8958  1.1565  0.1891
 3289SOL     OW10068   3.761   4.326   1.859 -0.1664  0.0930 -0.3612
 3289SOL    HW110069   3.690   4.276   1.900  0.0554  0.0401 -0.0276
 3289SOL    HW210070   3.756   4.412   1.900 -0.9859  0.5766 -1.4449
 3290SOL     OW10071   3.834   1.008   0.316 -0.2056 -0.3565 -0.2907
 3290SOL    HW110072   3.855   0.946   0.247 -1.2344 -1.9342  0.7411
 3290SOL    HW210073   3.917   1.051   0.336  0.5460 -1.4158 -1.0473
 3291SOL     OW10074   3.883   1.421   4.055  0.0407 -0.0508  0.1851
 3291SOL    HW110075   3.969   1.380   4.045  0.9592  1.8126 -0.0498
 3291SOL    HW210076   3.842   1.410   3.969  0.8821  0.7947 -0.3453
 3292SOL     OW10077   0.694   1.660   2.015 -0.0849 -0.8452 -0.8227
 3292SOL    HW110078   0.780   1.618   2.012 -1.0842 -3.0162 -0.6834
 3292SOL    HW210079   0.691   1.701   2.102  0.7150 -0.9596 -0.7326
 3293SOL     OW10080   0.431   0.692   2.624 -0.0343  0.6966 -0.2775
 3293SOL    HW110081   0.413   0.662   2.535 -0.6709 -1.0827  0.3951
 3293SOL    HW210082   0.526   0.695   2.630  0.0280  2.6438 -1.5476
 3294SOL     OW10083   1.152   0.519   4.460  0.3045 -0.0136 -0.8595
 3294SOL    HW110084   1.192   0.568   4.389  0.8881  0.5651 -0.1527
 3294SOL    HW210085   1.218   0.517   4.529  0.3138 -1.8643 -0.8699
 3295SOL     OW10086   0.475   0.006   4.182 -1.0788 -0.3215 -0.1742
 3295SOL    HW110087   0.432   0.053   4.254 -1.2119 -0.5346 -0.1143
 3295SOL    HW210088   0.421  -0.072   4.169 -0.0267 -1.2468  0.7426
 3296SOL     OW10089   4.069   0.426   1.002 -0.1551 -0.2174  0.2109
 3296SOL    HW110090   4.039   0.446   0.913 -1.9389  0.6271  0.9702
 3296SOL    HW210091   4.148   0.374   0.988 -0.9259 -0.9543 -1.8754
 3297SOL     OW10092   0.582   1.340   0.979  0.2596  0.7751  0.0868
 3297SOL    HW110093   0.638   1.321   0.904 -1.1649 -0.3228 -0.7579
 3297SOL    HW210094   0.534   1.259   0.995 -0.9160  1.5852  0.9128
 3298SOL     OW10095   3.497   1.756   2.654 -0.0403 -0.8260  0.4754
 3298SOL    HW110096   3.402   1.742   2.655 -0.1763  0.0576  1.0358
 3298SOL    HW210097   3.528   1.705   2.579 -1.0585 -0.5228 -0.1674
 3299SOL     OW10098   0.925   0.262   1.010  0.1743 -0.0126  0.3401
 3299SOL    HW110099   0.843   0.223   0.978  1.7328 -2.4096 -1.0487
 3299SOL    HW210100   0.932   0.231   1.100 -1.2004  1.5970  1.0477
 3300SOL     OW10101   4.208   2.572   3.618  0.1414  0.1407  0.0300
 3300SOL    HW110102   4.302   2.561   3.634 -0.1020 -0.1557  1.3757
 3300SOL    HW210103   4.193   2.666   3.628  0.6612  0.5724 -2.5184
 3301SOL     OW10104   1.404   1.678   0.986  0.2496  0.1541  0.2504
 3301SOL    HW110105   1.418   1.734   1.062  1.2162  0.8929 -0.4329
 3301SOL    HW210106   1.322   1.632   1.004  1.9972 -2.1740  3.2417
 3302SOL     OW10107   2.193   3.816   3.132  0.0124 -0.2299 -0.6243
 3302SOL    HW110108   2.232   3.895   3.169 -2.4891 -0.0965  2.1869
 3302SOL    HW210109   2.151   3.845   3.051 -0.7918  1.3443  0.3139
 3303SOL     OW10110   1.749   0.979   2.979 -0.7533 -0.3856  0.5729
 3303SOL    HW110111   1.671   0.968   2.925 -0.7605 -0.3924  0.5848
 3303SOL    HW210112   1.813   0.917   2.943 -0.2958  0.5578 -0.2903
 3304SOL     OW10113   4.656   4.194   2.260 -0.0056  0.2910 -0.3593
 3304SOL    HW110114   4.679   4.256   2.329 -0.8276 -0.0463  0.2388
 3304SOL    HW210115   4.681   4.237   2.179 -0.7253  1.4922  0.0332
 3305SOL     OW10116   1.498   1.849   3.580 -0.0933  0.0329 -0.6052
 3305SOL    HW110117   1.523   1.932   3.539 -2.2911  0.3778 -1.3850
 3305SOL    HW210118   1.582   1.805   3.598  1.0798  1.8349 -1.3532
 3306SOL     OW10119   4.097   4.798   4.695  0.1422 -0.3521 -0.6264
 3306SOL    HW110120   4.119   4.712   4.658  1.4155 -0.3309  0.0234
 3306SOL    HW210121   4.002   4.798   4.701  0.1662 -2.4450  0.9811
 3307SOL     OW10122   4.193   4.496   4.283 -0.1114 -0.5691  0.6882
 3307SOL    HW110123   4.268   4.456   4.241 -0.2230  0.3097 -0.3968
 3307SOL    HW210124   4.144   4.423   4.321  0.0126 -1.3920 -0.6917
 3308SOL     OW10125   0.334   1.076   0.153 -0.4115  0.3912  0.3499
 3308SOL    HW110126   0.416   1.028   0.167  0.6856  1.9966 -0.2980
 3308SOL    HW210127   0.277   1.014   0.108  1.8344  0.3801 -2.7595
 3309SOL     OW10128   2.032   4.036   4.232  0.0580  0.1628  0.1582
 3309SOL    HW110129   1.968   4.108   4.240 -1.9076 -1.3254 -1.1157
 3309SOL    HW210130   2.047   4.028   4.137  0.2900 -1.0462  0.2836
 3310SOL     OW10131   2.878   0.440   0.809  0.0828  0.4316 -0.2638
 3310SOL    HW110132   2.810   0.373   0.808  0.4755 -0.0060 -2.4383
 3310SOL    HW210133   2.958   0.393   0.832  0.4320 -0.0104 -2.1684
 3311SOL     OW10134   3.031   4.792   2.518 -0.3221  0.3621  0.3582
 3311SOL    HW110135   2.938   4.794   2.498 -0.4445  0.3642  0.9221
 3311SOL    HW210136   3.036   4.793   2.614  0.2268 -0.9616  0.3650
 3312SOL     OW10137   3.208   4.005   0.954 -0.2433  0.3343  0.0552
 3312SOL    HW110138   3.246   3.958   0.880 -2.0347 -0.2809 -0.5370
 3312SOL    HW210139   3.190   3.937   1.019  0.1598  0.6870  0.5393
 3313SOL     OW10140   3.735   3.221   0.422 -0.2249 -0.3417 -0.2686
 3313SOL    HW110141   3.706   3.312   0.417 -0.0402 -0.3276 -2.4107
 3313SOL    HW210142   3.819   3.220   0.375 -0.6399 -1.7407 -1.0672
 3314SOL     OW10143   1.297   0.935   0.948  0.7547  0.7864  0.0911
 3314SOL    HW110144   1.374   0.878   0.956 -0.4487 -1.0403 -0.5611
 3314SOL    HW210145   1.297   0.961   0.856 -0.4374 -0.8601 -0.4214
 3315SOL     OW10146   3.121   3.180   4.005 -0.3206  0.0629 -0.1786
 3315SOL    HW110147   3.189   3.231   4.050 -0.3686 -0.5351  0.5699
 3315SOL    HW210148   3.100   3.233   3.928 -2.5339  2.7685  2.0657
 3316SOL     OW10149   1.598   4.365   1.011 -0.4209 -0.4787  0.1728
 3316SOL    HW110150   1.621   4.279   1.046 -0.0478 -0.3891  0.1597
 3316SOL    HW210151   1.519   4.390   1.058 -0.2915 -0.6485  0.4835
 3317SOL     OW10152   1.162   4.333   0.237 -0.1785  0.1253  0.1606
 3317SOL    HW110153   1.249   4.367   0.254  0.2606 -0.5346 -0.7136
 3317SOL    HW210154   1.153   4.258   0.296 -0.4676  0.6672  0.8162
 3318SOL     OW10155   0.486   1.631   3.900 -0.5472 -0.2693 -0.4884
 3318SOL    HW110156   0.535   1.589   3.830 -1.4900 -0.0246 -1.3198
 3318SOL    HW210157   0.401   1.653   3.860 -0.8248  0.5466  0.5125
 3319SOL     OW10158   0.336   3.932   0.853  0.5031  0.4012 -0.4087
 3319SOL    HW110159   0.346   3.954   0.761 -0.0516 -1.6580 -1.0238
 3319SOL    HW210160   0.304   3.841   0.853  0.5874  0.3014  1.8074
 3320SOL     OW10161   1.845   2.825   2.026  0.1435 -0.1172  0.1074
 3320SOL    HW110162   1.760   2.820   2.068  0.7066 -1.1469  1.2105
 3320SOL    HW210163   1.845   2.753   1.963  0.5228 -0.7592  0.8120
 3321SOL     OW10164   0.237   2.400   0.677  0.1921 -0.3604 -0.4544
 3321SOL    HW110165   0.215   2.478   0.728  3.7280  0.2299  0.4526
 3321SOL    HW210166   0.230   2.328   0.739 -0.0363 -0.3283 -0.4408
 3322SOL     OW10167   2.190   0.630   2.074 -0.0744 -0.0631  0.1057
 3322SOL    HW110168   2.115   0.687   2.060  0.2794  0.5002  0.4591
 3322SOL    HW210169   2.257   0.687   2.112 -0.0444 -0.9142  1.3952
 3323SOL     OW10170   3.044   0.690   3.940 -0.4717 -0.0903  0.6890
 3323SOL    HW110171   2.961   0.725   3.908  1.0032  0.5265 -2.9474
 3323SOL    HW210172   3.034   0.595   3.932 -0.6672 -0.0002 -0.2711
 3324SOL     OW10173   0.131   2.600   2.860  0.2609  0.0314  0.1647
 3324SOL    HW110174   0.135   2.595   2.764 -0.3263  2.5198 -0.0614
 3324SOL    HW210175   0.038   2.590   2.880  0.2736  0.3910  0.4034
 3325SOL     OW10176   2.572   3.260   0.044  0.6718  0.0452 -0.1568
 3325SOL    HW110177   2.502   3.268   0.109  0.2867  2.0453 -0.7422
 3325SOL    HW210178   2.598   3.351   0.026  1.6675 -0.5312 -1.8338
 3326SOL     OW10179   4.038   0.136   0.613  0.2447  0.1453  0.2950
 3326SOL    HW110180   4.122   0.122   0.656  0.8973 -1.8448 -1.4426
 3326SOL    HW210181   4.039   0.229   0.589 -0.3312  1.5153  4.6307
 3327SOL     OW10182   4.150   0.749   3.721  0.0821  0.2628  0.0389
 3327SOL    HW110183   4.221   0.687   3.701 -0.3337 -0.0301 -0.5602
 3327SOL    HW210184   4.190   0.835   3.710  0.1816  0.1035 -0.9651
 3328SOL     OW10185   2.031   0.173   1.546 -0.1268  0.1531  0.6077
 3328SOL    HW110186   1.986   0.171   1.462 -0.6441 -1.0335  0.8856
 3328SOL    HW210187   2.123   0.189   1.525 -0.3344  0.4126 -0.1277
 3329SOL     OW10188   1.233   2.578   2.849  0.2547 -0.0877  1.4914
 3329SOL    HW110189   1.155   2.541   2.807 -0.1005  1.1332  1.0274
 3329SOL    HW210190   1.306   2.550   2.794 -0.3165  2.6903 -0.9635
 3330SOL     OW10191   2.484   3.084   4.511  0.1552 -0.1304 -0.3371
 3330SOL    HW110192   2.578   3.073   4.526  0.0209 -1.5405 -0.4310
 3330SOL    HW210193   2.463   3.023   4.441 -0.6639  0.8830 -0.9978
 3331SOL     OW10194   2.083   3.288   3.297 -0.2145 -0.2440  0.0922
 3331SOL    HW110195   2.050   3.222   3.358 -2.5730 -0.6615 -1.4849
 3331SOL    HW210196   2.017   3.357   3.299  1.0645  1.0176  0.0044
 3332SOL     OW10197   4.137   0.892   4.504  0.7139  0.6344  0.5397
 3332SOL    HW110198   4.110   0.818   4.557 -0.6636 -0.0518 -1.0299
 3332SOL    HW210199   4.060   0.948   4.499  0.9884  0.9654 -0.2615
 3333SOL     OW10200   2.818   1.039   3.765  0.1468  0.5941  0.2165
 3333SOL    HW110201   2.840   1.079   3.681  2.2574  0.6671  0.7489
 3333SOL    HW210202   2.859   1.095   3.830 -1.1795  0.3552  1.3062
 3334SOL     OW10203   3.658   0.919   3.984  0.3341  0.5749 -0.4207
 3334SOL    HW110204   3.564   0.910   3.976  0.2525  1.1122 -0.1616
 3334SOL    HW210205   3.676   0.902   4.077  0.5827 -0.2268 -0.6090
 3335SOL     OW10206   1.329   4.658   2.521  0.5337  0.1209 -0.3611
 3335SOL    HW110207   1.396   4.622   2.462  0.2865  0.0215 -0.5838
 3335SOL    HW210208   1.306   4.584   2.577  0.8691  0.2534 -0.0485
 3336SOL     OW10209   2.637   1.938   4.668  0.2621  0.0371  0.1339
 3336SOL    HW110210   2.634   2.025   4.709  0.8031 -0.0808  0.4330
 3336SOL    HW210211   2.713   1.941   4.610  0.5134 -0.3612  0.4369
 3337SOL     OW10212   2.112   2.795   1.655  0.7508  0.2402 -0.4226
 3337SOL    HW110213   2.156   2.796   1.741 -0.8291  1.1975  0.4114
 3337SOL    HW210214   2.181   2.769   1.594  2.1843  0.5308  0.9920
 3338SOL     OW10215   3.438   4.203   2.995 -0.2383 -0.1818  0.1214
 3338SOL    HW110216   3.401   4.262   3.061 -0.3114  1.4662 -1.3315
 3338SOL    HW210217   3.530   4.197   3.018 -0.6859 -1.5965  1.7673
 3339SOL     OW10218   0.069   4.612   4.770 -0.0295 -0.1058 -0.3036
 3339SOL    HW110219   0.038   4.692   4.813 -0.2186 -0.5933  0.4992
 3339SOL    HW210220   0.164   4.620   4.769 -0.0573  0.2104 -0.3878
 3340SOL     OW10221   0.826   4.276   0.875 -0.0927 -0.5784 -0.3826
 3340SOL    HW110222   0.824   4.332   0.798 -1.2279 -0.5304 -0.3402
 3340SOL    HW210223   0.894   4.211   0.856 -1.8087 -1.9376 -2.4366
 3341SOL     OW10224   0.840   4.187   2.198  0.0976  0.5034  0.0161
 3341SOL    HW110225   0.879   4.192   2.285 -0.0504  1.7936  0.0396
 3341SOL    HW210226   0.872   4.105   2.161 -0.1273 -0.2514  1.4128
 3342SOL     OW10227   1.835   0.131   2.716  0.3078  0.1484  0.9124
 3342SOL    HW110228   1.870   0.088   2.638  1.5485  0.3665  1.3304
 3342SOL    HW210229   1.912   0.159   2.765 -0.4016  3.0702  0.5650
 3343SOL     OW10230   3.246   1.693   2.170  0.0026 -0.4183  0.7706
 3343SOL    HW110231   3.190   1.648   2.108  0.1623 -0.3657  0.5884
 3343SOL    HW210232   3.204   1.679   2.255 -0.1327 -0.6163  0.6710
 3344SOL     OW10233   0.420   1.533   4.241 -0.1860  0.2685  0.1081
 3344SOL    HW110234   0.460   1.479   4.173  0.5021  0.4466  0.3631
 3344SOL    HW210235   0.440   1.623   4.214  0.5853  0.3248  0.8378
 3345SOL     OW10236   3.479   2.160   1.235 -0.1274 -0.4465 -0.3355
 3345SOL    HW110237   3.444   2.117   1.313 -0.0878  0.4713  0.2013
 3345SOL    HW210238   3.433   2.118   1.162  0.1979 -1.6653  0.1353
 3346SOL     OW10239   4.118   3.882   3.922  0.1182  0.2487 -0.0812
 3346SOL    HW110240   4.079   3.930   3.849 -0.3247 -0.2717 -0.1955
 3346SOL    HW210241   4.090   3.792   3.909  0.9713 -0.0492  0.1105
 3347SOL     OW10242   0.301   2.476   1.819 -0.7326  1.0739  0.2470
 3347SOL    HW110243   0.358   2.553   1.819 -0.3986  0.8505  1.4297
 3347SOL    HW210244   0.215   2.510   1.840 -0.3447  1.0027  2.1218
 3348SOL     OW10245   2.989   0.242   2.221  0.1268 -0.3816 -0.2315
 3348SOL    HW110246   3.032   0.248   2.136 -0.5351  0.7798 -0.5105
 3348SOL    HW210247   3.060   0.248   2.285  0.4929  0.4338 -0.6962
 3349SOL     OW10248   0.632   3.554   0.213  0.6323  0.1776  0.6535
 3349SOL    HW110249   0.715   3.521   0.178 -0.5496 -0.5252 -1.7183
 3349SOL    HW210250   0.583   3.475   0.236 -0.5745  0.3628 -1.0581
 3350SOL     OW10251   4.188   1.008   3.215  0.0265 -0.3951  0.0176
 3350SOL    HW110252   4.276   1.030   3.185 -0.5495  1.6113 -0.3398
 3350SOL    HW210253   4.138   0.992   3.135 -0.2625 -0.1687  0.1505
 3351SOL     OW10254   3.305   0.270   2.158 -0.0647  0.0790  0.2138
 3351SOL    HW110255   3.400   0.276   2.170 -0.1093  0.5256  0.3345
 3351SOL    HW210256   3.279   0.196   2.213  0.4775 -1.2917 -1.2931
 3352SOL     OW10257   2.812   1.897   0.078  0.4238 -0.1831 -0.5971
 3352SOL    HW110258   2.781   1.987   0.092 -0.7789 -0.1105 -3.0650
 3352SOL    HW210259   2.903   1.907   0.050  0.7154  0.1401  0.4312
 3353SOL     OW10260   1.659   1.189   3.761  0.2758  0.6717 -0.3014
 3353SOL    HW110261   1.651   1.138   3.681 -0.0133  0.5458 -0.1946
 3353SOL    HW210262   1.646   1.125   3.832  2.4160  0.3918 -0.0768
 3354SOL     OW10263   2.626   3.170   2.517 -0.5803  0.7231  0.6785
 3354SOL    HW110264   2.598   3.258   2.544  1.6595  2.1163 -1.0946
 3354SOL    HW210265   2.689   3.143   2.583  1.2073  1.9811 -0.4154
 3355SOL     OW10266   4.081   1.815   4.591  0.6177 -0.6177 -0.0271
 3355SOL    HW110267   4.107   1.814   4.499  2.3617 -1.9193  0.4346
 3355SOL    HW210268   4.062   1.724   4.612  0.3231 -0.3480  0.9344
 3356SOL     OW10269   4.816   2.525   3.165 -0.0622 -0.1179 -0.1280
 3356SOL    HW110270   4.893   2.517   3.108 -0.0155  0.3173 -0.1313
 3356SOL    HW210271   4.745   2.548   3.105  0.5472  3.3150  0.2692
 3357SOL     OW10272   1.835   3.836   0.572  0.5213 -0.0536 -0.6336
 3357SOL    HW110273   1.889   3.910   0.543  1.0227  0.2791  1.0442
 3357SOL    HW210274   1.764   3.876   0.623  0.1849 -0.6599 -0.6166
 3358SOL     OW10275   2.108   1.137   3.181  0.0950 -0.3181  0.3565
 3358SOL    HW110276   2.130   1.093   3.099 -3.1880  0.3984 -1.0942
 3358SOL    HW210277   2.066   1.219   3.154 -1.5681 -0.2901  2.7097
 3359SOL     OW10278   4.221   2.980   1.961 -0.4351 -0.5735  0.2754
 3359SOL    HW110279   4.138   2.994   2.007 -0.2090 -0.0833  0.5410
 3359SOL    HW210280   4.274   2.929   2.022 -0.6185 -1.0870  0.0139
 3360SOL     OW10281   1.174   2.867   0.026  0.1191  0.3066  0.2163
 3360SOL    HW110282   1.126   2.949   0.037  1.1701  0.7312  2.1265
 3360SOL    HW210283   1.256   2.892  -0.017 -0.5897 -0.1510 -1.4558
 3361SOL     OW10284   2.864   2.399   3.090  0.1918  0.0970  0.2088
 3361SOL    HW110285   2.814   2.471   3.052 -0.7516 -0.3022  0.6586
 3361SOL    HW210286   2.949   2.437   3.113 -0.3702  1.1215  0.6275
 3362SOL     OW10287   0.543   4.103   2.929 -0.3990  0.1082 -0.1299
 3362SOL    HW110288   0.604   4.030   2.934  0.7536  1.1217  1.6135
 3362SOL    HW210289   0.463   4.065   2.892  0.3265 -1.9081  0.2569
 3363SOL     OW10290   2.475   0.460   2.296  0.9474  0.2047  0.0848
 3363SOL    HW110291   2.387   0.440   2.267  1.6056 -0.1404 -1.7757
 3363SOL    HW210292   2.464   0.498   2.384 -0.8552 -1.8442  0.8114
 3364SOL     OW10293   0.890   2.853   2.766 -0.2369 -0.1610 -0.0270
 3364SOL    HW110294   0.827   2.865   2.837  0.0132 -0.4508  0.2493
 3364SOL    HW210295   0.945   2.931   2.770  2.0669 -1.7298  2.4652
 3365SOL     OW10296   1.470   3.322   0.643  0.3143  0.0678 -0.0789
 3365SOL    HW110297   1.509   3.397   0.688  0.3583 -0.1326  0.2190
 3365SOL    HW210298   1.534   3.298   0.575  0.1438  0.5134 -0.4013
 3366SOL     OW10299   3.322   0.667   4.325  0.1431  0.2314  0.4022
 3366SOL    HW110300   3.408   0.630   4.343  0.2952  1.0967  1.5593
 3366SOL    HW210301   3.266   0.631   4.395 -0.3130  0.1025 -0.0223
 3367SOL     OW10302   2.545   3.543   2.892 -0.1300 -0.0183  0.1913
 3367SOL    HW110303   2.551   3.466   2.948 -0.8379 -0.3447 -0.1688
 3367SOL    HW210304   2.618   3.599   2.920 -1.3393  0.5524  2.5075
 3368SOL     OW10305   0.838   0.910   1.458  0.0560 -0.1233 -0.0900
 3368SOL    HW110306   0.856   0.863   1.377  0.6118  0.7561 -0.4895
 3368SOL    HW210307   0.918   0.902   1.509  0.2343  0.5681 -0.2548
 3369SOL     OW10308   0.102   4.225   0.803  0.2018 -0.2499  0.1472
 3369SOL    HW110309   0.124   4.228   0.896  2.5610 -0.4035 -0.3421
 3369SOL    HW210310   0.048   4.303   0.789 -0.2487 -0.2610  1.6341
 3370SOL     OW10311   3.181   4.388   3.341 -0.3327  0.1213  0.6933
 3370SOL    HW110312   3.170   4.295   3.317 -0.0981  0.4601 -0.8180
 3370SOL    HW210313   3.249   4.420   3.282  1.4622  0.6656  2.9117
 3371SOL     OW10314   3.720   1.915   0.177 -0.2642 -0.6931  0.0998
 3371SOL    HW110315   3.650   1.853   0.195  1.6330 -2.4310  1.8648
 3371SOL    HW210316   3.801   1.866   0.188  1.3265  1.5936 -0.4494
 3372SOL     OW10317   0.658   1.375   0.253  0.1656  0.0698  0.3642
 3372SOL    HW110318   0.627   1.393   0.342  0.5083 -1.5544  0.8383
 3372SOL    HW210319   0.578   1.361   0.202  0.0096 -0.5306  0.7714
 3373SOL     OW10320   1.543   2.570   3.975  0.3232 -0.3624  0.6461
 3373SOL    HW110321   1.570   2.606   4.060 -0.4508 -0.3989  0.9229
 3373SOL    HW210322   1.624   2.556   3.927  0.7493 -0.0180  1.2573
 3374SOL     OW10323   3.401   2.205   1.728  0.0748  0.1342  0.9713
 3374SOL    HW110324   3.417   2.232   1.637 -0.5259 -0.5246  0.6586
 3374SOL    HW210325   3.336   2.135   1.721  1.2013 -1.0522  1.7931
 3375SOL     OW10326   0.748   2.044   3.533 -0.5533 -0.2277 -0.1780
 3375SOL    HW110327   0.827   2.038   3.479  0.2100  0.9918  0.7305
 3375SOL    HW210328   0.685   2.091   3.479 -0.5578 -0.9259 -0.7959
 3376SOL     OW10329   3.709   3.384   1.167  0.2449  0.5353 -0.2776
 3376SOL    HW110330   3.660   3.355   1.245  0.7213  1.4110  0.3581
 3376SOL    HW210331   3.779   3.320   1.158  0.5507  0.7722  0.3825
 3377SOL     OW10332   3.857   3.076   4.397  0.2972 -0.2582  0.4036
 3377SOL    HW110333   3.835   3.076   4.490 -0.9338 -1.6067  0.1627
 3377SOL    HW210334   3.786   3.026   4.356 -0.0487  1.6201 -1.4784
 3378SOL     OW10335   2.635   2.164   2.850  0.4164  0.4911 -0.2262
 3378SOL    HW110336   2.647   2.258   2.868 -0.5340  0.8411 -1.2838
 3378SOL    HW210337   2.704   2.121   2.901  1.4502  1.8341 -0.4277
 3379SOL     OW10338   1.488   2.594   1.902  0.2021  0.3556  0.0198
 3379SOL    HW110339   1.430   2.521   1.880  0.9680 -0.3512  0.3173
 3379SOL    HW210340   1.428   2.668   1.917 -0.6365 -0.3903  0.4600
 3380SOL     OW10341   1.284   3.808   4.430  0.3276 -0.0189 -0.0550
 3380SOL    HW110342   1.247   3.896   4.419  0.9590  0.0967 -1.6352
 3380SOL    HW210343   1.237   3.755   4.366  1.0439 -0.4616 -0.2214
 3381SOL     OW10344   0.659   2.612   3.489 -0.1429 -0.5449 -0.7005
 3381SOL    HW110345   0.732   2.658   3.448  0.0256 -0.8540 -0.7455
 3381SOL    HW210346   0.661   2.640   3.581 -0.6923  0.3699 -0.9519
 3382SOL     OW10347   0.923   4.708   2.429 -0.0775 -0.4213  0.1668
 3382SOL    HW110348   0.978   4.646   2.380  1.0074 -1.1690  2.2123
 3382SOL    HW210349   0.849   4.655   2.458 -0.6324 -0.0200 -0.4946
 3383SOL     OW10350   2.754   4.533   0.114  0.1917 -0.9426 -0.1072
 3383SOL    HW110351   2.777   4.623   0.091  0.7661 -1.2352 -0.6939
 3383SOL    HW210352   2.728   4.493   0.031 -1.3611 -0.9511  0.3532
 3384SOL     OW10353   0.989   0.245   4.023 -0.0105 -0.6612  0.5073
 3384SOL    HW110354   0.903   0.242   4.066 -0.5706  1.3751 -0.3390
 3384SOL    HW210355   0.969   0.257   3.930  1.1807 -0.3252  0.2733
 3385SOL     OW10356   0.456   3.972   1.958 -0.1791  0.5209  0.0866
 3385SOL    HW110357   0.499   3.895   1.995  1.6018  1.7751  0.7419
 3385SOL    HW210358   0.371   3.940   1.929  0.6979 -1.8083 -0.1404
 3386SOL     OW10359   4.473   4.699   2.637 -0.4711  0.0445  0.0639
 3386SOL    HW110360   4.502   4.697   2.728  0.0781 -0.8929 -0.1175
 3386SOL    HW210361   4.377   4.702   2.642 -0.4216  0.7271  0.6669
 3387SOL     OW10362   0.542   1.330   4.077  0.1005  0.4067 -0.2209
 3387SOL    HW110363   0.625   1.334   4.029  0.9581 -1.8585  0.9450
 3387SOL    HW210364   0.568   1.315   4.168 -1.5588 -1.0077  0.0694
 3388SOL     OW10365   1.329   3.411   4.274  0.5433 -0.0747 -0.5997
 3388SOL    HW110366   1.270   3.455   4.336  0.3375 -0.2709 -0.6558
 3388SOL    HW210367   1.280   3.407   4.192  2.1402  3.4730 -1.9028
 3389SOL     OW10368   3.932   1.535   3.143 -0.1569  0.0848 -0.1887
 3389SOL    HW110369   3.892   1.596   3.205 -0.3350  0.8970 -1.0931
 3389SOL    HW210370   4.025   1.556   3.145 -0.0575 -0.3623  0.3068
 3390SOL     OW10371   2.761   2.428   0.222 -0.1207 -0.2203  0.3060
 3390SOL    HW110372   2.699   2.489   0.181 -1.2294 -1.1285  0.5804
 3390SOL    HW210373   2.738   2.430   0.315  0.0343 -0.8211  0.3609
 3391SOL     OW10374   4.585   0.296   1.598  0.7440 -0.2744  0.5672
 3391SOL    HW110375   4.500   0.263   1.569  1.6477 -3.4743  1.1424
 3391SOL    HW210376   4.579   0.391   1.587 -3.0204 -0.3094  0.9685
 3392SOL     OW10377   1.365   4.152   4.489  0.1663 -0.2088  0.6295
 3392SOL    HW110378   1.363   4.247   4.500 -1.3656 -0.0522 -0.6013
 3392SOL    HW210379   1.452   4.125   4.521 -0.0928  1.3244  2.8723
 3393SOL     OW10380   0.758   0.103   3.333  0.2671  0.0033  0.2508
 3393SOL    HW110381   0.803   0.154   3.266  1.3170 -0.3686  0.6485
 3393SOL    HW210382   0.739   0.019   3.291  1.0884 -0.2964  0.4579
 3394SOL     OW10383   0.236   3.811   3.973 -0.4856  0.2745  0.0221
 3394SOL    HW110384   0.155   3.761   3.959 -1.1808  1.2736  0.3233
 3394SOL    HW210385   0.216   3.898   3.938  1.0815  0.0615 -1.4959
 3395SOL     OW10386   2.067   2.441   3.569 -0.0778  0.0258 -0.5099
 3395SOL    HW110387   2.066   2.489   3.652  1.1107  0.7789 -0.9043
 3395SOL    HW210388   2.009   2.490   3.511 -0.0441  0.1338 -0.4521
 3396SOL     OW10389   2.492   4.668   4.181  0.1654  0.2330  0.3359
 3396SOL    HW110390   2.570   4.706   4.221  0.1128 -0.5124  1.1640
 3396SOL    HW210391   2.514   4.662   4.088  0.1840  2.2516  0.1657
 3397SOL     OW10392   3.475   1.371   3.067 -0.0317 -0.1287  0.2125
 3397SOL    HW110393   3.532   1.446   3.047  0.0311 -0.2761 -0.1630
 3397SOL    HW210394   3.536   1.301   3.090 -0.0490 -0.3404 -0.3687
 3398SOL     OW10395   0.297   3.529   1.460 -0.2505  0.2242 -0.7999
 3398SOL    HW110396   0.273   3.585   1.386 -2.5224  1.3609  0.6590
 3398SOL    HW210397   0.227   3.463   1.463 -0.5703  0.5930  0.6657
 3399SOL     OW10398   4.245   3.407   3.391 -0.4114 -0.2850 -0.0763
 3399SOL    HW110399   4.258   3.374   3.302  0.2096 -1.0844  0.2911
 3399SOL    HW210400   4.295   3.489   3.394  0.2977 -0.7042 -0.2112
 3400SOL     OW10401   2.281   2.736   2.760  0.7468 -0.0473  0.6027
 3400SOL    HW110402   2.201   2.763   2.807  0.0267 -1.5910  0.3313
 3400SOL    HW210403   2.327   2.680   2.823  0.7985 -0.4592  0.2057
 3401SOL     OW10404   4.177   3.216   1.726 -0.7349 -0.1385 -0.2289
 3401SOL    HW110405   4.169   3.122   1.710 -1.1588 -0.1906  0.2961
 3401SOL    HW210406   4.269   3.227   1.753 -1.3615 -0.8348  2.5209
 3402SOL     OW10407   2.628   2.791   0.197 -0.3291 -0.1032 -0.4890
 3402SOL    HW110408   2.716   2.818   0.224 -0.4740 -0.0984 -0.0246
 3402SOL    HW210409   2.571   2.822   0.267 -0.4387 -2.2043  0.4126
 3403SOL     OW10410   4.464   1.931   0.188  0.1614 -0.3989 -0.2823
 3403SOL    HW110411   4.379   1.958   0.154  0.3279 -0.1665 -0.5117
 3403SOL    HW210412   4.448   1.910   0.280 -0.0981 -0.1449 -0.2707
 3404SOL     OW10413   1.487   1.450   0.798  0.5043 -0.5042  0.3632
 3404SOL    HW110414   1.567   1.441   0.747 -0.6124 -0.0015 -1.6136
 3404SOL    HW210415   1.483   1.544   0.819  0.0546 -0.3678 -0.2790
 3405SOL     OW10416   2.701   4.798   3.114 -0.2260  0.3159 -0.3228
 3405SOL    HW110417   2.614   4.811   3.153 -0.5086 -0.1022 -0.8102
 3405SOL    HW210418   2.713   4.703   3.113  0.1153  0.3591 -0.5359
 3406SOL     OW10419   4.595   3.783   2.106 -0.6865 -0.3617 -0.1870
 3406SOL    HW110420   4.561   3.694   2.108 -1.8849  0.1018  1.0094
 3406SOL    HW210421   4.652   3.785   2.029 -0.9001 -2.0524 -0.4199
 3407SOL     OW10422   4.605   0.948   0.999  0.7882  0.0685 -0.4326
 3407SOL    HW110423   4.562   0.974   1.081  0.9849 -0.8158 -0.0422
 3407SOL    HW210424   4.564   1.004   0.932  0.4581  0.6349  0.2240
 3408SOL     OW10425   1.702   0.654   3.328  0.8561  0.7503 -0.0149
 3408SOL    HW110426   1.740   0.740   3.310  3.0696 -0.1418  0.0269
 3408SOL    HW210427   1.700   0.611   3.243  0.6364  0.5165  0.1078
 3409SOL     OW10428   3.249   3.206   1.306 -0.0926 -0.2067 -0.1719
 3409SOL    HW110429   3.287   3.125   1.274  0.9067  0.6093 -1.1324
 3409SOL    HW210430   3.189   3.234   1.236  0.0393  0.2007 -0.1232
 3410SOL     OW10431   3.287   3.669   3.461  0.1225  0.0353 -0.2276
 3410SOL    HW110432   3.294   3.723   3.382  1.1628  0.6336  0.2574
 3410SOL    HW210433   3.350   3.598   3.446 -0.0631 -0.1449 -0.1572
 3411SOL     OW10434   2.045   0.922   1.731  0.0052  0.6721  0.1841
 3411SOL    HW110435   1.967   0.956   1.688  0.0334  0.4468 -0.0473
 3411SOL    HW210436   2.015   0.843   1.776  0.1592  0.4247 -0.1440
 3412SOL     OW10437   2.431   4.536   0.904  0.2197  0.3153 -0.2231
 3412SOL    HW110438   2.482   4.615   0.924 -1.3692  2.2232 -2.9686
 3412SOL    HW210439   2.358   4.568   0.851 -1.0006 -2.9511 -0.7358
 3413SOL     OW10440   1.301   3.430   1.783  0.2359 -0.5135 -0.2360
 3413SOL    HW110441   1.270   3.391   1.701 -1.2502 -0.7064  0.3762
 3413SOL    HW210442   1.221   3.460   1.827  1.1425  1.2370  0.3277
 3414SOL     OW10443   3.854   1.789   4.408  0.5002  0.0787  0.1631
 3414SOL    HW110444   3.934   1.751   4.373  0.5123 -0.7182  1.0349
 3414SOL    HW210445   3.788   1.772   4.341  0.6545 -0.8930  0.2515
 3415SOL     OW10446   2.652   0.818   2.564  0.3952 -0.1537  0.0140
 3415SOL    HW110447   2.734   0.770   2.552  1.2326  1.1706  0.2662
 3415SOL    HW210448   2.640   0.866   2.483 -0.3491 -0.6295 -0.1684
 3416SOL     OW10449   0.777   3.398   2.154  0.6776 -0.2673  0.3353
 3416SOL    HW110450   0.815   3.470   2.203  0.2646  0.5646 -0.5385
 3416SOL    HW210451   0.699   3.373   2.204 -1.7196  2.8194 -1.5061
 3417SOL     OW10452   2.608   0.394   0.388 -0.2338 -0.1747 -0.0234
 3417SOL    HW110453   2.617   0.319   0.447 -0.3115 -0.0162  0.1922
 3417SOL    HW210454   2.684   0.449   0.406 -0.2604 -0.1234 -0.0670
 3418SOL     OW10455   4.131   1.811   2.254  0.4077 -0.5017  0.0342
 3418SOL    HW110456   4.122   1.871   2.180  0.9748 -1.0517 -0.4886
 3418SOL    HW210457   4.126   1.724   2.215  0.0218 -0.7991  0.7356
 3419SOL     OW10458   1.536   0.043   2.562  0.8293  0.1353  0.5193
 3419SOL    HW110459   1.447   0.007   2.561  0.8193  0.1135  1.2275
 3419SOL    HW210460   1.555   0.055   2.655  1.4162  0.5223  0.3530
 3420SOL     OW10461   2.117   4.718   3.015 -0.2302  0.0141  0.2862
 3420SOL    HW110462   2.130   4.662   3.091  2.6100  0.2762  0.0865
 3420SOL    HW210463   2.022   4.725   3.007 -0.6412 -2.0028  2.3103
 3421SOL     OW10464   3.759   3.825   3.940  0.2789  0.3869  0.4741
 3421SOL    HW110465   3.792   3.788   4.022 -0.0876  0.8345  0.8262
 3421SOL    HW210466   3.837   3.840   3.887  0.5882  0.8502  1.0524
 3422SOL     OW10467   0.288   2.274   3.050  0.5783 -0.5916  0.1216
 3422SOL    HW110468   0.270   2.199   3.106  3.8345 -0.8829  0.9887
 3422SOL    HW210469   0.238   2.256   2.970  0.3075 -3.0643  0.7506
 3423SOL     OW10470   3.112   3.853   4.466 -0.1680 -0.5592 -0.4930
 3423SOL    HW110471   3.135   3.880   4.555 -1.2664 -0.8612 -0.1044
 3423SOL    HW210472   3.186   3.883   4.412  0.7305 -0.7811  0.5777
 3424SOL     OW10473   3.427   3.888   4.632 -0.0439  0.5695  0.0095
 3424SOL    HW110474   3.363   3.954   4.660  1.1347  1.0654  1.6687
 3424SOL    HW210475   3.509   3.936   4.622  1.1458 -0.7552  2.4691
 3425SOL     OW10476   3.211   4.580   4.384  0.2017  0.2878  0.0348
 3425SOL    HW110477   3.139   4.638   4.358  0.7019  0.4395 -1.0555
 3425SOL    HW210478   3.288   4.637   4.384  0.6744 -0.3388 -0.9139
 3426SOL     OW10479   1.465   1.417   3.879 -0.4476 -0.0118 -0.1158
 3426SOL    HW110480   1.392   1.398   3.821  0.0828 -1.6959 -0.2848
 3426SOL    HW210481   1.521   1.339   3.874  1.9947  1.6610 -0.9429
 3427SOL     OW10482   0.745   2.331   4.696  0.4334  0.4046 -0.0175
 3427SOL    HW110483   0.809   2.307   4.629 -0.1130 -1.6206  0.1172
 3427SOL    HW210484   0.775   2.416   4.729  1.1013  1.1543 -2.3317
 3428SOL     OW10485   0.477   2.309   4.780 -0.1728  0.3855 -0.1308
 3428SOL    HW110486   0.451   2.217   4.781 -0.1546  0.3647 -0.8833
 3428SOL    HW210487   0.563   2.309   4.737  0.4662  0.6020  1.1157
 3429SOL     OW10488   0.115   3.370   4.088  0.3580 -0.4383 -0.1256
 3429SOL    HW110489   0.087   3.449   4.134  2.6403  0.3271  0.0676
 3429SOL    HW210490   0.160   3.319   4.155 -1.0313 -1.9311 -0.2671
 3430SOL     OW10491   3.046   3.032   1.004 -0.0967 -0.5055 -0.7765
 3430SOL    HW110492   2.956   3.027   1.037  0.3985  2.7423  1.5724
 3430SOL    HW210493   3.091   2.959   1.046 -0.8768  0.0229  1.0961
 3431SOL     OW10494   0.770   3.219   2.508 -0.1561  0.2814  0.3925
 3431SOL    HW110495   0.771   3.308   2.542  0.8134  1.7964 -3.1387
 3431SOL    HW210496   0.860   3.188   2.520 -0.4109 -0.1628  1.3047
 3432SOL     OW10497   4.472   2.314   0.191  0.0055 -0.2657  0.1684
 3432SOL    HW110498   4.464   2.399   0.235  2.8701 -0.5635  1.4862
 3432SOL    HW210499   4.395   2.266   0.219 -0.3867  1.0372  1.4603
 3433SOL     OW10500   4.077   4.228   1.167  0.1656  0.0405  0.1167
 3433SOL    HW110501   4.024   4.284   1.223  0.8274 -0.2774  1.1061
 3433SOL    HW210502   4.120   4.287   1.106 -0.8683  0.3564 -0.3166
 3434SOL     OW10503   1.745   2.258   1.339 -0.9908  0.5775 -0.4570
 3434SOL    HW110504   1.740   2.289   1.429 -3.4324  2.3940 -1.1082
 3434SOL    HW210505   1.654   2.254   1.310 -0.2390  1.2480 -3.2083
 3435SOL     OW10506   1.233   2.229   3.454 -0.1043  0.0701 -0.7651
 3435SOL    HW110507   1.250   2.322   3.437 -0.1507  0.2173 -0.0488
 3435SOL    HW210508   1.314   2.185   3.427  0.7299  0.5552  0.8083
 3436SOL     OW10509   1.057   0.137   0.230 -0.5140  0.4669 -0.6080
 3436SOL    HW110510   1.048   0.118   0.323 -1.6983 -1.2628 -1.0374
 3436SOL    HW210511   1.056   0.233   0.225 -2.0860  0.5762  1.0153
 3437SOL     OW10512   4.752   2.229   1.916 -0.4275  0.1868  0.1526
 3437SOL    HW110513   4.675   2.239   1.860 -1.2482 -0.9167  1.0406
 3437SOL    HW210514   4.826   2.228   1.854 -1.1876  0.3799 -0.7879
 3438SOL     OW10515   4.235   2.164   1.612  0.3692 -0.1694 -0.2087
 3438SOL    HW110516   4.219   2.160   1.518  0.0957  1.3606 -0.2520
 3438SOL    HW210517   4.279   2.248   1.625  0.4882 -0.4070  1.0200
 3439SOL     OW10518   1.903   2.717   4.739  0.7268 -0.2602 -0.1010
 3439SOL    HW110519   1.871   2.651   4.677 -3.2230  2.0113 -0.8079
 3439SOL    HW210520   1.833   2.726   4.803  1.3344  2.8288  0.2715
 3440SOL     OW10521   3.899   4.201   4.168 -0.3456 -0.7031  0.0192
 3440SOL    HW110522   3.834   4.223   4.235 -0.7028 -0.7477 -0.3164
 3440SOL    HW210523   3.849   4.160   4.098 -0.3768  1.6711 -1.4446
 3441SOL     OW10524   0.036   3.691   1.535  0.5700 -0.2588 -0.5381
 3441SOL    HW110525   0.019   3.615   1.479 -1.1658  0.9383 -1.7267
 3441SOL    HW210526  -0.035   3.751   1.516  0.7077  0.8146  1.9575
 3442SOL     OW10527   2.479   2.890   2.971  0.3873 -0.3868  0.0181
 3442SOL    HW110528   2.499   2.798   2.991 -2.5373 -1.2267 -0.4441
 3442SOL    HW210529   2.424   2.886   2.893 -2.0120  1.4691  1.4667
 3443SOL     OW10530   3.537   2.861   4.482 -0.6220  0.1834 -0.1869
 3443SOL    HW110531   3.537   2.781   4.428 -0.1937 -0.5305  0.8267
 3443SOL    HW210532   3.550   2.932   4.420  0.0546 -0.6282 -1.0073
 3444SOL     OW10533   2.624   1.709   0.245 -0.4226 -0.5481  0.3261
 3444SOL    HW110534   2.598   1.779   0.306 -0.8647 -1.1663  0.8664
 3444SOL    HW210535   2.631   1.631   0.300  2.0196 -0.5552  0.1017
 3445SOL     OW10536   1.744   3.936   4.124 -0.7267 -0.1743 -0.7764
 3445SOL    HW110537   1.804   3.869   4.093  0.4652 -0.2988  1.5523
 3445SOL    HW210538   1.781   4.018   4.092 -0.6643 -0.4214 -1.3415
 3446SOL     OW10539   4.550   2.312   4.315  0.1060 -0.0753 -0.0739
 3446SOL    HW110540   4.508   2.396   4.295 -0.5672  0.0955  1.9123
 3446SOL    HW210541   4.583   2.282   4.230  0.1040  2.0403 -0.8909
 3447SOL     OW10542   3.060   1.934   4.812 -0.1407 -0.2243  0.0988
 3447SOL    HW110543   3.068   2.029   4.799 -0.7925 -0.2472 -0.6033
 3447SOL    HW210544   3.143   1.898   4.780 -0.5928 -0.0208 -1.4059
 3448SOL     OW10545   0.194   0.953   0.972  0.0158  0.3628 -0.4508
 3448SOL    HW110546   0.116   0.996   1.005  0.9590  1.4224  0.4747
 3448SOL    HW210547   0.221   0.894   1.043  2.1349  2.7565  0.8939
 3449SOL     OW10548   3.119   3.787   1.092 -0.1335  0.3590 -0.2252
 3449SOL    HW110549   3.145   3.714   1.149  0.2514  1.1323  0.6130
 3449SOL    HW210550   3.024   3.777   1.083 -0.2354  0.3558  0.7472
 3450SOL     OW10551   0.165   0.954   3.198 -0.1062  0.6942  0.1183
 3450SOL    HW110552   0.171   0.932   3.105 -2.1505 -0.6937  0.2367
 3450SOL    HW210553   0.169   1.050   3.200 -0.3537  0.7697 -1.4266
 3451SOL     OW10554   3.984   1.382   1.414 -0.2017  0.1381 -0.0451
 3451SOL    HW110555   3.994   1.289   1.395  0.0933  0.3041 -0.7037
 3451SOL    HW210556   3.889   1.393   1.426 -0.0966 -0.5643  1.7594
 3452SOL     OW10557   0.110   2.889   0.251 -0.0923 -0.0849  0.2362
 3452SOL    HW110558   0.115   2.797   0.226  2.3158 -0.0780  0.4984
 3452SOL    HW210559   0.146   2.892   0.340  1.4120  1.2921 -0.3734
 3453SOL     OW10560   1.407   2.010   3.877  0.5284 -0.0709 -0.1166
 3453SOL    HW110561   1.335   1.983   3.820 -0.7845 -1.3954  1.9827
 3453SOL    HW210562   1.471   2.049   3.819 -0.7849 -1.1489 -2.4336
 3454SOL     OW10563   0.999   3.914   2.677 -0.4920 -0.8767  0.6041
 3454SOL    HW110564   1.075   3.887   2.729  1.3998  2.4626 -0.1415
 3454SOL    HW210565   1.019   3.883   2.588  0.1393  0.1184  0.3799
 3455SOL     OW10566   3.596   4.657   0.352 -0.4101  0.1108 -0.7081
 3455SOL    HW110567   3.640   4.581   0.315 -0.9703  0.1784 -1.5424
 3455SOL    HW210568   3.655   4.730   0.335  0.6685 -0.2568  1.0939
 3456SOL     OW10569   0.550   2.509   2.159  0.3241 -0.0044  0.0438
 3456SOL    HW110570   0.608   2.527   2.234  1.0781  0.9089 -0.7381
 3456SOL    HW210571   0.574   2.420   2.132 -0.6863 -0.7667  1.5060
 3457SOL     OW10572   1.861   3.799   1.884  0.2188  0.2963  0.3068
 3457SOL    HW110573   1.769   3.823   1.879  0.9183  3.0553 -1.3942
 3457SOL    HW210574   1.883   3.807   1.976 -0.7613  1.8109  0.4455
 3458SOL     OW10575   4.060   2.417   0.889  0.0162  0.3926  0.5561
 3458SOL    HW110576   4.020   2.336   0.921  0.2867  0.9345  2.3494
 3458SOL    HW210577   4.018   2.433   0.804 -0.8830 -0.9873  0.7165
 3459SOL     OW10578   1.174   1.522   2.492  0.2404  0.1945  0.1636
 3459SOL    HW110579   1.201   1.596   2.547  2.1703 -0.9829  0.9240
 3459SOL    HW210580   1.241   1.519   2.423 -2.1158  1.6290 -2.3684
 3460SOL     OW10581   1.121   4.686   1.407 -0.6611  0.2867 -0.2151
 3460SOL    HW110582   1.161   4.758   1.455  0.9313  0.3613 -1.5890
 3460SOL    HW210583   1.070   4.729   1.337  1.0468  0.1332 -1.6213
 3461SOL     OW10584   3.215   3.886   3.646 -0.4624  0.1474 -0.9754
 3461SOL    HW110585   3.208   3.968   3.598 -0.8732  0.5463 -0.2566
 3461SOL    HW210586   3.283   3.836   3.601  0.1592  1.1022 -1.1035
 3462SOL     OW10587   2.717   3.996   4.042  0.1563 -0.6226 -0.0135
 3462SOL    HW110588   2.663   3.921   4.016 -1.9485  0.8627 -0.1870
 3462SOL    HW210589   2.681   4.024   4.125  0.6448  0.4494 -0.1461
 3463SOL     OW10590   2.111   1.195   3.755 -0.2755  0.5765  0.3584
 3463SOL    HW110591   2.138   1.118   3.705 -0.4352 -0.1122  1.2879
 3463SOL    HW210592   2.075   1.255   3.690 -1.3809 -0.6840 -0.2492
 3464SOL     OW10593   1.207   2.710   1.215 -0.3094 -0.3161 -0.0553
 3464SOL    HW110594   1.177   2.647   1.281  1.2008 -0.9756  0.0342
 3464SOL    HW210595   1.161   2.685   1.135 -1.4833 -0.0633  0.5197
 3465SOL     OW10596   0.582   3.418   4.664 -0.0673 -0.5646 -0.3918
 3465SOL    HW110597   0.621   3.505   4.672 -1.5482  0.0972  0.0845
 3465SOL    HW210598   0.635   3.374   4.598  3.0513 -0.6637  1.9340
 3466SOL     OW10599   0.775   0.170   0.603 -0.0416  0.7921  0.5675
 3466SOL    HW110600   0.707   0.149   0.539  0.9866  0.9193 -0.5994
 3466SOL    HW210601   0.727   0.189   0.684 -1.3158 -0.3304  0.1067
 3467SOL     OW10602   0.955   1.696   1.158 -0.4457  0.2081 -0.5286
 3467SOL    HW110603   1.018   1.703   1.086 -2.2057  2.2797 -1.9879
 3467SOL    HW210604   0.959   1.604   1.184  0.0338 -0.7273 -3.5221
 3468SOL     OW10605   4.686   2.818   4.696  1.3305 -0.5256 -0.4154
 3468SOL    HW110606   4.637   2.738   4.676  0.2164  0.1922 -0.5943
 3468SOL    HW210607   4.640   2.857   4.770  1.3964  0.3625 -0.8271
 3469SOL     OW10608   1.519   1.013   2.844  1.0182 -0.0306 -0.4980
 3469SOL    HW110609   1.476   0.939   2.802  1.5261  0.5278 -2.0981
 3469SOL    HW210610   1.463   1.088   2.825  1.7190  0.3845 -1.0106
 3470SOL     OW10611   3.645   2.044   3.326 -0.3559  0.4037  0.0561
 3470SOL    HW110612   3.652   2.139   3.316 -0.3927  0.5315  1.0796
 3470SOL    HW210613   3.687   2.026   3.410 -0.6084 -0.4470  0.0067
 3471SOL     OW10614   1.072   0.306   1.467 -0.1978 -0.3610  0.1241
 3471SOL    HW110615   1.117   0.390   1.453  0.2875 -0.4839  0.9033
 3471SOL    HW210616   1.068   0.296   1.562  1.3818 -2.0689  0.0693
 3472SOL     OW10617   0.793   1.772   3.148  0.1434 -0.1397  0.2050
 3472SOL    HW110618   0.810   1.825   3.070  1.5009  0.9839  1.2186
 3472SOL    HW210619   0.809   1.682   3.119  0.6295  0.2524 -0.8062
 3473SOL     OW10620   3.916   3.510   2.029 -0.5157 -0.3951 -0.6512
 3473SOL    HW110621   3.958   3.595   2.020 -0.2621 -0.5409 -0.8841
 3473SOL    HW210622   3.970   3.451   1.976  0.4245 -1.0938  0.9990
 3474SOL     OW10623   2.466   1.230   4.452  0.4351 -0.1142  0.5005
 3474SOL    HW110624   2.389   1.173   4.459 -1.3063  1.9036 -1.0693
 3474SOL    HW210625   2.515   1.195   4.377  0.9435 -1.2309  1.3278
 3475SOL     OW10626   3.731   2.009   2.395 -0.1416 -0.6183 -0.1220
 3475SOL    HW110627   3.804   2.051   2.349  1.0218  0.8047  2.7492
 3475SOL    HW210628   3.664   1.998   2.328  1.7843  0.2589 -2.3656
 3476SOL     OW10629   0.850   0.406   3.114 -0.1038  0.7720 -0.5653
 3476SOL    HW110630   0.837   0.441   3.026 -1.4879  0.4755 -0.5054
 3476SOL    HW210631   0.911   0.334   3.103 -1.3261 -0.1654 -1.5243
 3477SOL     OW10632   2.403   0.935   3.386  0.3403 -0.2912  0.4454
 3477SOL    HW110633   2.477   0.935   3.326  0.3882  2.6462  0.3836
 3477SOL    HW210634   2.372   1.025   3.387 -2.0736 -1.0236  1.9344
 3478SOL     OW10635   0.388   1.106   4.458  0.3102 -0.2674 -0.0004
 3478SOL    HW110636   0.305   1.085   4.500  0.6866  0.3011  1.0702
 3478SOL    HW210637   0.400   1.200   4.475  0.1699  0.1495 -1.9511
 3479SOL     OW10638   2.477   2.012   3.395 -0.5773 -0.2796 -0.3108
 3479SOL    HW110639   2.454   1.999   3.487 -2.1271  0.1411 -0.6126
 3479SOL    HW210640   2.468   1.925   3.355 -0.7414 -0.2976 -0.2343
 3480SOL     OW10641   0.924   4.178   4.467 -0.1227  0.5519  0.0127
 3480SOL    HW110642   0.852   4.115   4.470  0.4009 -0.0992 -0.5770
 3480SOL    HW210643   0.987   4.144   4.531 -0.4339  1.2506  0.6994
 3481SOL     OW10644   2.313   1.804   3.207 -0.1800 -0.4263  0.2527
 3481SOL    HW110645   2.351   1.759   3.131  2.3114 -1.9601  2.2743
 3481SOL    HW210646   2.302   1.736   3.273  1.5573  1.4230  2.6445
 3482SOL     OW10647   1.330   3.764   2.201 -0.7163  0.4843  0.1254
 3482SOL    HW110648   1.397   3.781   2.135 -0.4141 -3.1658 -0.7509
 3482SOL    HW210649   1.248   3.763   2.153 -0.7081 -0.4112  0.1127
 3483SOL     OW10650   3.812   3.908   2.219 -0.1082  0.0767 -0.4358
 3483SOL    HW110651   3.870   3.832   2.212 -0.0895  0.1231 -0.8140
 3483SOL    HW210652   3.857   3.967   2.279 -0.4519 -0.5065  0.4137
 3484SOL     OW10653   4.347   0.356   0.928 -0.6170 -0.5434 -0.2482
 3484SOL    HW110654   4.426   0.310   0.901 -1.0197 -1.5779  0.2524
 3484SOL    HW210655   4.362   0.447   0.903  0.2592 -0.9197 -1.1619
 3485SOL     OW10656   4.301   3.752   1.690  1.0218  0.1003 -0.1504
 3485SOL    HW110657   4.347   3.827   1.729  0.8811 -1.2471  2.8901
 3485SOL    HW210658   4.219   3.789   1.657  1.4785  1.4755  0.1817
 3486SOL     OW10659   0.130   4.731   4.358 -0.2555  0.6018  0.0402
 3486SOL    HW110660   0.099   4.787   4.429 -1.1473  0.0262  0.1147
 3486SOL    HW210661   0.102   4.775   4.278  0.9708  1.3813  0.0206
 3487SOL     OW10662   1.798   0.723   0.388 -0.0223 -0.7433  0.4000
 3487SOL    HW110663   1.713   0.755   0.420 -0.7696 -0.8659 -1.3232
 3487SOL    HW210664   1.859   0.795   0.403 -0.5491 -0.4512  1.1825
 3488SOL     OW10665   1.603   0.541   1.942  0.0030 -0.4934 -0.0641
 3488SOL    HW110666   1.612   0.448   1.919  1.9390  0.0594 -1.9154
 3488SOL    HW210667   1.693   0.572   1.952 -0.6437  0.7724  2.6336
 3489SOL     OW10668   3.410   3.749   2.121 -0.3764  0.9498 -0.5679
 3489SOL    HW110669   3.396   3.791   2.036 -0.8816 -1.5375 -1.8054
 3489SOL    HW210670   3.488   3.696   2.109  1.0042  2.4074  1.3492
 3490SOL     OW10671   4.284   4.138   3.798 -0.0715 -0.3368 -0.9597
 3490SOL    HW110672   4.228   4.064   3.823 -0.9205  0.5799 -0.0664
 3490SOL    HW210673   4.226   4.214   3.800  1.0605  0.5442 -0.6325
 3491SOL     OW10674   0.127   3.491   3.621  0.6787 -0.0224 -0.1096
 3491SOL    HW110675   0.072   3.512   3.696 -1.4847  1.4285 -1.9480
 3491SOL    HW210676   0.131   3.396   3.619 -1.8293 -0.1807  0.1093
 3492SOL     OW10677   2.834   3.700   2.902 -0.5709  0.6600 -1.2096
 3492SOL    HW110678   2.886   3.767   2.856  0.1385  0.3506 -0.8829
 3492SOL    HW210679   2.763   3.749   2.943 -0.4825  1.1106 -1.5778
 3493SOL     OW10680   1.936   0.746   1.897 -0.6358 -0.6430  0.0261
 3493SOL    HW110681   1.892   0.773   1.978  0.8481 -0.6114  0.8643
 3493SOL    HW210682   1.928   0.651   1.896  0.7925 -0.8148  1.1421
 3494SOL     OW10683   1.266   0.605   4.758  0.6897 -0.4608 -0.1101
 3494SOL    HW110684   1.188   0.608   4.815 -1.4550 -2.3451 -2.6981
 3494SOL    HW210685   1.306   0.521   4.778 -0.0111 -1.0810 -1.2301
 3495SOL     OW10686   4.262   1.147   2.265  0.0256  0.6509 -0.4004
 3495SOL    HW110687   4.217   1.160   2.182  0.8268 -1.8595 -1.3195
 3495SOL    HW210688   4.335   1.208   2.263 -1.5534  2.6353 -0.2081
 3496SOL     OW10689   0.842   0.636   0.842 -0.1291  0.6571 -0.3569
 3496SOL    HW110690   0.849   0.666   0.751 -0.2864 -0.3497 -0.7076
 3496SOL    HW210691   0.749   0.619   0.854  0.0179 -0.0955 -0.2894
 3497SOL     OW10692   1.109   3.644   3.916  0.2282  0.0910 -0.1397
 3497SOL    HW110693   1.125   3.698   3.839  0.2223  0.5579  0.1833
 3497SOL    HW210694   1.101   3.707   3.988 -1.6387 -0.2003 -0.0411
 3498SOL     OW10695   3.495   4.138   0.861  0.2267 -0.1764 -0.6818
 3498SOL    HW110696   3.425   4.076   0.841  0.2509 -0.8940  1.2955
 3498SOL    HW210697   3.572   4.083   0.878  0.3201  0.3866  0.8278
 3499SOL     OW10698   2.549   0.183   2.293  0.0017  0.0278  0.4987
 3499SOL    HW110699   2.464   0.217   2.264  0.7142  0.8877 -0.6918
 3499SOL    HW210700   2.544   0.089   2.276 -0.6092  0.1087  0.1867
 3500SOL     OW10701   1.486   3.566   3.034  0.0215 -0.2034  0.3380
 3500SOL    HW110702   1.559   3.532   2.981 -0.6122 -1.9176  0.4899
 3500SOL    HW210703   1.468   3.652   2.998 -1.1489 -1.7017 -3.1143
 3501SOL     OW10704   2.861   4.290   1.331 -0.6268  0.1486 -0.3150
 3501SOL    HW110705   2.842   4.239   1.253  0.7321  1.5879 -1.6511
 3501SOL    HW210706   2.953   4.273   1.349 -0.5534  0.9280  0.1126
 3502SOL     OW10707   3.422   1.320   0.974  0.0112 -0.0520  0.1586
 3502SOL    HW110708   3.365   1.397   0.977  0.2564  0.2622 -1.8283
 3502SOL    HW210709   3.458   1.314   1.062 -1.3694  1.0623  0.8416
 3503SOL     OW10710   2.206   4.629   0.502  0.1597  0.0937  0.4396
 3503SOL    HW110711   2.165   4.556   0.548 -1.5175  2.2279  2.5598
 3503SOL    HW210712   2.215   4.598   0.412  1.3004 -3.3701  1.5737
 3504SOL     OW10713   0.715   3.482   1.909 -0.0840  0.2864 -0.5128
 3504SOL    HW110714   0.737   3.449   1.996 -1.3977 -0.3389 -0.3971
 3504SOL    HW210715   0.776   3.438   1.850 -0.7568 -1.1618 -0.1675
 3505SOL     OW10716   2.925   0.354   4.251  0.0031 -0.4858  0.1622
 3505SOL    HW110717   2.850   0.342   4.193  0.6750  0.3625 -0.9202
 3505SOL    HW210718   2.928   0.274   4.303  0.0287 -1.7623 -1.7257
 3506SOL     OW10719   3.527   1.143   2.152 -0.0372 -0.3564 -0.1880
 3506SOL    HW110720   3.476   1.211   2.197 -0.0630 -1.0937  0.9530
 3506SOL    HW210721   3.461   1.089   2.108 -0.2401 -1.0705  0.9503
 3507SOL     OW10722   4.608   0.934   3.390  0.0365  0.8180 -0.7208
 3507SOL    HW110723   4.556   0.961   3.315 -0.7028 -1.6150 -1.1802
 3507SOL    HW210724   4.602   0.839   3.390  1.2173  0.6748  1.5953
 3508SOL     OW10725   4.277   1.696   3.791  0.9554  0.3868 -0.1700
 3508SOL    HW110726   4.365   1.665   3.771  0.5282 -1.6391  0.8681
 3508SOL    HW210727   4.290   1.787   3.819  2.6138  0.3480 -0.7000
 3509SOL     OW10728   4.791   3.404   2.756 -0.7269 -0.6206  0.4957
 3509SOL    HW110729   4.810   3.357   2.837  0.0262  1.3853  1.5478
 3509SOL    HW210730   4.875   3.406   2.710 -1.1137 -1.6004 -0.3064
 3510SOL     OW10731   4.587   3.467   3.680 -0.5499 -0.1273  0.1457
 3510SOL    HW110732   4.504   3.445   3.723 -0.1936 -0.2427  0.7930
 3510SOL    HW210733   4.647   3.484   3.753 -0.0331  0.0531 -0.3206
 3511SOL     OW10734   4.821   4.063   0.585  0.4861  0.0561  0.3966
 3511SOL    HW110735   4.904   4.049   0.539  0.6070  2.8756 -0.4685
 3511SOL    HW210736   4.842   4.130   0.651 -1.2372  1.5846 -0.5025
 3512SOL     OW10737   2.136   0.987   2.430 -0.2602  0.5714 -0.0580
 3512SOL    HW110738   2.214   0.934   2.418 -0.5594 -0.0787  0.7567
 3512SOL    HW210739   2.090   0.984   2.346 -0.6557 -1.1068  0.1860
 3513SOL     OW10740   4.211   1.564   1.899 -0.3208 -0.2533  0.0103
 3513SOL    HW110741   4.249   1.600   1.979 -0.0066  0.3997 -0.4264
 3513SOL    HW210742   4.184   1.640   1.848  1.0731 -0.5882 -1.2815
 3514SOL     OW10743   1.629   3.506   0.168 -0.4607 -0.0668  0.2026
 3514SOL    HW110744   1.550   3.466   0.133 -0.8386 -0.5888  1.6019
 3514SOL    HW210745   1.608   3.600   0.174 -1.2247 -0.2901  1.1874
 3515SOL     OW10746   3.362   2.988   1.207 -0.1468 -0.2142  0.2716
 3515SOL    HW110747   3.391   2.923   1.271  0.7444  1.3271  1.4826
 3515SOL    HW210748   3.397   2.956   1.124  2.0015 -0.2705  1.1440
 3516SOL     OW10749   2.854   2.160   0.525  0.1885 -0.0986 -0.0548
 3516SOL    HW110750   2.931   2.195   0.479  0.1641 -0.3413 -0.2880
 3516SOL    HW210751   2.876   2.069   0.542 -0.2406 -0.3029 -0.5606
 3517SOL     OW10752   2.747   3.253   1.213  0.2478 -0.0214 -0.0183
 3517SOL    HW110753   2.818   3.192   1.231  0.2484  0.4418  1.7486
 3517SOL    HW210754   2.667   3.202   1.227  0.2001 -0.3916 -1.4684
 3518SOL     OW10755   2.116   0.157   4.385  0.6293 -0.1254  0.1738
 3518SOL    HW110756   2.079   0.150   4.297  0.3678 -1.7646  0.3694
 3518SOL    HW210757   2.103   0.248   4.410  1.0522  0.4720 -1.6232
 3519SOL     OW10758   4.052   1.251   3.408  0.9641 -0.3637  0.3587
 3519SOL    HW110759   4.101   1.302   3.343 -1.5899  1.4391 -0.2934
 3519SOL    HW210760   4.038   1.312   3.480  0.1109 -0.9799  0.7290
 3520SOL     OW10761   1.689   2.211   0.598  0.1280 -0.3465 -0.3281
 3520SOL    HW110762   1.652   2.296   0.576  1.4389  0.7782  1.5300
 3520SOL    HW210763   1.613   2.154   0.608 -0.9155  1.0969  0.3097
 3521SOL     OW10764   1.210   1.989   2.337 -0.5617  0.3697 -0.1643
 3521SOL    HW110765   1.212   1.995   2.242  1.3155 -0.3792 -0.2133
 3521SOL    HW210766   1.300   1.968   2.362 -1.1604 -0.1792  1.7292
 3522SOL     OW10767   1.771   2.668   2.661 -0.1824  0.0522 -0.2073
 3522SOL    HW110768   1.804   2.746   2.615 -0.1465  0.3367  0.2935
 3522SOL    HW210769   1.686   2.695   2.695 -0.1377 -0.1051  0.0305
 3523SOL     OW10770   2.045   0.473   2.830  0.3750 -0.4368 -0.1932
 3523SOL    HW110771   2.122   0.446   2.880  0.1653 -0.6347  0.0267
 3523SOL    HW210772   2.066   0.561   2.800  0.4150 -0.2327  0.4188
 3524SOL     OW10773   4.793   4.416   2.804 -0.5469  0.6743 -0.1935
 3524SOL    HW110774   4.837   4.422   2.889  1.5157  0.5344 -1.1967
 3524SOL    HW210775   4.799   4.324   2.780  0.2898  0.9644 -1.1723
 3525SOL     OW10776   2.265   4.530   3.875  0.0573  0.3804 -0.1195
 3525SOL    HW110777   2.213   4.566   3.803  0.1968  1.6803  0.4025
 3525SOL    HW210778   2.236   4.438   3.881  0.6553 -0.0184 -2.3537
 3526SOL     OW10779   0.946   3.161   3.683  0.0835  0.2667  0.2146
 3526SOL    HW110780   0.953   3.191   3.774  1.5158 -0.9633  0.5414
 3526SOL    HW210781   0.950   3.065   3.689 -2.9919 -0.0448 -0.9018
 3527SOL     OW10782   3.641   4.579   4.422 -0.3634  0.4705  0.3274
 3527SOL    HW110783   3.586   4.501   4.408 -0.4409 -0.0804  3.0526
 3527SOL    HW210784   3.670   4.571   4.513  2.1382  2.1040 -0.2264
 3528SOL     OW10785   1.920   2.797   0.345 -0.5682  0.1905  0.2704
 3528SOL    HW110786   1.942   2.890   0.334 -2.4543  1.0094  2.5561
 3528SOL    HW210787   1.836   2.787   0.300  0.2644 -0.8219 -1.1604
 3529SOL     OW10788   4.445   4.768   0.342  0.0861  0.3967  0.4652
 3529SOL    HW110789   4.353   4.796   0.345 -0.0430 -0.0953  1.1712
 3529SOL    HW210790   4.440   4.672   0.338  0.5814  0.3459  1.0628
 3530SOL     OW10791   2.090   3.737   0.397 -0.0859 -0.1407 -0.0479
 3530SOL    HW110792   2.092   3.801   0.326  0.5265  0.6479  0.6510
 3530SOL    HW210793   2.161   3.764   0.455  0.7497 -1.9802 -0.1554
 3531SOL     OW10794   3.321   4.717   0.268  0.5570  0.3880 -0.3955
 3531SOL    HW110795   3.400   4.689   0.315 -0.1350  0.9990  1.2005
 3531SOL    HW210796   3.302   4.644   0.208  0.2749 -1.4610  1.8056
 3532SOL     OW10797   1.888   1.462   0.450 -0.7097  0.2963  0.7174
 3532SOL    HW110798   1.896   1.455   0.545 -1.7778 -0.8156  0.7501
 3532SOL    HW210799   1.863   1.554   0.434  0.1008  0.6542  1.4398
 3533SOL     OW10800   1.498   0.766   1.073 -0.1556 -0.4768 -0.0634
 3533SOL    HW110801   1.513   0.677   1.041  0.5873 -0.0878 -0.8558
 3533SOL    HW210802   1.584   0.796   1.101 -0.1994  0.3351 -0.7507
 3534SOL     OW10803   0.754   4.607   0.689 -0.4161 -0.0242  0.3996
 3534SOL    HW110804   0.740   4.631   0.597  0.6795  0.7747  0.4280
 3534SOL    HW210805   0.792   4.519   0.685 -1.0834 -0.3093  0.1310
 3535SOL     OW10806   3.858   0.397   3.017 -0.0185  0.2333 -0.2401
 3535SOL    HW110807   3.912   0.323   3.044  0.4818  1.0244  1.0288
 3535SOL    HW210808   3.912   0.447   2.956  0.6968  0.9838  0.9707
 3536SOL     OW10809   2.316   2.426   2.019  0.1921 -0.3278 -0.5841
 3536SOL    HW110810   2.374   2.460   2.088 -0.1688  0.4250 -0.6432
 3536SOL    HW210811   2.356   2.455   1.938 -1.1259  1.6457 -0.5807
 3537SOL     OW10812   0.945   3.515   0.131 -0.0850  0.0894 -0.1771
 3537SOL    HW110813   0.971   3.578   0.198 -0.6390 -0.0757  0.2078
 3537SOL    HW210814   0.966   3.429   0.169 -1.3563 -0.0583  0.2422
 3538SOL     OW10815   3.649   2.808   3.332  0.3608 -0.1340 -0.3519
 3538SOL    HW110816   3.628   2.900   3.318 -0.2093 -0.4719 -2.0267
 3538SOL    HW210817   3.716   2.808   3.399 -1.0336  1.3600  1.1226
 3539SOL     OW10818   0.562   0.153   2.260  0.1327  0.3663 -0.6824
 3539SOL    HW110819   0.572   0.232   2.314  1.0357 -0.6718  0.7475
 3539SOL    HW210820   0.567   0.081   2.323 -5.2493 -0.8739 -1.2117
 3540SOL     OW10821   0.519   0.479   4.618 -0.3075 -0.3442  0.0703
 3540SOL    HW110822   0.498   0.460   4.709 -2.8919 -0.1746 -0.4154
 3540SOL    HW210823   0.441   0.452   4.569  1.4308 -1.5397 -2.2649
 3541SOL     OW10824   0.710   0.659   2.570  0.4216  0.2921 -0.0378
 3541SOL    HW110825   0.774   0.695   2.509  1.2240  1.6956  1.5618
 3541SOL    HW210826   0.734   0.567   2.578  0.7680  0.2605 -1.2198
 3542SOL     OW10827   2.727   2.430   0.923 -0.4570  0.4601  0.5807
 3542SOL    HW110828   2.737   2.516   0.963 -2.2837  1.0388 -0.1123
 3542SOL    HW210829   2.709   2.448   0.830 -0.4692 -0.6872  0.3432
 3543SOL     OW10830   3.783   1.134   3.874  0.1329  0.5152  0.0896
 3543SOL    HW110831   3.742   1.061   3.920  1.3022  1.4342  2.8444
 3543SOL    HW210832   3.867   1.099   3.844  1.2468  0.8865  2.4701
 3544SOL     OW10833   4.514   2.943   4.503 -0.1031 -0.3068  0.6360
 3544SOL    HW110834   4.592   2.888   4.508  0.5122  0.4919  0.0585
 3544SOL    HW210835   4.548   3.031   4.490 -1.1261 -0.1784 -1.6344
 3545SOL     OW10836   2.469   2.861   1.858 -0.3181  0.1490 -0.7390
 3545SOL    HW110837   2.375   2.846   1.872  0.0472 -1.4235  0.3025
 3545SOL    HW210838   2.483   2.952   1.886 -1.3430  0.0346  0.2268
 3546SOL     OW10839   1.590   2.584   3.331  0.2391  0.0866  0.2541
 3546SOL    HW110840   1.543   2.625   3.258  0.7948  0.7875  0.2852
 3546SOL    HW210841   1.612   2.496   3.298  1.1315  0.6467 -0.7135
 3547SOL     OW10842   3.089   4.471   2.171 -0.4270 -0.3480 -0.5404
 3547SOL    HW110843   3.037   4.393   2.151  1.1945 -1.2624 -1.4610
 3547SOL    HW210844   3.139   4.487   2.091  0.9813  0.2295  0.4112
 3548SOL     OW10845   2.031   2.456   4.100 -0.1460  0.6117 -0.2391
 3548SOL    HW110846   2.120   2.438   4.128  0.9346  1.0254 -3.1083
 3548SOL    HW210847   1.977   2.392   4.148  1.9975 -1.4196 -0.3834
 3549SOL     OW10848   1.706   0.583   4.806 -0.6078  0.6520  0.1951
 3549SOL    HW110849   1.731   0.626   4.724  0.1902  0.2615  0.2160
 3549SOL    HW210850   1.698   0.491   4.783 -0.6932  0.5856  0.4888
 3550SOL     OW10851   4.566   2.297   4.008 -0.8302  0.3852  0.5485
 3550SOL    HW110852   4.633   2.241   3.970 -1.9514 -1.0373  0.5865
 3550SOL    HW210853   4.539   2.354   3.936 -0.9952 -0.4118 -0.0263
 3551SOL     OW10854   1.358   1.795   1.229  0.1341 -0.1752  0.5899
 3551SOL    HW110855   1.391   1.883   1.244  1.8617 -0.5296 -0.9341
 3551SOL    HW210856   1.266   1.799   1.258  0.4293  1.8405  1.3995
 3552SOL     OW10857   1.365   3.797   1.142 -0.1638  0.0890  1.0622
 3552SOL    HW110858   1.341   3.705   1.143  0.3749 -0.0779  0.1969
 3552SOL    HW210859   1.297   3.841   1.193 -1.2363 -0.6072  0.2655
 3553SOL     OW10860   4.659   4.397   3.062  0.0484  0.0287  0.1985
 3553SOL    HW110861   4.614   4.348   2.994  1.1339 -1.5937  0.5996
 3553SOL    HW210862   4.596   4.404   3.133 -0.4525  0.1147 -0.2466
 3554SOL     OW10863   3.424   3.623   3.888 -0.2334  0.6784  0.3422
 3554SOL    HW110864   3.341   3.666   3.908 -1.8136 -1.8556 -0.3022
 3554SOL    HW210865   3.401   3.553   3.827  2.6384  0.8381 -1.1240
 3555SOL     OW10866   3.614   4.671   3.998 -0.2487 -0.1412  0.2166
 3555SOL    HW110867   3.559   4.680   3.920  0.8606  0.2471 -0.5431
 3555SOL    HW210868   3.699   4.642   3.964  0.5222  0.9180  1.1721
 3556SOL     OW10869   2.862   1.523   3.284  0.5997  0.6984 -0.0956
 3556SOL    HW110870   2.900   1.475   3.357  0.9741  1.5801  0.2945
 3556SOL    HW210871   2.921   1.505   3.211 -0.1346 -0.7220 -0.3774
 3557SOL     OW10872   0.631   3.670   4.777  0.6689  0.5535  0.1278
 3557SOL    HW110873   0.628   3.615   4.855 -0.5542 -2.3824 -1.8325
 3557SOL    HW210874   0.601   3.756   4.807 -1.3519 -0.8682  2.5859
 3558SOL     OW10875   3.345   0.062   1.445 -0.1385 -0.0004  0.6172
 3558SOL    HW110876   3.293   0.002   1.391  0.4082 -0.2386  0.3406
 3558SOL    HW210877   3.386   0.121   1.382  1.4993 -1.0556  0.6191
 3559SOL     OW10878   2.626   1.093   1.379 -0.3172 -0.2222  0.3893
 3559SOL    HW110879   2.538   1.059   1.367 -0.6119  0.6757 -0.0565
 3559SOL    HW210880   2.644   1.143   1.299  0.8011 -0.8187  0.2379
 3560SOL     OW10881   2.325   1.458   3.051  0.2625 -0.2438  0.3044
 3560SOL    HW110882   2.411   1.424   3.074 -0.4302 -2.0277  0.4395
 3560SOL    HW210883   2.290   1.394   2.990 -1.0557  0.3455  0.4100
 3561SOL     OW10884   4.664   1.910   1.324  0.2203  0.6578  0.0181
 3561SOL    HW110885   4.746   1.870   1.294  0.7092  1.3948  0.3297
 3561SOL    HW210886   4.602   1.892   1.254  0.6555  0.1192 -0.2417
 3562SOL     OW10887   1.135   3.767   2.012 -0.3600  0.0026  1.1340
 3562SOL    HW110888   1.071   3.697   1.999 -1.4752  0.8669  1.7295
 3562SOL    HW210889   1.168   3.786   1.925 -1.4883  0.0407  0.6994
 3563SOL     OW10890   4.445   1.130   1.892  0.5079  0.1287 -0.5875
 3563SOL    HW110891   4.430   1.223   1.909 -0.4630  0.7466 -4.0249
 3563SOL    HW210892   4.529   1.127   1.847  0.9087 -0.7892  0.1890
 3564SOL     OW10893   1.534   4.063   3.112  0.3362 -0.2650  0.5081
 3564SOL    HW110894   1.480   4.071   3.191 -0.1335 -0.2316  0.1940
 3564SOL    HW210895   1.553   4.153   3.086  1.7245 -0.2862  1.3937
 3565SOL     OW10896   0.624   4.533   2.204  0.3009 -0.1569 -0.2088
 3565SOL    HW110897   0.590   4.493   2.284 -0.3128  3.4261  1.5221
 3565SOL    HW210898   0.573   4.613   2.193  0.7594 -0.2027 -3.9445
 3566SOL     OW10899   0.251   4.287   2.674 -0.3584 -0.2313  0.4507
 3566SOL    HW110900   0.188   4.303   2.604  0.8744  1.2289 -0.3786
 3566SOL    HW210901   0.202   4.236   2.739 -2.2813  0.5554 -0.3100
 3567SOL     OW10902   4.032   0.106   1.438 -0.1259  0.1397  0.2943
 3567SOL    HW110903   4.063   0.176   1.381 -1.1813  0.5184  0.1739
 3567SOL    HW210904   3.939   0.096   1.417  0.1044 -1.6818 -0.0872
 3568SOL     OW10905   4.356   1.863   1.572  0.1590 -0.3083 -0.5340
 3568SOL    HW110906   4.427   1.879   1.634 -1.2371  0.7549  0.8542
 3568SOL    HW210907   4.358   1.939   1.514  0.3161 -0.4229 -0.6825
 3569SOL     OW10908   2.268   0.988   0.973 -0.4428  0.2001  0.1356
 3569SOL    HW110909   2.221   0.913   1.008 -1.9323  0.4663 -1.1858
 3569SOL    HW210910   2.360   0.961   0.971 -1.0623 -2.0645 -1.4469
 3570SOL     OW10911   0.857   0.527   3.998 -0.2649 -0.6647 -0.1440
 3570SOL    HW110912   0.904   0.476   3.932 -1.9549  0.5800 -2.4684
 3570SOL    HW210913   0.894   0.615   3.991 -0.2942 -0.5735  0.7622
 3571SOL     OW10914   1.450   2.046   1.956 -0.2130 -0.1867 -0.0199
 3571SOL    HW110915   1.390   2.100   1.904  2.6066  2.9934 -0.2602
 3571SOL    HW210916   1.449   1.961   1.911 -1.4509  0.9775 -2.4228
 3572SOL     OW10917   1.065   3.197   4.471  0.3774  0.2878  0.3828
 3572SOL    HW110918   1.043   3.245   4.551  1.0579  1.9486 -0.3860
 3572SOL    HW210919   0.981   3.189   4.425  0.1629  0.2276  0.7751
 3573SOL     OW10920   4.461   1.132   3.767 -0.4551  0.9523  0.0577
 3573SOL    HW110921   4.518   1.146   3.692  0.0088 -1.9517 -0.2390
 3573SOL    HW210922   4.443   1.038   3.767 -3.1191  1.3344  1.6964
 3574SOL     OW10923   0.603   2.648   3.782  0.1714  0.4740  0.0361
 3574SOL    HW110924   0.635   2.582   3.843  1.4709  1.2353  0.2162
 3574SOL    HW210925   0.621   2.732   3.826  0.9701  1.0289 -1.2802
 3575SOL     OW10926   3.321   0.965   2.948  0.5452  0.0631  0.0115
 3575SOL    HW110927   3.416   0.961   2.957  0.4844 -0.7512  0.4241
 3575SOL    HW210928   3.305   0.979   2.855  1.0960  2.1237  0.1846
 3576SOL     OW10929   1.232   2.644   3.578 -0.6566  0.1145  0.0751
 3576SOL    HW110930   1.238   2.609   3.666  0.6319 -1.5240 -0.6100
 3576SOL    HW210931   1.244   2.739   3.589  0.3583 -0.1613  1.5804
 3577SOL     OW10932   3.192   2.485   0.336  0.1705 -0.1261 -0.0489
 3577SOL    HW110933   3.253   2.538   0.284  0.2830  1.2347  1.3947
 3577SOL    HW210934   3.184   2.533   0.418 -2.7545 -0.3134 -0.1281
 3578SOL     OW10935   4.428   0.292   2.433  0.1853 -0.0570  0.2949
 3578SOL    HW110936   4.520   0.318   2.442  0.0163  1.2468 -1.2498
 3578SOL    HW210937   4.399   0.276   2.523  1.9900 -0.7854  0.7845
 3579SOL     OW10938   0.103   4.627   2.101  0.1046  0.1591 -0.0265
 3579SOL    HW110939   0.028   4.686   2.098  0.6812  0.8877 -0.5854
 3579SOL    HW210940   0.153   4.648   2.022 -0.7084 -2.4834 -1.3601
 3580SOL     OW10941   4.056   3.052   2.678 -0.1133  0.3323  0.4163
 3580SOL    HW110942   4.062   3.013   2.765  0.6441  1.3558  0.8314
 3580SOL    HW210943   4.100   3.136   2.685  0.1165  0.3661 -1.0001
 3581SOL     OW10944   3.906   2.615   3.333 -0.3288 -0.3815  0.1801
 3581SOL    HW110945   3.977   2.678   3.350 -0.5076  0.1713 -1.0027
 3581SOL    HW210946   3.908   2.556   3.408  1.6365 -0.6050  0.0088
 3582SOL     OW10947   3.482   2.598   1.662  0.0605  0.0340 -0.0179
 3582SOL    HW110948   3.434   2.650   1.726 -0.4004 -1.4003  0.8635
 3582SOL    HW210949   3.486   2.653   1.584 -0.6958  1.2326  0.7591
 3583SOL     OW10950   3.293   3.938   2.615  0.0478 -0.2699  0.7521
 3583SOL    HW110951   3.356   3.994   2.569  0.7898 -0.1229  1.8916
 3583SOL    HW210952   3.315   3.849   2.587 -1.3602 -0.0302 -1.3352
 3584SOL     OW10953   4.535   2.618   0.993  0.7028  0.5396 -0.6773
 3584SOL    HW110954   4.587   2.596   0.916 -2.0340  0.8565 -2.7366
 3584SOL    HW210955   4.455   2.567   0.985  0.2788  0.6217  1.9774
 3585SOL     OW10956   3.672   0.502   0.390 -0.0839  0.3763  1.0347
 3585SOL    HW110957   3.640   0.477   0.303 -0.5226 -1.9544  1.7943
 3585SOL    HW210958   3.760   0.536   0.374 -1.4825  3.5987 -0.7018
 3586SOL     OW10959   2.300   3.178   3.443 -0.1795 -0.2426 -0.0284
 3586SOL    HW110960   2.341   3.256   3.480 -0.0367 -0.6856  0.7694
 3586SOL    HW210961   2.241   3.211   3.376 -1.5045  0.6910  1.5426
 3587SOL     OW10962   0.994   1.460   1.296  0.6467 -0.0654 -0.1683
 3587SOL    HW110963   0.923   1.396   1.287  1.3296 -0.8376 -0.1468
 3587SOL    HW210964   1.016   1.458   1.389 -1.0414  2.1059  0.3800
 3588SOL     OW10965   2.582   1.926   0.429 -0.4004 -0.5672  0.4077
 3588SOL    HW110966   2.526   1.986   0.479  0.7839  1.5216 -0.6514
 3588SOL    HW210967   2.663   1.920   0.479  0.2882  0.4694 -0.5370
 3589SOL     OW10968   2.830   2.163   2.635 -0.0571  0.1943 -0.0983
 3589SOL    HW110969   2.864   2.150   2.723 -0.0180  1.4692  0.0818
 3589SOL    HW210970   2.735   2.160   2.646 -0.0687 -1.9199 -0.3839
 3590SOL     OW10971   0.442   1.383   2.359  0.3312 -0.3111 -0.3713
 3590SOL    HW110972   0.404   1.450   2.303 -0.5457 -0.6806 -0.2438
 3590SOL    HW210973   0.385   1.382   2.436  0.2247 -1.3164 -0.4523
 3591SOL     OW10974   3.838   4.214   3.712  0.0760  0.3225 -0.1044
 3591SOL    HW110975   3.794   4.129   3.713  0.8918 -0.1413 -1.3461
 3591SOL    HW210976   3.774   4.274   3.751 -0.8053 -0.7186  0.1075
 3592SOL     OW10977   2.363   1.466   4.356 -0.1679 -0.5143 -0.2315
 3592SOL    HW110978   2.383   1.395   4.417 -0.2553 -1.1115 -0.8947
 3592SOL    HW210979   2.436   1.528   4.366 -0.4477 -0.3326  0.8699
 3593SOL     OW10980   3.173   0.997   0.938  0.0742 -0.4240 -0.1382
 3593SOL    HW110981   3.161   0.933   0.868 -0.7510 -0.5638  0.1215
 3593SOL    HW210982   3.253   0.968   0.983  0.6764 -0.2638 -1.0829
 3594SOL     OW10983   2.993   3.808   3.449 -0.1503 -0.1273 -0.3846
 3594SOL    HW110984   3.031   3.848   3.527  0.7403  1.3483 -1.5296
 3594SOL    HW210985   3.060   3.748   3.417  1.1963  2.1395 -2.1446
 3595SOL     OW10986   0.620   2.327   3.715  0.1954 -0.1864 -0.1432
 3595SOL    HW110987   0.597   2.316   3.622 -0.5372  0.9688 -0.1179
 3595SOL    HW210988   0.715   2.334   3.715  0.0997  2.1350 -1.1151
 3596SOL     OW10989   2.208   3.799   2.251  0.0939 -0.1347  0.2458
 3596SOL    HW110990   2.249   3.855   2.185  0.2278 -1.1051 -0.5198
 3596SOL    HW210991   2.202   3.713   2.209 -0.9445 -0.4801  1.0543
 3597SOL     OW10992   3.303   1.831   0.625  0.4893  0.2870 -0.2274
 3597SOL    HW110993   3.350   1.807   0.705  0.5666 -1.1850 -0.6900
 3597SOL    HW210994   3.261   1.750   0.596 -1.5884  1.3436 -0.3498
 3598SOL     OW10995   0.910   2.423   1.998  0.2253 -0.3951 -0.3215
 3598SOL    HW110996   0.995   2.463   1.984  0.1776  1.0208  2.6466
 3598SOL    HW210997   0.847   2.495   1.988 -0.3018 -0.7024  0.6494
 3599SOL     OW10998   1.923   1.986   0.905 -0.4160 -0.1919 -0.0655
 3599SOL    HW110999   1.900   2.026   0.989  1.6877 -2.8064  1.9310
 3599SOL    HW211000   2.008   2.023   0.883  0.3732 -1.5965  0.5048
 3600SOL     OW11001   4.161   0.406   2.118 -0.1339  0.7385  0.0105
 3600SOL    HW111002   4.107   0.451   2.053 -0.0536 -2.4871 -2.5674
 3600SOL    HW211003   4.249   0.406   2.081  0.6826  1.6784  1.8133
 3601SOL     OW11004   3.110   1.274   4.331 -0.4089  0.1431 -0.1141
 3601SOL    HW111005   3.177   1.311   4.389 -1.2424 -0.5820  1.3883
 3601SOL    HW211006   3.059   1.217   4.388 -2.2100  0.5475 -1.2512
 3602SOL     OW11007   3.710   2.970   1.085  0.3746  0.1709 -0.3905
 3602SOL    HW111008   3.619   2.990   1.064 -0.1131 -1.2011  0.3106
 3602SOL    HW211009   3.759   3.001   1.009 -0.5553  1.7273 -0.4077
 3603SOL     OW11010   3.103   3.339   1.081 -0.8344  0.0550 -0.0059
 3603SOL    HW111011   3.192   3.328   1.049 -0.2341  1.4646  1.0580
 3603SOL    HW211012   3.048   3.330   1.003  0.2116 -0.8681 -0.6716
 3604SOL     OW11013   0.933   0.842   1.001 -0.6042  0.0029 -0.7737
 3604SOL    HW111014   0.914   0.757   0.962  1.4383  0.2741 -2.6003
 3604SOL    HW211015   0.930   0.903   0.927  2.4825  0.7059 -0.4668
 3605SOL     OW11016   2.079   3.689   3.748 -0.3092  0.2602 -0.6070
 3605SOL    HW111017   2.168   3.660   3.768  0.0691  1.9728  0.4446
 3605SOL    HW211018   2.024   3.612   3.762  1.0665 -1.0454 -2.0253
 3606SOL     OW11019   3.804   4.559   1.067  0.3398  0.5394  0.0656
 3606SOL    HW111020   3.744   4.487   1.087  1.4857 -0.5625 -0.3671
 3606SOL    HW211021   3.747   4.637   1.065 -0.9127 -0.3254  0.5871
 3607SOL     OW11022   4.784   0.418   0.228 -0.0207  0.2909 -0.3227
 3607SOL    HW111023   4.869   0.445   0.264  0.2752  0.3285 -1.0392
 3607SOL    HW211024   4.741   0.374   0.302  0.2191  1.1209  0.3321
 3608SOL     OW11025   1.033   3.689   0.371  0.1721 -0.7623  0.3074
 3608SOL    HW111026   1.034   3.763   0.311  0.6083 -0.4903  0.6497
 3608SOL    HW211027   1.123   3.682   0.404  0.4436 -2.1791 -0.6242
 3609SOL     OW11028   3.499   3.364   2.682  0.1199  0.6418  0.3058
 3609SOL    HW111029   3.507   3.455   2.713  2.1089  0.4661  0.4478
 3609SOL    HW211030   3.499   3.311   2.762  1.5089  0.4072  0.1826
 3610SOL     OW11031   3.068   2.579   3.420 -0.2172 -0.1743  0.1541
 3610SOL    HW111032   3.153   2.601   3.382  0.7414  0.2399  2.3434
 3610SOL    HW211033   3.007   2.583   3.347  1.5466  0.0732 -1.3875
 3611SOL     OW11034   3.050   0.195   0.597  0.0711 -0.3006 -0.3408
 3611SOL    HW111035   3.112   0.132   0.561 -0.1373 -0.6340 -0.1180
 3611SOL    HW211036   3.082   0.213   0.686 -0.7037 -1.2404  0.1463
 3612SOL     OW11037   0.664   3.105   1.895 -0.3365  0.4147  0.1849
 3612SOL    HW111038   0.589   3.048   1.877  0.1719 -0.4915  0.8855
 3612SOL    HW211039   0.629   3.172   1.955 -0.3326 -0.6595  1.4182
 3613SOL     OW11040   0.905   2.531   0.637  0.3906  0.3730  0.0818
 3613SOL    HW111041   0.850   2.455   0.618  0.6411  0.4125 -0.8675
 3613SOL    HW211042   0.843   2.600   0.661  0.1802 -0.1941  1.2206
 3614SOL     OW11043   1.091   0.872   1.571  0.0776  0.2408  0.2872
 3614SOL    HW111044   1.163   0.852   1.512  1.1274  2.3366  0.7671
 3614SOL    HW211045   1.115   0.829   1.654 -0.1414 -0.5704 -0.0621
 3615SOL     OW11046   0.884   1.290   2.183 -0.5381 -0.5823 -0.3264
 3615SOL    HW111047   0.911   1.327   2.267  0.4847  0.3870 -1.0418
 3615SOL    HW211048   0.792   1.268   2.194 -0.8092  0.8727  0.5970
 3616SOL     OW11049   0.143   4.780   2.462 -0.2617  0.5216  0.1673
 3616SOL    HW111050   0.193   4.827   2.395 -1.3864  0.2567 -0.8869
 3616SOL    HW211051   0.158   4.831   2.542  0.2297  1.4666 -0.5002
 3617SOL     OW11052   3.180   3.607   2.784 -0.5732  0.5349 -0.0546
 3617SOL    HW111053   3.168   3.577   2.694  0.6728 -2.3966  0.6470
 3617SOL    HW211054   3.275   3.602   2.798 -0.7271  1.1859  1.3458
 3618SOL     OW11055   4.510   2.438   3.784  0.0597 -0.5252  0.6837
 3618SOL    HW111056   4.458   2.383   3.726 -0.3615  0.5213  0.0681
 3618SOL    HW211057   4.558   2.496   3.726  0.2557 -0.0156  1.3491
 3619SOL     OW11058   2.051   0.428   1.073  0.0313  0.2869 -0.3379
 3619SOL    HW111059   2.060   0.475   0.990 -0.0632 -0.7735 -0.9626
 3619SOL    HW211060   2.130   0.374   1.078  0.9283  1.6477  1.1461
 3620SOL     OW11061   2.579   4.518   2.178 -0.0253 -0.6253 -0.2531
 3620SOL    HW111062   2.599   4.521   2.084  0.8277 -2.7199 -0.1763
 3620SOL    HW211063   2.662   4.534   2.221 -0.0580 -1.4394  0.1285
 3621SOL     OW11064   4.606   1.500   4.704 -0.5041 -0.3794 -0.6822
 3621SOL    HW111065   4.562   1.584   4.691  0.8661  0.3502 -0.8437
 3621SOL    HW211066   4.536   1.436   4.704 -1.7019  0.8599  0.4430
 3622SOL     OW11067   4.493   4.703   0.064 -0.9493 -0.7484 -0.1996
 3622SOL    HW111068   4.481   4.759   0.141 -1.2924  0.0340 -0.8046
 3622SOL    HW211069   4.484   4.763  -0.010  0.6631 -1.2484 -0.8361
 3623SOL     OW11070   3.314   2.143   1.021  0.1077  0.1013  0.3080
 3623SOL    HW111071   3.367   2.177   0.949 -0.3704  0.3834  0.0879
 3623SOL    HW211072   3.243   2.206   1.031  1.1583  1.0649  2.2428
 3624SOL     OW11073   4.714   2.910   2.159 -0.2017 -0.0976  0.0273
 3624SOL    HW111074   4.707   2.836   2.099  0.7848 -0.3940  0.2630
 3624SOL    HW211075   4.627   2.951   2.156 -0.4208 -0.5916 -0.9587
 3625SOL     OW11076   3.646   2.475   4.710 -0.4084 -0.7439 -0.1563
 3625SOL    HW111077   3.562   2.510   4.738  0.4307  1.2547  0.0926
 3625SOL    HW211078   3.625   2.416   4.638 -1.9258  1.0277 -1.2733
 3626SOL     OW11079   2.177   1.071   0.734 -0.0813  0.0977 -0.1793
 3626SOL    HW111080   2.231   1.148   0.721 -0.4711  0.4232  0.0832
 3626SOL    HW211081   2.202   1.038   0.820 -0.2751  0.2349 -0.0678
 3627SOL     OW11082   0.805   0.351   4.618 -0.0393  0.1251  0.4263
 3627SOL    HW111083   0.871   0.363   4.685  0.3837 -0.3428  0.1063
 3627SOL    HW211084   0.739   0.418   4.636  0.6120  0.7222  0.6324
 3628SOL     OW11085   3.233   1.811   3.790 -0.5510  0.3853 -0.4939
 3628SOL    HW111086   3.212   1.790   3.881 -0.4531  1.5165 -0.1968
 3628SOL    HW211087   3.272   1.731   3.755  0.5177  0.3189  0.8018
 3629SOL     OW11088   3.953   0.579   2.345 -0.2301 -0.2581 -0.4075
 3629SOL    HW111089   3.925   0.654   2.294 -1.0578 -0.5931 -0.4520
 3629SOL    HW211090   4.018   0.535   2.290  0.8827  0.8606 -0.0408
 3630SOL     OW11091   0.899   0.960   3.504 -0.3911  0.2372  0.4418
 3630SOL    HW111092   0.814   0.985   3.466 -0.8507  0.4722  1.5649
 3630SOL    HW211093   0.888   0.868   3.527  0.7071 -0.6320 -2.0958
 3631SOL     OW11094   3.546   3.205   3.516 -0.0473  0.3547  0.3469
 3631SOL    HW111095   3.634   3.243   3.507  0.6450 -1.1433  0.4314
 3631SOL    HW211096   3.532   3.159   3.433 -1.2317  1.4705 -0.1006
 3632SOL     OW11097   4.630   3.524   1.097  0.0154  0.2327  0.4678
 3632SOL    HW111098   4.667   3.607   1.127  0.2580  1.0337 -1.8133
 3632SOL    HW211099   4.695   3.490   1.035 -1.3985 -0.1360 -0.8868
 3633SOL     OW11100   1.135   3.585   1.362 -0.6919  0.2731  0.0819
 3633SOL    HW111101   1.103   3.556   1.447 -0.3978  2.0354  0.8554
 3633SOL    HW211102   1.056   3.607   1.312 -0.8236  1.0564  0.6181
 3634SOL     OW11103   3.789   0.462   2.568 -0.0415  1.1902 -0.1769
 3634SOL    HW111104   3.702   0.475   2.530  0.5649  1.2137 -1.6112
 3634SOL    HW211105   3.850   0.479   2.496  1.1289  0.4001  0.5818
 3635SOL     OW11106   3.847   3.267   0.726  0.0155  0.1378  0.1116
 3635SOL    HW111107   3.787   3.333   0.762  0.8044  0.3923  0.9923
 3635SOL    HW211108   3.815   3.252   0.637 -1.4775  0.1168  0.6265
 3636SOL     OW11109   0.197   3.645   1.231  0.0697  0.1548  0.0916
 3636SOL    HW111110   0.158   3.709   1.172 -0.7402  0.6310  1.1113
 3636SOL    HW211111   0.151   3.563   1.210 -0.8992  0.5239  0.6771
 3637SOL     OW11112   2.126   1.669   3.454  0.2963  0.0666  0.2668
 3637SOL    HW111113   2.099   1.748   3.407  2.4975  0.5854 -0.2235
 3637SOL    HW211114   2.108   1.689   3.546 -0.5495  0.5216  0.0210
 3638SOL     OW11115   2.841   3.999   3.695 -0.0358  0.4545  0.4212
 3638SOL    HW111116   2.789   3.978   3.617  1.5074 -1.1990 -0.2284
 3638SOL    HW211117   2.806   4.083   3.725 -0.9028  0.9921 -1.8652
 3639SOL     OW11118   2.640   1.982   1.459 -0.3371  0.3900  0.5747
 3639SOL    HW111119   2.648   1.935   1.543 -5.3333 -0.2369  0.9906
 3639SOL    HW211120   2.659   1.915   1.393 -1.0841 -0.4945  1.2217
 3640SOL     OW11121   0.269   4.709   1.882 -0.2165  0.4537  0.5608
 3640SOL    HW111122   0.354   4.751   1.883 -0.3695  0.7610  0.7781
 3640SOL    HW211123   0.227   4.742   1.802  0.4292 -0.8411 -0.3493
 3641NA      NA11124   2.615   1.802   0.047  0.2117  0.1141  0.3646
 3642NA      NA11125   2.713   2.228   1.008 -0.3643 -0.0757 -0.4123
 3643NA      NA11126   4.278   3.297   4.353 -0.1066  0.1119  0.0133
 3644NA      NA11127   0.871   0.892   2.118 -0.0467 -0.2976  0.2167
 3645NA      NA11128   2.255   2.606   2.589  0.0689 -0.0326  0.5028
 3646NA      NA11129   2.831   3.441   4.129  0.2941 -0.0091 -0.3484
 3647NA      NA11130   4.303   1.004   1.799 -0.3389  0.2713 -0.1012
 3648NA      NA11131   0.045   3.830   2.443 -0.0778  0.7009 -0.2212
 3649NA      NA11132   1.786   3.048   3.328  0.2073 -0.4945  0.5764
 3650NA      NA11133   4.493   4.493   0.108  0.2168 -0.0308 -0.0639
 3651CL      CL11134   4.568   2.267   1.658 -0.2377 -0.0095 -0.1598
 3652CL      CL11135   4.517   4.432   3.597  0.3194  0.0284 -0.0521
 3653CL      CL11136   0.215   0.418   4.494  0.3527  0.5565  0.2197
 3654CL      CL11137   3.749   0.717   1.595 -0.2978  0.0241 -0.1415
 3655CL      CL11138   2.088   4.546   3.274 -0.0312  0.6828  0.0075
 3656CL      CL11139   4.498   3.435   4.367  0.1210 -0.2144 -0.0717
 3657CL      CL11140   0.814   3.487   2.688 -0.0688 -0.0504  0.0197
 3658CL      CL11141   4.813   1.592   3.622 -0.1907  0.1339  0.0413
 3659CL      CL11142   1.111   1.523   4.201 -0.0739  0.3620  0.0459
 3660CL      CL11143   4.589   0.320   3.364  0.2736  0.3174  0.0665
 3661CL      CL11144   3.062   0.045   4.289  0.1486  0.3042 -0.2326
 3662CL      CL11145   1.949   1.806   3.935  0.4867 -0.2838  0.3556
 3663CL      CL11146   4.347   3.406   3.879  0.5405 -0.0796  0.3238
 3664CL      CL11147   2.800   3.228   3.312 -0.1201 -0.6188  0.2867
 3665CL      CL11148   4.233   2.634   2.649 -0.0855 -0.0192 -0.3895
 3666CL      CL11149   0.815   3.472   0.845  0.3137 -0.0709 -0.1429
 3667CL      CL11150   0.842   0.660   3.566  0.7340 -0.2538 -0.3015
 3668CL      CL11151   1.842   3.016   2.822  0.1653 -0.3569 -0.3481
 3669CL      CL11152   0.626   0.913   0.262  0.3174  0.2101 -0.0302
 3670CL      CL11153   3.900   0.813   0.076 -0.1084  0.1679 -0.0884
 3671CL      CL11154   3.776   4.511   4.745  0.2916 -0.0526  0.0400
 3672CL      CL11155   0.555   0.507   0.907  0.2274  0.1424 -0.3643
 3673CL      CL11156   1.305   0.637   4.191  0.0868 -0.0312  0.1375
 3674CL      CL11157   3.330   0.719   1.934 -0.1343  0.1162 -0.0165
   4.82255   4.82255   4.82255
